<event>
 7    1  0.5562528E-006  0.3135464E+02  0.7818608E-02  0.1590513E+00
          2   -1    0    0  502    0  0.00000000000E+00  0.00000000000E+00  0.91113603065E+03  0.91113603065E+03  0.00000000000E+00 0. -1.
          1   -1    0    0  501    0 -0.00000000000E+00 -0.00000000000E+00 -0.58242709876E+03  0.58242709876E+03  0.00000000000E+00 0. -1.
         25    2    1    2    0    0 -0.46034472223E+02 -0.25793733696E+02 -0.18855579784E+03  0.23229912414E+03  0.12500041939E+03 0.  0.
          2    1    1    2  501    0  0.30030559823E+02 -0.11470844752E+01 -0.37111598956E+03  0.37233080457E+03  0.00000000000E+00 0. -1.
          1    1    1    2  502    0  0.16003912400E+02  0.26940818171E+02  0.88838071929E+03  0.88893320070E+03  0.00000000000E+00 0. -1.
         22    1    3    3    0    0 -0.60824913598E+02 -0.54846280624E+02 -0.18124204651E+03  0.19888806912E+03  0.00000000000E+00 0. -1.
         22    1    3    3    0    0  0.14790441375E+02  0.29052546929E+02 -0.73137513213E+01  0.33411055020E+02  0.00000000000E+00 0. -1.
</event>
<event>
 7    1  0.5562528E-006  0.1613393E+03  0.7818608E-02  0.1294812E+00
          2   -1    0    0  502    0  0.00000000000E+00  0.00000000000E+00  0.92071981746E+03  0.92071981746E+03  0.00000000000E+00 0. -1.
          1   -1    0    0  501    0 -0.00000000000E+00 -0.00000000000E+00 -0.10198381874E+04  0.10198381874E+04  0.00000000000E+00 0. -1.
         25    2    1    2    0    0 -0.17816273765E+03 -0.72230768336E+01  0.63698449509E+03  0.67317756040E+03  0.12499858764E+03 0.  0.
          2    1    1    2  501    0  0.15569536873E+03 -0.41962381138E+02 -0.99241320282E+03  0.10054281946E+04  0.00000000000E+00 0. -1.
          1    1    1    2  502    0  0.22467368916E+02  0.49185457971E+02  0.25631033782E+03  0.26195224988E+03  0.00000000000E+00 0. -1.
         22    1    3    3    0    0 -0.13599133258E+02 -0.31050662363E+01  0.27688243559E+03  0.27723358563E+03  0.00000000000E+00 0. -1.
         22    1    3    3    0    0 -0.16456360439E+03 -0.41180105973E+01  0.36010205950E+03  0.39594397477E+03  0.00000000000E+00 0. -1.
</event>
<event>
 7    1  0.5562528E-006  0.5562947E+02  0.7818608E-02  0.1429843E+00
          2   -1    0    0  502    0  0.00000000000E+00  0.00000000000E+00  0.11221876513E+04  0.11221876513E+04  0.00000000000E+00 0. -1.
          1   -1    0    0  501    0 -0.00000000000E+00 -0.00000000000E+00 -0.37064079242E+03  0.37064079242E+03  0.00000000000E+00 0. -1.
         25    2    1    2    0    0  0.26300824888E+02  0.60849556771E+02  0.93987913270E+02  0.16986250053E+03  0.12500055719E+03 0.  0.
          2    1    1    2  501    0 -0.49472221462E+02 -0.10030173282E+02 -0.32999517126E+03  0.33383366835E+03  0.00000000000E+00 0. -1.
          1    1    1    2  502    0  0.23171396574E+02 -0.50819383488E+02  0.98755411686E+03  0.98913227481E+03  0.00000000000E+00 0. -1.
         22    1    3    3    0    0 -0.76752414324E+00  0.51226751324E+02 -0.17958434709E+02  0.54288806597E+02  0.00000000000E+00 0.  1.
         22    1    3    3    0    0  0.27068349031E+02  0.96228054469E+01  0.11194634798E+03  0.11557369394E+03  0.00000000000E+00 0.  1.
</event>
<event>
 7    1  0.5562528E-006  0.1058439E+03  0.7818608E-02  0.1305651E+00
          2   -1    0    0  502    0  0.00000000000E+00  0.00000000000E+00  0.67813793582E+03  0.67813793582E+03  0.00000000000E+00 0. -1.
          1   -1    0    0  501    0 -0.00000000000E+00 -0.00000000000E+00 -0.85618125311E+03  0.85618125311E+03  0.00000000000E+00 0. -1.
         25    2    1    2    0    0 -0.37583504884E+01  0.86347454548E+02 -0.26142386455E+03  0.30238549985E+03  0.12499818181E+03 0.  0.
          2    1    1    2  501    0 -0.73453413755E+02 -0.12980317931E+02 -0.56750755505E+03  0.57238860723E+03  0.00000000000E+00 0. -1.
          1    1    1    2  502    0  0.77211764244E+02 -0.73367136617E+02  0.65088810231E+03  0.65954508186E+03  0.00000000000E+00 0. -1.
         22    1    3    3    0    0  0.55986251679E+02  0.63866863817E+02 -0.11789810106E+03  0.14530450407E+03  0.00000000000E+00 0. -1.
         22    1    3    3    0    0 -0.59744602167E+02  0.22480590732E+02 -0.14352576349E+03  0.15708099577E+03  0.00000000000E+00 0. -1.
</event>
<event>
 7    1  0.5562528E-006  0.1341118E+03  0.7818608E-02  0.1230113E+00
          2   -1    0    0  502    0  0.00000000000E+00  0.00000000000E+00  0.30354819079E+04  0.30354819079E+04  0.00000000000E+00 0. -1.
          1   -1    0    0  501    0 -0.00000000000E+00 -0.00000000000E+00 -0.34682230143E+03  0.34682230143E+03  0.00000000000E+00 0. -1.
         25    2    1    2    0    0 -0.55898438642E+02 -0.84559339767E+02  0.11070664193E+03  0.19533501621E+03  0.12499956243E+03 0.  0.
          2    1    1    2  501    0  0.11632618699E+03 -0.38708463775E+02 -0.29045990498E+03  0.31527302984E+03  0.00000000000E+00 0. -1.
          1    1    1    2  502    0 -0.60427748343E+02  0.12326780354E+03  0.28684128696E+04  0.28716961633E+04  0.00000000000E+00 0. -1.
         22    1    3    3    0    0 -0.52220718181E+02 -0.11578319441E+03  0.10146084135E+03  0.16256399922E+03  0.00000000000E+00 0.  1.
         22    1    3    3    0    0 -0.36777204609E+01  0.31223854641E+02  0.92458005728E+01  0.32771016992E+02  0.00000000000E+00 0.  1.
</event>
<event>
 7    1  0.5562528E-006  0.5890334E+02  0.7818608E-02  0.1536378E+00
          2   -1    0    0  502    0  0.00000000000E+00  0.00000000000E+00  0.13075539219E+04  0.13075539219E+04  0.00000000000E+00 0. -1.
          1   -1    0    0  501    0 -0.00000000000E+00 -0.00000000000E+00 -0.16326064822E+03  0.16326064822E+03  0.00000000000E+00 0. -1.
         25    2    1    2    0    0 -0.16019811486E+02 -0.77956010911E+02  0.89081533162E+03  0.90305590002E+03  0.12499691800E+03 0.  0.
          2    1    1    2  501    0  0.18965373341E+02  0.55636525705E+02 -0.15131977435E+03  0.16233540121E+03  0.00000000000E+00 0. -1.
          1    1    1    2  502    0 -0.29455618545E+01  0.22319485205E+02  0.40479771641E+03  0.40542326890E+03  0.00000000000E+00 0. -1.
         22    1    3    3    0    0  0.16140963394E+02 -0.65551795636E+01  0.12956315652E+02  0.21710992462E+02  0.00000000000E+00 0.  1.
         22    1    3    3    0    0 -0.32160774880E+02 -0.71400831347E+02  0.87785901597E+03  0.88134490755E+03  0.00000000000E+00 0.  1.
</event>
<event>
 7    1  0.5562528E-006  0.1358839E+03  0.7818608E-02  0.1236587E+00
          2   -1    0    0  502    0  0.00000000000E+00  0.00000000000E+00  0.46279454845E+04  0.46279454845E+04  0.00000000000E+00 0. -1.
          1   -1    0    0  501    0 -0.00000000000E+00 -0.00000000000E+00 -0.14408966210E+02  0.14408966210E+02  0.00000000000E+00 0. -1.
         25    2    1    2    0    0 -0.35617374117E+02  0.32311834777E+02  0.21191731293E+04  0.21234012953E+04  0.12500262815E+03 0.  0.
          2    1    1    2  501    0  0.12287030303E+03 -0.10445864789E+03  0.60267322989E+03  0.62387798688E+03  0.00000000000E+00 0. -1.
          1    1    1    2  502    0 -0.87252928913E+02  0.72146813114E+02  0.18916901591E+04  0.18950751685E+04  0.00000000000E+00 0. -1.
         22    1    3    3    0    0 -0.41904860295E+02  0.70024827530E+02  0.91806050125E+03  0.92168030126E+03  0.00000000000E+00 0. -1.
         22    1    3    3    0    0  0.62874861777E+01 -0.37712992753E+02  0.12011126281E+04  0.12017209941E+04  0.00000000000E+00 0. -1.
</event>
<event>
 7    1  0.5562528E-006  0.1386190E+03  0.7818608E-02  0.1237883E+00
          2   -1    0    0  502    0  0.00000000000E+00  0.00000000000E+00  0.20680049438E+03  0.20680049438E+03  0.00000000000E+00 0. -1.
          1   -1    0    0  501    0 -0.00000000000E+00 -0.00000000000E+00 -0.98568810365E+03  0.98568810365E+03  0.00000000000E+00 0. -1.
         25    2    1    2    0    0  0.85774850936E+02  0.80052160124E+02 -0.23041265936E+03  0.28719452944E+03  0.12500012301E+03 0.  0.
          2    1    1    2  501    0  0.59007853207E+02 -0.92270790717E+02 -0.69226498715E+03  0.70087562235E+03  0.00000000000E+00 0. -1.
          1    1    1    2  502    0 -0.14478270414E+03  0.12218630592E+02  0.14379003724E+03  0.20441844624E+03  0.00000000000E+00 0. -1.
         22    1    3    3    0    0  0.60030370362E+02  0.41140014606E+02 -0.25617679669E+02  0.77151874114E+02  0.00000000000E+00 0.  1.
         22    1    3    3    0    0  0.25744480574E+02  0.38912145518E+02 -0.20479497969E+03  0.21004265533E+03  0.00000000000E+00 0.  1.
</event>
<event>
 7    1  0.5562528E-006  0.7003170E+02  0.7818608E-02  0.1434003E+00
          2   -1    0    0  502    0  0.00000000000E+00  0.00000000000E+00  0.10107741838E+04  0.10107741838E+04  0.00000000000E+00 0. -1.
          1   -1    0    0  501    0 -0.00000000000E+00 -0.00000000000E+00 -0.51694702176E+03  0.51694702176E+03  0.00000000000E+00 0. -1.
         25    2    1    2    0    0  0.10151713360E+03 -0.21906276079E+02 -0.81965539144E+00  0.16251639652E+03  0.12500117582E+03 0.  0.
          2    1    1    2  501    0 -0.31987232576E+02  0.22059528136E+02 -0.43310834957E+03  0.43484784500E+03  0.00000000000E+00 0. -1.
          1    1    1    2  502    0 -0.69529901024E+02 -0.15325205653E+00  0.92775516701E+03  0.93035696404E+03  0.00000000000E+00 0. -1.
         22    1    3    3    0    0  0.51324986265E+02 -0.33419257857E+02 -0.58846077754E+02  0.84935045051E+02  0.00000000000E+00 0.  1.
         22    1    3    3    0    0  0.50192147335E+02  0.11512981778E+02  0.58026422363E+02  0.77581351469E+02  0.00000000000E+00 0.  1.
</event>
<event>
 7    1  0.5562528E-006  0.8002533E+02  0.7818608E-02  0.1346021E+00
          2   -1    0    0  502    0  0.00000000000E+00  0.00000000000E+00  0.81845250859E+03  0.81845250859E+03  0.00000000000E+00 0. -1.
          1   -1    0    0  501    0 -0.00000000000E+00 -0.00000000000E+00 -0.14971662398E+03  0.14971662398E+03  0.00000000000E+00 0. -1.
         25    2    1    2    0    0  0.22950933800E+02  0.92483838632E+02  0.11511497244E+03  0.19482345427E+03  0.12499886272E+03 0.  0.
          2    1    1    2  501    0  0.46365891628E+02 -0.51103693638E+02 -0.96278090574E+02  0.11845190642E+03  0.00000000000E+00 0. -1.
          1    1    1    2  502    0 -0.69316825429E+02 -0.41380144994E+02  0.64989900274E+03  0.65489377188E+03  0.00000000000E+00 0. -1.
         22    1    3    3    0    0  0.15968850598E+02  0.31788569006E+02 -0.23980304185E+02  0.42901891540E+02  0.00000000000E+00 0. -1.
         22    1    3    3    0    0  0.69820832016E+01  0.60695269626E+02  0.13909527663E+03  0.15192156273E+03  0.00000000000E+00 0. -1.
</event>
<event>
 7    1  0.5562528E-006  0.1516823E+03  0.7818608E-02  0.1254863E+00
          2   -1    0    0  502    0  0.00000000000E+00  0.00000000000E+00  0.19178876052E+04  0.19178876052E+04  0.00000000000E+00 0. -1.
          1   -1    0    0  501    0 -0.00000000000E+00 -0.00000000000E+00 -0.36426810797E+03  0.36426810797E+03  0.00000000000E+00 0. -1.
         25    2    1    2    0    0 -0.76160744268E+02 -0.90727665354E+02  0.68461794774E+03  0.70594520835E+03  0.12499973838E+03 0.  0.
          2    1    1    2  501    0 -0.83007453503E+02  0.15221247153E+02 -0.34210387605E+03  0.35235917146E+03  0.00000000000E+00 0. -1.
          1    1    1    2  502    0  0.15916819777E+03  0.75506418201E+02  0.12111054255E+04  0.12238513333E+04  0.00000000000E+00 0. -1.
         22    1    3    3    0    0 -0.82238620016E+02 -0.11614267650E+03  0.51396951999E+03  0.53330758424E+03  0.00000000000E+00 0. -1.
         22    1    3    3    0    0  0.60778757477E+01  0.25415011144E+02  0.17064842775E+03  0.17263762411E+03  0.00000000000E+00 0. -1.
</event>
<event>
 7    1  0.5562528E-006  0.8240225E+02  0.7818608E-02  0.1342886E+00
          2   -1    0    0  502    0  0.00000000000E+00  0.00000000000E+00  0.25066051659E+03  0.25066051659E+03  0.00000000000E+00 0. -1.
          1   -1    0    0  501    0 -0.00000000000E+00 -0.00000000000E+00 -0.40291035419E+04  0.40291035419E+04  0.00000000000E+00 0. -1.
         25    2    1    2    0    0  0.40913845588E+02 -0.50671760987E+02 -0.15117557512E+04  0.15183112238E+04  0.12498780312E+03 0.  0.
          2    1    1    2  501    0 -0.91592806626E+02  0.40752441781E+01 -0.25084265670E+04  0.25101015302E+04  0.00000000000E+00 0. -1.
          1    1    1    2  502    0  0.50678961039E+02  0.46596516809E+02  0.24173929296E+03  0.25135130442E+03  0.00000000000E+00 0. -1.
         22    1    3    3    0    0  0.72157269931E+02  0.94350330290E+01 -0.84161035801E+03  0.84475066509E+03  0.00000000000E+00 0.  1.
         22    1    3    3    0    0 -0.31243424344E+02 -0.60106794016E+02 -0.67014539322E+03  0.67356055875E+03  0.00000000000E+00 0.  1.
</event>
<event>
 7    1  0.5562528E-006  0.5786404E+02  0.7818608E-02  0.1418990E+00
          2   -1    0    0  502    0  0.00000000000E+00  0.00000000000E+00  0.11611072972E+03  0.11611072972E+03  0.00000000000E+00 0. -1.
          1   -1    0    0  501    0 -0.00000000000E+00 -0.00000000000E+00 -0.28107730279E+04  0.28107730279E+04  0.00000000000E+00 0. -1.
         25    2    1    2    0    0 -0.31362503948E+02  0.10215664658E+03 -0.10387185759E+03  0.19450996581E+03  0.12500070763E+03 0.  0.
          2    1    1    2  501    0  0.11627933071E+02 -0.51427567700E+02 -0.26508176440E+04  0.26513419593E+04  0.00000000000E+00 0. -1.
          1    1    1    2  502    0  0.19734570877E+02 -0.50729078880E+02  0.60027203383E+02  0.81031832496E+02  0.00000000000E+00 0. -1.
         22    1    3    3    0    0  0.18969494743E+02  0.10950305439E+03 -0.86258228449E+02  0.14068135138E+03  0.00000000000E+00 0. -1.
         22    1    3    3    0    0 -0.50331998691E+02 -0.73464078131E+01 -0.17613629136E+02  0.53828614429E+02  0.00000000000E+00 0. -1.
</event>
<event>
 7    1  0.5562528E-006  0.6020047E+02  0.7818608E-02  0.1424792E+00
          2   -1    0    0  502    0  0.00000000000E+00  0.00000000000E+00  0.18757168002E+03  0.18757168002E+03  0.00000000000E+00 0. -1.
          1   -1    0    0  501    0 -0.00000000000E+00 -0.00000000000E+00 -0.70398270868E+03  0.70398270868E+03  0.00000000000E+00 0. -1.
         25    2    1    2    0    0  0.95545740510E+02 -0.19796995273E+02 -0.22041924750E+03  0.27152742798E+03  0.12498635896E+03 0.  0.
          2    1    1    2  501    0 -0.57109233020E+02 -0.97384393614E+01 -0.45249507563E+03  0.45618866182E+03  0.00000000000E+00 0. -1.
          1    1    1    2  502    0 -0.38436507490E+02  0.29535434634E+02  0.15650329448E+03  0.16383829891E+03  0.00000000000E+00 0. -1.
         22    1    3    3    0    0  0.59327615352E+00  0.43334850547E+02 -0.46526199026E+02  0.63584183917E+02  0.00000000000E+00 0.  1.
         22    1    3    3    0    0  0.94952464357E+02 -0.63131845820E+02 -0.17389304848E+03  0.20794324406E+03  0.00000000000E+00 0.  1.
</event>
<event>
 7    1  0.5562528E-006  0.1195675E+03  0.7818608E-02  0.1281230E+00
          2   -1    0    0  502    0  0.00000000000E+00  0.00000000000E+00  0.94820053093E+03  0.94820053093E+03  0.00000000000E+00 0. -1.
          1   -1    0    0  501    0 -0.00000000000E+00 -0.00000000000E+00 -0.61684090059E+03  0.61684090059E+03  0.00000000000E+00 0. -1.
         25    2    1    2    0    0 -0.14314266677E+03  0.22141642140E+02  0.36210055234E+03  0.40953819255E+03  0.12499858313E+03 0.  0.
          2    1    1    2  501    0  0.37019518189E+02 -0.74169995785E+02 -0.58395261169E+03  0.58980699021E+03  0.00000000000E+00 0. -1.
          1    1    1    2  502    0  0.10612314859E+03  0.52028353645E+02  0.55321168969E+03  0.56569624876E+03  0.00000000000E+00 0. -1.
         22    1    3    3    0    0 -0.18497300281E+02 -0.34854721167E+02  0.16377402121E+03  0.16846047528E+03  0.00000000000E+00 0. -1.
         22    1    3    3    0    0 -0.12464536649E+03  0.56996363307E+02  0.19832653113E+03  0.24107771728E+03  0.00000000000E+00 0. -1.
</event>
<event>
 7    1  0.5562528E-006  0.1206548E+03  0.7818608E-02  0.1384087E+00
          2   -1    0    0  502    0  0.00000000000E+00  0.00000000000E+00  0.24133840056E+04  0.24133840056E+04  0.00000000000E+00 0. -1.
          1   -1    0    0  501    0 -0.00000000000E+00 -0.00000000000E+00 -0.40316432092E+03  0.40316432092E+03  0.00000000000E+00 0. -1.
         25    2    1    2    0    0 -0.11321950578E+03 -0.41012444889E+02  0.40872326821E+03  0.44405210948E+03  0.12500755508E+03 0.  0.
          2    1    1    2  501    0 -0.75905440926E+01  0.32439924396E+02 -0.38293037325E+03  0.38437694496E+03  0.00000000000E+00 0. -1.
          1    1    1    2  502    0  0.12081004987E+03  0.85725204928E+01  0.19844267897E+04  0.19881192721E+04  0.00000000000E+00 0. -1.
         22    1    3    3    0    0  0.15902023305E+02  0.20750496685E+01  0.32802457506E+01  0.16368878657E+02  0.00000000000E+00 0. -1.
         22    1    3    3    0    0 -0.12912152909E+03 -0.43087494557E+02  0.40544302246E+03  0.42768323082E+03  0.00000000000E+00 0. -1.
</event>
<event>
 7    1  0.5584328E-006  0.1053821E+03  0.7818608E-02  0.1316771E+00
          2   -1    0    0  502    0  0.00000000000E+00  0.00000000000E+00  0.52758291029E+03  0.52758291029E+03  0.00000000000E+00 0. -1.
          1   -1    0    0  501    0 -0.00000000000E+00 -0.00000000000E+00 -0.16835227430E+04  0.16835227430E+04  0.00000000000E+00 0. -1.
         25    2    1    2    0    0 -0.25492315895E+02  0.60922643084E+02 -0.36839614699E+03  0.39459248159E+03  0.12500431513E+03 0.  0.
          2    1    1    2  501    0 -0.67129859202E+02 -0.90717185003E+01 -0.12956591168E+04  0.12974287114E+04  0.00000000000E+00 0. -1.
          1    1    1    2  502    0  0.92622175097E+02 -0.51850924584E+02  0.50811543107E+03  0.51908446037E+03  0.00000000000E+00 0. -1.
         22    1    3    3    0    0  0.48494100103E+02  0.42623438527E+02 -0.15101579797E+03  0.16423826136E+03  0.00000000000E+00 0.  1.
         22    1    3    3    0    0 -0.73986415998E+02  0.18299204556E+02 -0.21738034902E+03  0.23035422024E+03  0.00000000000E+00 0.  1.
</event>
<event>
 7    1  0.5562528E-006  0.1450473E+03  0.7818608E-02  0.1301017E+00
          2   -1    0    0  502    0  0.00000000000E+00  0.00000000000E+00  0.11312836349E+04  0.11312836349E+04  0.00000000000E+00 0. -1.
          1   -1    0    0  501    0 -0.00000000000E+00 -0.00000000000E+00 -0.59136759302E+03  0.59136759302E+03  0.00000000000E+00 0. -1.
         25    2    1    2    0    0 -0.10421013993E+03  0.95925745235E+02 -0.16334413037E+03  0.24974278994E+03  0.12501461649E+03 0.  0.
          2    1    1    2  501    0  0.62945164284E+02 -0.13494768477E+03 -0.36964029037E+03  0.39850585390E+03  0.00000000000E+00 0. -1.
          1    1    1    2  502    0  0.41264975650E+02  0.39021939531E+02  0.10729004626E+04  0.10744025841E+04  0.00000000000E+00 0. -1.
         22    1    3    3    0    0 -0.28873275453E+02  0.55343050869E+02 -0.15086046749E+03  0.16326481546E+03  0.00000000000E+00 0. -1.
         22    1    3    3    0    0 -0.75336864481E+02  0.40582694366E+02 -0.12483662882E+02  0.86477974483E+02  0.00000000000E+00 0. -1.
</event>
<event>
 7    1  0.5562528E-006  0.8054858E+02  0.7818608E-02  0.1386939E+00
          2   -1    0    0  502    0  0.00000000000E+00  0.00000000000E+00  0.34177345229E+04  0.34177345229E+04  0.00000000000E+00 0. -1.
          1   -1    0    0  501    0 -0.00000000000E+00 -0.00000000000E+00 -0.14355316733E+04  0.14355316733E+04  0.00000000000E+00 0. -1.
         25    2    1    2    0    0  0.42772258675E+02 -0.12215522996E+02  0.16839973238E+03  0.21438434330E+03  0.12499396655E+03 0.  0.
          2    1    1    2  501    0  0.36073904096E+02  0.32815625585E+02 -0.14116036418E+04  0.14124457630E+04  0.00000000000E+00 0. -1.
          1    1    1    2  502    0 -0.78846162771E+02 -0.20600102589E+02  0.32254067590E+04  0.32264360900E+04  0.00000000000E+00 0. -1.
         22    1    3    3    0    0  0.54859591773E+02  0.45843674988E+02  0.73937979053E+02  0.10284960910E+03  0.00000000000E+00 0.  1.
         22    1    3    3    0    0 -0.12087333099E+02 -0.58059197984E+02  0.94461753322E+02  0.11153473420E+03  0.00000000000E+00 0.  1.
</event>
<event>
 7    1  0.5562528E-006  0.1352765E+03  0.7818608E-02  0.1248374E+00
          2   -1    0    0  502    0  0.00000000000E+00  0.00000000000E+00  0.25119326301E+04  0.25119326301E+04  0.00000000000E+00 0. -1.
          1   -1    0    0  501    0 -0.00000000000E+00 -0.00000000000E+00 -0.15435834082E+04  0.15435834082E+04  0.00000000000E+00 0. -1.
         25    2    1    2    0    0 -0.86433871796E+02 -0.15909444573E+03 -0.11603288493E+03  0.24872671943E+03  0.12497797294E+03 0.  0.
          2    1    1    2  501    0  0.11850617441E+03  0.63379496427E+02 -0.13568409340E+04  0.13634801040E+04  0.00000000000E+00 0. -1.
          1    1    1    2  502    0 -0.32072302611E+02  0.95714949299E+02  0.24412230409E+04  0.24433092148E+04  0.00000000000E+00 0. -1.
         22    1    3    3    0    0 -0.62474410632E+02 -0.93740837834E+02 -0.13572761062E+03  0.17638702035E+03  0.00000000000E+00 0.  1.
         22    1    3    3    0    0 -0.23959461165E+02 -0.65353607893E+02  0.19694725694E+02  0.72339699087E+02  0.00000000000E+00 0.  1.
</event>
<event>
 7    1  0.5562528E-006  0.1280380E+03  0.7818608E-02  0.1297651E+00
          2   -1    0    0  502    0  0.00000000000E+00  0.00000000000E+00  0.14576881824E+04  0.14576881824E+04  0.00000000000E+00 0. -1.
          1   -1    0    0  501    0 -0.00000000000E+00 -0.00000000000E+00 -0.29932801831E+03  0.29932801831E+03  0.00000000000E+00 0. -1.
         25    2    1    2    0    0 -0.14035995111E+03 -0.60362959562E+02  0.46247063565E+02  0.20275101440E+03  0.12499832074E+03 0.  0.
          2    1    1    2  501    0  0.83546905418E+02  0.94669334143E+02 -0.20214202461E+03  0.23833540724E+03  0.00000000000E+00 0. -1.
          1    1    1    2  502    0  0.56813045691E+02 -0.34306374581E+02  0.13142551252E+04  0.13159297791E+04  0.00000000000E+00 0. -1.
         22    1    3    3    0    0 -0.12860137323E+03  0.45940314145E+01  0.14489613443E+02  0.12949659153E+03  0.00000000000E+00 0. -1.
         22    1    3    3    0    0 -0.11758577878E+02 -0.64956990977E+02  0.31757450122E+02  0.73254422861E+02  0.00000000000E+00 0. -1.
</event>
<event>
 7    1  0.5562528E-006  0.1578045E+03  0.7818608E-02  0.1339120E+00
          2   -1    0    0  502    0  0.00000000000E+00  0.00000000000E+00  0.13339945556E+04  0.13339945556E+04  0.00000000000E+00 0. -1.
          1   -1    0    0  501    0 -0.00000000000E+00 -0.00000000000E+00 -0.11761116323E+03  0.11761116323E+03  0.00000000000E+00 0. -1.
         25    2    1    2    0    0 -0.32116603723E+02 -0.13416840985E+03  0.28654070196E+03  0.34170573739E+03  0.12499839458E+03 0.  0.
          2    1    1    2  501    0  0.23718056304E+02 -0.28579741056E+02 -0.79361991857E+02  0.87622334740E+02  0.00000000000E+00 0. -1.
          1    1    1    2  502    0  0.83985474191E+01  0.16274815091E+03  0.10092046822E+04  0.10222776466E+04  0.00000000000E+00 0. -1.
         22    1    3    3    0    0 -0.45700863851E+02  0.50481337984E+01  0.79608846751E+02  0.91932698713E+02  0.00000000000E+00 0.  1.
         22    1    3    3    0    0  0.13584260128E+02 -0.13921654365E+03  0.20693185521E+03  0.24977303868E+03  0.00000000000E+00 0.  1.
</event>
<event>
 7    1  0.5562528E-006  0.4253975E+02  0.7818608E-02  0.1530948E+00
          2   -1    0    0  502    0  0.00000000000E+00  0.00000000000E+00  0.33274723365E+03  0.33274723365E+03  0.00000000000E+00 0. -1.
          1   -1    0    0  501    0 -0.00000000000E+00 -0.00000000000E+00 -0.17746141105E+03  0.17746141105E+03  0.00000000000E+00 0. -1.
         25    2    1    2    0    0  0.98658178525E+01  0.48869703746E+02  0.29414907277E+03  0.32347217352E+03  0.12499995090E+03 0.  0.
          2    1    1    2  501    0  0.21200711561E+02 -0.24373970858E+02 -0.14332775723E+03  0.14692313167E+03  0.00000000000E+00 0. -1.
          1    1    1    2  502    0 -0.31066529413E+02 -0.24495732887E+02  0.44645070607E+01  0.39813339508E+02  0.00000000000E+00 0. -1.
         22    1    3    3    0    0  0.61584301005E+02  0.41839743243E+02  0.11602510959E+03  0.13785868235E+03  0.00000000000E+00 0.  1.
         22    1    3    3    0    0 -0.51718483153E+02  0.70299605032E+01  0.17812396318E+03  0.18561349117E+03  0.00000000000E+00 0.  1.
</event>
<event>
 7    1  0.5562528E-006  0.1724859E+03  0.7818608E-02  0.1297136E+00
          2   -1    0    0  502    0  0.00000000000E+00  0.00000000000E+00  0.78824874666E+03  0.78824874666E+03  0.00000000000E+00 0. -1.
          1   -1    0    0  501    0 -0.00000000000E+00 -0.00000000000E+00 -0.95597700157E+03  0.95597700157E+03  0.00000000000E+00 0. -1.
         25    2    1    2    0    0  0.10157864682E+03 -0.91442289725E+02  0.57407757419E+02  0.19390758124E+03  0.12499834243E+03 0.  0.
          2    1    1    2  501    0  0.49223962107E+02 -0.52297065391E+01 -0.87490807902E+03  0.87630730626E+03  0.00000000000E+00 0. -1.
          1    1    1    2  502    0 -0.15080260893E+03  0.96671996264E+02  0.64977206670E+03  0.67401086073E+03  0.00000000000E+00 0. -1.
         22    1    3    3    0    0  0.32496345404E+02 -0.96136148863E+02  0.70332614944E+02  0.12347003000E+03  0.00000000000E+00 0. -1.
         22    1    3    3    0    0  0.69082301415E+02  0.46938591384E+01 -0.12924857525E+02  0.70437551239E+02  0.00000000000E+00 0. -1.
</event>
<event>
 7    1  0.5562528E-006  0.8510816E+02  0.7818608E-02  0.1473918E+00
          2   -1    0    0  502    0  0.00000000000E+00  0.00000000000E+00  0.10479543129E+04  0.10479543129E+04  0.00000000000E+00 0. -1.
          1   -1    0    0  501    0 -0.00000000000E+00 -0.00000000000E+00 -0.33122783998E+03  0.33122783998E+03  0.00000000000E+00 0. -1.
         25    2    1    2    0    0 -0.57884765673E+02 -0.72496398678E+02  0.17455578065E+03  0.23388147314E+03  0.12499779599E+03 0.  0.
          2    1    1    2  501    0 -0.99558002262E+01  0.21689409204E+02 -0.29895973699E+03  0.29991077468E+03  0.00000000000E+00 0. -1.
          1    1    1    2  502    0  0.67840565899E+02  0.50806989474E+02  0.84113042922E+03  0.84538990503E+03  0.00000000000E+00 0. -1.
         22    1    3    3    0    0 -0.29684845621E+02  0.10511104525E+02 -0.70076548088E+01  0.32261131471E+02  0.00000000000E+00 0.  1.
         22    1    3    3    0    0 -0.28199920052E+02 -0.83007503204E+02  0.18156343546E+03  0.20162034167E+03  0.00000000000E+00 0.  1.
</event>
<event>
 7    1  0.5562528E-006  0.8318634E+02  0.7818608E-02  0.1352349E+00
          2   -1    0    0  502    0  0.00000000000E+00  0.00000000000E+00  0.11462945136E+04  0.11462945136E+04  0.00000000000E+00 0. -1.
          1   -1    0    0  501    0 -0.00000000000E+00 -0.00000000000E+00 -0.44726696917E+03  0.44726696917E+03  0.00000000000E+00 0. -1.
         25    2    1    2    0    0 -0.56201281538E+02 -0.49903803125E+02  0.41058125079E+03  0.43571852829E+03  0.12499879513E+03 0.  0.
          2    1    1    2  501    0 -0.32627536239E+02  0.53762217934E+02 -0.42966767844E+03  0.43424560572E+03  0.00000000000E+00 0. -1.
          1    1    1    2  502    0  0.88828817778E+02 -0.38584148092E+01  0.71811397211E+03  0.72359734879E+03  0.00000000000E+00 0. -1.
         22    1    3    3    0    0  0.37904412376E+02 -0.19084028573E+02  0.17695673660E+03  0.18197425986E+03  0.00000000000E+00 0. -1.
         22    1    3    3    0    0 -0.94105693914E+02 -0.30819774552E+02  0.23362451419E+03  0.25374426843E+03  0.00000000000E+00 0. -1.
</event>
<event>
 7    1  0.5562528E-006  0.2053874E+03  0.7818608E-02  0.1268629E+00
          2   -1    0    0  502    0  0.00000000000E+00  0.00000000000E+00  0.43146948798E+04  0.43146948798E+04  0.00000000000E+00 0. -1.
          1   -1    0    0  501    0 -0.00000000000E+00 -0.00000000000E+00 -0.14881449704E+03  0.14881449704E+03  0.00000000000E+00 0. -1.
         25    2    1    2    0    0 -0.19256536934E+03  0.13848757556E+03  0.17775923630E+04  0.17976986493E+04  0.12500237868E+03 0.  0.
          2    1    1    2  501    0  0.13921691585E+03 -0.14943065695E+03 -0.63146223819E+02  0.21377164564E+03  0.00000000000E+00 0. -1.
          1    1    1    2  502    0  0.53348453495E+02  0.10943081397E+02  0.24514342436E+04  0.24520390819E+04  0.00000000000E+00 0. -1.
         22    1    3    3    0    0 -0.13723182573E+03  0.26577845909E+02  0.10820326129E+04  0.10910240746E+04  0.00000000000E+00 0.  1.
         22    1    3    3    0    0 -0.55333543609E+02  0.11190972965E+03  0.69555975007E+03  0.70667457472E+03  0.00000000000E+00 0.  1.
</event>
<event>
 7    1  0.5562528E-006  0.8493302E+02  0.7818608E-02  0.1365917E+00
          2   -1    0    0  502    0  0.00000000000E+00  0.00000000000E+00  0.45760821118E+02  0.45760821118E+02  0.00000000000E+00 0. -1.
          1   -1    0    0  501    0 -0.00000000000E+00 -0.00000000000E+00 -0.81032972450E+03  0.81032972450E+03  0.00000000000E+00 0. -1.
         25    2    1    2    0    0  0.73093343050E+02  0.10073318781E+03 -0.49289447411E+03  0.52350699105E+03  0.12499918058E+03 0.  0.
          2    1    1    2  501    0 -0.53606538407E+02 -0.49355458867E+02 -0.26775704349E+03  0.27749496684E+03  0.00000000000E+00 0. -1.
          1    1    1    2  502    0 -0.19486804643E+02 -0.51377728945E+02 -0.39173857772E+01  0.55088587730E+02  0.00000000000E+00 0. -1.
         22    1    3    3    0    0 -0.65194165535E+01 -0.10045929332E+02 -0.20046732925E+03  0.20082473350E+03  0.00000000000E+00 0.  1.
         22    1    3    3    0    0  0.79612759604E+02  0.11077911714E+03 -0.29242714486E+03  0.32268225755E+03  0.00000000000E+00 0.  1.
</event>
<event>
 7    1  0.5562528E-006  0.7094941E+02  0.7818608E-02  0.1374900E+00
          2   -1    0    0  502    0  0.00000000000E+00  0.00000000000E+00  0.42700287350E+03  0.42700287350E+03  0.00000000000E+00 0. -1.
          1   -1    0    0  501    0 -0.00000000000E+00 -0.00000000000E+00 -0.20102907811E+04  0.20102907811E+04  0.00000000000E+00 0. -1.
         25    2    1    2    0    0  0.68171702664E+02  0.54358089735E+02 -0.68890295581E+01  0.15256095883E+03  0.12500081786E+03 0.  0.
          2    1    1    2  501    0 -0.58853454669E+02  0.16296203934E+02 -0.19264919807E+04  0.19274596356E+04  0.00000000000E+00 0. -1.
          1    1    1    2  502    0 -0.93182479949E+01 -0.70654293670E+02  0.35009310266E+03  0.35727306012E+03  0.00000000000E+00 0. -1.
         22    1    3    3    0    0 -0.28029500575E+02  0.33025627507E+02 -0.28275738075E+02  0.51728738032E+02  0.00000000000E+00 0.  1.
         22    1    3    3    0    0  0.96201203239E+02  0.21332462229E+02  0.21386708517E+02  0.10083222080E+03  0.00000000000E+00 0.  1.
</event>
<event>
 7    1  0.5562528E-006  0.1119729E+03  0.7818608E-02  0.1353430E+00
          2   -1    0    0  502    0  0.00000000000E+00  0.00000000000E+00  0.48160119384E+03  0.48160119384E+03  0.00000000000E+00 0. -1.
          1   -1    0    0  501    0 -0.00000000000E+00 -0.00000000000E+00 -0.10177592763E+04  0.10177592763E+04  0.00000000000E+00 0. -1.
         25    2    1    2    0    0  0.53996907081E+02 -0.95980872199E+02  0.83844240539E+02  0.18650136632E+03  0.12499963666E+03 0.  0.
          2    1    1    2  501    0  0.37046857138E+02  0.27760077585E+02 -0.95651544769E+03  0.95763505220E+03  0.00000000000E+00 0. -1.
          1    1    1    2  502    0 -0.91043764220E+02  0.68220794613E+02  0.33651312465E+03  0.35522405167E+03  0.00000000000E+00 0. -1.
         22    1    3    3    0    0  0.52477727565E+02 -0.12165419807E+03  0.89859957566E+02  0.16008893707E+03  0.00000000000E+00 0.  1.
         22    1    3    3    0    0  0.15191795165E+01  0.25673325871E+02 -0.60157170270E+01  0.26412429253E+02  0.00000000000E+00 0.  1.
</event>
<event>
 7    1  0.5562528E-006  0.1155776E+03  0.7818608E-02  0.1452802E+00
          2   -1    0    0  502    0  0.00000000000E+00  0.00000000000E+00  0.26629320414E+04  0.26629320414E+04  0.00000000000E+00 0. -1.
          1   -1    0    0  501    0 -0.00000000000E+00 -0.00000000000E+00 -0.12338444941E+04  0.12338444941E+04  0.00000000000E+00 0. -1.
         25    2    1    2    0    0 -0.11285054514E+03 -0.45448060643E+02 -0.17299479553E+03  0.24566936959E+03  0.12500187247E+03 0.  0.
          2    1    1    2  501    0  0.14210959304E+02 -0.14736456457E+02 -0.10231391216E+04  0.10233439191E+04  0.00000000000E+00 0. -1.
          1    1    1    2  502    0  0.98639585833E+02  0.60184517100E+02  0.26252214644E+04  0.26277632468E+04  0.00000000000E+00 0. -1.
         22    1    3    3    0    0 -0.10680454083E+02  0.19766262852E+02 -0.10358487737E+03  0.10599341520E+03  0.00000000000E+00 0.  1.
         22    1    3    3    0    0 -0.10217009105E+03 -0.65214323495E+02 -0.69409918159E+02  0.13967595439E+03  0.00000000000E+00 0.  1.
</event>
<event>
 7    1  0.5562528E-006  0.7374086E+02  0.7818608E-02  0.1417450E+00
          2   -1    0    0  502    0  0.00000000000E+00  0.00000000000E+00  0.11415122600E+04  0.11415122600E+04  0.00000000000E+00 0. -1.
          1   -1    0    0  501    0 -0.00000000000E+00 -0.00000000000E+00 -0.24846825585E+03  0.24846825585E+03  0.00000000000E+00 0. -1.
         25    2    1    2    0    0  0.31762417837E+02 -0.21788407995E+02 -0.22146276760E+02  0.13266001437E+03  0.12499854371E+03 0.  0.
          2    1    1    2  501    0 -0.59174306383E+02  0.53435098952E+02 -0.16134584885E+03  0.17997052892E+03  0.00000000000E+00 0. -1.
          1    1    1    2  502    0  0.27411888545E+02 -0.31646690957E+02  0.10765361297E+04  0.10773499725E+04  0.00000000000E+00 0. -1.
         22    1    3    3    0    0  0.48987879151E+02  0.38485533638E+02 -0.30597727454E+02  0.69405832093E+02  0.00000000000E+00 0.  1.
         22    1    3    3    0    0 -0.17225461314E+02 -0.60273941632E+02  0.84514506939E+01  0.63254182282E+02  0.00000000000E+00 0.  1.
</event>
<event>
 7    1  0.5562528E-006  0.2620995E+03  0.7818608E-02  0.1241826E+00
          2   -1    0    0  502    0  0.00000000000E+00  0.00000000000E+00  0.36112744549E+04  0.36112744549E+04  0.00000000000E+00 0. -1.
          1   -1    0    0  501    0 -0.00000000000E+00 -0.00000000000E+00 -0.16646242747E+03  0.16646242747E+03  0.00000000000E+00 0. -1.
         25    2    1    2    0    0 -0.43678734785E+02 -0.29600098000E+03  0.13838249594E+03  0.35256093327E+03  0.12500033779E+03 0.  0.
          2    1    1    2  501    0  0.42843131237E+02  0.35519039725E+02 -0.40055773284E+02  0.68568221871E+02  0.00000000000E+00 0. -1.
          1    1    1    2  502    0  0.83560354786E+00  0.26048194028E+03  0.33464853048E+04  0.33566077273E+04  0.00000000000E+00 0. -1.
         22    1    3    3    0    0  0.21360804797E+02 -0.15992293105E+00  0.90236214915E+01  0.23189120331E+02  0.00000000000E+00 0.  1.
         22    1    3    3    0    0 -0.65039539581E+02 -0.29584105707E+03  0.12935887445E+03  0.32937181294E+03  0.00000000000E+00 0.  1.
</event>
<event>
 7    1  0.5562528E-006  0.7604502E+02  0.7818608E-02  0.1368526E+00
          2   -1    0    0  502    0  0.00000000000E+00  0.00000000000E+00  0.29297954625E+03  0.29297954625E+03  0.00000000000E+00 0. -1.
          1   -1    0    0  501    0 -0.00000000000E+00 -0.00000000000E+00 -0.57358167447E+03  0.57358167447E+03  0.00000000000E+00 0. -1.
         25    2    1    2    0    0  0.15605402332E+02 -0.37920140518E+02  0.20388693548E+03  0.24264491416E+03  0.12500082508E+03 0.  0.
          2    1    1    2  501    0 -0.23913915625E+02 -0.72187041769E+02 -0.50577778074E+03  0.51146261628E+03  0.00000000000E+00 0. -1.
          1    1    1    2  502    0  0.83085132930E+01  0.11010718229E+03  0.21288717047E+02  0.11245369028E+03  0.00000000000E+00 0. -1.
         22    1    3    3    0    0 -0.98797269153E+00 -0.68992233309E+02  0.19422729948E+03  0.20611925725E+03  0.00000000000E+00 0.  1.
         22    1    3    3    0    0  0.16593375023E+02  0.31072092791E+02  0.96596359985E+01  0.36525656910E+02  0.00000000000E+00 0.  1.
</event>
<event>
 7    1  0.5562528E-006  0.5852788E+02  0.7818608E-02  0.1440320E+00
          2   -1    0    0  502    0  0.00000000000E+00  0.00000000000E+00  0.59735987730E+03  0.59735987730E+03  0.00000000000E+00 0. -1.
          1   -1    0    0  501    0 -0.00000000000E+00 -0.00000000000E+00 -0.22760879214E+03  0.22760879214E+03  0.00000000000E+00 0. -1.
         25    2    1    2    0    0  0.95310180027E+02  0.22714765025E+02 -0.42968507580E+02  0.16451991131E+03  0.12498206915E+03 0.  0.
          2    1    1    2  501    0 -0.51092429886E+02 -0.19406550457E+02 -0.11686374230E+03  0.12901234382E+03  0.00000000000E+00 0. -1.
          1    1    1    2  502    0 -0.44217750141E+02 -0.33082145680E+01  0.52958333504E+03  0.53143641431E+03  0.00000000000E+00 0. -1.
         22    1    3    3    0    0  0.37257662451E+02  0.14525992613E+02 -0.83950957682E+02  0.92988715274E+02  0.00000000000E+00 0. -1.
         22    1    3    3    0    0  0.58052517576E+02  0.81887724127E+01  0.40982450101E+02  0.71531196040E+02  0.00000000000E+00 0. -1.
</event>
<event>
 7    1  0.5562528E-006  0.7445585E+02  0.7818608E-02  0.1421351E+00
          2   -1    0    0  502    0  0.00000000000E+00  0.00000000000E+00  0.13134629749E+02  0.13134629749E+02  0.00000000000E+00 0. -1.
          1   -1    0    0  501    0 -0.00000000000E+00 -0.00000000000E+00 -0.20476630128E+04  0.20476630128E+04  0.00000000000E+00 0. -1.
         25    2    1    2    0    0 -0.36944739288E+02  0.13451456572E+02 -0.12434468177E+04  0.12503323284E+04  0.12500035078E+03 0.  0.
          2    1    1    2  501    0 -0.35609044387E+02  0.18740215350E+02 -0.62600564924E+03  0.62729759492E+03  0.00000000000E+00 0. -1.
          1    1    1    2  502    0  0.72553783674E+02 -0.32191671922E+02 -0.16507591613E+03  0.18316771919E+03  0.00000000000E+00 0. -1.
         22    1    3    3    0    0 -0.13278761368E+02 -0.55066671297E+02 -0.65300910066E+03  0.65546132558E+03  0.00000000000E+00 0.  1.
         22    1    3    3    0    0 -0.23665977919E+02  0.68518127869E+02 -0.59043771700E+03  0.59487100284E+03  0.00000000000E+00 0.  1.
</event>
<event>
 7    1  0.5562528E-006  0.1384992E+03  0.7818608E-02  0.1300870E+00
          2   -1    0    0  502    0  0.00000000000E+00  0.00000000000E+00  0.53973048927E+03  0.53973048927E+03  0.00000000000E+00 0. -1.
          1   -1    0    0  501    0 -0.00000000000E+00 -0.00000000000E+00 -0.10481066403E+04  0.10481066403E+04  0.00000000000E+00 0. -1.
         25    2    1    2    0    0 -0.13986980325E+03  0.11164128958E+03 -0.49500825656E+03  0.54100382426E+03  0.12499849759E+03 0.  0.
          2    1    1    2  501    0  0.82680322420E+02 -0.95008510858E+02 -0.52085347374E+03  0.53586471609E+03  0.00000000000E+00 0. -1.
          1    1    1    2  502    0  0.57189480828E+02 -0.16632778723E+02  0.50748557924E+03  0.51096858924E+03  0.00000000000E+00 0. -1.
         22    1    3    3    0    0  0.12176454441E+02  0.44207253628E+02 -0.16772919158E+03  0.17388395275E+03  0.00000000000E+00 0. -1.
         22    1    3    3    0    0 -0.15204625769E+03  0.67434035953E+02 -0.32727906498E+03  0.36711987151E+03  0.00000000000E+00 0. -1.
</event>
<event>
 7    1  0.5562528E-006  0.1216533E+03  0.7818608E-02  0.1370963E+00
          2   -1    0    0  502    0  0.00000000000E+00  0.00000000000E+00  0.11124854403E+04  0.11124854403E+04  0.00000000000E+00 0. -1.
          1   -1    0    0  501    0 -0.00000000000E+00 -0.00000000000E+00 -0.11255924244E+04  0.11255924244E+04  0.00000000000E+00 0. -1.
         25    2    1    2    0    0  0.36916669451E+02  0.96954191873E+02 -0.32438039552E+03  0.36278197967E+03  0.12500067187E+03 0.  0.
          2    1    1    2  501    0 -0.27404875814E+02  0.24545716197E+02 -0.77817894507E+03  0.77904813071E+03  0.00000000000E+00 0. -1.
          1    1    1    2  502    0 -0.95117936369E+01 -0.12149990807E+03  0.10894523565E+04  0.10962477544E+04  0.00000000000E+00 0. -1.
         22    1    3    3    0    0  0.12669704324E+02  0.91582997080E+02 -0.32504514745E+03  0.33793832965E+03  0.00000000000E+00 0.  1.
         22    1    3    3    0    0  0.24246965128E+02  0.53711947932E+01  0.66475192849E+00  0.24843650024E+02  0.00000000000E+00 0.  1.
</event>
<event>
 7    1  0.5562528E-006  0.6678288E+02  0.7818608E-02  0.1458647E+00
          2   -1    0    0  502    0  0.00000000000E+00  0.00000000000E+00  0.97981132119E+02  0.97981132119E+02  0.00000000000E+00 0. -1.
          1   -1    0    0  501    0 -0.00000000000E+00 -0.00000000000E+00 -0.11661978602E+04  0.11661978602E+04  0.00000000000E+00 0. -1.
         25    2    1    2    0    0  0.57579814823E+02  0.17056691356E+02 -0.14396027424E+03  0.19988903111E+03  0.12499879361E+03 0.  0.
          2    1    1    2  501    0 -0.46206752234E+02 -0.49043563661E+02 -0.98894315018E+03  0.99123604120E+03  0.00000000000E+00 0. -1.
          1    1    1    2  502    0 -0.11373062589E+02  0.31986872305E+02  0.64686696311E+02  0.73053920033E+02  0.00000000000E+00 0. -1.
         22    1    3    3    0    0 -0.99022464499E+01 -0.19255976815E+02  0.12975396368E+02  0.25242979990E+02  0.00000000000E+00 0. -1.
         22    1    3    3    0    0  0.67482061273E+02  0.36312668171E+02 -0.15693567061E+03  0.17464605112E+03  0.00000000000E+00 0. -1.
</event>
<event>
 7    1  0.5562528E-006  0.1882282E+03  0.7818608E-02  0.1306758E+00
          2   -1    0    0  502    0  0.00000000000E+00  0.00000000000E+00  0.24616190806E+03  0.24616190806E+03  0.00000000000E+00 0. -1.
          1   -1    0    0  501    0 -0.00000000000E+00 -0.00000000000E+00 -0.30109575007E+04  0.30109575007E+04  0.00000000000E+00 0. -1.
         25    2    1    2    0    0 -0.85669064668E+02  0.21251656061E+03 -0.24648898188E+04  0.24786703525E+04  0.12498968229E+03 0.  0.
          2    1    1    2  501    0  0.14971190822E+02 -0.38729080202E+02 -0.50140831194E+03  0.50312461030E+03  0.00000000000E+00 0. -1.
          1    1    1    2  502    0  0.70697873846E+02 -0.17378748041E+03  0.20150253802E+03  0.27532444596E+03  0.00000000000E+00 0. -1.
         22    1    3    3    0    0 -0.94179071770E+01  0.14583037329E+03 -0.10445236705E+04  0.10546965881E+04  0.00000000000E+00 0. -1.
         22    1    3    3    0    0 -0.76251157491E+02  0.66686187324E+02 -0.14203661483E+04  0.14239737644E+04  0.00000000000E+00 0. -1.
</event>
<event>
 7    1  0.5562528E-006  0.1145320E+03  0.7818608E-02  0.1358277E+00
          2   -1    0    0  502    0  0.00000000000E+00  0.00000000000E+00  0.12349475685E+04  0.12349475685E+04  0.00000000000E+00 0. -1.
          1   -1    0    0  501    0 -0.00000000000E+00 -0.00000000000E+00 -0.36222836084E+03  0.36222836084E+03  0.00000000000E+00 0. -1.
         25    2    1    2    0    0  0.41713693439E+02  0.12365062150E+03  0.16286565856E+03  0.24326768683E+03  0.12499774518E+03 0.  0.
          2    1    1    2  501    0 -0.69622656121E+02 -0.90359968494E+02 -0.31144928502E+03  0.33168191885E+03  0.00000000000E+00 0. -1.
          1    1    1    2  502    0  0.27908962682E+02 -0.33290653006E+02  0.10213028341E+04  0.10222263237E+04  0.00000000000E+00 0. -1.
         22    1    3    3    0    0  0.11451007043E+02  0.13793197046E+03  0.95830530179E+02  0.16834442240E+03  0.00000000000E+00 0.  1.
         22    1    3    3    0    0  0.30262686396E+02 -0.14281348963E+02  0.67035128379E+02  0.74923264430E+02  0.00000000000E+00 0.  1.
</event>
<event>
 7    1  0.5562528E-006  0.9237628E+02  0.7818608E-02  0.1396755E+00
          2   -1    0    0  502    0  0.00000000000E+00  0.00000000000E+00  0.13527661084E+04  0.13527661084E+04  0.00000000000E+00 0. -1.
          1   -1    0    0  501    0 -0.00000000000E+00 -0.00000000000E+00 -0.52729878331E+02  0.52729878331E+02  0.00000000000E+00 0. -1.
         25    2    1    2    0    0 -0.49493281709E+02 -0.11885875035E+03  0.62090549717E+03  0.64631695779E+03  0.12499994414E+03 0.  0.
          2    1    1    2  501    0  0.33450442762E+02  0.82975879002E+02  0.11280399033E+02  0.90173033771E+02  0.00000000000E+00 0. -1.
          1    1    1    2  502    0  0.16042838947E+02  0.35882871345E+02  0.66785033384E+03  0.66900599515E+03  0.00000000000E+00 0. -1.
         22    1    3    3    0    0 -0.33306971015E+02 -0.97824974367E+02  0.20507827897E+03  0.22964359436E+03  0.00000000000E+00 0.  1.
         22    1    3    3    0    0 -0.16186310694E+02 -0.21033775980E+02  0.41582721821E+03  0.41667336343E+03  0.00000000000E+00 0.  1.
</event>
<event>
 7    1  0.5562528E-006  0.1725374E+03  0.7818608E-02  0.1271300E+00
          2   -1    0    0  502    0  0.00000000000E+00  0.00000000000E+00  0.63558371439E+03  0.63558371439E+03  0.00000000000E+00 0. -1.
          1   -1    0    0  501    0 -0.00000000000E+00 -0.00000000000E+00 -0.84250475763E+03  0.84250475763E+03  0.00000000000E+00 0. -1.
         25    2    1    2    0    0  0.77530407190E+02  0.91547654872E+02  0.33252629626E+03  0.37495392822E+03  0.12499909370E+03 0.  0.
          2    1    1    2  501    0 -0.13945701353E+03 -0.10404345698E+03 -0.80837418839E+03  0.82688701043E+03  0.00000000000E+00 0. -1.
          1    1    1    2  502    0  0.61926606342E+02  0.12495802109E+02  0.26892684889E+03  0.27624753338E+03  0.00000000000E+00 0. -1.
         22    1    3    3    0    0  0.63521515904E+02  0.20558866084E+02  0.27362631838E+03  0.28165406453E+03  0.00000000000E+00 0.  1.
         22    1    3    3    0    0  0.14008891285E+02  0.70988788788E+02  0.58899977880E+02  0.93299863682E+02  0.00000000000E+00 0.  1.
</event>
<event>
 7    1  0.5562528E-006  0.5543745E+02  0.7818608E-02  0.1440634E+00
          2   -1    0    0  502    0  0.00000000000E+00  0.00000000000E+00  0.25808710976E+04  0.25808710976E+04  0.00000000000E+00 0. -1.
          1   -1    0    0  501    0 -0.00000000000E+00 -0.00000000000E+00 -0.87762528484E+02  0.87762528484E+02  0.00000000000E+00 0. -1.
         25    2    1    2    0    0 -0.80399135317E+02  0.60692075141E+02  0.35842103639E+03  0.39273217462E+03  0.12500149082E+03 0.  0.
          2    1    1    2  501    0  0.33972315517E+02 -0.32048251483E+02 -0.62508132449E+02  0.78028682335E+02  0.00000000000E+00 0. -1.
          1    1    1    2  502    0  0.46426819800E+02 -0.28643823658E+02  0.21971956652E+04  0.21978727692E+04  0.00000000000E+00 0. -1.
         22    1    3    3    0    0  0.13022707041E+02  0.28868027173E+02  0.14318400154E+02  0.34755869641E+02  0.00000000000E+00 0.  1.
         22    1    3    3    0    0 -0.93421842359E+02  0.31824047967E+02  0.34410263624E+03  0.35797630498E+03  0.00000000000E+00 0.  1.
</event>
<event>
 7    1  0.5562528E-006  0.1806033E+03  0.7818608E-02  0.1266641E+00
          2   -1    0    0  502    0  0.00000000000E+00  0.00000000000E+00  0.26198068773E+04  0.26198068773E+04  0.00000000000E+00 0. -1.
          1   -1    0    0  501    0 -0.00000000000E+00 -0.00000000000E+00 -0.12891949347E+03  0.12891949347E+03  0.00000000000E+00 0. -1.
         25    2    1    2    0    0  0.12397646361E+03 -0.79478826681E+02  0.68054586910E+03  0.70742818250E+03  0.12499962412E+03 0.  0.
          2    1    1    2  501    0 -0.17858099806E+03  0.47778415463E+02 -0.40610096988E+02  0.18926999189E+03  0.00000000000E+00 0. -1.
          1    1    1    2  502    0  0.54604534450E+02  0.31700411218E+02  0.18509516117E+04  0.18520281964E+04  0.00000000000E+00 0. -1.
         22    1    3    3    0    0  0.34779428905E+02  0.20039848526E+02  0.56959083508E+02  0.69681714947E+02  0.00000000000E+00 0. -1.
         22    1    3    3    0    0  0.89197034705E+02 -0.99518675207E+02  0.62358678559E+03  0.63774646756E+03  0.00000000000E+00 0. -1.
</event>
<event>
 7    1  0.5562528E-006  0.5019094E+02  0.7818608E-02  0.1473087E+00
          2   -1    0    0  502    0  0.00000000000E+00  0.00000000000E+00  0.53300555500E+02  0.53300555500E+02  0.00000000000E+00 0. -1.
          1   -1    0    0  501    0 -0.00000000000E+00 -0.00000000000E+00 -0.21443484803E+04  0.21443484803E+04  0.00000000000E+00 0. -1.
         25    2    1    2    0    0 -0.20152691083E+02 -0.64456557164E+01 -0.56894778818E+03  0.58290194432E+03  0.12500165435E+03 0.  0.
          2    1    1    2  501    0  0.48891485232E+00 -0.40705203591E+02 -0.15539905319E+04  0.15545236331E+04  0.00000000000E+00 0. -1.
          1    1    1    2  502    0  0.19663776230E+02  0.47150859308E+02  0.31890395269E+02  0.60223458383E+02  0.00000000000E+00 0. -1.
         22    1    3    3    0    0  0.36243363887E+02 -0.34522158855E+02 -0.38979020836E+03  0.39299079812E+03  0.00000000000E+00 0.  1.
         22    1    3    3    0    0 -0.56396054970E+02  0.28076503138E+02 -0.17915757982E+03  0.18991114620E+03  0.00000000000E+00 0.  1.
</event>
<event>
 7    1  0.5562528E-006  0.8101428E+02  0.7818608E-02  0.1339739E+00
          2   -1    0    0  502    0  0.00000000000E+00  0.00000000000E+00  0.12738049461E+04  0.12738049461E+04  0.00000000000E+00 0. -1.
          1   -1    0    0  501    0 -0.00000000000E+00 -0.00000000000E+00 -0.86156060284E+02  0.86156060284E+02  0.00000000000E+00 0. -1.
         25    2    1    2    0    0 -0.13346934227E+03 -0.65566782431E+02  0.25890133359E+03  0.32367817309E+03  0.12499836367E+03 0.  0.
          2    1    1    2  501    0  0.67933135232E+02  0.23719898564E+02 -0.27387638103E+02  0.76991085012E+02  0.00000000000E+00 0. -1.
          1    1    1    2  502    0  0.65536207041E+02  0.41846883867E+02  0.95613519035E+03  0.95929174830E+03  0.00000000000E+00 0. -1.
         22    1    3    3    0    0 -0.11254406036E+03  0.53581663841E+01  0.19828698457E+03  0.22806271883E+03  0.00000000000E+00 0.  1.
         22    1    3    3    0    0 -0.20925281912E+02 -0.70924948815E+02  0.60614349014E+02  0.95615454263E+02  0.00000000000E+00 0.  1.
</event>
<event>
 7    1  0.5562528E-006  0.1447485E+03  0.7818608E-02  0.1329154E+00
          2   -1    0    0  502    0  0.00000000000E+00  0.00000000000E+00  0.20947442313E+03  0.20947442313E+03  0.00000000000E+00 0. -1.
          1   -1    0    0  501    0 -0.00000000000E+00 -0.00000000000E+00 -0.43648856816E+03  0.43648856816E+03  0.00000000000E+00 0. -1.
         25    2    1    2    0    0  0.42204426029E+02 -0.10545065803E+03 -0.94684897992E+02  0.19362814013E+03  0.12500228753E+03 0.  0.
          2    1    1    2  501    0  0.35369891621E+02 -0.26464382068E+02 -0.25338675334E+03  0.25720855258E+03  0.00000000000E+00 0. -1.
          1    1    1    2  502    0 -0.77574317650E+02  0.13191504010E+03  0.12105750630E+03  0.19512629857E+03  0.00000000000E+00 0. -1.
         22    1    3    3    0    0  0.45511313791E+02  0.12283420747E+02 -0.90347562642E+01  0.47997801293E+02  0.00000000000E+00 0.  1.
         22    1    3    3    0    0 -0.33068877617E+01 -0.11773407877E+03 -0.85650141728E+02  0.14563033884E+03  0.00000000000E+00 0.  1.
</event>
<event>
 7    1  0.5562528E-006  0.4083090E+02  0.7818608E-02  0.1588515E+00
          2   -1    0    0  502    0  0.00000000000E+00  0.00000000000E+00  0.27023370791E+03  0.27023370791E+03  0.00000000000E+00 0. -1.
          1   -1    0    0  501    0 -0.00000000000E+00 -0.00000000000E+00 -0.29130969366E+03  0.29130969366E+03  0.00000000000E+00 0. -1.
         25    2    1    2    0    0  0.22675627932E+01 -0.17917784973E+02  0.31572813349E+02  0.13018346471E+03  0.12499881232E+03 0.  0.
          2    1    1    2  501    0 -0.82644828213E+01  0.40495605158E+02 -0.23950711968E+03  0.24304702444E+03  0.00000000000E+00 0. -1.
          1    1    1    2  502    0  0.59969200282E+01 -0.22577820185E+02  0.18685832058E+03  0.18831291242E+03  0.00000000000E+00 0. -1.
         22    1    3    3    0    0 -0.16246590509E+02 -0.45687005138E+02  0.66220488239E+02  0.82075618817E+02  0.00000000000E+00 0. -1.
         22    1    3    3    0    0  0.18514153302E+02  0.27769220165E+02 -0.34647674890E+02  0.48107845891E+02  0.00000000000E+00 0. -1.
</event>
<event>
 7    1  0.5562528E-006  0.4243086E+03  0.7818608E-02  0.1164992E+00
          2   -1    0    0  502    0  0.00000000000E+00  0.00000000000E+00  0.18266003154E+04  0.18266003154E+04  0.00000000000E+00 0. -1.
          1   -1    0    0  501    0 -0.00000000000E+00 -0.00000000000E+00 -0.22428588233E+03  0.22428588233E+03  0.00000000000E+00 0. -1.
         25    2    1    2    0    0  0.22795144656E+03  0.42036614026E+03  0.46905401691E+03  0.68139827312E+03  0.12498952742E+03 0.  0.
          2    1    1    2  501    0 -0.62744595103E+02 -0.47787154492E+02 -0.66014339876E+02  0.10285129760E+03  0.00000000000E+00 0. -1.
          1    1    1    2  502    0 -0.16520685146E+03 -0.37257898576E+03  0.11992747560E+04  0.12666366270E+04  0.00000000000E+00 0. -1.
         22    1    3    3    0    0  0.16224386294E+03  0.25607450617E+03  0.37100150637E+03  0.47910264193E+03  0.00000000000E+00 0. -1.
         22    1    3    3    0    0  0.65707583624E+02  0.16429163409E+03  0.98052510540E+02  0.20229563119E+03  0.00000000000E+00 0. -1.
</event>
<event>
 7    1  0.5562528E-006  0.9306539E+02  0.7818608E-02  0.1338340E+00
          2   -1    0    0  502    0  0.00000000000E+00  0.00000000000E+00  0.18388912054E+04  0.18388912054E+04  0.00000000000E+00 0. -1.
          1   -1    0    0  501    0 -0.00000000000E+00 -0.00000000000E+00 -0.27788988473E+04  0.27788988473E+04  0.00000000000E+00 0. -1.
         25    2    1    2    0    0 -0.96581985939E+01  0.10484799946E+03 -0.37907989694E+01  0.16348018948E+03  0.12500007362E+03 0.  0.
          2    1    1    2  501    0 -0.52553775099E+02 -0.35468529722E+02 -0.26936558832E+04  0.26944019620E+04  0.00000000000E+00 0. -1.
          1    1    1    2  502    0  0.62211973692E+02 -0.69379469733E+02  0.17574390403E+04  0.17599079012E+04  0.00000000000E+00 0. -1.
         22    1    3    3    0    0 -0.36551342280E+02  0.10141832295E+03 -0.42788176380E+02  0.11598493389E+03  0.00000000000E+00 0.  1.
         22    1    3    3    0    0  0.26893143686E+02  0.34296765065E+01  0.38997377411E+02  0.47495255586E+02  0.00000000000E+00 0.  1.
</event>
<event>
 7    1  0.5562528E-006  0.7647308E+02  0.7818608E-02  0.1426433E+00
          2   -1    0    0  502    0  0.00000000000E+00  0.00000000000E+00  0.26231759882E+03  0.26231759882E+03  0.00000000000E+00 0. -1.
          1   -1    0    0  501    0 -0.00000000000E+00 -0.00000000000E+00 -0.23609176995E+04  0.23609176995E+04  0.00000000000E+00 0. -1.
         25    2    1    2    0    0 -0.69674011169E+01  0.46051987958E+02  0.57227321852E+01  0.13352076807E+03  0.12500286224E+03 0.  0.
          2    1    1    2  501    0 -0.25509301618E+02  0.27737890521E+02 -0.22884241901E+04  0.22887344514E+04  0.00000000000E+00 0. -1.
          1    1    1    2  502    0  0.32476702735E+02 -0.73789878479E+02  0.18410135722E+03  0.20098007891E+03  0.00000000000E+00 0. -1.
         22    1    3    3    0    0  0.11379547983E+02  0.75396155985E+02  0.38881985765E+02  0.85591373786E+02  0.00000000000E+00 0. -1.
         22    1    3    3    0    0 -0.18346949100E+02 -0.29344168027E+02 -0.33159253579E+02  0.47929394284E+02  0.00000000000E+00 0. -1.
</event>
<event>
 7    1  0.5562528E-006  0.1082866E+03  0.7818608E-02  0.1400578E+00
          2   -1    0    0  502    0  0.00000000000E+00  0.00000000000E+00  0.78608386723E+03  0.78608386723E+03  0.00000000000E+00 0. -1.
          1   -1    0    0  501    0 -0.00000000000E+00 -0.00000000000E+00 -0.64980753702E+03  0.64980753702E+03  0.00000000000E+00 0. -1.
         25    2    1    2    0    0  0.20816529891E+02  0.74721680398E+02  0.38885591233E+03  0.41575201321E+03  0.12499663393E+03 0.  0.
          2    1    1    2  501    0 -0.39932903252E+02 -0.10104111411E+03 -0.63101936885E+03  0.64030413662E+03  0.00000000000E+00 0. -1.
          1    1    1    2  502    0  0.19116373361E+02  0.26319433712E+02  0.37843978673E+03  0.37983525443E+03  0.00000000000E+00 0. -1.
         22    1    3    3    0    0 -0.12959376687E+02  0.94695106964E+02  0.18582771016E+03  0.20896661597E+03  0.00000000000E+00 0. -1.
         22    1    3    3    0    0  0.33775906578E+02 -0.19973426566E+02  0.20302820217E+03  0.20678539723E+03  0.00000000000E+00 0. -1.
</event>
<event>
 7    1  0.5562528E-006  0.5733572E+02  0.7818608E-02  0.1499985E+00
          2   -1    0    0  502    0  0.00000000000E+00  0.00000000000E+00  0.89128383763E+03  0.89128383763E+03  0.00000000000E+00 0. -1.
          1   -1    0    0  501    0 -0.00000000000E+00 -0.00000000000E+00 -0.29253771527E+02  0.29253771527E+02  0.00000000000E+00 0. -1.
         25    2    1    2    0    0  0.73350505098E+02 -0.12452635416E+01  0.41890730641E+03  0.44327173827E+03  0.12499862124E+03 0.  0.
          2    1    1    2  501    0 -0.21847896820E+02 -0.19850838081E+02 -0.11295596834E+01  0.29540857690E+02  0.00000000000E+00 0. -1.
          1    1    1    2  502    0 -0.51502608277E+02  0.21096101623E+02  0.44425231938E+03  0.44772501319E+03  0.00000000000E+00 0. -1.
         22    1    3    3    0    0 -0.27793212286E+02  0.25017620165E+02  0.74465893876E+02  0.83327746391E+02  0.00000000000E+00 0.  1.
         22    1    3    3    0    0  0.10114371738E+03 -0.26262883706E+02  0.34444141253E+03  0.35994399188E+03  0.00000000000E+00 0.  1.
</event>
<event>
 7    1  0.5562528E-006  0.9084198E+02  0.7818608E-02  0.1427096E+00
          2   -1    0    0  502    0  0.00000000000E+00  0.00000000000E+00  0.33306781022E+03  0.33306781022E+03  0.00000000000E+00 0. -1.
          1   -1    0    0  501    0 -0.00000000000E+00 -0.00000000000E+00 -0.45090409655E+03  0.45090409655E+03  0.00000000000E+00 0. -1.
         25    2    1    2    0    0  0.11869909761E+03 -0.12516199768E+02  0.45714004834E+01  0.17288796074E+03  0.12499287274E+03 0.  0.
          2    1    1    2  501    0 -0.30700663183E+02  0.73307150197E+01 -0.35807826446E+03  0.35946670720E+03  0.00000000000E+00 0. -1.
          1    1    1    2  502    0 -0.87998434425E+02  0.51854847485E+01  0.23567057764E+03  0.25161723884E+03  0.00000000000E+00 0. -1.
         22    1    3    3    0    0  0.86742118120E+02 -0.34146048136E+02 -0.50207547150E+02  0.10588175221E+03  0.00000000000E+00 0. -1.
         22    1    3    3    0    0  0.31956979488E+02  0.21629848367E+02  0.54778947633E+02  0.67006208535E+02  0.00000000000E+00 0. -1.
</event>
<event>
 7    1  0.5562528E-006  0.5523584E+02  0.7818608E-02  0.1419682E+00
          2   -1    0    0  502    0  0.00000000000E+00  0.00000000000E+00  0.17218438624E+03  0.17218438624E+03  0.00000000000E+00 0. -1.
          1   -1    0    0  501    0 -0.00000000000E+00 -0.00000000000E+00 -0.70917535667E+03  0.70917535667E+03  0.00000000000E+00 0. -1.
         25    2    1    2    0    0  0.52136239884E+01  0.51376169110E+02 -0.71274842596E+02  0.15287758162E+03  0.12499903659E+03 0.  0.
          2    1    1    2  501    0 -0.51759605956E+02 -0.19285779826E+02 -0.58966603135E+03  0.59224743700E+03  0.00000000000E+00 0. -1.
          1    1    1    2  502    0  0.46545981968E+02 -0.32090389284E+02  0.12394990351E+03  0.13623472429E+03  0.00000000000E+00 0. -1.
         22    1    3    3    0    0  0.61585917925E+02  0.46083627161E+02 -0.52886859928E+02  0.93346376105E+02  0.00000000000E+00 0.  1.
         22    1    3    3    0    0 -0.56372293936E+02  0.52925419491E+01 -0.18387982668E+02  0.59531205519E+02  0.00000000000E+00 0.  1.
</event>
<event>
 7    1  0.5562528E-006  0.1312839E+03  0.7818608E-02  0.1342721E+00
          2   -1    0    0  502    0  0.00000000000E+00  0.00000000000E+00  0.41588469141E+03  0.41588469141E+03  0.00000000000E+00 0. -1.
          1   -1    0    0  501    0 -0.00000000000E+00 -0.00000000000E+00 -0.37132159425E+03  0.37132159425E+03  0.00000000000E+00 0. -1.
         25    2    1    2    0    0 -0.74831714733E+02 -0.62082463299E+02 -0.28228563720E+02  0.16086466264E+03  0.12500628023E+03 0.  0.
          2    1    1    2  501    0  0.10909484529E+03  0.88512952132E+02 -0.25744510182E+03  0.29328179011E+03  0.00000000000E+00 0. -1.
          1    1    1    2  502    0 -0.34263130552E+02 -0.26430488833E+02  0.33023676271E+03  0.33305983291E+03  0.00000000000E+00 0. -1.
         22    1    3    3    0    0 -0.68752667154E+02 -0.87243001056E+02 -0.54721836016E+02  0.12382548127E+03  0.00000000000E+00 0.  1.
         22    1    3    3    0    0 -0.60790475794E+01  0.25160537757E+02  0.26493272296E+02  0.37039181371E+02  0.00000000000E+00 0.  1.
</event>
<event>
 7    1  0.5562528E-006  0.8983378E+02  0.7818608E-02  0.1427004E+00
          2   -1    0    0  502    0  0.00000000000E+00  0.00000000000E+00  0.69622569399E+02  0.69622569399E+02  0.00000000000E+00 0. -1.
          1   -1    0    0  501    0 -0.00000000000E+00 -0.00000000000E+00 -0.86241765682E+03  0.86241765682E+03  0.00000000000E+00 0. -1.
         25    2    1    2    0    0  0.64355431894E+02  0.27100696582E+02 -0.12136212463E+03  0.18769613763E+03  0.12500002168E+03 0.  0.
          2    1    1    2  501    0  0.31732585050E+02 -0.36383291633E+01 -0.63965740134E+03  0.64045435863E+03  0.00000000000E+00 0. -1.
          1    1    1    2  502    0 -0.96088016944E+02 -0.23462367419E+02 -0.31775561456E+02  0.10388972996E+03  0.00000000000E+00 0. -1.
         22    1    3    3    0    0  0.66072249770E+02  0.40663213093E+02 -0.13228979519E+02  0.78702255290E+02  0.00000000000E+00 0.  1.
         22    1    3    3    0    0 -0.17168178760E+01 -0.13562516511E+02 -0.10813314511E+03  0.10899388234E+03  0.00000000000E+00 0.  1.
</event>
<event>
 7    1  0.5562528E-006  0.9080258E+02  0.7818608E-02  0.1404869E+00
          2   -1    0    0  502    0  0.00000000000E+00  0.00000000000E+00  0.20321370452E+04  0.20321370452E+04  0.00000000000E+00 0. -1.
          1   -1    0    0  501    0 -0.00000000000E+00 -0.00000000000E+00 -0.71875851881E+02  0.71875851881E+02  0.00000000000E+00 0. -1.
         25    2    1    2    0    0 -0.38462334714E+02  0.94444035464E+02  0.39769217397E+03  0.42916565311E+03  0.12500026219E+03 0.  0.
          2    1    1    2  501    0 -0.23862568493E+02 -0.28930348094E+02 -0.48463626641E+02  0.61278954977E+02  0.00000000000E+00 0. -1.
          1    1    1    2  502    0  0.62324903207E+02 -0.65513687370E+02  0.16110326460E+04  0.16135682890E+04  0.00000000000E+00 0. -1.
         22    1    3    3    0    0  0.37693673587E+02  0.16924095349E+02  0.19344821602E+03  0.19781165364E+03  0.00000000000E+00 0.  1.
         22    1    3    3    0    0 -0.76156008300E+02  0.77519940114E+02  0.20424395794E+03  0.23135399947E+03  0.00000000000E+00 0.  1.
</event>
<event>
 7    1  0.5562528E-006  0.1917664E+03  0.7818608E-02  0.1207578E+00
          2   -1    0    0  502    0  0.00000000000E+00  0.00000000000E+00  0.67097850265E+03  0.67097850265E+03  0.00000000000E+00 0. -1.
          1   -1    0    0  501    0 -0.00000000000E+00 -0.00000000000E+00 -0.82080674445E+03  0.82080674445E+03  0.00000000000E+00 0. -1.
         25    2    1    2    0    0  0.12918338236E+03 -0.18764677221E+03 -0.24448623125E+03  0.35678857493E+03  0.12499965013E+03 0.  0.
          2    1    1    2  501    0 -0.16624697413E+03  0.85486962264E+02 -0.49827432827E+03  0.53218735737E+03  0.00000000000E+00 0. -1.
          1    1    1    2  502    0  0.37063591774E+02  0.10215980995E+03  0.59293231772E+03  0.60280931480E+03  0.00000000000E+00 0. -1.
         22    1    3    3    0    0 -0.15847893000E+02 -0.20412893384E+02  0.14735043824E+01  0.25884612109E+02  0.00000000000E+00 0.  1.
         22    1    3    3    0    0  0.14503127536E+03 -0.16723387883E+03 -0.24595973563E+03  0.33090396283E+03  0.00000000000E+00 0.  1.
</event>
<event>
 7    1  0.5562528E-006  0.2713592E+02  0.7818608E-02  0.1668519E+00
          2   -1    0    0  502    0  0.00000000000E+00  0.00000000000E+00  0.75475564382E+03  0.75475564382E+03  0.00000000000E+00 0. -1.
          1   -1    0    0  501    0 -0.00000000000E+00 -0.00000000000E+00 -0.79061015728E+03  0.79061015728E+03  0.00000000000E+00 0. -1.
         25    2    1    2    0    0 -0.27064827106E+01 -0.54256894089E+01 -0.72856915377E+02  0.14481367401E+03  0.12500442755E+03 0.  0.
          2    1    1    2  501    0  0.22048352284E+02  0.16100463534E+02 -0.68133166268E+03  0.68187842709E+03  0.00000000000E+00 0. -1.
          1    1    1    2  502    0 -0.19341869574E+02 -0.10674774125E+02  0.71833406459E+03  0.71867370000E+03  0.00000000000E+00 0. -1.
         22    1    3    3    0    0  0.46402141458E+01  0.16418856327E+02  0.32639068790E+02  0.36829597362E+02  0.00000000000E+00 0.  1.
         22    1    3    3    0    0 -0.73466968563E+01 -0.21844545736E+02 -0.10549598417E+03  0.10798407664E+03  0.00000000000E+00 0.  1.
</event>
<event>
 7    1  0.5562528E-006  0.1247563E+03  0.7818608E-02  0.1242005E+00
          2   -1    0    0  502    0  0.00000000000E+00  0.00000000000E+00  0.71580527427E+03  0.71580527427E+03  0.00000000000E+00 0. -1.
          1   -1    0    0  501    0 -0.00000000000E+00 -0.00000000000E+00 -0.41486592779E+03  0.41486592779E+03  0.00000000000E+00 0. -1.
         25    2    1    2    0    0  0.32750542026E+02  0.61814547235E+02  0.50111118524E+02  0.15175462533E+03  0.12499882342E+03 0.  0.
          2    1    1    2  501    0  0.70531180863E+02 -0.11615977185E+03 -0.34550520357E+03  0.37127023280E+03  0.00000000000E+00 0. -1.
          1    1    1    2  502    0 -0.10328172289E+03  0.54345224611E+02  0.59633343153E+03  0.60764634393E+03  0.00000000000E+00 0. -1.
         22    1    3    3    0    0 -0.14106478876E+02  0.61202696183E+02 -0.21317348564E+02  0.66326405874E+02  0.00000000000E+00 0.  1.
         22    1    3    3    0    0  0.46857020902E+02  0.61185105225E+00  0.71428467088E+02  0.85428219460E+02  0.00000000000E+00 0.  1.
</event>
<event>
 7    1  0.5562528E-006  0.1184936E+03  0.7818608E-02  0.1381543E+00
          2   -1    0    0  502    0  0.00000000000E+00  0.00000000000E+00  0.72801452333E+03  0.72801452333E+03  0.00000000000E+00 0. -1.
          1   -1    0    0  501    0 -0.00000000000E+00 -0.00000000000E+00 -0.56078433605E+03  0.56078433605E+03  0.00000000000E+00 0. -1.
         25    2    1    2    0    0 -0.88819156818E+02  0.12198307038E+03  0.19129338032E+03  0.27383727467E+03  0.12499993427E+03 0.  0.
          2    1    1    2  501    0  0.75775564855E+02 -0.89901179382E+02 -0.51223860985E+03  0.52555927516E+03  0.00000000000E+00 0. -1.
          1    1    1    2  502    0  0.13043591962E+02 -0.32081890994E+02  0.48817541681E+03  0.48940230955E+03  0.00000000000E+00 0. -1.
         22    1    3    3    0    0 -0.35218707546E+02 -0.21818315100E+02  0.29650202269E+02  0.50946351484E+02  0.00000000000E+00 0. -1.
         22    1    3    3    0    0 -0.53600449272E+02  0.14380138548E+03  0.16164317805E+03  0.22289092318E+03  0.00000000000E+00 0. -1.
</event>
<event>
 7    1  0.5562528E-006  0.5856665E+02  0.7818608E-02  0.1468250E+00
          2   -1    0    0  502    0  0.00000000000E+00  0.00000000000E+00  0.30228361159E+03  0.30228361159E+03  0.00000000000E+00 0. -1.
          1   -1    0    0  501    0 -0.00000000000E+00 -0.00000000000E+00 -0.39121081951E+03  0.39121081951E+03  0.00000000000E+00 0. -1.
         25    2    1    2    0    0  0.25426761344E+02  0.45580719206E+02 -0.17625216398E+03  0.22229233446E+03  0.12499973799E+03 0.  0.
          2    1    1    2  501    0  0.28533302401E+02 -0.22139281212E+02 -0.18709389493E+03  0.19054769124E+03  0.00000000000E+00 0. -1.
          1    1    1    2  502    0 -0.53960063745E+02 -0.23441437994E+02  0.27441885099E+03  0.28065440540E+03  0.00000000000E+00 0. -1.
         22    1    3    3    0    0 -0.31437646418E+02 -0.24396499035E+02 -0.27590357789E+02  0.48422542482E+02  0.00000000000E+00 0.  1.
         22    1    3    3    0    0  0.56864407762E+02  0.69977218241E+02 -0.14866180619E+03  0.17386979198E+03  0.00000000000E+00 0.  1.
</event>
<event>
 7    1  0.5562528E-006  0.3975257E+02  0.7818608E-02  0.1527097E+00
          2   -1    0    0  502    0  0.00000000000E+00  0.00000000000E+00  0.28984758290E+02  0.28984758290E+02  0.00000000000E+00 0. -1.
          1   -1    0    0  501    0 -0.00000000000E+00 -0.00000000000E+00 -0.14206837123E+04  0.14206837123E+04  0.00000000000E+00 0. -1.
         25    2    1    2    0    0  0.29112043256E+02  0.39575199081E+02 -0.76400538236E+03  0.77572823981E+03  0.12504547306E+03 0.  0.
          2    1    1    2  501    0  0.10350165929E+02 -0.33915617277E+02 -0.63276070819E+03  0.63375350797E+03  0.00000000000E+00 0. -1.
          1    1    1    2  502    0 -0.39462209184E+02 -0.56595818040E+01  0.50671365090E+01  0.40186722836E+02  0.00000000000E+00 0. -1.
         22    1    3    3    0    0  0.11864717551E+02  0.39931789169E+02 -0.69638009225E+02  0.81146605829E+02  0.00000000000E+00 0.  1.
         22    1    3    3    0    0  0.17247325704E+02 -0.35659008820E+00 -0.69436737313E+03  0.69458163399E+03  0.00000000000E+00 0.  1.
</event>
<event>
 7    1  0.5562528E-006  0.2397981E+02  0.7818608E-02  0.1679355E+00
          2   -1    0    0  502    0  0.00000000000E+00  0.00000000000E+00  0.21144767471E+03  0.21144767471E+03  0.00000000000E+00 0. -1.
          1   -1    0    0  501    0 -0.00000000000E+00 -0.00000000000E+00 -0.96938323777E+03  0.96938323777E+03  0.00000000000E+00 0. -1.
         25    2    1    2    0    0 -0.39915058396E+02 -0.66973400492E+01 -0.69779978711E+03  0.71006169284E+03  0.12499999396E+03 0.  0.
          2    1    1    2  501    0  0.17658116218E+02  0.15594133673E+02 -0.26422708501E+03  0.26527521281E+03  0.00000000000E+00 0. -1.
          1    1    1    2  502    0  0.22256942178E+02 -0.88967936240E+01  0.20409130906E+03  0.20549400684E+03  0.00000000000E+00 0. -1.
         22    1    3    3    0    0  0.29120011365E+02 -0.20610997502E+02 -0.47634519305E+03  0.47767931839E+03  0.00000000000E+00 0.  1.
         22    1    3    3    0    0 -0.69035069761E+02  0.13913657453E+02 -0.22145459406E+03  0.23238237444E+03  0.00000000000E+00 0.  1.
</event>
<event>
 7    1  0.5562528E-006  0.7302928E+02  0.7818608E-02  0.1388598E+00
          2   -1    0    0  502    0  0.00000000000E+00  0.00000000000E+00  0.35949708781E+03  0.35949708781E+03  0.00000000000E+00 0. -1.
          1   -1    0    0  501    0 -0.00000000000E+00 -0.00000000000E+00 -0.20193012991E+03  0.20193012991E+03  0.00000000000E+00 0. -1.
         25    2    1    2    0    0 -0.11917350034E+03  0.33722172184E+01  0.12409853149E+03  0.21270038690E+03  0.12500925580E+03 0.  0.
          2    1    1    2  501    0  0.69352347118E+02  0.14919950272E+02 -0.14559830368E+03  0.16196054767E+03  0.00000000000E+00 0. -1.
          1    1    1    2  502    0  0.49821153224E+02 -0.18292167490E+02  0.17906673009E+03  0.18676628316E+03  0.00000000000E+00 0. -1.
         22    1    3    3    0    0 -0.10968758451E+03  0.17429370543E+02  0.14697769432E+03  0.18422158337E+03  0.00000000000E+00 0. -1.
         22    1    3    3    0    0 -0.94859158276E+01 -0.14057153325E+02 -0.22879162824E+02  0.28478803525E+02  0.00000000000E+00 0. -1.
</event>
<event>
 7    1  0.5562528E-006  0.9537622E+02  0.7818608E-02  0.1354667E+00
          2   -1    0    0  502    0  0.00000000000E+00  0.00000000000E+00  0.81979099580E+03  0.81979099580E+03  0.00000000000E+00 0. -1.
          1   -1    0    0  501    0 -0.00000000000E+00 -0.00000000000E+00 -0.40052275762E+03  0.40052275762E+03  0.00000000000E+00 0. -1.
         25    2    1    2    0    0  0.59339881761E+02  0.11404560800E+03 -0.74662417141E+02  0.19423695190E+03  0.12500357866E+03 0.  0.
          2    1    1    2  501    0  0.12630407648E+02 -0.52277678238E+02 -0.26035503991E+03  0.26585189419E+03  0.00000000000E+00 0. -1.
          1    1    1    2  502    0 -0.71970289409E+02 -0.61767929760E+02  0.75428569523E+03  0.76022490733E+03  0.00000000000E+00 0. -1.
         22    1    3    3    0    0 -0.11763128798E+02 -0.29332699824E+01 -0.54542104538E+02  0.55873217549E+02  0.00000000000E+00 0. -1.
         22    1    3    3    0    0  0.71103010560E+02  0.11697887798E+03 -0.20120312604E+02  0.13836373435E+03  0.00000000000E+00 0. -1.
</event>
<event>
 7    1  0.5562528E-006  0.1279178E+03  0.7818608E-02  0.1361545E+00
          2   -1    0    0  502    0  0.00000000000E+00  0.00000000000E+00  0.25181435178E+03  0.25181435178E+03  0.00000000000E+00 0. -1.
          1   -1    0    0  501    0 -0.00000000000E+00 -0.00000000000E+00 -0.12773680468E+04  0.12773680468E+04  0.00000000000E+00 0. -1.
         25    2    1    2    0    0  0.13865370965E+03 -0.46939490098E+02  0.65038561727E+00  0.19249500892E+03  0.12500295408E+03 0.  0.
          2    1    1    2  501    0 -0.33220804003E+02 -0.18121281360E+02 -0.11563689314E+04  0.11569879464E+04  0.00000000000E+00 0. -1.
          1    1    1    2  502    0 -0.10543290564E+03  0.65060771457E+02  0.13016485069E+03  0.17969944332E+03  0.00000000000E+00 0. -1.
         22    1    3    3    0    0  0.51837336957E+02 -0.46277517583E+02 -0.55644080214E+02  0.89022366848E+02  0.00000000000E+00 0. -1.
         22    1    3    3    0    0  0.86816372688E+02 -0.66197251465E+00  0.56294465831E+02  0.10347264207E+03  0.00000000000E+00 0. -1.
</event>
<event>
 7    1  0.5562528E-006  0.1068345E+03  0.7818608E-02  0.1277560E+00
          2   -1    0    0  502    0  0.00000000000E+00  0.00000000000E+00  0.12663235548E+04  0.12663235548E+04  0.00000000000E+00 0. -1.
          1   -1    0    0  501    0 -0.00000000000E+00 -0.00000000000E+00 -0.99962770546E+02  0.99962770546E+02  0.00000000000E+00 0. -1.
         25    2    1    2    0    0  0.70878787660E+02 -0.17568838873E+03  0.46176865455E+03  0.51453796843E+03  0.12501527168E+03 0.  0.
          2    1    1    2  501    0 -0.53118621584E+02  0.80056470450E+02 -0.37628106853E+02  0.10318188235E+03  0.00000000000E+00 0. -1.
          1    1    1    2  502    0 -0.17760166076E+02  0.95631918283E+02  0.74222023652E+03  0.74856647453E+03  0.00000000000E+00 0. -1.
         22    1    3    3    0    0  0.98853904977E+02 -0.99509774859E+02  0.34418264819E+03  0.37166649720E+03  0.00000000000E+00 0.  1.
         22    1    3    3    0    0 -0.27975117317E+02 -0.76178613874E+02  0.11758600636E+03  0.14287147123E+03  0.00000000000E+00 0.  1.
</event>
<event>
 7    1  0.5562528E-006  0.1351746E+03  0.7818608E-02  0.1353458E+00
          2   -1    0    0  502    0  0.00000000000E+00  0.00000000000E+00  0.19182796848E+04  0.19182796848E+04  0.00000000000E+00 0. -1.
          1   -1    0    0  501    0 -0.00000000000E+00 -0.00000000000E+00 -0.20241661070E+03  0.20241661070E+03  0.00000000000E+00 0. -1.
         25    2    1    2    0    0  0.12073371628E+03 -0.97452160465E+02  0.70763727525E+03  0.73515214565E+03  0.12499844038E+03 0.  0.
          2    1    1    2  501    0 -0.38150922865E+02 -0.37862446360E+01 -0.18310261620E+03  0.18707323866E+03  0.00000000000E+00 0. -1.
          1    1    1    2  502    0 -0.82582793417E+02  0.10123840510E+03  0.11913284151E+04  0.11984709112E+04  0.00000000000E+00 0. -1.
         22    1    3    3    0    0  0.25776579881E+02 -0.91430396639E+02  0.24373097835E+03  0.26158887458E+03  0.00000000000E+00 0.  1.
         22    1    3    3    0    0  0.94957136401E+02 -0.60217638255E+01  0.46390629690E+03  0.47356327106E+03  0.00000000000E+00 0.  1.
</event>
<event>
 7    1  0.5562528E-006  0.5442126E+02  0.7818608E-02  0.1474565E+00
          2   -1    0    0  502    0  0.00000000000E+00  0.00000000000E+00  0.17650439135E+04  0.17650439135E+04  0.00000000000E+00 0. -1.
          1   -1    0    0  501    0 -0.00000000000E+00 -0.00000000000E+00 -0.63895356604E+03  0.63895356604E+03  0.00000000000E+00 0. -1.
         25    2    1    2    0    0 -0.31538945732E+02 -0.92704906856E+01 -0.37548683721E+03  0.39710978709E+03  0.12500068396E+03 0.  0.
          2    1    1    2  501    0  0.46363605846E+02  0.43334964628E+02 -0.24846982742E+03  0.25644640424E+03  0.00000000000E+00 0. -1.
          1    1    1    2  502    0 -0.14824660114E+02 -0.34064473943E+02  0.17500470121E+04  0.17504412882E+04  0.00000000000E+00 0. -1.
         22    1    3    3    0    0  0.39588573305E+02  0.19558572642E+02 -0.21138682494E+03  0.21594949099E+03  0.00000000000E+00 0.  1.
         22    1    3    3    0    0 -0.71127519037E+02 -0.28829063328E+02 -0.16410001226E+03  0.18116029610E+03  0.00000000000E+00 0.  1.
</event>
<event>
 7    1  0.5562528E-006  0.8009496E+02  0.7818608E-02  0.1452242E+00
          2   -1    0    0  502    0  0.00000000000E+00  0.00000000000E+00  0.12970668535E+04  0.12970668535E+04  0.00000000000E+00 0. -1.
          1   -1    0    0  501    0 -0.00000000000E+00 -0.00000000000E+00 -0.20126024859E+03  0.20126024859E+03  0.00000000000E+00 0. -1.
         25    2    1    2    0    0 -0.47354926700E+02 -0.30405909634E+02  0.74216819311E+02  0.15588913860E+03  0.12500511526E+03 0.  0.
          2    1    1    2  501    0  0.58703598226E+02  0.57812419906E+02 -0.14964508779E+03  0.17082751722E+03  0.00000000000E+00 0. -1.
          1    1    1    2  502    0 -0.11348671526E+02 -0.27406510272E+02  0.11712348734E+04  0.11716104462E+04  0.00000000000E+00 0. -1.
         22    1    3    3    0    0 -0.50701600252E+02 -0.73612106056E+02  0.30787705047E+02  0.94537173684E+02  0.00000000000E+00 0. -1.
         22    1    3    3    0    0  0.33466735518E+01  0.43206196422E+02  0.43429114263E+02  0.61351964914E+02  0.00000000000E+00 0. -1.
</event>
<event>
 7    1  0.5562528E-006  0.3978157E+02  0.7818608E-02  0.1522422E+00
          2   -1    0    0  502    0  0.00000000000E+00  0.00000000000E+00  0.11848431126E+04  0.11848431126E+04  0.00000000000E+00 0. -1.
          1   -1    0    0  501    0 -0.00000000000E+00 -0.00000000000E+00 -0.52805586798E+03  0.52805586798E+03  0.00000000000E+00 0. -1.
         25    2    1    2    0    0  0.42368837900E+02  0.15626467351E+02  0.47682645935E+03  0.49500321082E+03  0.12500160591E+03 0.  0.
          2    1    1    2  501    0 -0.28834921042E+02  0.22462961208E+02 -0.51773816702E+03  0.51902682675E+03  0.00000000000E+00 0. -1.
          1    1    1    2  502    0 -0.13533916858E+02 -0.38089428558E+02  0.69769895233E+03  0.69886894304E+03  0.00000000000E+00 0. -1.
         22    1    3    3    0    0  0.55989187504E+02 -0.86875801142E+01  0.45772011136E+03  0.46121357689E+03  0.00000000000E+00 0.  1.
         22    1    3    3    0    0 -0.13620349604E+02  0.24314047465E+02  0.19106347986E+02  0.33789633925E+02  0.00000000000E+00 0.  1.
</event>
<event>
 7    1  0.5562528E-006  0.1289189E+03  0.7818608E-02  0.1412272E+00
          2   -1    0    0  502    0  0.00000000000E+00  0.00000000000E+00  0.14135130720E+03  0.14135130720E+03  0.00000000000E+00 0. -1.
          1   -1    0    0  501    0 -0.00000000000E+00 -0.00000000000E+00 -0.55394116755E+03  0.55394116755E+03  0.00000000000E+00 0. -1.
         25    2    1    2    0    0  0.96029521806E+02 -0.74184953315E+02 -0.15216458981E+03  0.23131120581E+03  0.12500294071E+03 0.  0.
          2    1    1    2  501    0 -0.88144440325E+02  0.97833421645E+02 -0.34844585363E+03  0.37249877001E+03  0.00000000000E+00 0. -1.
          1    1    1    2  502    0 -0.78850814806E+01 -0.23648468330E+02  0.88020583086E+02  0.91482498934E+02  0.00000000000E+00 0. -1.
         22    1    3    3    0    0  0.71503351423E+02 -0.52894710313E+02 -0.14806209865E+02  0.90165422942E+02  0.00000000000E+00 0.  1.
         22    1    3    3    0    0  0.24526170383E+02 -0.21290243002E+02 -0.13735837994E+03  0.14114578287E+03  0.00000000000E+00 0.  1.
</event>
<event>
 7    1  0.5562528E-006  0.3141532E+02  0.7818608E-02  0.1593659E+00
          2   -1    0    0  502    0  0.00000000000E+00  0.00000000000E+00  0.12099766188E+03  0.12099766188E+03  0.00000000000E+00 0. -1.
          1   -1    0    0  501    0 -0.00000000000E+00 -0.00000000000E+00 -0.13098816537E+04  0.13098816537E+04  0.00000000000E+00 0. -1.
         25    2    1    2    0    0  0.18662552498E+02  0.79766588347E+01 -0.11338975672E+03  0.16997353065E+03  0.12498738433E+03 0.  0.
          2    1    1    2  501    0 -0.17246366413E+02  0.23842796783E+02 -0.11652730109E+04  0.11656445025E+04  0.00000000000E+00 0. -1.
          1    1    1    2  502    0 -0.14161860845E+01 -0.31819455618E+02  0.89778775857E+02  0.95261282446E+02  0.00000000000E+00 0. -1.
         22    1    3    3    0    0 -0.31557638918E+01 -0.51786175889E+02 -0.17222254974E+02  0.54666012524E+02  0.00000000000E+00 0.  1.
         22    1    3    3    0    0  0.21818316390E+02  0.59762834723E+02 -0.96167501744E+02  0.11530751812E+03  0.00000000000E+00 0.  1.
</event>
<event>
 7    1  0.5562528E-006  0.6970723E+02  0.7818608E-02  0.1407479E+00
          2   -1    0    0  502    0  0.00000000000E+00  0.00000000000E+00  0.47631462534E+03  0.47631462534E+03  0.00000000000E+00 0. -1.
          1   -1    0    0  501    0 -0.00000000000E+00 -0.00000000000E+00 -0.21961091779E+03  0.21961091779E+03  0.00000000000E+00 0. -1.
         25    2    1    2    0    0  0.46758058303E+02 -0.24823886384E+02  0.16438421255E+03  0.21318751810E+03  0.12499682871E+03 0.  0.
          2    1    1    2  501    0 -0.17511510341E+02 -0.44541903212E+02 -0.18721947054E+03  0.19324017254E+03  0.00000000000E+00 0. -1.
          1    1    1    2  502    0 -0.29246547962E+02  0.69365789597E+02  0.27953896554E+03  0.28949785248E+03  0.00000000000E+00 0. -1.
         22    1    3    3    0    0 -0.19261588888E+02 -0.11322382724E+01  0.13625670866E+03  0.13761606529E+03  0.00000000000E+00 0.  1.
         22    1    3    3    0    0  0.66019647191E+02 -0.23691648112E+02  0.28127503886E+02  0.75571452814E+02  0.00000000000E+00 0.  1.
</event>
<event>
 7    1  0.5562528E-006  0.5876989E+02  0.7818608E-02  0.1439117E+00
          2   -1    0    0  502    0  0.00000000000E+00  0.00000000000E+00  0.39621909781E+04  0.39621909781E+04  0.00000000000E+00 0. -1.
          1   -1    0    0  501    0 -0.00000000000E+00 -0.00000000000E+00 -0.53686953595E+02  0.53686953595E+02  0.00000000000E+00 0. -1.
         25    2    1    2    0    0  0.41449458105E+02 -0.72390900326E+02  0.62997005354E+03  0.64764554881E+03  0.12499595395E+03 0.  0.
          2    1    1    2  501    0 -0.50759009380E+02  0.28816524952E+02 -0.25644487704E+02  0.63753501026E+02  0.00000000000E+00 0. -1.
          1    1    1    2  502    0  0.93095512751E+01  0.43574375374E+02  0.33041784587E+04  0.33044788819E+04  0.00000000000E+00 0. -1.
         22    1    3    3    0    0  0.67389406240E+02 -0.67060376680E+02  0.26185844536E+03  0.27858261181E+03  0.00000000000E+00 0.  1.
         22    1    3    3    0    0 -0.25939948135E+02 -0.53305236459E+01  0.36811160818E+03  0.36906293700E+03  0.00000000000E+00 0.  1.
</event>
<event>
 7    1  0.5562528E-006  0.2640397E+03  0.7818608E-02  0.1227086E+00
          2   -1    0    0  502    0  0.00000000000E+00  0.00000000000E+00  0.12287156712E+04  0.12287156712E+04  0.00000000000E+00 0. -1.
          1   -1    0    0  501    0 -0.00000000000E+00 -0.00000000000E+00 -0.58214513089E+03  0.58214513089E+03  0.00000000000E+00 0. -1.
         25    2    1    2    0    0 -0.20317826696E+03  0.49250386438E+02  0.14739645607E+03  0.28470728189E+03  0.12500204948E+03 0.  0.
          2    1    1    2  501    0  0.26562325151E+03 -0.64377509367E+02 -0.47598861834E+03  0.54887643440E+03  0.00000000000E+00 0. -1.
          1    1    1    2  502    0 -0.62444984553E+02  0.15127122928E+02  0.97516270259E+03  0.97727708582E+03  0.00000000000E+00 0. -1.
         22    1    3    3    0    0 -0.66302538267E+02  0.78035898989E+02  0.47834621491E+02  0.11302114459E+03  0.00000000000E+00 0. -1.
         22    1    3    3    0    0 -0.13687572869E+03 -0.28785512551E+02  0.99561834580E+02  0.17168613730E+03  0.00000000000E+00 0. -1.
</event>
<event>
 7    1  0.5562528E-006  0.1694460E+03  0.7818608E-02  0.1254301E+00
          2   -1    0    0  502    0  0.00000000000E+00  0.00000000000E+00  0.14231250222E+04  0.14231250222E+04  0.00000000000E+00 0. -1.
          1   -1    0    0  501    0 -0.00000000000E+00 -0.00000000000E+00 -0.29641176714E+03  0.29641176714E+03  0.00000000000E+00 0. -1.
         25    2    1    2    0    0 -0.28674233514E+02  0.10104772144E+03 -0.10905523550E+03  0.19634493679E+03  0.12500174452E+03 0.  0.
          2    1    1    2  501    0  0.27533520482E+02  0.70800738455E+02 -0.12788833846E+03  0.14874900480E+03  0.00000000000E+00 0. -1.
          1    1    1    2  502    0  0.11407130321E+01 -0.17184845990E+03  0.13636568290E+04  0.13744428477E+04  0.00000000000E+00 0. -1.
         22    1    3    3    0    0 -0.89776477132E+01  0.70128892190E+01 -0.99102676125E+02  0.99755296545E+02  0.00000000000E+00 0.  1.
         22    1    3    3    0    0 -0.19696585801E+02  0.94034832224E+02 -0.99525593803E+01  0.96589640241E+02  0.00000000000E+00 0.  1.
</event>
<event>
 7    1  0.5562528E-006  0.6984496E+02  0.7818608E-02  0.1407270E+00
          2   -1    0    0  502    0  0.00000000000E+00  0.00000000000E+00  0.46942980265E+03  0.46942980265E+03  0.00000000000E+00 0. -1.
          1   -1    0    0  501    0 -0.00000000000E+00 -0.00000000000E+00 -0.13876208339E+04  0.13876208339E+04  0.00000000000E+00 0. -1.
         25    2    1    2    0    0  0.60354032965E+02 -0.17422395158E+02 -0.76118070315E+03  0.77393301082E+03  0.12502037131E+03 0.  0.
          2    1    1    2  501    0 -0.44103690183E+02  0.62422708775E+02 -0.61646175165E+03  0.62118179409E+03  0.00000000000E+00 0. -1.
          1    1    1    2  502    0 -0.16250342781E+02 -0.45000313617E+02  0.45945142360E+03  0.46193583159E+03  0.00000000000E+00 0. -1.
         22    1    3    3    0    0  0.82920278312E+02 -0.49000646284E+02 -0.62313843772E+03  0.63053814195E+03  0.00000000000E+00 0. -1.
         22    1    3    3    0    0 -0.22566245347E+02  0.31578251125E+02 -0.13804226543E+03  0.14339486887E+03  0.00000000000E+00 0. -1.
</event>
<event>
 7    1  0.5562528E-006  0.1297593E+03  0.7818608E-02  0.1370683E+00
          2   -1    0    0  502    0  0.00000000000E+00  0.00000000000E+00  0.92941794621E+03  0.92941794621E+03  0.00000000000E+00 0. -1.
          1   -1    0    0  501    0 -0.00000000000E+00 -0.00000000000E+00 -0.13502704626E+04  0.13502704626E+04  0.00000000000E+00 0. -1.
         25    2    1    2    0    0 -0.14741986952E+03  0.59989952985E+02 -0.23930135579E+03  0.31340440539E+03  0.12500308014E+03 0.  0.
          2    1    1    2  501    0  0.34452267882E+02  0.28729969217E+01 -0.10689543260E+04  0.10695132369E+04  0.00000000000E+00 0. -1.
          1    1    1    2  502    0  0.11296760164E+03 -0.62862949907E+02  0.88740316546E+03  0.89677076645E+03  0.00000000000E+00 0. -1.
         22    1    3    3    0    0 -0.58338328223E+02  0.47078475385E+01 -0.75131324227E+01  0.59008232707E+02  0.00000000000E+00 0. -1.
         22    1    3    3    0    0 -0.89081541294E+02  0.55282105447E+02 -0.23178822337E+03  0.25439617268E+03  0.00000000000E+00 0. -1.
</event>
<event>
 7    1  0.5562528E-006  0.1530426E+03  0.7818608E-02  0.1351961E+00
          2   -1    0    0  502    0  0.00000000000E+00  0.00000000000E+00  0.23322675265E+03  0.23322675265E+03  0.00000000000E+00 0. -1.
          1   -1    0    0  501    0 -0.00000000000E+00 -0.00000000000E+00 -0.95778473290E+03  0.95778473290E+03  0.00000000000E+00 0. -1.
         25    2    1    2    0    0  0.12071016950E+03  0.71348215247E+02 -0.14692183545E+03  0.23847822515E+03  0.12499730116E+03 0.  0.
          2    1    1    2  501    0 -0.59421894578E+01  0.33777170106E+02 -0.73230782173E+03  0.73311046412E+03  0.00000000000E+00 0. -1.
          1    1    1    2  502    0 -0.11476798004E+03 -0.10512538535E+03  0.15467167692E+03  0.21942279629E+03  0.00000000000E+00 0. -1.
         22    1    3    3    0    0  0.72694368284E+02  0.88053831225E+02 -0.14885168638E+03  0.18760269964E+03  0.00000000000E+00 0.  1.
         22    1    3    3    0    0  0.48015801212E+02 -0.16705615978E+02  0.19298509274E+01  0.50875525509E+02  0.00000000000E+00 0.  1.
</event>
<event>
 7    1  0.5562528E-006  0.5105416E+02  0.7818608E-02  0.1474971E+00
          2   -1    0    0  502    0  0.00000000000E+00  0.00000000000E+00  0.24273032605E+04  0.24273032605E+04  0.00000000000E+00 0. -1.
          1   -1    0    0  501    0 -0.00000000000E+00 -0.00000000000E+00 -0.15828808306E+03  0.15828808306E+03  0.00000000000E+00 0. -1.
         25    2    1    2    0    0 -0.25593083782E+02 -0.82569061692E+02 -0.32880179326E+01  0.15201498211E+03  0.12500035135E+03 0.  0.
          2    1    1    2  501    0  0.23583688154E+02  0.31670096995E+02 -0.75509714898E+02  0.85210929079E+02  0.00000000000E+00 0. -1.
          1    1    1    2  502    0  0.20093956282E+01  0.50898964697E+02  0.23478129103E+04  0.23483654324E+04  0.00000000000E+00 0. -1.
         22    1    3    3    0    0 -0.26998630514E+02 -0.86327836573E+02  0.46748570013E+02  0.10181773036E+03  0.00000000000E+00 0. -1.
         22    1    3    3    0    0  0.14055467318E+01  0.37587748811E+01 -0.50036587945E+02  0.50197251752E+02  0.00000000000E+00 0. -1.
</event>
<event>
 7    1  0.5562528E-006  0.5851860E+02  0.7818608E-02  0.1442742E+00
          2   -1    0    0  502    0  0.00000000000E+00  0.00000000000E+00  0.17296669809E+04  0.17296669809E+04  0.00000000000E+00 0. -1.
          1   -1    0    0  501    0 -0.00000000000E+00 -0.00000000000E+00 -0.78898777459E+02  0.78898777459E+02  0.00000000000E+00 0. -1.
         25    2    1    2    0    0 -0.58224087262E+02  0.44461897840E+02  0.48085900242E+03  0.50221274561E+03  0.12500142777E+03 0.  0.
          2    1    1    2  501    0  0.16277634672E+02 -0.56187904339E+02 -0.55223274080E+02  0.80446578452E+02  0.00000000000E+00 0. -1.
          1    1    1    2  502    0  0.41946452590E+02  0.11726006499E+02  0.12251324751E+04  0.12259064343E+04  0.00000000000E+00 0. -1.
         22    1    3    3    0    0 -0.71724658307E+02  0.32726056938E+02  0.47755868057E+03  0.48402243213E+03  0.00000000000E+00 0.  1.
         22    1    3    3    0    0  0.13500571046E+02  0.11735840902E+02  0.33003218495E+01  0.18190313481E+02  0.00000000000E+00 0.  1.
</event>
<event>
 7    1  0.5562528E-006  0.6932944E+02  0.7818608E-02  0.1474627E+00
          2   -1    0    0  502    0  0.00000000000E+00  0.00000000000E+00  0.44041254000E+03  0.44041254000E+03  0.00000000000E+00 0. -1.
          1   -1    0    0  501    0 -0.00000000000E+00 -0.00000000000E+00 -0.74993701976E+03  0.74993701976E+03  0.00000000000E+00 0. -1.
         25    2    1    2    0    0  0.18648454775E+01 -0.43254678229E+02  0.22358354350E+02  0.13415870838E+03  0.12499687271E+03 0.  0.
          2    1    1    2  501    0  0.11983674980E+02  0.68903975857E+02 -0.69168401139E+03  0.69521085864E+03  0.00000000000E+00 0. -1.
          1    1    1    2  502    0 -0.13848520458E+02 -0.25649297628E+02  0.35980117728E+03  0.36097999275E+03  0.00000000000E+00 0. -1.
         22    1    3    3    0    0 -0.24439647656E+02  0.30345317928E+02  0.38026904823E+02  0.54444285174E+02  0.00000000000E+00 0. -1.
         22    1    3    3    0    0  0.26304493134E+02 -0.73599996157E+02 -0.15668550472E+02  0.79714423207E+02  0.00000000000E+00 0. -1.
</event>
<event>
 7    1  0.5562528E-006  0.1190144E+03  0.7818608E-02  0.1271154E+00
          2   -1    0    0  502    0  0.00000000000E+00  0.00000000000E+00  0.50028548498E+02  0.50028548498E+02  0.00000000000E+00 0. -1.
          1   -1    0    0  501    0 -0.00000000000E+00 -0.00000000000E+00 -0.24268735003E+04  0.24268735003E+04  0.00000000000E+00 0. -1.
         25    2    1    2    0    0  0.79137686676E+02  0.73655246823E+02 -0.55227793777E+03  0.57647528228E+03  0.12499984679E+03 0.  0.
          2    1    1    2  501    0  0.47269486648E+02 -0.78594819476E+02 -0.17523752935E+04  0.17547736946E+04  0.00000000000E+00 0. -1.
          1    1    1    2  502    0 -0.12640717332E+03  0.49395726530E+01 -0.72191720547E+02  0.14565307193E+03  0.00000000000E+00 0. -1.
         22    1    3    3    0    0  0.25267650113E+02  0.63302931006E+02 -0.48454340875E+03  0.48931383608E+03  0.00000000000E+00 0. -1.
         22    1    3    3    0    0  0.53870036563E+02  0.10352315817E+02 -0.67734529014E+02  0.87161446195E+02  0.00000000000E+00 0. -1.
</event>
<event>
 7    1  0.9236245E-006  0.9631119E+02  0.7818608E-02  0.1382975E+00
          2   -1    0    0  502    0  0.00000000000E+00  0.00000000000E+00  0.26738203371E+04  0.26738203371E+04  0.00000000000E+00 0. -1.
          1   -1    0    0  501    0 -0.00000000000E+00 -0.00000000000E+00 -0.22108114916E+04  0.22108114916E+04  0.00000000000E+00 0. -1.
         25    2    1    2    0    0  0.12932998245E+03 -0.33315481485E+02 -0.41200681621E+03  0.45078887485E+03  0.12499930966E+03 0.  0.
          2    1    1    2  501    0 -0.93281354190E+02  0.11539122066E+02 -0.17780051809E+04  0.17804878504E+04  0.00000000000E+00 0. -1.
          1    1    1    2  502    0 -0.36048628262E+02  0.21776359419E+02  0.26530208426E+04  0.26533551034E+04  0.00000000000E+00 0. -1.
         22    1    3    3    0    0  0.55585544762E+02 -0.38024235717E+02 -0.57172465529E+02  0.88341870611E+02  0.00000000000E+00 0.  1.
         22    1    3    3    0    0  0.73744437690E+02  0.47087542319E+01 -0.35483435068E+03  0.36244700424E+03  0.00000000000E+00 0.  1.
</event>
<event>
 7    1  0.5562528E-006  0.2238944E+03  0.7818608E-02  0.1251248E+00
          2   -1    0    0  502    0  0.00000000000E+00  0.00000000000E+00  0.11707121888E+04  0.11707121888E+04  0.00000000000E+00 0. -1.
          1   -1    0    0  501    0 -0.00000000000E+00 -0.00000000000E+00 -0.29650169820E+03  0.29650169820E+03  0.00000000000E+00 0. -1.
         25    2    1    2    0    0  0.19455301405E+03 -0.12053837134E+03  0.17009996380E+03  0.31134938804E+03  0.12499627798E+03 0.  0.
          2    1    1    2  501    0 -0.40989556920E+02 -0.42803016036E+02 -0.20816927644E+03  0.21644096103E+03  0.00000000000E+00 0. -1.
          1    1    1    2  502    0 -0.15356345713E+03  0.16334138737E+03  0.91227980326E+03  0.93942353794E+03  0.00000000000E+00 0. -1.
         22    1    3    3    0    0  0.40047458670E+02 -0.79562844846E+02  0.18351732203E+02  0.90944110864E+02  0.00000000000E+00 0. -1.
         22    1    3    3    0    0  0.15450555538E+03 -0.40975526489E+02  0.15174823160E+03  0.22040527718E+03  0.00000000000E+00 0. -1.
</event>
<event>
 7    1  0.5562528E-006  0.5638142E+02  0.7818608E-02  0.1446147E+00
          2   -1    0    0  502    0  0.00000000000E+00  0.00000000000E+00  0.39767769533E+03  0.39767769533E+03  0.00000000000E+00 0. -1.
          1   -1    0    0  501    0 -0.00000000000E+00 -0.00000000000E+00 -0.82956074962E+03  0.82956074962E+03  0.00000000000E+00 0. -1.
         25    2    1    2    0    0  0.20897855047E+02 -0.19309929477E+01 -0.38384910418E+03  0.40423598089E+03  0.12500457744E+03 0.  0.
          2    1    1    2  501    0 -0.63272986762E+02  0.14060747915E+02 -0.43183827450E+03  0.43667547539E+03  0.00000000000E+00 0. -1.
          1    1    1    2  502    0  0.42375131715E+02 -0.12129754967E+02  0.38380432440E+03  0.38632698866E+03  0.00000000000E+00 0. -1.
         22    1    3    3    0    0  0.63717674862E+02  0.67074267867E+01 -0.11310883334E+03  0.12999438389E+03  0.00000000000E+00 0.  1.
         22    1    3    3    0    0 -0.42819819815E+02 -0.86384197343E+01 -0.27074027085E+03  0.27424159700E+03  0.00000000000E+00 0.  1.
</event>
<event>
 7    1  0.5562528E-006  0.8707960E+02  0.7818608E-02  0.1362941E+00
          2   -1    0    0  502    0  0.00000000000E+00  0.00000000000E+00  0.31565019793E+03  0.31565019793E+03  0.00000000000E+00 0. -1.
          1   -1    0    0  501    0 -0.00000000000E+00 -0.00000000000E+00 -0.24151984746E+03  0.24151984746E+03  0.00000000000E+00 0. -1.
         25    2    1    2    0    0  0.26164524093E+02 -0.12890833395E+03 -0.65697185098E+02  0.19298432723E+03  0.12499955817E+03 0.  0.
          2    1    1    2  501    0 -0.32458537858E+02  0.44330010614E+02 -0.97634606504E+02  0.11203224049E+03  0.00000000000E+00 0. -1.
          1    1    1    2  502    0  0.62940137648E+01  0.84578323332E+02  0.23746214208E+03  0.25215347768E+03  0.00000000000E+00 0. -1.
         22    1    3    3    0    0  0.60408191136E+02 -0.82018861944E+02  0.44052292172E+01  0.10195905705E+03  0.00000000000E+00 0.  1.
         22    1    3    3    0    0 -0.34243667042E+02 -0.46889472003E+02 -0.70102414315E+02  0.91025270172E+02  0.00000000000E+00 0.  1.
</event>
<event>
 7    1  0.5562528E-006  0.1402417E+03  0.7818608E-02  0.1363960E+00
          2   -1    0    0  502    0  0.00000000000E+00  0.00000000000E+00  0.31219805609E+04  0.31219805609E+04  0.00000000000E+00 0. -1.
          1   -1    0    0  501    0 -0.00000000000E+00 -0.00000000000E+00 -0.55020770280E+03  0.55020770280E+03  0.00000000000E+00 0. -1.
         25    2    1    2    0    0 -0.16193470235E+03 -0.60863292476E+02  0.15992091102E+03  0.26669530377E+03  0.12499799629E+03 0.  0.
          2    1    1    2  501    0  0.32211171295E+02  0.10326521193E+02 -0.49457658449E+03  0.49573197851E+03  0.00000000000E+00 0. -1.
          1    1    1    2  502    0  0.12972353106E+03  0.50536771283E+02  0.29064285315E+04  0.29097609814E+04  0.00000000000E+00 0. -1.
         22    1    3    3    0    0 -0.18154090938E+03 -0.64750640167E+02  0.13814398985E+03  0.23713605612E+03  0.00000000000E+00 0. -1.
         22    1    3    3    0    0  0.19606207029E+02  0.38873476915E+01  0.21776921168E+02  0.29559247651E+02  0.00000000000E+00 0. -1.
</event>
<event>
 7    1  0.5562528E-006  0.2360456E+02  0.7818608E-02  0.1691119E+00
          2   -1    0    0  502    0  0.00000000000E+00  0.00000000000E+00  0.14192724761E+04  0.14192724761E+04  0.00000000000E+00 0. -1.
          1   -1    0    0  501    0 -0.00000000000E+00 -0.00000000000E+00 -0.75002516509E+02  0.75002516509E+02  0.00000000000E+00 0. -1.
         25    2    1    2    0    0  0.24880645004E+02  0.37549357490E+02  0.40147479736E+03  0.42289002811E+03  0.12499984886E+03 0.  0.
          2    1    1    2  501    0 -0.15644720836E+02 -0.16112274155E+02 -0.62194110486E+02  0.66124655369E+02  0.00000000000E+00 0. -1.
          1    1    1    2  502    0 -0.92359241685E+01 -0.21437083335E+02  0.10049892727E+04  0.10052603091E+04  0.00000000000E+00 0. -1.
         22    1    3    3    0    0  0.69213891916E+02 -0.35150469082E+01  0.25939077865E+03  0.26848928179E+03  0.00000000000E+00 0. -1.
         22    1    3    3    0    0 -0.44333246912E+02  0.41064404398E+02  0.14208401872E+03  0.15440074632E+03  0.00000000000E+00 0. -1.
</event>
<event>
 7    1  0.5562528E-006  0.7827649E+02  0.7818608E-02  0.1408340E+00
          2   -1    0    0  502    0  0.00000000000E+00  0.00000000000E+00  0.10175215628E+04  0.10175215628E+04  0.00000000000E+00 0. -1.
          1   -1    0    0  501    0 -0.00000000000E+00 -0.00000000000E+00 -0.24549144301E+04  0.24549144301E+04  0.00000000000E+00 0. -1.
         25    2    1    2    0    0 -0.11396940331E+03 -0.32287011892E+01  0.22166647439E+03  0.27886009157E+03  0.12500990120E+03 0.  0.
          2    1    1    2  501    0  0.76456840482E+02 -0.16393830900E+02 -0.24251030067E+04  0.24263633279E+04  0.00000000000E+00 0. -1.
          1    1    1    2  502    0  0.37512562827E+02  0.19622532090E+02  0.76604366502E+03  0.76721257345E+03  0.00000000000E+00 0. -1.
         22    1    3    3    0    0 -0.59991742229E+02 -0.61052649089E+02  0.83060770043E+02  0.11927081209E+03  0.00000000000E+00 0.  1.
         22    1    3    3    0    0 -0.53977661080E+02  0.57823947900E+02  0.13860570435E+03  0.15958927948E+03  0.00000000000E+00 0.  1.
</event>
<event>
 7    1  0.5562528E-006  0.7732321E+02  0.7818608E-02  0.1388684E+00
          2   -1    0    0  502    0  0.00000000000E+00  0.00000000000E+00  0.29302661432E+03  0.29302661432E+03  0.00000000000E+00 0. -1.
          1   -1    0    0  501    0 -0.00000000000E+00 -0.00000000000E+00 -0.42127389319E+03  0.42127389319E+03  0.00000000000E+00 0. -1.
         25    2    1    2    0    0  0.50659308147E+02 -0.32279728619E+02  0.94563241081E+02  0.16785781678E+03  0.12500277481E+03 0.  0.
          2    1    1    2  501    0  0.34776274469E+02  0.36052307236E+02 -0.37152816097E+03  0.37488976048E+03  0.00000000000E+00 0. -1.
          1    1    1    2  502    0 -0.85435582616E+02 -0.37725786171E+01  0.14871764102E+03  0.17155293025E+03  0.00000000000E+00 0. -1.
         22    1    3    3    0    0  0.14140581624E+02 -0.63375582327E+02  0.10037023758E+03  0.11954331882E+03  0.00000000000E+00 0. -1.
         22    1    3    3    0    0  0.36518726523E+02  0.31095853709E+02 -0.58069964949E+01  0.48314497959E+02  0.00000000000E+00 0. -1.
</event>
<event>
 7    1  0.5562528E-006  0.2354315E+03  0.7818608E-02  0.1174364E+00
          2   -1    0    0  502    0  0.00000000000E+00  0.00000000000E+00  0.28128828646E+03  0.28128828646E+03  0.00000000000E+00 0. -1.
          1   -1    0    0  501    0 -0.00000000000E+00 -0.00000000000E+00 -0.77909333861E+03  0.77909333861E+03  0.00000000000E+00 0. -1.
         25    2    1    2    0    0 -0.21338308497E+03 -0.18982601609E+03  0.53334218464E+02  0.31628461047E+03  0.12500063448E+03 0.  0.
          2    1    1    2  501    0  0.22941318763E+02  0.12561069767E+03 -0.52632699583E+03  0.54159436667E+03  0.00000000000E+00 0. -1.
          1    1    1    2  502    0  0.19044176621E+03  0.64215318427E+02 -0.24812274783E+02  0.20250264793E+03  0.00000000000E+00 0. -1.
         22    1    3    3    0    0 -0.17151315976E+03 -0.15779714837E+03  0.92362249559E+02  0.25069401498E+03  0.00000000000E+00 0.  1.
         22    1    3    3    0    0 -0.41869925215E+02 -0.32028867722E+02 -0.39028031095E+02  0.65590595486E+02  0.00000000000E+00 0.  1.
</event>
<event>
 7    1  0.5562528E-006  0.8271944E+02  0.7818608E-02  0.1465907E+00
          2   -1    0    0  502    0  0.00000000000E+00  0.00000000000E+00  0.54478646486E+03  0.54478646486E+03  0.00000000000E+00 0. -1.
          1   -1    0    0  501    0 -0.00000000000E+00 -0.00000000000E+00 -0.10044361636E+03  0.10044361636E+03  0.00000000000E+00 0. -1.
         25    2    1    2    0    0  0.68879621059E+02 -0.73806591774E+02  0.83124124965E+02  0.18090358016E+03  0.12499867990E+03 0.  0.
          2    1    1    2  501    0 -0.61803647816E+02  0.48783235303E+02 -0.20788663661E+02  0.81435026044E+02  0.00000000000E+00 0. -1.
          1    1    1    2  502    0 -0.70759732429E+01  0.25023356471E+02  0.38200738720E+03  0.38289147501E+03  0.00000000000E+00 0. -1.
         22    1    3    3    0    0  0.10337200182E+03 -0.38476394762E+02  0.47904853031E+02  0.12025422512E+03  0.00000000000E+00 0. -1.
         22    1    3    3    0    0 -0.34492380761E+02 -0.35330197012E+02  0.35219271934E+02  0.60649355042E+02  0.00000000000E+00 0. -1.
</event>
<event>
 7    1  0.5562528E-006  0.1223857E+03  0.7818608E-02  0.1292587E+00
          2   -1    0    0  502    0  0.00000000000E+00  0.00000000000E+00  0.10766534445E+04  0.10766534445E+04  0.00000000000E+00 0. -1.
          1   -1    0    0  501    0 -0.00000000000E+00 -0.00000000000E+00 -0.56520484234E+03  0.56520484234E+03  0.00000000000E+00 0. -1.
         25    2    1    2    0    0 -0.38993580734E+02 -0.62000080503E+02  0.32734014113E+03  0.35796787721E+03  0.12499969519E+03 0.  0.
          2    1    1    2  501    0  0.11130372176E+03  0.53766888851E+02 -0.54110003810E+03  0.55503932117E+03  0.00000000000E+00 0. -1.
          1    1    1    2  502    0 -0.72310141024E+02  0.82331916516E+01  0.72520849915E+03  0.72885108849E+03  0.00000000000E+00 0. -1.
         22    1    3    3    0    0  0.54087984300E+01  0.31787301811E+02  0.14142854800E+03  0.14505765008E+03  0.00000000000E+00 0. -1.
         22    1    3    3    0    0 -0.44402379164E+02 -0.93787382314E+02  0.18591159313E+03  0.21291022713E+03  0.00000000000E+00 0. -1.
</event>
<event>
 7    1  0.5562528E-006  0.2915016E+02  0.7818608E-02  0.1662524E+00
          2   -1    0    0  502    0  0.00000000000E+00  0.00000000000E+00  0.60307281905E+03  0.60307281905E+03  0.00000000000E+00 0. -1.
          1   -1    0    0  501    0 -0.00000000000E+00 -0.00000000000E+00 -0.27090006789E+03  0.27090006789E+03  0.00000000000E+00 0. -1.
         25    2    1    2    0    0  0.31973264319E+02 -0.23503264415E+02  0.14646557972E+03  0.19660140214E+03  0.12500100885E+03 0.  0.
          2    1    1    2  501    0 -0.30218649257E+01  0.21044049248E+02 -0.24488198896E+03  0.24580311672E+03  0.00000000000E+00 0. -1.
          1    1    1    2  502    0 -0.28951399393E+02  0.24592151676E+01  0.43058916040E+03  0.43156836807E+03  0.00000000000E+00 0. -1.
         22    1    3    3    0    0 -0.36144615846E+02 -0.46711802822E+02  0.61807172624E+02  0.85490071735E+02  0.00000000000E+00 0. -1.
         22    1    3    3    0    0  0.68117880165E+02  0.23208538407E+02  0.84658407092E+02  0.11111133041E+03  0.00000000000E+00 0. -1.
</event>
<event>
 7    1  0.5562528E-006  0.1209618E+03  0.7818608E-02  0.1425438E+00
          2   -1    0    0  502    0  0.00000000000E+00  0.00000000000E+00  0.62673604370E+03  0.62673604370E+03  0.00000000000E+00 0. -1.
          1   -1    0    0  501    0 -0.00000000000E+00 -0.00000000000E+00 -0.86179452375E+03  0.86179452375E+03  0.00000000000E+00 0. -1.
         25    2    1    2    0    0 -0.35458576591E+02 -0.13556901591E+03 -0.24598785533E+03  0.30947045634E+03  0.12500267858E+03 0.  0.
          2    1    1    2  501    0  0.22732240402E+02  0.11521421208E+03 -0.57791528165E+03  0.58972632820E+03  0.00000000000E+00 0. -1.
          1    1    1    2  502    0  0.12726336188E+02  0.20354803838E+02  0.58884465693E+03  0.58933378290E+03  0.00000000000E+00 0. -1.
         22    1    3    3    0    0 -0.49466201757E+02 -0.19033014134E+01 -0.40622494199E+02  0.64036823059E+02  0.00000000000E+00 0.  1.
         22    1    3    3    0    0  0.14007625167E+02 -0.13366571450E+03 -0.20536536113E+03  0.24543363328E+03  0.00000000000E+00 0.  1.
</event>
<event>
 7    1  0.5562528E-006  0.1359126E+03  0.7818608E-02  0.1275047E+00
          2   -1    0    0  502    0  0.00000000000E+00  0.00000000000E+00  0.27823906833E+04  0.27823906833E+04  0.00000000000E+00 0. -1.
          1   -1    0    0  501    0 -0.00000000000E+00 -0.00000000000E+00 -0.89728952837E+02  0.89728952837E+02  0.00000000000E+00 0. -1.
         25    2    1    2    0    0 -0.68162999395E+02  0.57898194731E+02  0.99043747160E+03  0.10022951871E+04  0.12502344344E+03 0.  0.
          2    1    1    2  501    0 -0.60947155769E+02  0.47643673931E+02 -0.61133530307E+02  0.98599107449E+02  0.00000000000E+00 0. -1.
          1    1    1    2  502    0  0.12911015516E+03 -0.10554186866E+03  0.17633577891E+04  0.17712253416E+04  0.00000000000E+00 0. -1.
         22    1    3    3    0    0 -0.67226269885E+02  0.26316719117E+00  0.22859889662E+03  0.23827903004E+03  0.00000000000E+00 0.  1.
         22    1    3    3    0    0 -0.93672951054E+00  0.57635027540E+02  0.76183857497E+03  0.76401615701E+03  0.00000000000E+00 0.  1.
</event>
<event>
 7    1  0.5562528E-006  0.1581382E+03  0.7818608E-02  0.1197978E+00
          2   -1    0    0  502    0  0.00000000000E+00  0.00000000000E+00  0.93191968919E+03  0.93191968919E+03  0.00000000000E+00 0. -1.
          1   -1    0    0  501    0 -0.00000000000E+00 -0.00000000000E+00 -0.27299277834E+03  0.27299277834E+03  0.00000000000E+00 0. -1.
         25    2    1    2    0    0 -0.14114605772E+03 -0.17878394789E+03  0.36523994169E+03  0.44823196434E+03  0.12500307681E+03 0.  0.
          2    1    1    2  501    0 -0.33564757473E+01  0.15661061693E+03 -0.19296551303E+03  0.24854343783E+03  0.00000000000E+00 0. -1.
          1    1    1    2  502    0  0.14450253347E+03  0.22173330960E+02  0.48665248219E+03  0.50813706537E+03  0.00000000000E+00 0. -1.
         22    1    3    3    0    0 -0.12908795810E+03 -0.13948447912E+03  0.35960811946E+03  0.40674023704E+03  0.00000000000E+00 0. -1.
         22    1    3    3    0    0 -0.12058099617E+02 -0.39299468776E+02  0.56318222252E+01  0.41491727296E+02  0.00000000000E+00 0. -1.
</event>
<event>
 7    1  0.5562528E-006  0.7261384E+02  0.7818608E-02  0.1480187E+00
          2   -1    0    0  502    0  0.00000000000E+00  0.00000000000E+00  0.17803618967E+04  0.17803618967E+04  0.00000000000E+00 0. -1.
          1   -1    0    0  501    0 -0.00000000000E+00 -0.00000000000E+00 -0.29628286698E+03  0.29628286698E+03  0.00000000000E+00 0. -1.
         25    2    1    2    0    0  0.46239977049E+02 -0.87297474789E+02  0.12834305042E+03  0.20458940910E+03  0.12500361252E+03 0.  0.
          2    1    1    2  501    0 -0.13452641947E+02  0.23126934896E+02 -0.25665957036E+03  0.25805031244E+03  0.00000000000E+00 0. -1.
          1    1    1    2  502    0 -0.32787335102E+02  0.64170539894E+02  0.16123955496E+04  0.16140050421E+04  0.00000000000E+00 0. -1.
         22    1    3    3    0    0  0.36115650663E+02  0.10934285717E+02  0.91869006365E+02  0.99316731508E+02  0.00000000000E+00 0. -1.
         22    1    3    3    0    0  0.10124326386E+02 -0.98231760506E+02  0.36474044051E+02  0.10527267759E+03  0.00000000000E+00 0. -1.
</event>
<event>
 7    1  0.5562528E-006  0.1001236E+03  0.7818608E-02  0.1287991E+00
          2   -1    0    0  502    0  0.00000000000E+00  0.00000000000E+00  0.17784644307E+04  0.17784644307E+04  0.00000000000E+00 0. -1.
          1   -1    0    0  501    0 -0.00000000000E+00 -0.00000000000E+00 -0.18686835258E+03  0.18686835258E+03  0.00000000000E+00 0. -1.
         25    2    1    2    0    0 -0.61083793941E+01 -0.13420653039E+03  0.10462168566E+03  0.21123548996E+03  0.12500411996E+03 0.  0.
          2    1    1    2  501    0  0.71955133917E+02  0.58712498702E+02 -0.11566260715E+03  0.14833252338E+03  0.00000000000E+00 0. -1.
          1    1    1    2  502    0 -0.65846754523E+02  0.75494031692E+02  0.16026369996E+04  0.16057647699E+04  0.00000000000E+00 0. -1.
         22    1    3    3    0    0 -0.14701707762E+02  0.15238748179E+01 -0.21276242143E+02  0.25906386960E+02  0.00000000000E+00 0.  1.
         22    1    3    3    0    0  0.85933283674E+01 -0.13573040521E+03  0.12589792781E+03  0.18532910300E+03  0.00000000000E+00 0.  1.
</event>
<event>
 7    1  0.5562528E-006  0.5946294E+02  0.7818608E-02  0.1414923E+00
          2   -1    0    0  502    0  0.00000000000E+00  0.00000000000E+00  0.15476045189E+04  0.15476045189E+04  0.00000000000E+00 0. -1.
          1   -1    0    0  501    0 -0.00000000000E+00 -0.00000000000E+00 -0.44579693378E+02  0.44579693378E+02  0.00000000000E+00 0. -1.
         25    2    1    2    0    0  0.99704739215E+00 -0.13009643232E+01  0.59000866830E+03  0.60310706685E+03  0.12500087523E+03 0.  0.
          2    1    1    2  501    0  0.16520537786E+01 -0.59439989168E+02 -0.13164769221E+02  0.60902813913E+02  0.00000000000E+00 0. -1.
          1    1    1    2  502    0 -0.26491011708E+01  0.60740953491E+02  0.92618092646E+03  0.92817433153E+03  0.00000000000E+00 0. -1.
         22    1    3    3    0    0  0.11374229011E+02 -0.16070588686E+02  0.87114554197E+01  0.21529662371E+02  0.00000000000E+00 0.  1.
         22    1    3    3    0    0 -0.10377181619E+02  0.14769624362E+02  0.58129721288E+03  0.58157740448E+03  0.00000000000E+00 0.  1.
</event>
<event>
 7    1  0.5562528E-006  0.9674785E+02  0.7818608E-02  0.1399466E+00
          2   -1    0    0  502    0  0.00000000000E+00  0.00000000000E+00  0.11850384722E+04  0.11850384722E+04  0.00000000000E+00 0. -1.
          1   -1    0    0  501    0 -0.00000000000E+00 -0.00000000000E+00 -0.38084201437E+02  0.38084201437E+02  0.00000000000E+00 0. -1.
         25    2    1    2    0    0  0.42433838659E+02 -0.51811134083E+02  0.21618315274E+03  0.25854369415E+03  0.12499864791E+03 0.  0.
          2    1    1    2  501    0  0.34075150770E+02 -0.13712685787E+02  0.96649224118E+01  0.37981105523E+02  0.00000000000E+00 0. -1.
          1    1    1    2  502    0 -0.76508989429E+02  0.65523819870E+02  0.92110619566E+03  0.92659787401E+03  0.00000000000E+00 0. -1.
         22    1    3    3    0    0 -0.43468240302E+02 -0.20328473251E+02  0.97700912366E+02  0.10884945116E+03  0.00000000000E+00 0.  1.
         22    1    3    3    0    0  0.85902078961E+02 -0.31482660832E+02  0.11848224037E+03  0.14969424300E+03  0.00000000000E+00 0.  1.
</event>
<event>
 7    1  0.5562528E-006  0.1828521E+03  0.7818608E-02  0.1311225E+00
          2   -1    0    0  502    0  0.00000000000E+00  0.00000000000E+00  0.13260502403E+04  0.13260502403E+04  0.00000000000E+00 0. -1.
          1   -1    0    0  501    0 -0.00000000000E+00 -0.00000000000E+00 -0.18577947233E+03  0.18577947233E+03  0.00000000000E+00 0. -1.
         25    2    1    2    0    0  0.38329235401E+02  0.18888166785E+03  0.66265896624E+03  0.70134660887E+03  0.12499898203E+03 0.  0.
          2    1    1    2  501    0 -0.73128360497E+02 -0.16712121028E+03 -0.11552745193E+03  0.21592556167E+03  0.00000000000E+00 0. -1.
          1    1    1    2  502    0  0.34799125096E+02 -0.21760457570E+02  0.59313925370E+03  0.59455754213E+03  0.00000000000E+00 0. -1.
         22    1    3    3    0    0  0.70754643828E+02  0.18156037725E+03  0.53329021015E+03  0.56777534153E+03  0.00000000000E+00 0. -1.
         22    1    3    3    0    0 -0.32425408427E+02  0.73212905996E+01  0.12936875609E+03  0.13357126734E+03  0.00000000000E+00 0. -1.
</event>
<event>
 7    1  0.5562528E-006  0.1802843E+03  0.7818608E-02  0.1277179E+00
          2   -1    0    0  502    0  0.00000000000E+00  0.00000000000E+00  0.76555349808E+03  0.76555349808E+03  0.00000000000E+00 0. -1.
          1   -1    0    0  501    0 -0.00000000000E+00 -0.00000000000E+00 -0.14966542789E+03  0.14966542789E+03  0.00000000000E+00 0. -1.
         25    2    1    2    0    0 -0.93898013911E+02  0.94415955580E+02  0.56503740630E+03  0.59382100182E+03  0.12499960800E+03 0.  0.
          2    1    1    2  501    0  0.11142128467E+03 -0.14880398261E+03 -0.61123153870E+02  0.19568691284E+03  0.00000000000E+00 0. -1.
          1    1    1    2  502    0 -0.17523270763E+02  0.54388027026E+02  0.11197381776E+03  0.12571101131E+03  0.00000000000E+00 0. -1.
         22    1    3    3    0    0 -0.22369161666E+02  0.10758909509E+03  0.33628183432E+03  0.35378138005E+03  0.00000000000E+00 0.  1.
         22    1    3    3    0    0 -0.71528852244E+02 -0.13173139510E+02  0.22875557197E+03  0.24003962177E+03  0.00000000000E+00 0.  1.
</event>
<event>
 7    1  0.5562528E-006  0.1123537E+03  0.7818608E-02  0.1364525E+00
          2   -1    0    0  502    0  0.00000000000E+00  0.00000000000E+00  0.63527019737E+03  0.63527019737E+03  0.00000000000E+00 0. -1.
          1   -1    0    0  501    0 -0.00000000000E+00 -0.00000000000E+00 -0.42979094034E+03  0.42979094034E+03  0.00000000000E+00 0. -1.
         25    2    1    2    0    0 -0.26429083699E+02 -0.12695068557E+03  0.35596240421E+03  0.39893495774E+03  0.12499957705E+03 0.  0.
          2    1    1    2  501    0 -0.24060218185E+02  0.34453714719E+02 -0.39637941328E+03  0.39860079256E+03  0.00000000000E+00 0. -1.
          1    1    1    2  502    0  0.50489301885E+02  0.92496970852E+02  0.24589626610E+03  0.26752538740E+03  0.00000000000E+00 0. -1.
         22    1    3    3    0    0 -0.20490197228E+02  0.56839324571E+01  0.25616755132E+01  0.21417690166E+02  0.00000000000E+00 0.  1.
         22    1    3    3    0    0 -0.59388864708E+01 -0.13263461803E+03  0.35340072870E+03  0.37751726757E+03  0.00000000000E+00 0.  1.
</event>
<event>
 7    1  0.5562528E-006  0.4365367E+02  0.7818608E-02  0.1591101E+00
          2   -1    0    0  502    0  0.00000000000E+00  0.00000000000E+00  0.19527361702E+03  0.19527361702E+03  0.00000000000E+00 0. -1.
          1   -1    0    0  501    0 -0.00000000000E+00 -0.00000000000E+00 -0.90606336183E+03  0.90606336183E+03  0.00000000000E+00 0. -1.
         25    2    1    2    0    0 -0.35748888851E+02  0.17258813008E+02 -0.52055922494E+03  0.53682729370E+03  0.12500314763E+03 0.  0.
          2    1    1    2  501    0  0.10787570499E+02  0.18607523544E+02 -0.37450647774E+03  0.37512359760E+03  0.00000000000E+00 0. -1.
          1    1    1    2  502    0  0.24961318352E+02 -0.35866336552E+02  0.18427595786E+03  0.18938608755E+03  0.00000000000E+00 0. -1.
         22    1    3    3    0    0 -0.49446974241E+02 -0.35339417781E+01 -0.50508366018E+03  0.50751058687E+03  0.00000000000E+00 0.  1.
         22    1    3    3    0    0  0.13698085390E+02  0.20792754786E+02 -0.15475564758E+02  0.29316706833E+02  0.00000000000E+00 0.  1.
</event>
<event>
 7    1  0.5562528E-006  0.1176392E+03  0.7818608E-02  0.1383416E+00
          2   -1    0    0  502    0  0.00000000000E+00  0.00000000000E+00  0.15276187318E+03  0.15276187318E+03  0.00000000000E+00 0. -1.
          1   -1    0    0  501    0 -0.00000000000E+00 -0.00000000000E+00 -0.20739577827E+04  0.20739577827E+04  0.00000000000E+00 0. -1.
         25    2    1    2    0    0  0.11407629697E+03  0.14318671073E+02 -0.12029476943E+04  0.12148765643E+04  0.12499394133E+03 0.  0.
          2    1    1    2  501    0  0.20040170448E+01 -0.34298082847E+02 -0.84101084962E+03  0.84171231650E+03  0.00000000000E+00 0. -1.
          1    1    1    2  502    0 -0.11608031402E+03  0.19979411774E+02  0.12276263445E+03  0.17013077503E+03  0.00000000000E+00 0. -1.
         22    1    3    3    0    0 -0.18719777351E+02  0.23569223517E+02 -0.11738176840E+03  0.12117928005E+03  0.00000000000E+00 0.  1.
         22    1    3    3    0    0  0.13279607432E+03 -0.92505524436E+01 -0.10855659259E+04  0.10936972842E+04  0.00000000000E+00 0.  1.
</event>
<event>
 7    1  0.5562528E-006  0.1292870E+03  0.7818608E-02  0.1242101E+00
          2   -1    0    0  502    0  0.00000000000E+00  0.00000000000E+00  0.15996233222E+04  0.15996233222E+04  0.00000000000E+00 0. -1.
          1   -1    0    0  501    0 -0.00000000000E+00 -0.00000000000E+00 -0.33534048694E+03  0.33534048694E+03  0.00000000000E+00 0. -1.
         25    2    1    2    0    0 -0.16832691685E+03  0.15930625754E+03  0.47941025103E+03  0.54696602390E+03  0.12500083152E+03 0.  0.
          2    1    1    2  501    0  0.82387949015E+02 -0.76616319561E+02 -0.28764760979E+03  0.30886725625E+03  0.00000000000E+00 0. -1.
          1    1    1    2  502    0  0.85938967834E+02 -0.82689937981E+02  0.10725201940E+04  0.10791305290E+04  0.00000000000E+00 0. -1.
         22    1    3    3    0    0 -0.17735442912E+03  0.12495830314E+03  0.45437792509E+03  0.50351610685E+03  0.00000000000E+00 0. -1.
         22    1    3    3    0    0  0.90275122705E+01  0.34347954401E+02  0.25032325937E+02  0.43449917044E+02  0.00000000000E+00 0. -1.
</event>
<event>
 7    1  0.5562528E-006  0.7313729E+02  0.7818608E-02  0.1400062E+00
          2   -1    0    0  502    0  0.00000000000E+00  0.00000000000E+00  0.98793604109E+03  0.98793604109E+03  0.00000000000E+00 0. -1.
          1   -1    0    0  501    0 -0.00000000000E+00 -0.00000000000E+00 -0.96509273660E+03  0.96509273660E+03  0.00000000000E+00 0. -1.
         25    2    1    2    0    0 -0.54184618495E+02 -0.22919122716E+02  0.51464341704E+03  0.53286434482E+03  0.12500121685E+03 0.  0.
          2    1    1    2  501    0 -0.26198172769E+02  0.40648630478E+02 -0.95171422550E+03  0.95294208766E+03  0.00000000000E+00 0. -1.
          1    1    1    2  502    0  0.80382791264E+02 -0.17729507762E+02  0.45991411295E+03  0.46722234522E+03  0.00000000000E+00 0. -1.
         22    1    3    3    0    0  0.16357849543E+02  0.37773962714E+02  0.10492515924E+03  0.11271087144E+03  0.00000000000E+00 0. -1.
         22    1    3    3    0    0 -0.70542468038E+02 -0.60693085430E+02  0.40971825780E+03  0.42015347338E+03  0.00000000000E+00 0. -1.
</event>
<event>
 7    1  0.5562528E-006  0.8960421E+02  0.7818608E-02  0.1406871E+00
          2   -1    0    0  502    0  0.00000000000E+00  0.00000000000E+00  0.11126205088E+04  0.11126205088E+04  0.00000000000E+00 0. -1.
          1   -1    0    0  501    0 -0.00000000000E+00 -0.00000000000E+00 -0.16031416366E+03  0.16031416366E+03  0.00000000000E+00 0. -1.
         25    2    1    2    0    0 -0.65073778690E+02 -0.40533192604E+02  0.21992025771E+02  0.14827984774E+03  0.12500291066E+03 0.  0.
          2    1    1    2  501    0  0.14781490991E+02 -0.34366914652E+02 -0.91506710323E+02  0.98858764572E+02  0.00000000000E+00 0. -1.
          1    1    1    2  502    0  0.50292287699E+02  0.74900107256E+02  0.10218210297E+04  0.10257960601E+04  0.00000000000E+00 0. -1.
         22    1    3    3    0    0  0.67864634629E+01  0.38594139899E+02  0.16769616595E+00  0.39186628368E+02  0.00000000000E+00 0.  1.
         22    1    3    3    0    0 -0.71860242153E+02 -0.79127332503E+02  0.21824329605E+02  0.10909321938E+03  0.00000000000E+00 0.  1.
</event>
<event>
 7    1  0.5562528E-006  0.2619653E+02  0.7818608E-02  0.1647983E+00
          2   -1    0    0  502    0  0.00000000000E+00  0.00000000000E+00  0.11951932819E+04  0.11951932819E+04  0.00000000000E+00 0. -1.
          1   -1    0    0  501    0 -0.00000000000E+00 -0.00000000000E+00 -0.92725236323E+03  0.92725236323E+03  0.00000000000E+00 0. -1.
         25    2    1    2    0    0  0.17283526972E+01  0.40508819916E+01 -0.35160899819E+03  0.37320902861E+03  0.12504676957E+03 0.  0.
          2    1    1    2  501    0 -0.25377310398E+02  0.72178792621E+01 -0.56439028192E+03  0.56500663358E+03  0.00000000000E+00 0. -1.
          1    1    1    2  502    0  0.23648957700E+02 -0.11268761254E+02  0.11839401988E+04  0.11842299829E+04  0.00000000000E+00 0. -1.
         22    1    3    3    0    0  0.16935083664E+02  0.53553795830E+02 -0.86827656989E+02  0.10341106384E+03  0.00000000000E+00 0.  1.
         22    1    3    3    0    0 -0.15206730966E+02 -0.49502913839E+02 -0.26478134121E+03  0.26979796477E+03  0.00000000000E+00 0.  1.
</event>
<event>
 7    1  0.5562528E-006  0.9405917E+02  0.7818608E-02  0.1388253E+00
          2   -1    0    0  502    0  0.00000000000E+00  0.00000000000E+00  0.24187060233E+04  0.24187060233E+04  0.00000000000E+00 0. -1.
          1   -1    0    0  501    0 -0.00000000000E+00 -0.00000000000E+00 -0.59125024750E+02  0.59125024750E+02  0.00000000000E+00 0. -1.
         25    2    1    2    0    0 -0.51546637642E+02 -0.76651415505E+02  0.98901936103E+03  0.10011576831E+04  0.12499965817E+03 0.  0.
          2    1    1    2  501    0  0.81371259225E+02  0.48050933632E+02 -0.10421176067E+02  0.95072472153E+02  0.00000000000E+00 0. -1.
          1    1    1    2  502    0 -0.29824621583E+02  0.28600481873E+02  0.13809828136E+04  0.13816008928E+04  0.00000000000E+00 0. -1.
         22    1    3    3    0    0 -0.58536364961E+02  0.85027571672E+01  0.59767924913E+03  0.60059910734E+03  0.00000000000E+00 0. -1.
         22    1    3    3    0    0  0.69897273192E+01 -0.85154172673E+02  0.39134011190E+03  0.40055857573E+03  0.00000000000E+00 0. -1.
</event>
<event>
 7    1  0.5562528E-006  0.7519774E+02  0.7818608E-02  0.1346280E+00
          2   -1    0    0  502    0  0.00000000000E+00  0.00000000000E+00  0.10065045144E+03  0.10065045144E+03  0.00000000000E+00 0. -1.
          1   -1    0    0  501    0 -0.00000000000E+00 -0.00000000000E+00 -0.60846805712E+03  0.60846805712E+03  0.00000000000E+00 0. -1.
         25    2    1    2    0    0  0.83773342757E+02 -0.75912752103E+02 -0.20125621454E+03  0.26250706799E+03  0.12500071186E+03 0.  0.
          2    1    1    2  501    0 -0.73217146101E+02  0.27813119229E+01 -0.35221535325E+03  0.35975566881E+03  0.00000000000E+00 0. -1.
          1    1    1    2  502    0 -0.10556196656E+02  0.73131440180E+02  0.45653962105E+02  0.86855771751E+02  0.00000000000E+00 0. -1.
         22    1    3    3    0    0 -0.97377186133E+01  0.10780806993E+02 -0.96196000113E+02  0.97286789447E+02  0.00000000000E+00 0.  1.
         22    1    3    3    0    0  0.93511061370E+02 -0.86693559096E+02 -0.10506021443E+03  0.16522027855E+03  0.00000000000E+00 0.  1.
</event>
<event>
 7    1  0.5562528E-006  0.1408052E+03  0.7818608E-02  0.1321254E+00
          2   -1    0    0  502    0  0.00000000000E+00  0.00000000000E+00  0.40482832629E+03  0.40482832629E+03  0.00000000000E+00 0. -1.
          1   -1    0    0  501    0 -0.00000000000E+00 -0.00000000000E+00 -0.64868321563E+03  0.64868321563E+03  0.00000000000E+00 0. -1.
         25    2    1    2    0    0 -0.63339688604E+02 -0.79479134714E+02  0.14202128055E+03  0.21476614864E+03  0.12500242184E+03 0.  0.
          2    1    1    2  501    0  0.62822658393E+02  0.12818142387E+03 -0.60123446588E+03  0.61794825575E+03  0.00000000000E+00 0. -1.
          1    1    1    2  502    0  0.51703021108E+00 -0.48702289157E+02  0.21535829598E+03  0.22079713752E+03  0.00000000000E+00 0. -1.
         22    1    3    3    0    0 -0.24107256407E+02 -0.10528971964E+03  0.12404509537E+03  0.16448182440E+03  0.00000000000E+00 0. -1.
         22    1    3    3    0    0 -0.39232432197E+02  0.25810584930E+02  0.17976185182E+02  0.50284324239E+02  0.00000000000E+00 0. -1.
</event>
<event>
 7    1  0.5562528E-006  0.1233300E+03  0.7818608E-02  0.1247609E+00
          2   -1    0    0  502    0  0.00000000000E+00  0.00000000000E+00  0.12892497063E+03  0.12892497063E+03  0.00000000000E+00 0. -1.
          1   -1    0    0  501    0 -0.00000000000E+00 -0.00000000000E+00 -0.38073427743E+04  0.38073427743E+04  0.00000000000E+00 0. -1.
         25    2    1    2    0    0  0.21737081221E+02 -0.78506265701E+01 -0.38634665657E+03  0.40672260482E+03  0.12500162076E+03 0.  0.
          2    1    1    2  501    0  0.29207070187E+02  0.12016710985E+03 -0.33773431271E+04  0.33796064542E+04  0.00000000000E+00 0. -1.
          1    1    1    2  502    0 -0.50944151408E+02 -0.11231648328E+03  0.85271979939E+02  0.14993868594E+03  0.00000000000E+00 0. -1.
         22    1    3    3    0    0  0.46554224390E+02 -0.26611914583E+02 -0.36517535795E+03  0.36909149525E+03  0.00000000000E+00 0.  1.
         22    1    3    3    0    0 -0.24817143169E+02  0.18761288012E+02 -0.21171298619E+02  0.37631109579E+02  0.00000000000E+00 0.  1.
</event>
<event>
 7    1  0.5562528E-006  0.9949354E+02  0.7818608E-02  0.1320622E+00
          2   -1    0    0  502    0  0.00000000000E+00  0.00000000000E+00  0.11450855166E+04  0.11450855166E+04  0.00000000000E+00 0. -1.
          1   -1    0    0  501    0 -0.00000000000E+00 -0.00000000000E+00 -0.26618059929E+03  0.26618059929E+03  0.00000000000E+00 0. -1.
         25    2    1    2    0    0 -0.43381788982E+00 -0.15585943548E+03  0.54717312449E+02  0.20715134828E+03  0.12500137993E+03 0.  0.
          2    1    1    2  501    0  0.30019975274E+02  0.62480479416E+02 -0.18117944523E+03  0.19398711451E+03  0.00000000000E+00 0. -1.
          1    1    1    2  502    0 -0.29586157384E+02  0.93378956069E+02  0.10053670501E+04  0.10101276531E+04  0.00000000000E+00 0. -1.
         22    1    3    3    0    0 -0.25397378080E+02  0.13391736629E+02  0.79411433202E+01  0.29789716019E+02  0.00000000000E+00 0.  1.
         22    1    3    3    0    0  0.24963560190E+02 -0.16925117211E+03  0.46776169129E+02  0.17736163226E+03  0.00000000000E+00 0.  1.
</event>
<event>
 7    1  0.5562528E-006  0.2066929E+03  0.7818608E-02  0.1150156E+00
          2   -1    0    0  502    0  0.00000000000E+00  0.00000000000E+00  0.24596883300E+04  0.24596883300E+04  0.00000000000E+00 0. -1.
          1   -1    0    0  501    0 -0.00000000000E+00 -0.00000000000E+00 -0.11185629088E+04  0.11185629088E+04  0.00000000000E+00 0. -1.
         25    2    1    2    0    0  0.39979309395E+02  0.10468820844E+02  0.53339100402E+02  0.14204622672E+03  0.12499651796E+03 0.  0.
          2    1    1    2  501    0  0.50552987212E+01 -0.21219597655E+03 -0.10591376865E+04  0.10801968930E+04  0.00000000000E+00 0. -1.
          1    1    1    2  502    0 -0.45034608116E+02  0.20172715571E+03  0.23469240074E+04  0.23560081192E+04  0.00000000000E+00 0. -1.
         22    1    3    3    0    0  0.36394300819E+02 -0.23446538174E+02 -0.29549190391E+02  0.52416027484E+02  0.00000000000E+00 0.  1.
         22    1    3    3    0    0  0.35850085765E+01  0.33915359018E+02  0.82888290793E+02  0.89630199232E+02  0.00000000000E+00 0.  1.
</event>
<event>
 7    1  0.5562528E-006  0.1267668E+03  0.7818608E-02  0.1260494E+00
          2   -1    0    0  502    0  0.00000000000E+00  0.00000000000E+00  0.76704256626E+03  0.76704256626E+03  0.00000000000E+00 0. -1.
          1   -1    0    0  501    0 -0.00000000000E+00 -0.00000000000E+00 -0.20938502869E+04  0.20938502869E+04  0.00000000000E+00 0. -1.
         25    2    1    2    0    0 -0.15150120407E+03 -0.14255221237E+03  0.27239011040E+03  0.36482294737E+03  0.12500265037E+03 0.  0.
          2    1    1    2  501    0  0.60012517661E+02  0.74316722429E+02 -0.20392356649E+04  0.20414716688E+04  0.00000000000E+00 0. -1.
          1    1    1    2  502    0  0.91488686409E+02  0.68235489942E+02  0.44003783388E+03  0.45459823699E+03  0.00000000000E+00 0. -1.
         22    1    3    3    0    0 -0.11416814474E+03 -0.16385259391E+03  0.22503770846E+03  0.30087207919E+03  0.00000000000E+00 0.  1.
         22    1    3    3    0    0 -0.37333059327E+02  0.21300381539E+02  0.47352401936E+02  0.63950868184E+02  0.00000000000E+00 0.  1.
</event>
<event>
 7    1  0.5562528E-006  0.1026830E+03  0.7818608E-02  0.1341020E+00
          2   -1    0    0  502    0  0.00000000000E+00  0.00000000000E+00  0.42697471948E+04  0.42697471948E+04  0.00000000000E+00 0. -1.
          1   -1    0    0  501    0 -0.00000000000E+00 -0.00000000000E+00 -0.34920640674E+02  0.34920640674E+02  0.00000000000E+00 0. -1.
         25    2    1    2    0    0  0.54153664007E+02  0.89215617755E+02  0.49322606268E+03  0.51941211610E+03  0.12499980667E+03 0.  0.
          2    1    1    2  501    0 -0.36882250600E+00 -0.10532228179E+03  0.10671514660E+03  0.14993679197E+03  0.00000000000E+00 0. -1.
          1    1    1    2  502    0 -0.53784841501E+02  0.16106664034E+02  0.36348853448E+04  0.36353189274E+04  0.00000000000E+00 0. -1.
         22    1    3    3    0    0  0.23576783779E+02  0.11578519930E+03  0.30986560660E+03  0.33163047396E+03  0.00000000000E+00 0.  1.
         22    1    3    3    0    0  0.30576880229E+02 -0.26569581544E+02  0.18336045608E+03  0.18778164213E+03  0.00000000000E+00 0.  1.
</event>
<event>
 7    1  0.5562528E-006  0.8229401E+02  0.7818608E-02  0.1414156E+00
          2   -1    0    0  502    0  0.00000000000E+00  0.00000000000E+00  0.19840459839E+03  0.19840459839E+03  0.00000000000E+00 0. -1.
          1   -1    0    0  501    0 -0.00000000000E+00 -0.00000000000E+00 -0.13665442648E+04  0.13665442648E+04  0.00000000000E+00 0. -1.
         25    2    1    2    0    0  0.89059355412E+02 -0.10146173220E+02 -0.50760328134E+03  0.53039795689E+03  0.12500555120E+03 0.  0.
          2    1    1    2  501    0 -0.69855910728E+02  0.43497425522E+02 -0.84354001472E+03  0.84754447124E+03  0.00000000000E+00 0. -1.
          1    1    1    2  502    0 -0.19203444685E+02 -0.33351252302E+02  0.18300362961E+03  0.18700643510E+03  0.00000000000E+00 0. -1.
         22    1    3    3    0    0  0.11562167766E+03 -0.26960310333E+02 -0.34703800983E+03  0.36678414762E+03  0.00000000000E+00 0. -1.
         22    1    3    3    0    0 -0.26562322247E+02  0.16814137113E+02 -0.16056527151E+03  0.16361380927E+03  0.00000000000E+00 0. -1.
</event>
<event>
 7    1  0.5562528E-006  0.6303735E+02  0.7818608E-02  0.1389431E+00
          2   -1    0    0  502    0  0.00000000000E+00  0.00000000000E+00  0.42780637950E+03  0.42780637950E+03  0.00000000000E+00 0. -1.
          1   -1    0    0  501    0 -0.00000000000E+00 -0.00000000000E+00 -0.93942136215E+02  0.93942136215E+02  0.00000000000E+00 0. -1.
         25    2    1    2    0    0  0.14130739170E+02  0.68356165977E+01  0.89276162847E+01  0.12629749240E+03  0.12499980324E+03 0.  0.
          2    1    1    2  501    0 -0.30380320830E+02  0.55233539088E+02 -0.12143271342E+01  0.63049046974E+02  0.00000000000E+00 0. -1.
          1    1    1    2  502    0  0.16249581659E+02 -0.62069155686E+02  0.32615095413E+03  0.33240197634E+03  0.00000000000E+00 0. -1.
         22    1    3    3    0    0 -0.52533450950E+02 -0.12410871818E+01  0.23531214042E+02  0.57576226000E+02  0.00000000000E+00 0.  1.
         22    1    3    3    0    0  0.66664190120E+02  0.80767037795E+01 -0.14603597758E+02  0.68721266401E+02  0.00000000000E+00 0.  1.
</event>
<event>
 7    1  0.5562528E-006  0.3098802E+02  0.7818608E-02  0.1635473E+00
          2   -1    0    0  502    0  0.00000000000E+00  0.00000000000E+00  0.11417730699E+03  0.11417730699E+03  0.00000000000E+00 0. -1.
          1   -1    0    0  501    0 -0.00000000000E+00 -0.00000000000E+00 -0.54343154136E+03  0.54343154136E+03  0.00000000000E+00 0. -1.
         25    2    1    2    0    0  0.26164978637E+02 -0.25817360783E+02 -0.32241662691E+02  0.13422527751E+03  0.12500303231E+03 0.  0.
          2    1    1    2  501    0 -0.34052259242E+01  0.30824850309E+02 -0.45750636609E+03  0.45855625824E+03  0.00000000000E+00 0. -1.
          1    1    1    2  502    0 -0.22759752712E+02 -0.50074895260E+01  0.60493794411E+02  0.64827312586E+02  0.00000000000E+00 0. -1.
         22    1    3    3    0    0  0.28055930125E+02  0.12081033454E+02  0.41360344193E+02  0.51417552025E+02  0.00000000000E+00 0.  1.
         22    1    3    3    0    0 -0.18909514887E+01 -0.37898394237E+02 -0.73602006884E+02  0.82807725489E+02  0.00000000000E+00 0.  1.
</event>
<event>
 7    1  0.5562528E-006  0.6460959E+02  0.7818608E-02  0.1427163E+00
          2   -1    0    0  502    0  0.00000000000E+00  0.00000000000E+00  0.22884615510E+03  0.22884615510E+03  0.00000000000E+00 0. -1.
          1   -1    0    0  501    0 -0.00000000000E+00 -0.00000000000E+00 -0.79879210555E+03  0.79879210555E+03  0.00000000000E+00 0. -1.
         25    2    1    2    0    0  0.84733247357E+02  0.24492900011E+02 -0.10342728473E+03  0.18466580761E+03  0.12499852765E+03 0.  0.
          2    1    1    2  501    0 -0.45484496778E+02 -0.45157651016E+02 -0.65053540518E+03  0.65368521957E+03  0.00000000000E+00 0. -1.
          1    1    1    2  502    0 -0.39248750579E+02  0.20664751005E+02  0.18401673946E+03  0.18928723347E+03  0.00000000000E+00 0. -1.
         22    1    3    3    0    0  0.27462235792E+02 -0.39003325729E+02 -0.84580779012E+02  0.97104799011E+02  0.00000000000E+00 0. -1.
         22    1    3    3    0    0  0.57271011565E+02  0.63496225740E+02 -0.18846505717E+02  0.87561008597E+02  0.00000000000E+00 0. -1.
</event>
<event>
 7    1  0.5562528E-006  0.3272070E+03  0.7818608E-02  0.1215208E+00
          2   -1    0    0  502    0  0.00000000000E+00  0.00000000000E+00  0.32388664711E+03  0.32388664711E+03  0.00000000000E+00 0. -1.
          1   -1    0    0  501    0 -0.00000000000E+00 -0.00000000000E+00 -0.13470915544E+04  0.13470915544E+04  0.00000000000E+00 0. -1.
         25    2    1    2    0    0  0.12325699486E+03  0.34717482058E+03 -0.20628467575E+03  0.44034070734E+03  0.12499571298E+03 0.  0.
          2    1    1    2  501    0 -0.13355174027E+03 -0.28936441646E+03 -0.99412352959E+03  0.10439585360E+04  0.00000000000E+00 0. -1.
          1    1    1    2  502    0  0.10294745413E+02 -0.57810404124E+02  0.17720329801E+03  0.18667895820E+03  0.00000000000E+00 0. -1.
         22    1    3    3    0    0  0.98583552378E+02  0.33322587050E+03 -0.15239146563E+03  0.37944875328E+03  0.00000000000E+00 0.  1.
         22    1    3    3    0    0  0.24673442477E+02  0.13948950083E+02 -0.53893210120E+02  0.60891954059E+02  0.00000000000E+00 0.  1.
</event>
<event>
 7    1  0.5562528E-006  0.1763992E+03  0.7818608E-02  0.1244162E+00
          2   -1    0    0  502    0  0.00000000000E+00  0.00000000000E+00  0.13042587920E+04  0.13042587920E+04  0.00000000000E+00 0. -1.
          1   -1    0    0  501    0 -0.00000000000E+00 -0.00000000000E+00 -0.17822949115E+03  0.17822949115E+03  0.00000000000E+00 0. -1.
         25    2    1    2    0    0  0.11529491166E+03  0.13763008433E+03  0.10804849231E+04  0.11024119542E+04  0.12501796244E+03 0.  0.
          2    1    1    2  501    0 -0.16190390172E+03 -0.71676655349E+02 -0.10742255396E+03  0.20709906183E+03  0.00000000000E+00 0. -1.
          1    1    1    2  502    0  0.46608990056E+02 -0.65953428980E+02  0.15296693173E+03  0.17297726715E+03  0.00000000000E+00 0. -1.
         22    1    3    3    0    0  0.11052322582E+03  0.47444911415E+02  0.75947850477E+03  0.76894343243E+03  0.00000000000E+00 0.  1.
         22    1    3    3    0    0  0.47716858423E+01  0.90185172914E+02  0.32100641833E+03  0.33346852177E+03  0.00000000000E+00 0.  1.
</event>
<event>
 7    1  0.5562528E-006  0.5196687E+02  0.7818608E-02  0.1435208E+00
          2   -1    0    0  502    0  0.00000000000E+00  0.00000000000E+00  0.25447407056E+03  0.25447407056E+03  0.00000000000E+00 0. -1.
          1   -1    0    0  501    0 -0.00000000000E+00 -0.00000000000E+00 -0.26812728771E+03  0.26812728771E+03  0.00000000000E+00 0. -1.
         25    2    1    2    0    0 -0.35926413017E+01  0.12258462644E+02  0.10987374218E+03  0.16691565601E+03  0.12500168008E+03 0.  0.
          2    1    1    2  501    0 -0.13346143791E+02  0.50144842581E+02 -0.22744690059E+03  0.23329105722E+03  0.00000000000E+00 0. -1.
          1    1    1    2  502    0  0.16938785093E+02 -0.62403305224E+02  0.10391994126E+03  0.12239464504E+03  0.00000000000E+00 0. -1.
         22    1    3    3    0    0 -0.35110210621E+02  0.18760710027E+02  0.12512392356E+03  0.13130379803E+03  0.00000000000E+00 0.  1.
         22    1    3    3    0    0  0.31517569319E+02 -0.65022473833E+01 -0.15250181374E+02  0.35611857979E+02  0.00000000000E+00 0.  1.
</event>
<event>
 7    1  0.5562528E-006  0.7559103E+02  0.7818608E-02  0.1387886E+00
          2   -1    0    0  502    0  0.00000000000E+00  0.00000000000E+00  0.14082088643E+04  0.14082088643E+04  0.00000000000E+00 0. -1.
          1   -1    0    0  501    0 -0.00000000000E+00 -0.00000000000E+00 -0.75009290624E+03  0.75009290624E+03  0.00000000000E+00 0. -1.
         25    2    1    2    0    0 -0.64638515404E+02 -0.37461282347E+02  0.17228264893E+03  0.22558228446E+03  0.12499828235E+03 0.  0.
          2    1    1    2  501    0  0.38495675727E+02 -0.34314856478E+02 -0.72131526199E+03  0.72315636871E+03  0.00000000000E+00 0. -1.
          1    1    1    2  502    0  0.26142839677E+02  0.71776138825E+02  0.12071485711E+04  0.12095631173E+04  0.00000000000E+00 0. -1.
         22    1    3    3    0    0  0.28243164397E+02  0.21558993838E+02  0.44472062904E+02  0.56923026355E+02  0.00000000000E+00 0. -1.
         22    1    3    3    0    0 -0.92881679801E+02 -0.59020276186E+02  0.12781058603E+03  0.16865925810E+03  0.00000000000E+00 0. -1.
</event>
<event>
 7    1  0.5562528E-006  0.2385308E+03  0.7818608E-02  0.1211281E+00
          2   -1    0    0  502    0  0.00000000000E+00  0.00000000000E+00  0.13673317360E+04  0.13673317360E+04  0.00000000000E+00 0. -1.
          1   -1    0    0  501    0 -0.00000000000E+00 -0.00000000000E+00 -0.11703521589E+04  0.11703521589E+04  0.00000000000E+00 0. -1.
         25    2    1    2    0    0 -0.39494298940E+02  0.23872800846E+03 -0.37805914962E+03  0.46594447367E+03  0.12499868104E+03 0.  0.
          2    1    1    2  501    0 -0.44474032985E+02 -0.23738907473E+03 -0.72747615059E+03  0.76652009895E+03  0.00000000000E+00 0. -1.
          1    1    1    2  502    0  0.83968331925E+02 -0.13389337274E+01  0.13025148773E+04  0.13052193222E+04  0.00000000000E+00 0. -1.
         22    1    3    3    0    0 -0.12730638825E+02  0.79504219728E+01 -0.11084651410E+03  0.11185807107E+03  0.00000000000E+00 0.  1.
         22    1    3    3    0    0 -0.26763660115E+02  0.23077758649E+03 -0.26721263552E+03  0.35408640260E+03  0.00000000000E+00 0.  1.
</event>
<event>
 7    1  0.5562528E-006  0.8989203E+02  0.7818608E-02  0.1316553E+00
          2   -1    0    0  502    0  0.00000000000E+00  0.00000000000E+00  0.61545854465E+03  0.61545854465E+03  0.00000000000E+00 0. -1.
          1   -1    0    0  501    0 -0.00000000000E+00 -0.00000000000E+00 -0.25932090239E+04  0.25932090239E+04  0.00000000000E+00 0. -1.
         25    2    1    2    0    0 -0.31043230923E+02 -0.99975180543E+01 -0.64945552394E+03  0.66217841000E+03  0.12499654613E+03 0.  0.
          2    1    1    2  501    0  0.98579461682E+02 -0.32073989733E+02 -0.19333989289E+04  0.19361761463E+04  0.00000000000E+00 0. -1.
          1    1    1    2  502    0 -0.67536230759E+02  0.42071507787E+02  0.60510397354E+03  0.61031301234E+03  0.00000000000E+00 0. -1.
         22    1    3    3    0    0  0.12371623082E+02 -0.58420713714E+02 -0.39769441277E+03  0.40215281026E+03  0.00000000000E+00 0.  1.
         22    1    3    3    0    0 -0.43414854005E+02  0.48423195660E+02 -0.25176111117E+03  0.26002559975E+03  0.00000000000E+00 0.  1.
</event>
<event>
 7    1  0.5562528E-006  0.6230741E+02  0.7818608E-02  0.1407154E+00
          2   -1    0    0  502    0  0.00000000000E+00  0.00000000000E+00  0.70831483804E+03  0.70831483804E+03  0.00000000000E+00 0. -1.
          1   -1    0    0  501    0 -0.00000000000E+00 -0.00000000000E+00 -0.91676954108E+03  0.91676954108E+03  0.00000000000E+00 0. -1.
         25    2    1    2    0    0 -0.98165821618E+02 -0.79435692476E+01 -0.26034585887E+03  0.30513077784E+03  0.12500078611E+03 0.  0.
          2    1    1    2  501    0  0.46547103334E+02 -0.26740559987E+02 -0.63148049398E+03  0.63375808054E+03  0.00000000000E+00 0. -1.
          1    1    1    2  502    0  0.51618718284E+02  0.34684129234E+02  0.68337164982E+03  0.68619552073E+03  0.00000000000E+00 0. -1.
         22    1    3    3    0    0  0.41978954850E+01 -0.47145157193E+02 -0.56703410105E+02  0.73861795881E+02  0.00000000000E+00 0.  1.
         22    1    3    3    0    0 -0.10236371710E+03  0.39201587945E+02 -0.20364244877E+03  0.23126898196E+03  0.00000000000E+00 0.  1.
</event>
<event>
 7    1  0.5562528E-006  0.3075016E+02  0.7818608E-02  0.1624004E+00
          2   -1    0    0  502    0  0.00000000000E+00  0.00000000000E+00  0.79664398826E+03  0.79664398826E+03  0.00000000000E+00 0. -1.
          1   -1    0    0  501    0 -0.00000000000E+00 -0.00000000000E+00 -0.26158897705E+02  0.26158897705E+02  0.00000000000E+00 0. -1.
         25    2    1    2    0    0 -0.80198310750E+01 -0.54359473948E+02  0.27636211945E+03  0.30825380983E+03  0.12500048044E+03 0.  0.
          2    1    1    2  501    0  0.13210144868E+01  0.25062642643E+02  0.63993771207E+01  0.25900447159E+02  0.00000000000E+00 0. -1.
          1    1    1    2  502    0  0.66988165882E+01  0.29296831305E+02  0.48772359399E+03  0.48864862898E+03  0.00000000000E+00 0. -1.
         22    1    3    3    0    0 -0.35062228734E+02  0.31115696109E+02  0.92694971854E+02  0.10387446383E+03  0.00000000000E+00 0.  1.
         22    1    3    3    0    0  0.27042397659E+02 -0.85475170057E+02  0.18366714759E+03  0.20437934600E+03  0.00000000000E+00 0.  1.
</event>
<event>
 7    1  0.5562528E-006  0.3458301E+02  0.7818608E-02  0.1555805E+00
          2   -1    0    0  502    0  0.00000000000E+00  0.00000000000E+00  0.40837951389E+03  0.40837951389E+03  0.00000000000E+00 0. -1.
          1   -1    0    0  501    0 -0.00000000000E+00 -0.00000000000E+00 -0.11269096730E+03  0.11269096730E+03  0.00000000000E+00 0. -1.
         25    2    1    2    0    0  0.58627119622E+01  0.72521380054E+01 -0.36333947413E+00  0.12534831951E+03  0.12500041716E+03 0.  0.
          2    1    1    2  501    0  0.11520994886E+02 -0.36268197891E+02 -0.41600302249E+02  0.56379966732E+02  0.00000000000E+00 0. -1.
          1    1    1    2  502    0 -0.17383706848E+02  0.29016059886E+02  0.33765218832E+03  0.33934219495E+03  0.00000000000E+00 0. -1.
         22    1    3    3    0    0  0.48457353079E+02 -0.27442063325E+02 -0.29653773953E+02  0.63091427441E+02  0.00000000000E+00 0. -1.
         22    1    3    3    0    0 -0.42594641117E+02  0.34694201330E+02  0.29290434479E+02  0.62256892066E+02  0.00000000000E+00 0. -1.
</event>
<event>
 7    1  0.5562528E-006  0.1110540E+03  0.7818608E-02  0.1336440E+00
          2   -1    0    0  502    0  0.00000000000E+00  0.00000000000E+00  0.22074074078E+04  0.22074074078E+04  0.00000000000E+00 0. -1.
          1   -1    0    0  501    0 -0.00000000000E+00 -0.00000000000E+00 -0.68903422439E+02  0.68903422439E+02  0.00000000000E+00 0. -1.
         25    2    1    2    0    0 -0.44246359314E+02  0.76256713464E+02  0.84753506403E+03  0.86122775682E+03  0.12499895077E+03 0.  0.
          2    1    1    2  501    0  0.29131302392E+02  0.45489733217E+02 -0.46938720068E+02  0.71562504490E+02  0.00000000000E+00 0. -1.
          1    1    1    2  502    0  0.15115056921E+02 -0.12174644668E+03  0.13379076415E+04  0.13435205690E+04  0.00000000000E+00 0. -1.
         22    1    3    3    0    0 -0.78960992770E+02  0.14810328705E+02  0.52057605958E+03  0.52673866198E+03  0.00000000000E+00 0.  1.
         22    1    3    3    0    0  0.34714633457E+02  0.61446384759E+02  0.32695900444E+03  0.33448909483E+03  0.00000000000E+00 0.  1.
</event>
<event>
 7    1  0.5562528E-006  0.3501060E+02  0.7818608E-02  0.1602505E+00
          2   -1    0    0  502    0  0.00000000000E+00  0.00000000000E+00  0.99993361684E+02  0.99993361684E+02  0.00000000000E+00 0. -1.
          1   -1    0    0  501    0 -0.00000000000E+00 -0.00000000000E+00 -0.95836560790E+03  0.95836560790E+03  0.00000000000E+00 0. -1.
         25    2    1    2    0    0  0.55739129243E+01  0.23191280457E+02 -0.92209886978E+02  0.15715396835E+03  0.12500321003E+03 0.  0.
          2    1    1    2  501    0 -0.30116103793E+02 -0.18259892770E+02 -0.83097763576E+03  0.83172365274E+03  0.00000000000E+00 0. -1.
          1    1    1    2  502    0  0.24542190869E+02 -0.49313876868E+01  0.64815276524E+02  0.69481348490E+02  0.00000000000E+00 0. -1.
         22    1    3    3    0    0 -0.39949793294E+02  0.12117061281E+01 -0.98416150553E+02  0.10622237479E+03  0.00000000000E+00 0. -1.
         22    1    3    3    0    0  0.45523706218E+02  0.21979574329E+02  0.62062635750E+01  0.50931593565E+02  0.00000000000E+00 0. -1.
</event>
<event>
 7    1  0.5562528E-006  0.6337025E+02  0.7818608E-02  0.1429319E+00
          2   -1    0    0  502    0  0.00000000000E+00  0.00000000000E+00  0.11356548720E+04  0.11356548720E+04  0.00000000000E+00 0. -1.
          1   -1    0    0  501    0 -0.00000000000E+00 -0.00000000000E+00 -0.10925483470E+04  0.10925483470E+04  0.00000000000E+00 0. -1.
         25    2    1    2    0    0  0.31943907765E+02 -0.13377116179E+02 -0.15530517251E+03  0.20234656092E+03  0.12500029450E+03 0.  0.
          2    1    1    2  501    0 -0.62304682407E+02 -0.19142017519E+02 -0.91211416349E+03  0.91444001309E+03  0.00000000000E+00 0. -1.
          1    1    1    2  502    0  0.30360774642E+02  0.32519133698E+02  0.11105258610E+04  0.11114166449E+04  0.00000000000E+00 0. -1.
         22    1    3    3    0    0 -0.14180227234E+02  0.49587685714E+02 -0.65342193946E+02  0.83244337517E+02  0.00000000000E+00 0. -1.
         22    1    3    3    0    0  0.46124134998E+02 -0.62964801893E+02 -0.89962978566E+02  0.11910222340E+03  0.00000000000E+00 0. -1.
</event>
<event>
 7    1  0.5562528E-006  0.3416834E+03  0.7818608E-02  0.1240041E+00
          2   -1    0    0  502    0  0.00000000000E+00  0.00000000000E+00  0.51872725897E+03  0.51872725897E+03  0.00000000000E+00 0. -1.
          1   -1    0    0  501    0 -0.00000000000E+00 -0.00000000000E+00 -0.36573511789E+04  0.36573511789E+04  0.00000000000E+00 0. -1.
         25    2    1    2    0    0 -0.18006166732E+03 -0.27328743493E+03 -0.21741133338E+04  0.22021582405E+04  0.12499560801E+03 0.  0.
          2    1    1    2  501    0 -0.41584095013E+02  0.12662963357E+02 -0.14108617546E+04  0.14115312530E+04  0.00000000000E+00 0. -1.
          1    1    1    2  502    0  0.22164576234E+03  0.26062447158E+03  0.44635116846E+03  0.56238894435E+03  0.00000000000E+00 0. -1.
         22    1    3    3    0    0 -0.18205729291E+03 -0.20641111051E+03 -0.19087241233E+04  0.19284652404E+04  0.00000000000E+00 0.  1.
         22    1    3    3    0    0  0.19956255823E+01 -0.66876324426E+02 -0.26538921043E+03  0.27369300010E+03  0.00000000000E+00 0.  1.
</event>
<event>
 7    1  0.5562528E-006  0.6117920E+02  0.7818608E-02  0.1417292E+00
          2   -1    0    0  502    0  0.00000000000E+00  0.00000000000E+00  0.64946147780E+03  0.64946147780E+03  0.00000000000E+00 0. -1.
          1   -1    0    0  501    0 -0.00000000000E+00 -0.00000000000E+00 -0.89847921734E+03  0.89847921734E+03  0.00000000000E+00 0. -1.
         25    2    1    2    0    0  0.75494528446E+02  0.77176536721E+02  0.18125335343E+03  0.24522242844E+03  0.12500247851E+03 0.  0.
          2    1    1    2  501    0 -0.29928190056E+02 -0.40708355320E+02 -0.86380104833E+03  0.86527748026E+03  0.00000000000E+00 0. -1.
          1    1    1    2  502    0 -0.45566338390E+02 -0.36468181402E+02  0.43352995536E+03  0.43744078644E+03  0.00000000000E+00 0. -1.
         22    1    3    3    0    0 -0.31049812060E+02 -0.36547012234E+01  0.30097910285E+02  0.43397371735E+02  0.00000000000E+00 0.  1.
         22    1    3    3    0    0  0.10654434051E+03  0.80831237945E+02  0.15115544314E+03  0.20182505670E+03  0.00000000000E+00 0.  1.
</event>
<event>
 7    1  0.5562528E-006  0.1679360E+03  0.7818608E-02  0.1353991E+00
          2   -1    0    0  502    0  0.00000000000E+00  0.00000000000E+00  0.13674236990E+04  0.13674236990E+04  0.00000000000E+00 0. -1.
          1   -1    0    0  501    0 -0.00000000000E+00 -0.00000000000E+00 -0.16437241540E+03  0.16437241540E+03  0.00000000000E+00 0. -1.
         25    2    1    2    0    0 -0.45526081426E+01 -0.19544207857E+03  0.41722195582E+03  0.47740685614E+03  0.12499925423E+03 0.  0.
          2    1    1    2  501    0  0.52691854140E+01  0.16473038959E+03 -0.83333004582E+02  0.18468420404E+03  0.00000000000E+00 0. -1.
          1    1    1    2  502    0 -0.71657727142E+00  0.30711688983E+02  0.86916233232E+03  0.86970505417E+03  0.00000000000E+00 0. -1.
         22    1    3    3    0    0  0.11223503093E+02 -0.14191294532E+03  0.39029218894E+03  0.41544343035E+03  0.00000000000E+00 0. -1.
         22    1    3    3    0    0 -0.15776111236E+02 -0.53529133244E+02  0.26929766876E+02  0.61963425790E+02  0.00000000000E+00 0. -1.
</event>
<event>
 7    1  0.5562528E-006  0.4968790E+02  0.7818608E-02  0.1492528E+00
          2   -1    0    0  502    0  0.00000000000E+00  0.00000000000E+00  0.40351464693E+02  0.40351464693E+02  0.00000000000E+00 0. -1.
          1   -1    0    0  501    0 -0.00000000000E+00 -0.00000000000E+00 -0.18366486167E+04  0.18366486167E+04  0.00000000000E+00 0. -1.
         25    2    1    2    0    0  0.12700506756E+01  0.62059586916E+02 -0.91342053807E+03  0.92402085414E+03  0.12499781659E+03 0.  0.
          2    1    1    2  501    0  0.28236140643E+02 -0.22110803873E+02 -0.89979736967E+03  0.90051178435E+03  0.00000000000E+00 0. -1.
          1    1    1    2  502    0 -0.29506191318E+02 -0.39948783043E+02  0.16920755720E+02  0.52467442923E+02  0.00000000000E+00 0. -1.
         22    1    3    3    0    0 -0.42842424651E+02  0.78838410175E+02 -0.50809794261E+03  0.51595977320E+03  0.00000000000E+00 0. -1.
         22    1    3    3    0    0  0.44112475327E+02 -0.16778823259E+02 -0.40532259546E+03  0.40806108094E+03  0.00000000000E+00 0. -1.
</event>
<event>
 7    1  0.5562528E-006  0.4621208E+02  0.7818608E-02  0.1579058E+00
          2   -1    0    0  502    0  0.00000000000E+00  0.00000000000E+00  0.11236851883E+04  0.11236851883E+04  0.00000000000E+00 0. -1.
          1   -1    0    0  501    0 -0.00000000000E+00 -0.00000000000E+00 -0.10293290421E+03  0.10293290421E+03  0.00000000000E+00 0. -1.
         25    2    1    2    0    0 -0.13338816598E+01  0.54767329546E+02  0.53823833283E+03  0.55527194551E+03  0.12500076368E+03 0.  0.
          2    1    1    2  501    0 -0.17504219139E+02 -0.13119704958E+02 -0.92229332570E+02  0.94788048466E+02  0.00000000000E+00 0. -1.
          1    1    1    2  502    0  0.18838100799E+02 -0.41647624588E+02  0.57474328381E+03  0.57655809851E+03  0.00000000000E+00 0. -1.
         22    1    3    3    0    0  0.54349694635E+02 -0.52564136004E+01  0.21466459766E+03  0.22150035819E+03  0.00000000000E+00 0. -1.
         22    1    3    3    0    0 -0.55683576295E+02  0.60023743147E+02  0.32357373517E+03  0.33377158732E+03  0.00000000000E+00 0. -1.
</event>
<event>
 7    1  0.5562528E-006  0.1020617E+03  0.7818608E-02  0.1344382E+00
          2   -1    0    0  502    0  0.00000000000E+00  0.00000000000E+00  0.35281942423E+04  0.35281942423E+04  0.00000000000E+00 0. -1.
          1   -1    0    0  501    0 -0.00000000000E+00 -0.00000000000E+00 -0.54617788111E+02  0.54617788111E+02  0.00000000000E+00 0. -1.
         25    2    1    2    0    0 -0.12358381974E+03  0.35397707941E+02  0.93303695747E+03  0.95011047926E+03  0.12500400222E+03 0.  0.
          2    1    1    2  501    0  0.10010659428E+03  0.14198040257E+02  0.10038325098E+02  0.10160552414E+03  0.00000000000E+00 0. -1.
          1    1    1    2  502    0  0.23477225464E+02 -0.49595748198E+02  0.25305011717E+04  0.25310960271E+04  0.00000000000E+00 0. -1.
         22    1    3    3    0    0 -0.12760432323E+03  0.45154421396E+02  0.92900441673E+03  0.93881360843E+03  0.00000000000E+00 0. -1.
         22    1    3    3    0    0  0.40205034836E+01 -0.97567134552E+01  0.40325407411E+01  0.11296870829E+02  0.00000000000E+00 0. -1.
</event>
<event>
 7    1  0.5562528E-006  0.7832880E+02  0.7818608E-02  0.1403293E+00
          2   -1    0    0  502    0  0.00000000000E+00  0.00000000000E+00  0.11933513806E+04  0.11933513806E+04  0.00000000000E+00 0. -1.
          1   -1    0    0  501    0 -0.00000000000E+00 -0.00000000000E+00 -0.71132770978E+02  0.71132770978E+02  0.00000000000E+00 0. -1.
         25    2    1    2    0    0  0.18286393063E+02 -0.35013618543E+02  0.23859063646E+03  0.27223120295E+03  0.12499596153E+03 0.  0.
          2    1    1    2  501    0 -0.32080355222E+02  0.76813177206E+02 -0.21564476110E+02  0.85990929833E+02  0.00000000000E+00 0. -1.
          1    1    1    2  502    0  0.13793962159E+02 -0.41799558663E+02  0.90519244932E+03  0.90626201884E+03  0.00000000000E+00 0. -1.
         22    1    3    3    0    0 -0.11658798402E+02  0.70672906832E+01  0.21503222567E+03  0.21546399294E+03  0.00000000000E+00 0. -1.
         22    1    3    3    0    0  0.29945191465E+02 -0.42080909227E+02  0.23558410794E+02  0.56767210010E+02  0.00000000000E+00 0. -1.
</event>
<event>
 7    1  0.5562528E-006  0.2117824E+03  0.7818608E-02  0.1261820E+00
          2   -1    0    0  502    0  0.00000000000E+00  0.00000000000E+00  0.12274549334E+04  0.12274549334E+04  0.00000000000E+00 0. -1.
          1   -1    0    0  501    0 -0.00000000000E+00 -0.00000000000E+00 -0.10101531259E+04  0.10101531259E+04  0.00000000000E+00 0. -1.
         25    2    1    2    0    0  0.18384452974E+03 -0.34785507943E+02  0.62632700009E+02  0.23357840476E+03  0.12500869322E+03 0.  0.
          2    1    1    2  501    0 -0.19437699124E+03  0.90231615299E+02 -0.91150766448E+03  0.93636017724E+03  0.00000000000E+00 0. -1.
          1    1    1    2  502    0  0.10532461500E+02 -0.55446107356E+02  0.10661767719E+04  0.10676694772E+04  0.00000000000E+00 0. -1.
         22    1    3    3    0    0  0.10153365737E+03 -0.63546602302E+02 -0.98633927754E+01  0.12018544321E+03  0.00000000000E+00 0.  1.
         22    1    3    3    0    0  0.82310872368E+02  0.28761094359E+02  0.72496092785E+02  0.11339296154E+03  0.00000000000E+00 0.  1.
</event>
<event>
 7    1  0.5562528E-006  0.8521273E+02  0.7818608E-02  0.1359997E+00
          2   -1    0    0  502    0  0.00000000000E+00  0.00000000000E+00  0.49155350604E+03  0.49155350604E+03  0.00000000000E+00 0. -1.
          1   -1    0    0  501    0 -0.00000000000E+00 -0.00000000000E+00 -0.17954941481E+03  0.17954941481E+03  0.00000000000E+00 0. -1.
         25    2    1    2    0    0 -0.19490335950E+02 -0.45581404057E+02  0.23138534525E+02  0.13644918369E+03  0.12500180143E+03 0.  0.
          2    1    1    2  501    0  0.40322292492E+02 -0.41061577949E+02 -0.11097166082E+03  0.12500659966E+03  0.00000000000E+00 0. -1.
          1    1    1    2  502    0 -0.20831956542E+02  0.86642982007E+02  0.39983721752E+03  0.40964713750E+03  0.00000000000E+00 0. -1.
         22    1    3    3    0    0 -0.26784439433E+02  0.24845177617E+02  0.48956632934E+02  0.61085521646E+02  0.00000000000E+00 0. -1.
         22    1    3    3    0    0  0.72941034829E+01 -0.70426581674E+02 -0.25818098408E+02  0.75363662049E+02  0.00000000000E+00 0. -1.
</event>
<event>
 7    1  0.5562528E-006  0.2173578E+03  0.7818608E-02  0.1280077E+00
          2   -1    0    0  502    0  0.00000000000E+00  0.00000000000E+00  0.89845276758E+03  0.89845276758E+03  0.00000000000E+00 0. -1.
          1   -1    0    0  501    0 -0.00000000000E+00 -0.00000000000E+00 -0.13106560974E+03  0.13106560974E+03  0.00000000000E+00 0. -1.
         25    2    1    2    0    0  0.15839830480E+02  0.24594781900E+03  0.28851541874E+03  0.39950859696E+03  0.12499896918E+03 0.  0.
          2    1    1    2  501    0  0.19761198100E+02 -0.41653234494E+02 -0.46323778342E+02  0.65355866868E+02  0.00000000000E+00 0. -1.
          1    1    1    2  502    0 -0.35601028580E+02 -0.20429458450E+03  0.52519551744E+03  0.56465391350E+03  0.00000000000E+00 0. -1.
         22    1    3    3    0    0 -0.45021721630E+02  0.11109597530E+03  0.17902296809E+03  0.21544951671E+03  0.00000000000E+00 0.  1.
         22    1    3    3    0    0  0.60861552110E+02  0.13485184370E+03  0.10949245065E+03  0.18405908025E+03  0.00000000000E+00 0.  1.
</event>
<event>
 7    1  0.5562528E-006  0.8566735E+02  0.7818608E-02  0.1356890E+00
          2   -1    0    0  502    0  0.00000000000E+00  0.00000000000E+00  0.16322341751E+03  0.16322341751E+03  0.00000000000E+00 0. -1.
          1   -1    0    0  501    0 -0.00000000000E+00 -0.00000000000E+00 -0.90890021726E+03  0.90890021726E+03  0.00000000000E+00 0. -1.
         25    2    1    2    0    0 -0.56120370037E+02 -0.65495979208E+02 -0.66706840682E+02  0.16587449649E+03  0.12500130706E+03 0.  0.
          2    1    1    2  501    0  0.54228505487E+02 -0.22633249839E+02 -0.77423277723E+03  0.77645952125E+03  0.00000000000E+00 0. -1.
          1    1    1    2  502    0  0.18918645503E+01  0.88129229047E+02  0.95262818163E+02  0.12978961703E+03  0.00000000000E+00 0. -1.
         22    1    3    3    0    0 -0.31627187831E+01 -0.53843451476E+02 -0.91528902411E+02  0.10623869367E+03  0.00000000000E+00 0. -1.
         22    1    3    3    0    0 -0.52957651254E+02 -0.11652527732E+02  0.24822061729E+02  0.59635802815E+02  0.00000000000E+00 0. -1.
</event>
<event>
 7    1  0.5562528E-006  0.1981992E+03  0.7818608E-02  0.1253256E+00
          2   -1    0    0  502    0  0.00000000000E+00  0.00000000000E+00  0.50994727525E+03  0.50994727525E+03  0.00000000000E+00 0. -1.
          1   -1    0    0  501    0 -0.00000000000E+00 -0.00000000000E+00 -0.22500210842E+04  0.22500210842E+04  0.00000000000E+00 0. -1.
         25    2    1    2    0    0  0.21849633959E+03  0.98847109359E+02 -0.87531042724E+02  0.28425603487E+03  0.12501363316E+03 0.  0.
          2    1    1    2  501    0 -0.63352353135E+02  0.17112674026E+02 -0.20407831780E+04  0.20418379818E+04  0.00000000000E+00 0. -1.
          1    1    1    2  502    0 -0.15514398645E+03 -0.11595978338E+03  0.38824041184E+03  0.43387434273E+03  0.00000000000E+00 0. -1.
         22    1    3    3    0    0  0.15962001321E+03  0.53221202337E+01 -0.57369030931E+02  0.16969996844E+03  0.00000000000E+00 0.  1.
         22    1    3    3    0    0  0.58876326385E+02  0.93524989125E+02 -0.30162011793E+02  0.11455606642E+03  0.00000000000E+00 0.  1.
</event>
<event>
 7    1  0.5562528E-006  0.7045747E+02  0.7818608E-02  0.1512375E+00
          2   -1    0    0  502    0  0.00000000000E+00  0.00000000000E+00  0.37297015838E+03  0.37297015838E+03  0.00000000000E+00 0. -1.
          1   -1    0    0  501    0 -0.00000000000E+00 -0.00000000000E+00 -0.27484840208E+03  0.27484840208E+03  0.00000000000E+00 0. -1.
         25    2    1    2    0    0 -0.90992183444E+02  0.62671139492E+01 -0.62495857077E+02  0.16688457293E+03  0.12500349741E+03 0.  0.
          2    1    1    2  501    0  0.21853134290E+02  0.31370702110E+01 -0.15557519511E+03  0.15713383475E+03  0.00000000000E+00 0. -1.
          1    1    1    2  502    0  0.69139049154E+02 -0.94041841601E+01  0.31619280849E+03  0.32380015278E+03  0.00000000000E+00 0. -1.
         22    1    3    3    0    0 -0.30725642657E+02  0.46965694182E+02  0.17486565378E+02  0.58784534661E+02  0.00000000000E+00 0. -1.
         22    1    3    3    0    0 -0.60266540787E+02 -0.40698580233E+02 -0.79982422454E+02  0.10810003827E+03  0.00000000000E+00 0. -1.
</event>
<event>
 7    1  0.5562528E-006  0.4629517E+02  0.7818608E-02  0.1511808E+00
          2   -1    0    0  502    0  0.00000000000E+00  0.00000000000E+00  0.61672334859E+03  0.61672334859E+03  0.00000000000E+00 0. -1.
          1   -1    0    0  501    0 -0.00000000000E+00 -0.00000000000E+00 -0.12980892127E+03  0.12980892127E+03  0.00000000000E+00 0. -1.
         25    2    1    2    0    0  0.79006766583E+02  0.13808958375E+01  0.14113903534E+03  0.20442140722E+03  0.12499563350E+03 0.  0.
          2    1    1    2  501    0 -0.45298546671E+02 -0.21267275321E+00 -0.92258926109E+02  0.10277992512E+03  0.00000000000E+00 0. -1.
          1    1    1    2  502    0 -0.33708219912E+02 -0.11682230843E+01  0.43803431809E+03  0.43933093752E+03  0.00000000000E+00 0. -1.
         22    1    3    3    0    0  0.82862212428E+02  0.51543807866E+01  0.22986488746E+02  0.86145763416E+02  0.00000000000E+00 0. -1.
         22    1    3    3    0    0 -0.38554458450E+01 -0.37734849491E+01  0.11815254659E+03  0.11827564381E+03  0.00000000000E+00 0. -1.
</event>
<event>
 7    1  0.5562528E-006  0.6874569E+02  0.7818608E-02  0.1384404E+00
          2   -1    0    0  502    0  0.00000000000E+00  0.00000000000E+00  0.16220192019E+03  0.16220192019E+03  0.00000000000E+00 0. -1.
          1   -1    0    0  501    0 -0.00000000000E+00 -0.00000000000E+00 -0.89195518566E+03  0.89195518566E+03  0.00000000000E+00 0. -1.
         25    2    1    2    0    0  0.15225866727E+02 -0.73764593652E+02 -0.21195081540E+03  0.25733310546E+03  0.12499654685E+03 0.  0.
          2    1    1    2  501    0 -0.55666891417E+02  0.17399310754E+02 -0.64729639302E+03  0.64991857893E+03  0.00000000000E+00 0. -1.
          1    1    1    2  502    0  0.40441024690E+02  0.56365282898E+02  0.12949394295E+03  0.14690542146E+03  0.00000000000E+00 0. -1.
         22    1    3    3    0    0  0.39718858742E+02  0.18652236519E+02 -0.10543885049E+03  0.11420527509E+03  0.00000000000E+00 0.  1.
         22    1    3    3    0    0 -0.24492992015E+02 -0.92416830170E+02 -0.10651196491E+03  0.14312783037E+03  0.00000000000E+00 0.  1.
</event>
<event>
 7    1  0.5562528E-006  0.3009308E+03  0.7818608E-02  0.1172666E+00
          2   -1    0    0  502    0  0.00000000000E+00  0.00000000000E+00  0.12514470135E+04  0.12514470135E+04  0.00000000000E+00 0. -1.
          1   -1    0    0  501    0 -0.00000000000E+00 -0.00000000000E+00 -0.40370380387E+03  0.40370380387E+03  0.00000000000E+00 0. -1.
         25    2    1    2    0    0  0.28118444617E+03  0.27289934812E+03  0.65444560709E+02  0.41646803073E+03  0.12499553243E+03 0.  0.
          2    1    1    2  501    0 -0.74321537029E+02 -0.69630888089E+02 -0.19460235157E+03  0.21964113157E+03  0.00000000000E+00 0. -1.
          1    1    1    2  502    0 -0.20686290914E+03 -0.20326846003E+03  0.97690100048E+03  0.10190416551E+04  0.00000000000E+00 0. -1.
         22    1    3    3    0    0  0.19917907718E+03  0.12908025150E+03 -0.28850402777E+01  0.23736541359E+03  0.00000000000E+00 0. -1.
         22    1    3    3    0    0  0.82005368986E+02  0.14381909662E+03  0.68329600987E+02  0.17910261714E+03  0.00000000000E+00 0. -1.
</event>
<event>
 7    1  0.5562528E-006  0.7810767E+02  0.7818608E-02  0.1450152E+00
          2   -1    0    0  502    0  0.00000000000E+00  0.00000000000E+00  0.63270765710E+03  0.63270765710E+03  0.00000000000E+00 0. -1.
          1   -1    0    0  501    0 -0.00000000000E+00 -0.00000000000E+00 -0.40505242432E+03  0.40505242432E+03  0.00000000000E+00 0. -1.
         25    2    1    2    0    0 -0.25727448489E+01 -0.10208671403E+03  0.11193400554E+03  0.19642593365E+03  0.12500243843E+03 0.  0.
          2    1    1    2  501    0  0.15537322776E+02  0.26697037401E+02 -0.35908202237E+03  0.36040815612E+03  0.00000000000E+00 0. -1.
          1    1    1    2  502    0 -0.12964577928E+02  0.75389676632E+02  0.47480324961E+03  0.48092599167E+03  0.00000000000E+00 0. -1.
         22    1    3    3    0    0  0.40832195456E+02 -0.80856070766E+01  0.76320796222E+02  0.86933935626E+02  0.00000000000E+00 0. -1.
         22    1    3    3    0    0 -0.43404940305E+02 -0.94001106956E+02  0.35613209323E+02  0.10949199802E+03  0.00000000000E+00 0. -1.
</event>
<event>
 7    1  0.5562528E-006  0.1121559E+03  0.7818608E-02  0.1274685E+00
          2   -1    0    0  502    0  0.00000000000E+00  0.00000000000E+00  0.21023676995E+04  0.21023676995E+04  0.00000000000E+00 0. -1.
          1   -1    0    0  501    0 -0.00000000000E+00 -0.00000000000E+00 -0.64719366043E+02  0.64719366043E+02  0.00000000000E+00 0. -1.
         25    2    1    2    0    0  0.16897516186E+03 -0.21365542734E+02  0.31116700180E+03  0.37611248751E+03  0.12500643385E+03 0.  0.
          2    1    1    2  501    0 -0.67887527239E+02  0.65120700324E+02  0.42213545198E+02  0.10310870654E+03  0.00000000000E+00 0. -1.
          1    1    1    2  502    0 -0.10108763462E+03 -0.43755157590E+02  0.16842677864E+04  0.16878658715E+04  0.00000000000E+00 0. -1.
         22    1    3    3    0    0  0.11308967090E+03 -0.65862113677E+01  0.29512773876E+03  0.31612186579E+03  0.00000000000E+00 0.  1.
         22    1    3    3    0    0  0.55885490956E+02 -0.14779331366E+02  0.16039263048E+02  0.59990621718E+02  0.00000000000E+00 0.  1.
</event>
<event>
 7    1  0.5562528E-006  0.3366800E+03  0.7818608E-02  0.1281694E+00
          2   -1    0    0  502    0  0.00000000000E+00  0.00000000000E+00  0.31576647200E+04  0.31576647200E+04  0.00000000000E+00 0. -1.
          1   -1    0    0  501    0 -0.00000000000E+00 -0.00000000000E+00 -0.61794551916E+02  0.61794551916E+02  0.00000000000E+00 0. -1.
         25    2    1    2    0    0 -0.54341916310E+02  0.31404273275E+03  0.17536536500E+04  0.17867574431E+04  0.12500061790E+03 0.  0.
          2    1    1    2  501    0  0.42403789544E+02 -0.34081122880E+03  0.61107387757E+03  0.70097193873E+03  0.00000000000E+00 0. -1.
          1    1    1    2  502    0  0.11938126766E+02  0.26768496054E+02  0.73114264045E+03  0.73172989001E+03  0.00000000000E+00 0. -1.
         22    1    3    3    0    0 -0.21803094874E+02 -0.43950031588E+01  0.11080777656E+03  0.11301793816E+03  0.00000000000E+00 0. -1.
         22    1    3    3    0    0 -0.32538821436E+02  0.31843773591E+03  0.16428458735E+04  0.16737395050E+04  0.00000000000E+00 0. -1.
</event>
<event>
 7    1  0.5562528E-006  0.2634822E+02  0.7818608E-02  0.1654012E+00
          2   -1    0    0  502    0  0.00000000000E+00  0.00000000000E+00  0.79161863176E+03  0.79161863176E+03  0.00000000000E+00 0. -1.
          1   -1    0    0  501    0 -0.00000000000E+00 -0.00000000000E+00 -0.66431299216E+03  0.66431299216E+03  0.00000000000E+00 0. -1.
         25    2    1    2    0    0  0.62968077094E+01 -0.31475647219E+01  0.39458123041E+02  0.13126930813E+03  0.12500052333E+03 0.  0.
          2    1    1    2  501    0 -0.82129831371E+01 -0.23259160681E+02 -0.61791310794E+03  0.61840524788E+03  0.00000000000E+00 0. -1.
          1    1    1    2  502    0  0.19161754277E+01  0.26406725403E+02  0.70576062450E+03  0.70625706791E+03  0.00000000000E+00 0. -1.
         22    1    3    3    0    0  0.27202125135E+01  0.19737567044E+02 -0.42051307051E+02  0.46532607209E+02  0.00000000000E+00 0.  1.
         22    1    3    3    0    0  0.35765951959E+01 -0.22885131766E+02  0.81509430092E+02  0.84736700922E+02  0.00000000000E+00 0.  1.
</event>
<event>
 7    1  0.5562528E-006  0.2006924E+03  0.7818608E-02  0.1197341E+00
          2   -1    0    0  502    0  0.00000000000E+00  0.00000000000E+00  0.13428506280E+04  0.13428506280E+04  0.00000000000E+00 0. -1.
          1   -1    0    0  501    0 -0.00000000000E+00 -0.00000000000E+00 -0.16099265490E+04  0.16099265490E+04  0.00000000000E+00 0. -1.
         25    2    1    2    0    0  0.50383301224E+02 -0.15804201640E+03 -0.15207486370E+03  0.25742924800E+03  0.12500918994E+03 0.  0.
          2    1    1    2  501    0  0.57116687862E+02  0.20162406516E+03 -0.13947236206E+04  0.14103788703E+04  0.00000000000E+00 0. -1.
          1    1    1    2  502    0 -0.10749998909E+03 -0.43582048762E+02  0.12797225634E+04  0.12849690587E+04  0.00000000000E+00 0. -1.
         22    1    3    3    0    0  0.78372168844E+00 -0.28581402759E+02  0.21144996729E+02  0.35561519793E+02  0.00000000000E+00 0. -1.
         22    1    3    3    0    0  0.49599579536E+02 -0.12946061364E+03 -0.17321986042E+03  0.22186772821E+03  0.00000000000E+00 0. -1.
</event>
<event>
 7    1  0.5562528E-006  0.1527282E+03  0.7818608E-02  0.1255454E+00
          2   -1    0    0  502    0  0.00000000000E+00  0.00000000000E+00  0.12537041049E+04  0.12537041049E+04  0.00000000000E+00 0. -1.
          1   -1    0    0  501    0 -0.00000000000E+00 -0.00000000000E+00 -0.81636800803E+03  0.81636800803E+03  0.00000000000E+00 0. -1.
         25    2    1    2    0    0  0.16230112372E+03 -0.23354260602E+02 -0.34918629663E+03  0.40551519172E+03  0.12499769883E+03 0.  0.
          2    1    1    2  501    0 -0.14328041284E+03 -0.57769947977E+02 -0.42394959729E+03  0.45122046123E+03  0.00000000000E+00 0. -1.
          1    1    1    2  502    0 -0.19020710886E+02  0.81124208579E+02  0.12104719908E+04  0.12133364600E+04  0.00000000000E+00 0. -1.
         22    1    3    3    0    0  0.16848659029E+03 -0.40060833342E+02 -0.24626341972E+03  0.30106190953E+03  0.00000000000E+00 0.  1.
         22    1    3    3    0    0 -0.61854665716E+01  0.16706572740E+02 -0.10292287691E+03  0.10445328219E+03  0.00000000000E+00 0.  1.
</event>
<event>
 7    1  0.5562528E-006  0.1026342E+03  0.7818608E-02  0.1335214E+00
          2   -1    0    0  502    0  0.00000000000E+00  0.00000000000E+00  0.86120505507E+03  0.86120505507E+03  0.00000000000E+00 0. -1.
          1   -1    0    0  501    0 -0.00000000000E+00 -0.00000000000E+00 -0.14124090096E+03  0.14124090096E+03  0.00000000000E+00 0. -1.
         25    2    1    2    0    0  0.95537340890E+02 -0.99456405108E+02  0.40764748600E+03  0.44812933820E+03  0.12499788353E+03 0.  0.
          2    1    1    2  501    0 -0.57800658226E+02  0.12217385953E+02 -0.10815335224E+03  0.12323687846E+03  0.00000000000E+00 0. -1.
          1    1    1    2  502    0 -0.37736682664E+02  0.87239019155E+02  0.42047002036E+03  0.43107973938E+03  0.00000000000E+00 0. -1.
         22    1    3    3    0    0  0.10369933846E+03 -0.12255349023E+03  0.36846168375E+03  0.40191656243E+03  0.00000000000E+00 0.  1.
         22    1    3    3    0    0 -0.81619975726E+01  0.23097085125E+02  0.39185802256E+02  0.46212775767E+02  0.00000000000E+00 0.  1.
</event>
<event>
 7    1  0.5562528E-006  0.2316389E+03  0.7818608E-02  0.1211017E+00
          2   -1    0    0  502    0  0.00000000000E+00  0.00000000000E+00  0.65211220469E+03  0.65211220469E+03  0.00000000000E+00 0. -1.
          1   -1    0    0  501    0 -0.00000000000E+00 -0.00000000000E+00 -0.19740886514E+03  0.19740886514E+03  0.00000000000E+00 0. -1.
         25    2    1    2    0    0  0.77040654037E+00 -0.24235427143E+03  0.44170389612E+03  0.51909775867E+03  0.12499585915E+03 0.  0.
          2    1    1    2  501    0 -0.78287891940E+02  0.37304560021E+02 -0.52821525729E+02  0.10154180323E+03  0.00000000000E+00 0. -1.
          1    1    1    2  502    0  0.77517485400E+02  0.20504971141E+03  0.65820969157E+02  0.22888150793E+03  0.00000000000E+00 0. -1.
         22    1    3    3    0    0 -0.17659479818E+02 -0.22553594478E+03  0.30283040583E+03  0.37800075967E+03  0.00000000000E+00 0.  1.
         22    1    3    3    0    0  0.18429886359E+02 -0.16818326651E+02  0.13887349029E+03  0.14109699901E+03  0.00000000000E+00 0.  1.
</event>
<event>
 7    1  0.5562528E-006  0.2520362E+03  0.7818608E-02  0.1115737E+00
          2   -1    0    0  502    0  0.00000000000E+00  0.00000000000E+00  0.10506598572E+03  0.10506598572E+03  0.00000000000E+00 0. -1.
          1   -1    0    0  501    0 -0.00000000000E+00 -0.00000000000E+00 -0.25826595299E+04  0.25826595299E+04  0.00000000000E+00 0. -1.
         25    2    1    2    0    0  0.52070308650E+02 -0.14099565771E+03 -0.41592651821E+03  0.45957840887E+03  0.12500541112E+03 0.  0.
          2    1    1    2  501    0 -0.83855268281E+02 -0.22538313785E+03 -0.16837220620E+04  0.17008084098E+04  0.00000000000E+00 0. -1.
          1    1    1    2  502    0  0.31784959630E+02  0.36637879556E+03 -0.37794496397E+03  0.52733869693E+03  0.00000000000E+00 0. -1.
         22    1    3    3    0    0  0.31598788129E+02 -0.16216717953E+03 -0.33660249125E+03  0.37496388445E+03  0.00000000000E+00 0. -1.
         22    1    3    3    0    0  0.20471520521E+02  0.21171521818E+02 -0.79324026963E+02  0.84614524416E+02  0.00000000000E+00 0. -1.
</event>
<event>
 7    1  0.5562528E-006  0.1420001E+03  0.7818608E-02  0.1385870E+00
          2   -1    0    0  502    0  0.00000000000E+00  0.00000000000E+00  0.81960966510E+03  0.81960966510E+03  0.00000000000E+00 0. -1.
          1   -1    0    0  501    0 -0.00000000000E+00 -0.00000000000E+00 -0.15893628064E+03  0.15893628064E+03  0.00000000000E+00 0. -1.
         25    2    1    2    0    0  0.34610817207E+02 -0.15448494527E+03  0.31726257389E+03  0.37595678632E+03  0.12499782960E+03 0.  0.
          2    1    1    2  501    0  0.11117953660E+02  0.25591849686E+02 -0.11804246619E+03  0.12129540588E+03  0.00000000000E+00 0. -1.
          1    1    1    2  502    0 -0.45728770867E+02  0.12889309558E+03  0.46145327675E+03  0.48129375354E+03  0.00000000000E+00 0. -1.
         22    1    3    3    0    0 -0.34332227749E+02 -0.25752915449E+02  0.26113326702E+02  0.50237638756E+02  0.00000000000E+00 0.  1.
         22    1    3    3    0    0  0.68943044956E+02 -0.12873202982E+03  0.29114924719E+03  0.32571914756E+03  0.00000000000E+00 0.  1.
</event>
<event>
 7    1  0.5562528E-006  0.5221717E+02  0.7818608E-02  0.1517653E+00
          2   -1    0    0  502    0  0.00000000000E+00  0.00000000000E+00  0.20667733745E+04  0.20667733745E+04  0.00000000000E+00 0. -1.
          1   -1    0    0  501    0 -0.00000000000E+00 -0.00000000000E+00 -0.12107366451E+03  0.12107366451E+03  0.00000000000E+00 0. -1.
         25    2    1    2    0    0 -0.54032669288E+02  0.40490594334E+02  0.50230742703E+03  0.52201191897E+03  0.12499869889E+03 0.  0.
          2    1    1    2  501    0  0.25692943047E+02 -0.45325392732E+02 -0.10497904244E+03  0.11719691933E+03  0.00000000000E+00 0. -1.
          1    1    1    2  502    0  0.28339726241E+02  0.48347983984E+01  0.15483713254E+04  0.15486382007E+04  0.00000000000E+00 0. -1.
         22    1    3    3    0    0 -0.39060483015E+02  0.69747248854E+02  0.46693342439E+03  0.47372694970E+03  0.00000000000E+00 0. -1.
         22    1    3    3    0    0 -0.14972186273E+02 -0.29256654520E+02  0.35374002633E+02  0.48284969274E+02  0.00000000000E+00 0. -1.
</event>
<event>
 7    1  0.5562528E-006  0.6332406E+02  0.7818608E-02  0.1446440E+00
          2   -1    0    0  502    0  0.00000000000E+00  0.00000000000E+00  0.24322620137E+04  0.24322620137E+04  0.00000000000E+00 0. -1.
          1   -1    0    0  501    0 -0.00000000000E+00 -0.00000000000E+00 -0.43462804696E+02  0.43462804696E+02  0.00000000000E+00 0. -1.
         25    2    1    2    0    0 -0.25774944670E+02 -0.94497202421E+02  0.36144695944E+03  0.39479648118E+03  0.12500515198E+03 0.  0.
          2    1    1    2  501    0  0.23763322907E+02  0.55389534145E+02  0.75458549335E+01  0.60742373473E+02  0.00000000000E+00 0. -1.
          1    1    1    2  502    0  0.20116217637E+01  0.39107668276E+02  0.20198063946E+04  0.20201859637E+04  0.00000000000E+00 0. -1.
         22    1    3    3    0    0  0.42638974707E+02 -0.24249509217E+02  0.58330243569E+02  0.76213766316E+02  0.00000000000E+00 0. -1.
         22    1    3    3    0    0 -0.68413919377E+02 -0.70247693204E+02  0.30311671587E+03  0.31858271486E+03  0.00000000000E+00 0. -1.
</event>
<event>
 7    1  0.5562528E-006  0.8691603E+02  0.7818608E-02  0.1422992E+00
          2   -1    0    0  502    0  0.00000000000E+00  0.00000000000E+00  0.17845657213E+04  0.17845657213E+04  0.00000000000E+00 0. -1.
          1   -1    0    0  501    0 -0.00000000000E+00 -0.00000000000E+00 -0.47473027821E+03  0.47473027821E+03  0.00000000000E+00 0. -1.
         25    2    1    2    0    0  0.60153128817E+02  0.32160034466E+02 -0.45953046596E+02  0.14963370325E+03  0.12500358368E+03 0.  0.
          2    1    1    2  501    0 -0.32498200069E+01  0.33883989043E+02 -0.37506917469E+03  0.37661063693E+03  0.00000000000E+00 0. -1.
          1    1    1    2  502    0 -0.56903308810E+02 -0.66044023509E+02  0.17308576644E+04  0.17330516594E+04  0.00000000000E+00 0. -1.
         22    1    3    3    0    0  0.97455693370E+02  0.76907481528E+01 -0.33025137373E+02  0.10318633376E+03  0.00000000000E+00 0.  1.
         22    1    3    3    0    0 -0.37302564553E+02  0.24469286313E+02 -0.12927909223E+02  0.46447369482E+02  0.00000000000E+00 0.  1.
</event>
<event>
 7    1  0.5562528E-006  0.5610165E+02  0.7818608E-02  0.1523084E+00
          2   -1    0    0  502    0  0.00000000000E+00  0.00000000000E+00  0.27289445363E+03  0.27289445363E+03  0.00000000000E+00 0. -1.
          1   -1    0    0  501    0 -0.00000000000E+00 -0.00000000000E+00 -0.12067786013E+04  0.12067786013E+04  0.00000000000E+00 0. -1.
         25    2    1    2    0    0 -0.29322917713E+02 -0.28583356870E+02  0.11378904006E+03  0.17392492000E+03  0.12500036147E+03 0.  0.
          2    1    1    2  501    0 -0.25509811159E+02  0.38898236536E+01 -0.11695541165E+04  0.11698387550E+04  0.00000000000E+00 0. -1.
          1    1    1    2  502    0  0.54832728871E+02  0.24693533216E+02  0.12188092882E+03  0.13590937991E+03  0.00000000000E+00 0. -1.
         22    1    3    3    0    0 -0.16550104132E+02  0.45194054802E+02  0.15908812425E+02  0.50690224393E+02  0.00000000000E+00 0. -1.
         22    1    3    3    0    0 -0.12772813581E+02 -0.73777411672E+02  0.97880227639E+02  0.12323469561E+03  0.00000000000E+00 0. -1.
</event>
<event>
 7    1  0.5562528E-006  0.1117993E+03  0.7818608E-02  0.1326281E+00
          2   -1    0    0  502    0  0.00000000000E+00  0.00000000000E+00  0.41193824846E+03  0.41193824846E+03  0.00000000000E+00 0. -1.
          1   -1    0    0  501    0 -0.00000000000E+00 -0.00000000000E+00 -0.19688814927E+03  0.19688814927E+03  0.00000000000E+00 0. -1.
         25    2    1    2    0    0 -0.18267459344E+02  0.80208995297E+02  0.22803668143E+02  0.15136769355E+03  0.12499995348E+03 0.  0.
          2    1    1    2  501    0  0.73700968642E+02 -0.99404632345E+02 -0.10017505195E+03  0.15921103839E+03  0.00000000000E+00 0. -1.
          1    1    1    2  502    0 -0.55433509298E+02  0.19195637048E+02  0.29242148300E+03  0.29824766580E+03  0.00000000000E+00 0. -1.
         22    1    3    3    0    0 -0.18753504058E+02  0.96589756060E+02 -0.24422308533E+02  0.10137911049E+03  0.00000000000E+00 0. -1.
         22    1    3    3    0    0  0.48604471422E+00 -0.16380760763E+02  0.47225976676E+02  0.49988583053E+02  0.00000000000E+00 0. -1.
</event>
<event>
 7    1  0.5562528E-006  0.6798482E+02  0.7818608E-02  0.1478513E+00
          2   -1    0    0  502    0  0.00000000000E+00  0.00000000000E+00  0.17082212110E+03  0.17082212110E+03  0.00000000000E+00 0. -1.
          1   -1    0    0  501    0 -0.00000000000E+00 -0.00000000000E+00 -0.39212486446E+03  0.39212486446E+03  0.00000000000E+00 0. -1.
         25    2    1    2    0    0  0.32457051733E+02 -0.35930040419E+02 -0.14082449489E+03  0.19442327534E+03  0.12499777447E+03 0.  0.
          2    1    1    2  501    0 -0.61197001206E+02  0.39124411849E+02 -0.21707242568E+03  0.22890222923E+03  0.00000000000E+00 0. -1.
          1    1    1    2  502    0  0.28739949473E+02 -0.31943714298E+01  0.13659417720E+03  0.13962148098E+03  0.00000000000E+00 0. -1.
         22    1    3    3    0    0  0.40856984017E+02  0.31833546938E+02 -0.10553773478E+03  0.11756224443E+03  0.00000000000E+00 0. -1.
         22    1    3    3    0    0 -0.83999322836E+01 -0.67763587357E+02 -0.35286760113E+02  0.76861030914E+02  0.00000000000E+00 0. -1.
</event>
<event>
 7    1  0.5562528E-006  0.1218586E+03  0.7818608E-02  0.1273914E+00
          2   -1    0    0  502    0  0.00000000000E+00  0.00000000000E+00  0.15521982088E+04  0.15521982088E+04  0.00000000000E+00 0. -1.
          1   -1    0    0  501    0 -0.00000000000E+00 -0.00000000000E+00 -0.57521305913E+02  0.57521305913E+02  0.00000000000E+00 0. -1.
         25    2    1    2    0    0  0.94238461742E+02 -0.71725812209E+02  0.73511615143E+03  0.75501822564E+03  0.12502513809E+03 0.  0.
          2    1    1    2  501    0  0.40552527504E+02  0.77225192146E+02  0.41334301522E+01  0.87323095649E+02  0.00000000000E+00 0. -1.
          1    1    1    2  502    0 -0.13479098925E+03 -0.54993799369E+01  0.75542732133E+03  0.76737819344E+03  0.00000000000E+00 0. -1.
         22    1    3    3    0    0  0.16180328226E+02 -0.90402744862E+02  0.37875419197E+03  0.38972964634E+03  0.00000000000E+00 0.  1.
         22    1    3    3    0    0  0.78058133516E+02  0.18676932653E+02  0.35636195945E+03  0.36528857930E+03  0.00000000000E+00 0.  1.
</event>
<event>
 7    1  0.5562528E-006  0.7096893E+02  0.7818608E-02  0.1383691E+00
          2   -1    0    0  502    0  0.00000000000E+00  0.00000000000E+00  0.23372254288E+03  0.23372254288E+03  0.00000000000E+00 0. -1.
          1   -1    0    0  501    0 -0.00000000000E+00 -0.00000000000E+00 -0.12596501727E+04  0.12596501727E+04  0.00000000000E+00 0. -1.
         25    2    1    2    0    0  0.37009673900E+02 -0.84573476244E+02  0.52520300363E+02  0.16403154204E+03  0.12500230393E+03 0.  0.
          2    1    1    2  501    0 -0.54313111067E+02  0.16701834634E+02 -0.11933885503E+04  0.11947405983E+04  0.00000000000E+00 0. -1.
          1    1    1    2  502    0  0.17303437167E+02  0.67871641610E+02  0.11494062016E+03  0.13460057516E+03  0.00000000000E+00 0. -1.
         22    1    3    3    0    0 -0.32217749112E+02 -0.19669830182E+02 -0.21716819839E+02  0.43548890240E+02  0.00000000000E+00 0. -1.
         22    1    3    3    0    0  0.69227423012E+02 -0.64903646062E+02  0.74237120202E+02  0.12048265180E+03  0.00000000000E+00 0. -1.
</event>
<event>
 7    1  0.5562528E-006  0.1026436E+03  0.7818608E-02  0.1365232E+00
          2   -1    0    0  502    0  0.00000000000E+00  0.00000000000E+00  0.65367687556E+02  0.65367687556E+02  0.00000000000E+00 0. -1.
          1   -1    0    0  501    0 -0.00000000000E+00 -0.00000000000E+00 -0.75012241558E+03  0.75012241558E+03  0.00000000000E+00 0. -1.
         25    2    1    2    0    0  0.16594465451E+02 -0.64086443911E+02 -0.55412525772E+02  0.15191177826E+03  0.12499676710E+03 0.  0.
          2    1    1    2  501    0  0.78965895326E+00  0.10638135159E+03 -0.59974569004E+03  0.60910796108E+03  0.00000000000E+00 0. -1.
          1    1    1    2  502    0 -0.17384124404E+02 -0.42294907678E+02 -0.29596512206E+02  0.54470363791E+02  0.00000000000E+00 0. -1.
         22    1    3    3    0    0  0.33775037388E+02  0.29501784074E+02 -0.78236084038E+01  0.45522711503E+02  0.00000000000E+00 0. -1.
         22    1    3    3    0    0 -0.17180571937E+02 -0.93588227985E+02 -0.47588917368E+02  0.10638906676E+03  0.00000000000E+00 0. -1.
</event>
<event>
 7    1  0.5562528E-006  0.8054112E+02  0.7818608E-02  0.1353402E+00
          2   -1    0    0  502    0  0.00000000000E+00  0.00000000000E+00  0.10918074797E+04  0.10918074797E+04  0.00000000000E+00 0. -1.
          1   -1    0    0  501    0 -0.00000000000E+00 -0.00000000000E+00 -0.26774820240E+03  0.26774820240E+03  0.00000000000E+00 0. -1.
         25    2    1    2    0    0 -0.45782201910E+02  0.83533885575E+02 -0.17642718946E+03  0.23624869508E+03  0.12495188151E+03 0.  0.
          2    1    1    2  501    0 -0.18207886416E+02 -0.76502738068E+02 -0.34818129776E+02  0.86002896584E+02  0.00000000000E+00 0. -1.
          1    1    1    2  502    0  0.63990088326E+02 -0.70311475064E+01  0.10353045966E+04  0.10373040905E+04  0.00000000000E+00 0. -1.
         22    1    3    3    0    0  0.23696525811E+01 -0.27593018152E+02 -0.80528855286E+01  0.28841616970E+02  0.00000000000E+00 0.  1.
         22    1    3    3    0    0 -0.48151854492E+02  0.11112690373E+03 -0.16837430394E+03  0.20740707811E+03  0.00000000000E+00 0.  1.
</event>
<event>
 7    1  0.5562528E-006  0.2122882E+03  0.7818608E-02  0.1301072E+00
          2   -1    0    0  502    0  0.00000000000E+00  0.00000000000E+00  0.25203116691E+04  0.25203116691E+04  0.00000000000E+00 0. -1.
          1   -1    0    0  501    0 -0.00000000000E+00 -0.00000000000E+00 -0.69735022491E+02  0.69735022491E+02  0.00000000000E+00 0. -1.
         25    2    1    2    0    0  0.17347711878E+03  0.69021858657E+02  0.76629238063E+03  0.79855340478E+03  0.12500079984E+03 0.  0.
          2    1    1    2  501    0  0.29731665977E+02  0.24905498331E+02 -0.38249776252E+02  0.54472940000E+02  0.00000000000E+00 0. -1.
          1    1    1    2  502    0 -0.20320878476E+03 -0.93927356987E+02  0.17225340423E+04  0.17370203468E+04  0.00000000000E+00 0. -1.
         22    1    3    3    0    0  0.80604472261E+02  0.36272744019E+02  0.59031328233E+03  0.59689409798E+03  0.00000000000E+00 0. -1.
         22    1    3    3    0    0  0.92872646518E+02  0.32749114638E+02  0.17597909830E+03  0.20165930680E+03  0.00000000000E+00 0. -1.
</event>
<event>
 7    1  0.5562528E-006  0.3877862E+02  0.7818608E-02  0.1603183E+00
          2   -1    0    0  502    0  0.00000000000E+00  0.00000000000E+00  0.16813417600E+04  0.16813417600E+04  0.00000000000E+00 0. -1.
          1   -1    0    0  501    0 -0.00000000000E+00 -0.00000000000E+00 -0.12581789625E+02  0.12581789625E+02  0.00000000000E+00 0. -1.
         25    2    1    2    0    0 -0.66405261892E+01  0.18403560769E+02  0.59495143621E+03  0.60825904271E+03  0.12501625474E+03 0.  0.
          2    1    1    2  501    0  0.50478733179E+01 -0.40855799210E+02  0.67216926193E+02  0.78821269470E+02  0.00000000000E+00 0. -1.
          1    1    1    2  502    0  0.15926528713E+01  0.22452238441E+02  0.10065916080E+04  0.10068432375E+04  0.00000000000E+00 0. -1.
         22    1    3    3    0    0  0.21444595059E+02  0.47864794156E+02  0.11285529171E+03  0.12444768397E+03  0.00000000000E+00 0. -1.
         22    1    3    3    0    0 -0.28085121248E+02 -0.29461233388E+02  0.48209614450E+03  0.48381135875E+03  0.00000000000E+00 0. -1.
</event>
<event>
 7    1  0.5562528E-006  0.3982319E+02  0.7818608E-02  0.1533225E+00
          2   -1    0    0  502    0  0.00000000000E+00  0.00000000000E+00  0.75134494460E+03  0.75134494460E+03  0.00000000000E+00 0. -1.
          1   -1    0    0  501    0 -0.00000000000E+00 -0.00000000000E+00 -0.48828537589E+02  0.48828537589E+02  0.00000000000E+00 0. -1.
         25    2    1    2    0    0 -0.14540746504E+02 -0.90258901732E+00  0.24424818159E+03  0.27476302323E+03  0.12500118699E+03 0.  0.
          2    1    1    2  501    0  0.24264935722E+02  0.33476860708E+02 -0.20004498785E+02  0.45931114510E+02  0.00000000000E+00 0. -1.
          1    1    1    2  502    0 -0.97241892184E+01 -0.32574271691E+02  0.47827272421E+03  0.47947934445E+03  0.00000000000E+00 0. -1.
         22    1    3    3    0    0  0.48052815998E+02 -0.13170847227E+02  0.51165137345E+02  0.71417194159E+02  0.00000000000E+00 0. -1.
         22    1    3    3    0    0 -0.62593562501E+02  0.12268258210E+02  0.19308304424E+03  0.20334582907E+03  0.00000000000E+00 0. -1.
</event>
<event>
 7    1  0.5562528E-006  0.6666054E+02  0.7818608E-02  0.1377893E+00
          2   -1    0    0  502    0  0.00000000000E+00  0.00000000000E+00  0.29448952083E+03  0.29448952083E+03  0.00000000000E+00 0. -1.
          1   -1    0    0  501    0 -0.00000000000E+00 -0.00000000000E+00 -0.31100720155E+03  0.31100720155E+03  0.00000000000E+00 0. -1.
         25    2    1    2    0    0 -0.58203190477E+02 -0.13198633882E+02  0.12574857850E+03  0.18708199982E+03  0.12500061738E+03 0.  0.
          2    1    1    2  501    0  0.28197121903E+02 -0.56808403788E+02 -0.26581414470E+03  0.27327537750E+03  0.00000000000E+00 0. -1.
          1    1    1    2  502    0  0.30006068574E+02  0.70007037670E+02  0.12354788548E+03  0.14513934505E+03  0.00000000000E+00 0. -1.
         22    1    3    3    0    0 -0.51477881004E+01  0.45749676315E+02  0.10564236933E+02  0.47234899250E+02  0.00000000000E+00 0.  1.
         22    1    3    3    0    0 -0.53055402376E+02 -0.58948310196E+02  0.11518434157E+03  0.13984710057E+03  0.00000000000E+00 0.  1.
</event>
<event>
 7    1  0.5562528E-006  0.1116907E+03  0.7818608E-02  0.1327029E+00
          2   -1    0    0  502    0  0.00000000000E+00  0.00000000000E+00  0.41226603248E+03  0.41226603248E+03  0.00000000000E+00 0. -1.
          1   -1    0    0  501    0 -0.00000000000E+00 -0.00000000000E+00 -0.41390819608E+03  0.41390819608E+03  0.00000000000E+00 0. -1.
         25    2    1    2    0    0 -0.26029221948E+02  0.57413114900E+02  0.28539012860E+02  0.14286965351E+03  0.12499390578E+03 0.  0.
          2    1    1    2  501    0 -0.25442068053E+02  0.52492190707E+02 -0.34291875583E+03  0.34784479587E+03  0.00000000000E+00 0. -1.
          1    1    1    2  502    0  0.51471290001E+02 -0.10990530561E+03  0.31273757938E+03  0.33545977918E+03  0.00000000000E+00 0. -1.
         22    1    3    3    0    0 -0.51843962133E+02 -0.21344972700E+02  0.20100389951E+02  0.59560305115E+02  0.00000000000E+00 0.  1.
         22    1    3    3    0    0  0.25814740184E+02  0.78758087600E+02  0.84386229086E+01  0.83309348394E+02  0.00000000000E+00 0.  1.
</event>
<event>
 7    1  0.5562528E-006  0.4468197E+02  0.7818608E-02  0.1592024E+00
          2   -1    0    0  502    0  0.00000000000E+00  0.00000000000E+00  0.64872194253E+03  0.64872194253E+03  0.00000000000E+00 0. -1.
          1   -1    0    0  501    0 -0.00000000000E+00 -0.00000000000E+00 -0.33250663829E+03  0.33250663829E+03  0.00000000000E+00 0. -1.
         25    2    1    2    0    0  0.17280522359E+02  0.62074185619E+02  0.20068876480E+03  0.24505618162E+03  0.12499892345E+03 0.  0.
          2    1    1    2  501    0 -0.36088774052E+01 -0.20581725299E+02 -0.30884853886E+03  0.30955460160E+03  0.00000000000E+00 0. -1.
          1    1    1    2  502    0 -0.13671644954E+02 -0.41492460319E+02  0.42437507831E+03  0.42661779760E+03  0.00000000000E+00 0. -1.
         22    1    3    3    0    0  0.48549118003E+02  0.75038183238E+02  0.80811957188E+02  0.12049198408E+03  0.00000000000E+00 0. -1.
         22    1    3    3    0    0 -0.31268595644E+02 -0.12963997619E+02  0.11987680761E+03  0.12456419755E+03  0.00000000000E+00 0. -1.
</event>
<event>
 7    1  0.5562528E-006  0.1339661E+03  0.7818608E-02  0.1342651E+00
          2   -1    0    0  502    0  0.00000000000E+00  0.00000000000E+00  0.27073445093E+04  0.27073445093E+04  0.00000000000E+00 0. -1.
          1   -1    0    0  501    0 -0.00000000000E+00 -0.00000000000E+00 -0.13073638245E+04  0.13073638245E+04  0.00000000000E+00 0. -1.
         25    2    1    2    0    0  0.39660645518E+02  0.10713117124E+03  0.26883450186E+03  0.31772179055E+03  0.12500036859E+03 0.  0.
          2    1    1    2  501    0 -0.82083567695E+02 -0.10625050598E+03 -0.12792200786E+04  0.12862468238E+04  0.00000000000E+00 0. -1.
          1    1    1    2  502    0  0.42422922177E+02 -0.88066525957E+00  0.24103662616E+04  0.24107397195E+04  0.00000000000E+00 0. -1.
         22    1    3    3    0    0 -0.33022713298E+02  0.51747603381E+02  0.18039493579E+03  0.19055352767E+03  0.00000000000E+00 0. -1.
         22    1    3    3    0    0  0.72683358816E+02  0.55383567859E+02  0.88439566069E+02  0.12716826288E+03  0.00000000000E+00 0. -1.
</event>
<event>
 7    1  0.5562528E-006  0.2460237E+03  0.7818608E-02  0.1214441E+00
          2   -1    0    0  502    0  0.00000000000E+00  0.00000000000E+00  0.38676678630E+03  0.38676678630E+03  0.00000000000E+00 0. -1.
          1   -1    0    0  501    0 -0.00000000000E+00 -0.00000000000E+00 -0.28689401520E+03  0.28689401520E+03  0.00000000000E+00 0. -1.
         25    2    1    2    0    0  0.73474204824E+02 -0.27406753754E+03  0.17137143381E+03  0.35427115921E+03  0.12501364732E+03 0.  0.
          2    1    1    2  501    0 -0.29061722882E+02  0.73173363013E+02 -0.81607981120E+02  0.11339659331E+03  0.00000000000E+00 0. -1.
          1    1    1    2  502    0 -0.44412481942E+02  0.20089417453E+03  0.10109318409E+02  0.20599304898E+03  0.00000000000E+00 0. -1.
         22    1    3    3    0    0 -0.14299719111E+02  0.67717820523E+01  0.82650811655E+01  0.17850786131E+02  0.00000000000E+00 0.  1.
         22    1    3    3    0    0  0.87773923935E+02 -0.28083931959E+03  0.16310635265E+03  0.33642037308E+03  0.00000000000E+00 0.  1.
</event>
<event>
 7    1  0.5562528E-006  0.9554288E+02  0.7818608E-02  0.1418412E+00
          2   -1    0    0  502    0  0.00000000000E+00  0.00000000000E+00  0.19938237404E+04  0.19938237404E+04  0.00000000000E+00 0. -1.
          1   -1    0    0  501    0 -0.00000000000E+00 -0.00000000000E+00 -0.12147437763E+04  0.12147437763E+04  0.00000000000E+00 0. -1.
         25    2    1    2    0    0  0.52396235646E+02  0.36038653374E+02  0.66179831489E+03  0.67649562343E+03  0.12500067553E+03 0.  0.
          2    1    1    2  501    0 -0.79825651720E+02 -0.52664991713E+02 -0.12053066853E+04  0.12090946785E+04  0.00000000000E+00 0. -1.
          1    1    1    2  502    0  0.27429416073E+02  0.16626338339E+02  0.13225883345E+04  0.13229772147E+04  0.00000000000E+00 0. -1.
         22    1    3    3    0    0 -0.34620976938E+02  0.31172550926E+02  0.14214432958E+03  0.14958392429E+03  0.00000000000E+00 0.  1.
         22    1    3    3    0    0  0.87017212585E+02  0.48661024487E+01  0.51965398531E+03  0.52691169914E+03  0.00000000000E+00 0.  1.
</event>
<event>
 7    1  0.5562528E-006  0.1722327E+03  0.7818608E-02  0.1187008E+00
          2   -1    0    0  502    0  0.00000000000E+00  0.00000000000E+00  0.20018552004E+04  0.20018552004E+04  0.00000000000E+00 0. -1.
          1   -1    0    0  501    0 -0.00000000000E+00 -0.00000000000E+00 -0.40967790361E+02  0.40967790361E+02  0.00000000000E+00 0. -1.
         25    2    1    2    0    0  0.11506202573E+03  0.72718752285E+02  0.59376026926E+03  0.62185479325E+03  0.12499935935E+03 0.  0.
          2    1    1    2  501    0  0.10810003284E+03 -0.10606664096E+03  0.39598369696E+03  0.42395617425E+03  0.00000000000E+00 0. -1.
          1    1    1    2  502    0 -0.22316205857E+03  0.33347888673E+02  0.97114344382E+03  0.99701202327E+03  0.00000000000E+00 0. -1.
         22    1    3    3    0    0  0.10549985514E+03  0.84401425370E+02  0.31582989762E+03  0.34351469295E+03  0.00000000000E+00 0.  1.
         22    1    3    3    0    0  0.95621705853E+01 -0.11682673084E+02  0.27793037164E+03  0.27834010030E+03  0.00000000000E+00 0.  1.
</event>
<event>
 7    1  0.5562528E-006  0.7810303E+02  0.7818608E-02  0.1337186E+00
          2   -1    0    0  502    0  0.00000000000E+00  0.00000000000E+00  0.10933678126E+04  0.10933678126E+04  0.00000000000E+00 0. -1.
          1   -1    0    0  501    0 -0.00000000000E+00 -0.00000000000E+00 -0.14783053402E+04  0.14783053402E+04  0.00000000000E+00 0. -1.
         25    2    1    2    0    0  0.83501263898E+02  0.62543814767E+01  0.89543164618E+02  0.17508054275E+03  0.12499455892E+03 0.  0.
          2    1    1    2  501    0 -0.38777911158E+02 -0.68086070183E+02 -0.14329498151E+04  0.14350904542E+04  0.00000000000E+00 0. -1.
          1    1    1    2  502    0 -0.44723352739E+02  0.61831688707E+02  0.95846912289E+03  0.96150215577E+03  0.00000000000E+00 0. -1.
         22    1    3    3    0    0 -0.23640866967E+00 -0.15499038083E+01  0.90954624712E+02  0.90968136440E+02  0.00000000000E+00 0. -1.
         22    1    3    3    0    0  0.83737672567E+02  0.78042852850E+01 -0.14114600944E+01  0.84112406311E+02  0.00000000000E+00 0. -1.
</event>
<event>
 7    1  0.5562528E-006  0.2490454E+03  0.7818608E-02  0.1204120E+00
          2   -1    0    0  502    0  0.00000000000E+00  0.00000000000E+00  0.37508073501E+04  0.37508073501E+04  0.00000000000E+00 0. -1.
          1   -1    0    0  501    0 -0.00000000000E+00 -0.00000000000E+00 -0.23090555502E+03  0.23090555502E+03  0.00000000000E+00 0. -1.
         25    2    1    2    0    0 -0.24917971580E+03 -0.21696757921E+03  0.10921256524E+04  0.11478365794E+04  0.12499964556E+03 0.  0.
          2    1    1    2  501    0  0.18679416642E+03  0.15654394699E+03 -0.12891390629E+03  0.27571155794E+03  0.00000000000E+00 0. -1.
          1    1    1    2  502    0  0.62385549379E+02  0.60423632220E+02  0.25566900490E+04  0.25581647677E+04  0.00000000000E+00 0. -1.
         22    1    3    3    0    0 -0.13741362372E+03 -0.50058247515E+02  0.35787075255E+03  0.38660032031E+03  0.00000000000E+00 0. -1.
         22    1    3    3    0    0 -0.11176609208E+03 -0.16690933170E+03  0.73425489980E+03  0.76123625914E+03  0.00000000000E+00 0. -1.
</event>
<event>
 7    1  0.5562528E-006  0.1012136E+03  0.7818608E-02  0.1285650E+00
          2   -1    0    0  502    0  0.00000000000E+00  0.00000000000E+00  0.21896533807E+03  0.21896533807E+03  0.00000000000E+00 0. -1.
          1   -1    0    0  501    0 -0.00000000000E+00 -0.00000000000E+00 -0.17663421599E+04  0.17663421599E+04  0.00000000000E+00 0. -1.
         25    2    1    2    0    0 -0.13799369109E+03 -0.10426865566E+03  0.44507035063E+02  0.21799135919E+03  0.12500058071E+03 0.  0.
          2    1    1    2  501    0  0.98784016241E+02  0.18929457919E+02 -0.16524864939E+04  0.16555446895E+04  0.00000000000E+00 0. -1.
          1    1    1    2  502    0  0.39209674851E+02  0.85339197744E+02  0.60602637000E+02  0.11177144933E+03  0.00000000000E+00 0. -1.
         22    1    3    3    0    0 -0.78822169606E+01 -0.56558091570E+02 -0.25720557482E+02  0.62629818325E+02  0.00000000000E+00 0.  1.
         22    1    3    3    0    0 -0.13011147413E+03 -0.47710564093E+02  0.70227592545E+02  0.15536154087E+03  0.00000000000E+00 0.  1.
</event>
<event>
 7    1  0.5562528E-006  0.1291146E+03  0.7818608E-02  0.1313844E+00
          2   -1    0    0  502    0  0.00000000000E+00  0.00000000000E+00  0.16990217691E+04  0.16990217691E+04  0.00000000000E+00 0. -1.
          1   -1    0    0  501    0 -0.00000000000E+00 -0.00000000000E+00 -0.24283727092E+04  0.24283727092E+04  0.00000000000E+00 0. -1.
         25    2    1    2    0    0 -0.12660904497E+03 -0.70503220706E+02 -0.20470946151E+04  0.20560210895E+04  0.12500321169E+03 0.  0.
          2    1    1    2  501    0  0.47303650477E+02 -0.31378523548E+02 -0.37220061990E+03  0.37650438051E+03  0.00000000000E+00 0. -1.
          1    1    1    2  502    0  0.79305394497E+02  0.10188174425E+03  0.16899442949E+04  0.16948690083E+04  0.00000000000E+00 0. -1.
         22    1    3    3    0    0 -0.50294931871E+02 -0.68914518093E+02 -0.51440621381E+03  0.52143316330E+03  0.00000000000E+00 0.  1.
         22    1    3    3    0    0 -0.76314113103E+02 -0.15887026134E+01 -0.15326884013E+04  0.15345879263E+04  0.00000000000E+00 0.  1.
</event>
<event>
 7    1  0.5562528E-006  0.1373122E+03  0.7818608E-02  0.1405738E+00
          2   -1    0    0  502    0  0.00000000000E+00  0.00000000000E+00  0.18397400636E+04  0.18397400636E+04  0.00000000000E+00 0. -1.
          1   -1    0    0  501    0 -0.00000000000E+00 -0.00000000000E+00 -0.10360779170E+04  0.10360779170E+04  0.00000000000E+00 0. -1.
         25    2    1    2    0    0 -0.11440803839E+03  0.10960440621E+03 -0.18088522510E+03  0.27101063506E+03  0.12499989819E+03 0.  0.
          2    1    1    2  501    0  0.92969157091E+02 -0.97478266923E+02 -0.80444513149E+03  0.81564529440E+03  0.00000000000E+00 0. -1.
          1    1    1    2  502    0  0.21438881299E+02 -0.12126139283E+02  0.17889925031E+04  0.17891620511E+04  0.00000000000E+00 0. -1.
         22    1    3    3    0    0 -0.29056424008E+02 -0.90208227556E+01  0.86941230136E+01  0.31642357597E+02  0.00000000000E+00 0. -1.
         22    1    3    3    0    0 -0.85351614382E+02  0.11862522896E+03 -0.18957934811E+03  0.23936827746E+03  0.00000000000E+00 0. -1.
</event>
<event>
 7    1  0.5562528E-006  0.6324199E+02  0.7818608E-02  0.1482284E+00
          2   -1    0    0  502    0  0.00000000000E+00  0.00000000000E+00  0.33162428594E+03  0.33162428594E+03  0.00000000000E+00 0. -1.
          1   -1    0    0  501    0 -0.00000000000E+00 -0.00000000000E+00 -0.58952237280E+02  0.58952237280E+02  0.00000000000E+00 0. -1.
         25    2    1    2    0    0  0.81956432282E+02 -0.18172571708E+02  0.19581545818E+03  0.24701492815E+03  0.12500232763E+03 0.  0.
          2    1    1    2  501    0 -0.60677120692E+02 -0.33543437736E+01 -0.20321305108E+00  0.60770106905E+02  0.00000000000E+00 0. -1.
          1    1    1    2  502    0 -0.21279311590E+02  0.21526915482E+02  0.77059803535E+02  0.82791488166E+02  0.00000000000E+00 0. -1.
         22    1    3    3    0    0  0.26802524161E+01 -0.58061991378E+02  0.10514485266E+03  0.12014082835E+03  0.00000000000E+00 0. -1.
         22    1    3    3    0    0  0.79276179866E+02  0.39889419670E+02  0.90670605523E+02  0.12687409981E+03  0.00000000000E+00 0. -1.
</event>
<event>
 7    1  0.5562528E-006  0.8641292E+02  0.7818608E-02  0.1478919E+00
          2   -1    0    0  502    0  0.00000000000E+00  0.00000000000E+00  0.26590316271E+03  0.26590316271E+03  0.00000000000E+00 0. -1.
          1   -1    0    0  501    0 -0.00000000000E+00 -0.00000000000E+00 -0.10075756402E+03  0.10075756402E+03  0.00000000000E+00 0. -1.
         25    2    1    2    0    0 -0.54169435544E+02  0.47615935971E+02  0.12238171647E+03  0.18921886594E+03  0.12499955839E+03 0.  0.
          2    1    1    2  501    0  0.76781851666E+02 -0.45802852718E+02 -0.35320089292E+02  0.96129406375E+02  0.00000000000E+00 0. -1.
          1    1    1    2  502    0 -0.22612416122E+02 -0.18130832531E+01  0.78083971526E+02  0.81312454415E+02  0.00000000000E+00 0. -1.
         22    1    3    3    0    0 -0.77647821627E+02  0.75098816384E+02  0.95307680712E+02  0.14405752472E+03  0.00000000000E+00 0. -1.
         22    1    3    3    0    0  0.23478386082E+02 -0.27482880413E+02  0.27074035754E+02  0.45161341220E+02  0.00000000000E+00 0. -1.
</event>
<event>
 7    1  0.5562528E-006  0.5345135E+02  0.7818608E-02  0.1437780E+00
          2   -1    0    0  502    0  0.00000000000E+00  0.00000000000E+00  0.37099908396E+04  0.37099908396E+04  0.00000000000E+00 0. -1.
          1   -1    0    0  501    0 -0.00000000000E+00 -0.00000000000E+00 -0.56677372933E+03  0.56677372933E+03  0.00000000000E+00 0. -1.
         25    2    1    2    0    0  0.29653039656E+02 -0.45142213123E+02  0.29056691352E+03  0.32089088999E+03  0.12499883952E+03 0.  0.
          2    1    1    2  501    0  0.19608884982E+02  0.49826195144E+02 -0.55013197839E+03  0.55273171769E+03  0.00000000000E+00 0. -1.
          1    1    1    2  502    0 -0.49261924638E+02 -0.46839820211E+01  0.34027821751E+04  0.34031419612E+04  0.00000000000E+00 0. -1.
         22    1    3    3    0    0 -0.44221908125E+02 -0.14787954704E+02  0.54746821242E+02  0.71912969613E+02  0.00000000000E+00 0.  1.
         22    1    3    3    0    0  0.73874947780E+02 -0.30354258419E+02  0.23582009228E+03  0.24897792038E+03  0.00000000000E+00 0.  1.
</event>
<event>
 7    1  0.5562528E-006  0.1119617E+03  0.7818608E-02  0.1365326E+00
          2   -1    0    0  502    0  0.00000000000E+00  0.00000000000E+00  0.20181452125E+03  0.20181452125E+03  0.00000000000E+00 0. -1.
          1   -1    0    0  501    0 -0.00000000000E+00 -0.00000000000E+00 -0.54270474422E+03  0.54270474422E+03  0.00000000000E+00 0. -1.
         25    2    1    2    0    0  0.24920389854E+02  0.71263909177E+02 -0.16230128124E+03  0.21833641515E+03  0.12501805352E+03 0.  0.
          2    1    1    2  501    0 -0.58112442639E+00  0.41885727129E+02 -0.33165269304E+03  0.33428769144E+03  0.00000000000E+00 0. -1.
          1    1    1    2  502    0 -0.24339265428E+02 -0.11314963631E+03  0.15306375132E+03  0.19189515889E+03  0.00000000000E+00 0. -1.
         22    1    3    3    0    0 -0.40193336651E+02  0.43451027064E+02 -0.25809918629E+02  0.64572811335E+02  0.00000000000E+00 0.  1.
         22    1    3    3    0    0  0.65113726505E+02  0.27812882113E+02 -0.13649136261E+03  0.15376360382E+03  0.00000000000E+00 0.  1.
</event>
<event>
 7    1  0.5562528E-006  0.5602255E+02  0.7818608E-02  0.1478773E+00
          2   -1    0    0  502    0  0.00000000000E+00  0.00000000000E+00  0.19814888404E+04  0.19814888404E+04  0.00000000000E+00 0. -1.
          1   -1    0    0  501    0 -0.00000000000E+00 -0.00000000000E+00 -0.78192013386E+02  0.78192013386E+02  0.00000000000E+00 0. -1.
         25    2    1    2    0    0 -0.60466995588E+02 -0.11627086508E+02  0.62653207610E+02  0.15278050855E+03  0.12500005069E+03 0.  0.
          2    1    1    2  501    0  0.40094622803E+02  0.40120292144E+02 -0.85619358713E+01  0.57363083645E+02  0.00000000000E+00 0. -1.
          1    1    1    2  502    0  0.20372372786E+02 -0.28493205636E+02  0.18492055552E+04  0.18495372615E+04  0.00000000000E+00 0. -1.
         22    1    3    3    0    0  0.21927220513E+02  0.26863394296E+02 -0.10321933351E+02  0.36179928975E+02  0.00000000000E+00 0. -1.
         22    1    3    3    0    0 -0.82394216102E+02 -0.38490480804E+02  0.72975140961E+02  0.11660057958E+03  0.00000000000E+00 0. -1.
</event>
<event>
 7    1  0.5562528E-006  0.1404139E+03  0.7818608E-02  0.1242929E+00
          2   -1    0    0  502    0  0.00000000000E+00  0.00000000000E+00  0.10781576566E+04  0.10781576566E+04  0.00000000000E+00 0. -1.
          1   -1    0    0  501    0 -0.00000000000E+00 -0.00000000000E+00 -0.32714748331E+03  0.32714748331E+03  0.00000000000E+00 0. -1.
         25    2    1    2    0    0  0.38314295967E+02 -0.21128069118E+02  0.29963441411E+03  0.32759764725E+03  0.12500022314E+03 0.  0.
          2    1    1    2  501    0 -0.13698510760E+03  0.49713800683E+02 -0.29248966489E+03  0.32678216865E+03  0.00000000000E+00 0. -1.
          1    1    1    2  502    0  0.98670811630E+02 -0.28585731564E+02  0.74386542406E+03  0.75092532400E+03  0.00000000000E+00 0. -1.
         22    1    3    3    0    0 -0.44165988291E+02  0.32403599967E+01  0.75507580707E+02  0.87535873783E+02  0.00000000000E+00 0. -1.
         22    1    3    3    0    0  0.82480284258E+02 -0.24368429115E+02  0.22412683340E+03  0.24006177347E+03  0.00000000000E+00 0. -1.
</event>
<event>
 7    1  0.5562528E-006  0.1325894E+03  0.7818608E-02  0.1413743E+00
          2   -1    0    0  502    0  0.00000000000E+00  0.00000000000E+00  0.10067503511E+04  0.10067503511E+04  0.00000000000E+00 0. -1.
          1   -1    0    0  501    0 -0.00000000000E+00 -0.00000000000E+00 -0.66045693318E+03  0.66045693318E+03  0.00000000000E+00 0. -1.
         25    2    1    2    0    0 -0.12349220959E+03  0.74363260487E+02  0.57877073353E+03  0.60941084877E+03  0.12500320106E+03 0.  0.
          2    1    1    2  501    0  0.23855127713E+02  0.22698337170E+01 -0.63533359818E+03  0.63578534132E+03  0.00000000000E+00 0. -1.
          1    1    1    2  502    0  0.99637081878E+02 -0.76633094204E+02  0.40285628258E+03  0.42201109420E+03  0.00000000000E+00 0. -1.
         22    1    3    3    0    0 -0.16675755954E+02  0.25966147401E+02  0.16406798285E+02  0.34950031150E+02  0.00000000000E+00 0.  1.
         22    1    3    3    0    0 -0.10681645364E+03  0.48397113086E+02  0.56236393524E+03  0.57446081762E+03  0.00000000000E+00 0.  1.
</event>
<event>
 7    1  0.5562528E-006  0.5831286E+02  0.7818608E-02  0.1434043E+00
          2   -1    0    0  502    0  0.00000000000E+00  0.00000000000E+00  0.75585439196E+03  0.75585439196E+03  0.00000000000E+00 0. -1.
          1   -1    0    0  501    0 -0.00000000000E+00 -0.00000000000E+00 -0.22695153263E+03  0.22695153263E+03  0.00000000000E+00 0. -1.
         25    2    1    2    0    0 -0.17986705974E+02 -0.38872308726E+02  0.11060878768E+03  0.17231958115E+03  0.12500062464E+03 0.  0.
          2    1    1    2  501    0 -0.39935798215E+02  0.24112851398E+02 -0.19184032038E+03  0.19743101606E+03  0.00000000000E+00 0. -1.
          1    1    1    2  502    0  0.57922504189E+02  0.14759457329E+02  0.61013439203E+03  0.61305532737E+03  0.00000000000E+00 0. -1.
         22    1    3    3    0    0  0.51947871209E+02 -0.11041612176E+02  0.66406693080E+02  0.85031449526E+02  0.00000000000E+00 0. -1.
         22    1    3    3    0    0 -0.69934577184E+02 -0.27830696550E+02  0.44202094598E+02  0.87288131628E+02  0.00000000000E+00 0. -1.
</event>
<event>
 7    1  0.5562528E-006  0.1157184E+03  0.7818608E-02  0.1300569E+00
          2   -1    0    0  502    0  0.00000000000E+00  0.00000000000E+00  0.16393535599E+03  0.16393535599E+03  0.00000000000E+00 0. -1.
          1   -1    0    0  501    0 -0.00000000000E+00 -0.00000000000E+00 -0.17562395227E+04  0.17562395227E+04  0.00000000000E+00 0. -1.
         25    2    1    2    0    0 -0.33753551246E+02 -0.43818796927E+02 -0.18962174980E+03  0.23375451916E+03  0.12500151218E+03 0.  0.
          2    1    1    2  501    0 -0.14742928733E+02 -0.69944737436E+02 -0.15165976831E+04  0.15182813153E+04  0.00000000000E+00 0. -1.
          1    1    1    2  502    0  0.48496479979E+02  0.11376353436E+03  0.11391526615E+03  0.16813904420E+03  0.00000000000E+00 0. -1.
         22    1    3    3    0    0 -0.95888644626E+01  0.44073016215E+02 -0.71744595373E+02  0.84744699216E+02  0.00000000000E+00 0.  1.
         22    1    3    3    0    0 -0.24164686783E+02 -0.87891813143E+02 -0.11787715443E+03  0.14900981995E+03  0.00000000000E+00 0.  1.
</event>
<event>
 7    1  0.5562528E-006  0.1851443E+03  0.7818608E-02  0.1172007E+00
          2   -1    0    0  502    0  0.00000000000E+00  0.00000000000E+00  0.78621929634E+03  0.78621929634E+03  0.00000000000E+00 0. -1.
          1   -1    0    0  501    0 -0.00000000000E+00 -0.00000000000E+00 -0.10626707338E+04  0.10626707338E+04  0.00000000000E+00 0. -1.
         25    2    1    2    0    0 -0.17829906012E+03  0.12030427814E+03  0.55698246832E+02  0.25493461734E+03  0.12500276093E+03 0.  0.
          2    1    1    2  501    0 -0.58579367006E+01 -0.16667961193E+03 -0.94126276293E+03  0.95592468183E+03  0.00000000000E+00 0. -1.
          1    1    1    2  502    0  0.18415699682E+03  0.46375333792E+02  0.60911307865E+03  0.63803073096E+03  0.00000000000E+00 0. -1.
         22    1    3    3    0    0 -0.86120502579E+02  0.74523198742E+02 -0.33528581619E+02  0.11872073913E+03  0.00000000000E+00 0. -1.
         22    1    3    3    0    0 -0.92178557544E+02  0.45781079397E+02  0.89226828450E+02  0.13621387821E+03  0.00000000000E+00 0. -1.
</event>
<event>
 7    1  0.5562528E-006  0.2071423E+03  0.7818608E-02  0.1152709E+00
          2   -1    0    0  502    0  0.00000000000E+00  0.00000000000E+00  0.17574443336E+04  0.17574443336E+04  0.00000000000E+00 0. -1.
          1   -1    0    0  501    0 -0.00000000000E+00 -0.00000000000E+00 -0.67139042946E+03  0.67139042946E+03  0.00000000000E+00 0. -1.
         25    2    1    2    0    0 -0.31411763442E+03 -0.95741668303E+02  0.49831467190E+03  0.60973750352E+03  0.12500382259E+03 0.  0.
          2    1    1    2  501    0  0.18063026425E+03 -0.46185123966E+02 -0.59339785387E+03  0.62199788667E+03  0.00000000000E+00 0. -1.
          1    1    1    2  502    0  0.13348737017E+03  0.14192679227E+03  0.11811370861E+04  0.11970993728E+04  0.00000000000E+00 0. -1.
         22    1    3    3    0    0 -0.20144249652E+03 -0.16470087896E+01  0.24748788275E+03  0.31911133504E+03  0.00000000000E+00 0.  1.
         22    1    3    3    0    0 -0.11267513790E+03 -0.94094659513E+02  0.25082678915E+03  0.29062616848E+03  0.00000000000E+00 0.  1.
</event>
<event>
 7    1  0.5562528E-006  0.9880286E+02  0.7818608E-02  0.1360505E+00
          2   -1    0    0  502    0  0.00000000000E+00  0.00000000000E+00  0.18140138259E+04  0.18140138259E+04  0.00000000000E+00 0. -1.
          1   -1    0    0  501    0 -0.00000000000E+00 -0.00000000000E+00 -0.81989860845E+03  0.81989860845E+03  0.00000000000E+00 0. -1.
         25    2    1    2    0    0  0.73914508907E+02  0.12660999496E+03  0.69231788968E+00  0.19266059344E+03  0.12499671799E+03 0.  0.
          2    1    1    2  501    0 -0.49493505833E+02 -0.83642858038E+02 -0.72029457970E+03  0.72682186014E+03  0.00000000000E+00 0. -1.
          1    1    1    2  502    0 -0.24421003074E+02 -0.42967136925E+02  0.17137174793E+04  0.17144299808E+04  0.00000000000E+00 0. -1.
         22    1    3    3    0    0  0.78484592834E+02  0.10680527748E+03  0.48163671869E+02  0.14102105480E+03  0.00000000000E+00 0.  1.
         22    1    3    3    0    0 -0.45700839270E+01  0.19804717486E+02 -0.47471353979E+02  0.51639538635E+02  0.00000000000E+00 0.  1.
</event>
<event>
 7    1  0.5562528E-006  0.2190424E+03  0.7818608E-02  0.1206907E+00
          2   -1    0    0  502    0  0.00000000000E+00  0.00000000000E+00  0.12261430698E+04  0.12261430698E+04  0.00000000000E+00 0. -1.
          1   -1    0    0  501    0 -0.00000000000E+00 -0.00000000000E+00 -0.41485282872E+03  0.41485282872E+03  0.00000000000E+00 0. -1.
         25    2    1    2    0    0 -0.11552054822E+03  0.28250542334E+03  0.31068316819E+03  0.45310410185E+03  0.12499993938E+03 0.  0.
          2    1    1    2  501    0  0.96005181588E+02 -0.18868364894E+03 -0.30793658606E+03  0.37368898205E+03  0.00000000000E+00 0. -1.
          1    1    1    2  502    0  0.19515366632E+02 -0.93821774395E+02  0.80854365894E+03  0.81420281459E+03  0.00000000000E+00 0. -1.
         22    1    3    3    0    0 -0.94702643475E+02  0.73868317702E+02  0.11652647399E+03  0.16734257732E+03  0.00000000000E+00 0.  1.
         22    1    3    3    0    0 -0.20817904745E+02  0.20863710564E+03  0.19415669419E+03  0.28576152454E+03  0.00000000000E+00 0.  1.
</event>
<event>
 7    1  0.5562528E-006  0.9845459E+02  0.7818608E-02  0.1312892E+00
          2   -1    0    0  502    0  0.00000000000E+00  0.00000000000E+00  0.78344040755E+03  0.78344040755E+03  0.00000000000E+00 0. -1.
          1   -1    0    0  501    0 -0.00000000000E+00 -0.00000000000E+00 -0.10799899944E+04  0.10799899944E+04  0.00000000000E+00 0. -1.
         25    2    1    2    0    0 -0.65076587299E+02  0.15921805827E+03 -0.88403819380E+02  0.23027243728E+03  0.12499923120E+03 0.  0.
          2    1    1    2  501    0  0.29261907661E+02 -0.69147583200E+02 -0.91581174722E+03  0.91888454327E+03  0.00000000000E+00 0. -1.
          1    1    1    2  502    0  0.35814679637E+02 -0.90070475065E+02  0.70766597971E+03  0.71427342145E+03  0.00000000000E+00 0. -1.
         22    1    3    3    0    0 -0.16823298402E+02  0.16086095837E+03 -0.82701116283E+02  0.18165556950E+03  0.00000000000E+00 0.  1.
         22    1    3    3    0    0 -0.48253288897E+02 -0.16429001070E+01 -0.57027030976E+01  0.48616867780E+02  0.00000000000E+00 0.  1.
</event>
<event>
 7    1  0.5562528E-006  0.7511546E+02  0.7818608E-02  0.1396709E+00
          2   -1    0    0  502    0  0.00000000000E+00  0.00000000000E+00  0.10760369988E+04  0.10760369988E+04  0.00000000000E+00 0. -1.
          1   -1    0    0  501    0 -0.00000000000E+00 -0.00000000000E+00 -0.21611825284E+03  0.21611825284E+03  0.00000000000E+00 0. -1.
         25    2    1    2    0    0 -0.59647503750E+02  0.28792127365E+02  0.93259803471E+02  0.16945713277E+03  0.12502606769E+03 0.  0.
          2    1    1    2  501    0  0.32935307696E+02 -0.69100109868E+02 -0.16913755908E+03  0.18565310008E+03  0.00000000000E+00 0. -1.
          1    1    1    2  502    0  0.26712196054E+02  0.40307982503E+02  0.93579650159E+03  0.93704501880E+03  0.00000000000E+00 0. -1.
         22    1    3    3    0    0 -0.13692104994E+02 -0.32481308493E+02  0.85490206152E+02  0.92472074101E+02  0.00000000000E+00 0.  1.
         22    1    3    3    0    0 -0.45955398755E+02  0.61273435857E+02  0.77695973194E+01  0.76985058674E+02  0.00000000000E+00 0.  1.
</event>
<event>
 7    1  0.5562528E-006  0.1538877E+03  0.7818608E-02  0.1397725E+00
          2   -1    0    0  502    0  0.00000000000E+00  0.00000000000E+00  0.75189089356E+03  0.75189089356E+03  0.00000000000E+00 0. -1.
          1   -1    0    0  501    0 -0.00000000000E+00 -0.00000000000E+00 -0.12026197652E+04  0.12026197652E+04  0.00000000000E+00 0. -1.
         25    2    1    2    0    0 -0.13525720809E+03 -0.65342776887E+01 -0.24384931522E+03  0.30566509994E+03  0.12502582000E+03 0.  0.
          2    1    1    2  501    0  0.15725772673E+03  0.14544887683E+02 -0.92094913186E+03  0.93439223555E+03  0.00000000000E+00 0. -1.
          1    1    1    2  502    0 -0.22000518642E+02 -0.80106099939E+01  0.71406957539E+03  0.71445332332E+03  0.00000000000E+00 0. -1.
         22    1    3    3    0    0 -0.11194596149E+03  0.44581075371E+02 -0.12192856994E+03  0.17142329696E+03  0.00000000000E+00 0.  1.
         22    1    3    3    0    0 -0.23311246593E+02 -0.51115353059E+02 -0.12192074528E+03  0.13424180298E+03  0.00000000000E+00 0.  1.
</event>
<event>
 7    1  0.5562528E-006  0.1148971E+03  0.7818608E-02  0.1302684E+00
          2   -1    0    0  502    0  0.00000000000E+00  0.00000000000E+00  0.14969162204E+04  0.14969162204E+04  0.00000000000E+00 0. -1.
          1   -1    0    0  501    0 -0.00000000000E+00 -0.00000000000E+00 -0.50805883439E+03  0.50805883439E+03  0.00000000000E+00 0. -1.
         25    2    1    2    0    0  0.81231857855E+02  0.29499269945E+02  0.11393585541E+03  0.18993579021E+03  0.12500161438E+03 0.  0.
          2    1    1    2  501    0 -0.16009114204E+02  0.68767461241E+02 -0.46480203184E+03  0.47013421942E+03  0.00000000000E+00 0. -1.
          1    1    1    2  502    0 -0.65222743651E+02 -0.98266731186E+02  0.13397235625E+04  0.13449050452E+04  0.00000000000E+00 0. -1.
         22    1    3    3    0    0  0.88096026892E+02 -0.21280059460E+02  0.37876842830E+02  0.98226300488E+02  0.00000000000E+00 0.  1.
         22    1    3    3    0    0 -0.68641690374E+01  0.50779329405E+02  0.76059012576E+02  0.91709489724E+02  0.00000000000E+00 0.  1.
</event>
<event>
 7    1  0.9585358E-006  0.7820194E+02  0.7818608E-02  0.1395784E+00
          2   -1    0    0  502    0  0.00000000000E+00  0.00000000000E+00  0.14238186291E+04  0.14238186291E+04  0.00000000000E+00 0. -1.
          1   -1    0    0  501    0 -0.00000000000E+00 -0.00000000000E+00 -0.15748127190E+04  0.15748127190E+04  0.00000000000E+00 0. -1.
         25    2    1    2    0    0  0.42705265714E+02 -0.11484399520E+03 -0.13822100192E+03  0.22303139548E+03  0.12500030018E+03 0.  0.
          2    1    1    2  501    0 -0.18349409623E+02  0.74891897851E+02 -0.13927235673E+04  0.13948564199E+04  0.00000000000E+00 0. -1.
          1    1    1    2  502    0 -0.24355856091E+02  0.39952097351E+02  0.13799504794E+04  0.13807435328E+04  0.00000000000E+00 0. -1.
         22    1    3    3    0    0  0.18726553287E+02 -0.15531078969E+02  0.22136848268E+02  0.32892829966E+02  0.00000000000E+00 0. -1.
         22    1    3    3    0    0  0.23978712427E+02 -0.99312916234E+02 -0.16035785019E+03  0.19013856552E+03  0.00000000000E+00 0. -1.
</event>
<event>
 7    1  0.5562528E-006  0.1180489E+03  0.7818608E-02  0.1248186E+00
          2   -1    0    0  502    0  0.00000000000E+00  0.00000000000E+00  0.16269435604E+04  0.16269435604E+04  0.00000000000E+00 0. -1.
          1   -1    0    0  501    0 -0.00000000000E+00 -0.00000000000E+00 -0.60357078440E+03  0.60357078440E+03  0.00000000000E+00 0. -1.
         25    2    1    2    0    0 -0.40328262883E+02  0.10119092590E+03  0.14197989715E+03  0.21828823538E+03  0.12500196094E+03 0.  0.
          2    1    1    2  501    0 -0.75331009798E+02 -0.93793419906E+02 -0.55666003010E+03  0.56951062832E+03  0.00000000000E+00 0. -1.
          1    1    1    2  502    0  0.11565927268E+03 -0.73975059984E+01  0.14380529089E+04  0.14427154811E+04  0.00000000000E+00 0. -1.
         22    1    3    3    0    0  0.43870525813E+02  0.18293474357E+02  0.37091577097E+02  0.60291453214E+02  0.00000000000E+00 0. -1.
         22    1    3    3    0    0 -0.84198788696E+02  0.82897451548E+02  0.10488832005E+03  0.15799678216E+03  0.00000000000E+00 0. -1.
</event>
<event>
 7    1  0.5562528E-006  0.1023823E+03  0.7818608E-02  0.1392390E+00
          2   -1    0    0  502    0  0.00000000000E+00  0.00000000000E+00  0.94764515071E+03  0.94764515071E+03  0.00000000000E+00 0. -1.
          1   -1    0    0  501    0 -0.00000000000E+00 -0.00000000000E+00 -0.29306012439E+03  0.29306012439E+03  0.00000000000E+00 0. -1.
         25    2    1    2    0    0 -0.40511481905E+02 -0.72077610726E+02 -0.73956774568E+02  0.16712392351E+03  0.12499775666E+03 0.  0.
          2    1    1    2  501    0 -0.36529477682E+02  0.37533948668E+01 -0.16758323335E+03  0.17155940899E+03  0.00000000000E+00 0. -1.
          1    1    1    2  502    0  0.77040959587E+02  0.68324215859E+02  0.89612503424E+03  0.90202194259E+03  0.00000000000E+00 0. -1.
         22    1    3    3    0    0  0.33097438462E+02  0.16138288951E+01 -0.50430302732E+02  0.60342856330E+02  0.00000000000E+00 0.  1.
         22    1    3    3    0    0 -0.73608920368E+02 -0.73691439621E+02 -0.23526471836E+02  0.10678106718E+03  0.00000000000E+00 0.  1.
</event>
<event>
 7    1  0.5562528E-006  0.7281103E+02  0.7818608E-02  0.1438964E+00
          2   -1    0    0  502    0  0.00000000000E+00  0.00000000000E+00  0.18732643514E+03  0.18732643514E+03  0.00000000000E+00 0. -1.
          1   -1    0    0  501    0 -0.00000000000E+00 -0.00000000000E+00 -0.23788090223E+03  0.23788090223E+03  0.00000000000E+00 0. -1.
         25    2    1    2    0    0  0.25763666055E+02 -0.40697154320E+02  0.55103189871E+02  0.14480953145E+03  0.12495364744E+03 0.  0.
          2    1    1    2  501    0 -0.61727024636E+02  0.42453912838E+02 -0.18154847958E+03  0.19639860163E+03  0.00000000000E+00 0. -1.
          1    1    1    2  502    0  0.35963358581E+02 -0.17567585182E+01  0.75890822620E+02  0.83999204275E+02  0.00000000000E+00 0. -1.
         22    1    3    3    0    0  0.26020410362E+02 -0.35674415341E+02 -0.33897682527E+02  0.55666673567E+02  0.00000000000E+00 0.  1.
         22    1    3    3    0    0 -0.25674430714E+00 -0.50227389788E+01  0.89000872398E+02  0.89142857886E+02  0.00000000000E+00 0.  1.
</event>
<event>
 7    1  0.5562528E-006  0.3193264E+02  0.7818608E-02  0.1604148E+00
          2   -1    0    0  502    0  0.00000000000E+00  0.00000000000E+00  0.18754998291E+03  0.18754998291E+03  0.00000000000E+00 0. -1.
          1   -1    0    0  501    0 -0.00000000000E+00 -0.00000000000E+00 -0.10259771542E+04  0.10259771542E+04  0.00000000000E+00 0. -1.
         25    2    1    2    0    0 -0.17402164292E+02  0.42738177117E+02 -0.21952173638E+03  0.25679198621E+03  0.12499177706E+03 0.  0.
          2    1    1    2  501    0  0.24551025798E+02 -0.11654282718E+02 -0.78607771251E+03  0.78654735730E+03  0.00000000000E+00 0. -1.
          1    1    1    2  502    0 -0.71488615058E+01 -0.31083894399E+02  0.16717227758E+03  0.17018779363E+03  0.00000000000E+00 0. -1.
         22    1    3    3    0    0 -0.76122810954E+01 -0.12447459781E+02  0.11807602104E+02  0.18769804099E+02  0.00000000000E+00 0. -1.
         22    1    3    3    0    0 -0.97898831970E+01  0.55185636898E+02 -0.23132933849E+03  0.23802218211E+03  0.00000000000E+00 0. -1.
</event>
<event>
 7    1  0.5562528E-006  0.5015102E+02  0.7818608E-02  0.1470499E+00
          2   -1    0    0  502    0  0.00000000000E+00  0.00000000000E+00  0.11283166729E+04  0.11283166729E+04  0.00000000000E+00 0. -1.
          1   -1    0    0  501    0 -0.00000000000E+00 -0.00000000000E+00 -0.32499263719E+04  0.32499263719E+04  0.00000000000E+00 0. -1.
         25    2    1    2    0    0 -0.45113357761E+02  0.12892229971E+02 -0.11265915674E+03  0.17469514337E+03  0.12499953151E+03 0.  0.
          2    1    1    2  501    0  0.20169641722E+02 -0.46060783780E+02 -0.31056532245E+04  0.31060602636E+04  0.00000000000E+00 0. -1.
          1    1    1    2  502    0  0.24943716039E+02  0.33168553809E+02  0.10967026823E+04  0.10974876378E+04  0.00000000000E+00 0. -1.
         22    1    3    3    0    0 -0.37339892173E+02  0.22624399544E+02  0.15200892521E+02  0.46229840316E+02  0.00000000000E+00 0. -1.
         22    1    3    3    0    0 -0.77734655877E+01 -0.97321695727E+01 -0.12786004926E+03  0.12846530306E+03  0.00000000000E+00 0. -1.
</event>
<event>
 7    1  0.5562528E-006  0.3817643E+02  0.7818608E-02  0.1538832E+00
          2   -1    0    0  502    0  0.00000000000E+00  0.00000000000E+00  0.36828361568E+02  0.36828361568E+02  0.00000000000E+00 0. -1.
          1   -1    0    0  501    0 -0.00000000000E+00 -0.00000000000E+00 -0.11266768103E+04  0.11266768103E+04  0.00000000000E+00 0. -1.
         25    2    1    2    0    0 -0.19739209219E+02 -0.17271904257E+02 -0.16991740400E+03  0.21255172803E+03  0.12497342858E+03 0.  0.
          2    1    1    2  501    0 -0.75053750152E+01  0.37917778539E+02 -0.91569260784E+03  0.91650806905E+03  0.00000000000E+00 0. -1.
          1    1    1    2  502    0  0.27244584234E+02 -0.20645874282E+02 -0.42384368661E+01  0.34445374755E+02  0.00000000000E+00 0. -1.
         22    1    3    3    0    0 -0.46549061229E+02  0.41428659234E+02 -0.95719250145E+02  0.11421612739E+03  0.00000000000E+00 0.  1.
         22    1    3    3    0    0  0.26809852010E+02 -0.58700563491E+02 -0.74198153851E+02  0.98335600643E+02  0.00000000000E+00 0.  1.
</event>
<event>
 7    1  0.5562528E-006  0.1066282E+03  0.7818608E-02  0.1371348E+00
          2   -1    0    0  502    0  0.00000000000E+00  0.00000000000E+00  0.70303179490E+03  0.70303179490E+03  0.00000000000E+00 0. -1.
          1   -1    0    0  501    0 -0.00000000000E+00 -0.00000000000E+00 -0.19770535657E+04  0.19770535657E+04  0.00000000000E+00 0. -1.
         25    2    1    2    0    0 -0.10609598605E+03  0.46187443263E+02 -0.10622472729E+03  0.20074321276E+03  0.12499802642E+03 0.  0.
          2    1    1    2  501    0  0.10648920374E+03 -0.43483386069E+01 -0.18213428007E+04  0.18244584008E+04  0.00000000000E+00 0. -1.
          1    1    1    2  502    0 -0.39321769493E+00 -0.41839104657E+02  0.65354575723E+03  0.65488374700E+03  0.00000000000E+00 0. -1.
         22    1    3    3    0    0  0.11321080135E+02 -0.20926803559E+02 -0.47848979942E+02  0.53438028071E+02  0.00000000000E+00 0. -1.
         22    1    3    3    0    0 -0.11741706618E+03  0.67114246823E+02 -0.58375747349E+02  0.14730518469E+03  0.00000000000E+00 0. -1.
</event>
<event>
 7    1  0.5562528E-006  0.8168452E+02  0.7818608E-02  0.1434923E+00
          2   -1    0    0  502    0  0.00000000000E+00  0.00000000000E+00  0.67469833805E+03  0.67469833805E+03  0.00000000000E+00 0. -1.
          1   -1    0    0  501    0 -0.00000000000E+00 -0.00000000000E+00 -0.73048438649E+03  0.73048438649E+03  0.00000000000E+00 0. -1.
         25    2    1    2    0    0 -0.56488578949E+01 -0.73193495108E+02  0.18136368999E+02  0.14609142777E+03  0.12499832025E+03 0.  0.
          2    1    1    2  501    0  0.32771439290E+02 -0.45300764859E+01 -0.66323365271E+03  0.66405825566E+03  0.00000000000E+00 0. -1.
          1    1    1    2  502    0 -0.27122581395E+02  0.77723571594E+02  0.58931123527E+03  0.59503304111E+03  0.00000000000E+00 0. -1.
         22    1    3    3    0    0  0.32237664548E+02 -0.85744056175E+02  0.40705445815E+02  0.10024092729E+03  0.00000000000E+00 0.  1.
         22    1    3    3    0    0 -0.37886522442E+02  0.12550561067E+02 -0.22569076816E+02  0.45850500479E+02  0.00000000000E+00 0.  1.
</event>
<event>
 7    1  0.5562528E-006  0.9047882E+02  0.7818608E-02  0.1389165E+00
          2   -1    0    0  502    0  0.00000000000E+00  0.00000000000E+00  0.44271574285E+02  0.44271574285E+02  0.00000000000E+00 0. -1.
          1   -1    0    0  501    0 -0.00000000000E+00 -0.00000000000E+00 -0.14608276931E+04  0.14608276931E+04  0.00000000000E+00 0. -1.
         25    2    1    2    0    0 -0.32782245642E+02 -0.44579019462E+02 -0.43350422030E+03  0.45454658418E+03  0.12499889425E+03 0.  0.
          2    1    1    2  501    0 -0.10020035828E+02 -0.41448725828E+02 -0.94694576573E+03  0.94790541787E+03  0.00000000000E+00 0. -1.
          1    1    1    2  502    0  0.42802281469E+02  0.86027745290E+02 -0.36106132796E+02  0.10264726535E+03  0.00000000000E+00 0. -1.
         22    1    3    3    0    0  0.14430067223E+02 -0.72851351757E+02 -0.17256217524E+03  0.18786497975E+03  0.00000000000E+00 0. -1.
         22    1    3    3    0    0 -0.47212312864E+02  0.28272332295E+02 -0.26094204507E+03  0.26668160443E+03  0.00000000000E+00 0. -1.
</event>
<event>
 7    1  0.5562528E-006  0.5650803E+02  0.7818608E-02  0.1523412E+00
          2   -1    0    0  502    0  0.00000000000E+00  0.00000000000E+00  0.15471321997E+03  0.15471321997E+03  0.00000000000E+00 0. -1.
          1   -1    0    0  501    0 -0.00000000000E+00 -0.00000000000E+00 -0.54800503774E+03  0.54800503774E+03  0.00000000000E+00 0. -1.
         25    2    1    2    0    0 -0.59425244713E+02  0.60420104215E+01 -0.18537919375E+03  0.23142865673E+03  0.12500364826E+03 0.  0.
          2    1    1    2  501    0  0.53491229434E+02  0.18823019987E+02 -0.33596169269E+03  0.34071377527E+03  0.00000000000E+00 0. -1.
          1    1    1    2  502    0  0.59340152796E+01 -0.24865030409E+02  0.12804906867E+03  0.13057582572E+03  0.00000000000E+00 0. -1.
         22    1    3    3    0    0 -0.36200216694E+02 -0.67651114887E+01 -0.19846576960E+03  0.20185362054E+03  0.00000000000E+00 0. -1.
         22    1    3    3    0    0 -0.23225028019E+02  0.12807121910E+02  0.13086575846E+02  0.29575036187E+02  0.00000000000E+00 0. -1.
</event>
<event>
 7    1  0.5562528E-006  0.1330425E+03  0.7818608E-02  0.1265519E+00
          2   -1    0    0  502    0  0.00000000000E+00  0.00000000000E+00  0.23118203716E+04  0.23118203716E+04  0.00000000000E+00 0. -1.
          1   -1    0    0  501    0 -0.00000000000E+00 -0.00000000000E+00 -0.21359635112E+03  0.21359635112E+03  0.00000000000E+00 0. -1.
         25    2    1    2    0    0  0.13077244104E+03  0.28966836348E+02  0.55711870352E+03  0.58647007334E+03  0.12500155263E+03 0.  0.
          2    1    1    2  501    0 -0.61623743780E+01 -0.86432542635E+02 -0.18663282541E+03  0.20576775939E+03  0.00000000000E+00 0. -1.
          1    1    1    2  502    0 -0.12461006667E+03  0.57465706287E+02  0.17277381424E+04  0.17331788900E+04  0.00000000000E+00 0. -1.
         22    1    3    3    0    0  0.88450496220E+02 -0.31816674003E+02  0.19031214512E+03  0.21226046171E+03  0.00000000000E+00 0. -1.
         22    1    3    3    0    0  0.42321944824E+02  0.60783510351E+02  0.36680655840E+03  0.37420961162E+03  0.00000000000E+00 0. -1.
</event>
<event>
 7    1  0.5562528E-006  0.1240088E+03  0.7818608E-02  0.1424795E+00
          2   -1    0    0  502    0  0.00000000000E+00  0.00000000000E+00  0.19791797998E+03  0.19791797998E+03  0.00000000000E+00 0. -1.
          1   -1    0    0  501    0 -0.00000000000E+00 -0.00000000000E+00 -0.14314657716E+04  0.14314657716E+04  0.00000000000E+00 0. -1.
         25    2    1    2    0    0 -0.61604658194E+02  0.13088622267E+03 -0.96297575649E+02  0.21405955036E+03  0.12498772272E+03 0.  0.
          2    1    1    2  501    0  0.59889816066E+02 -0.10741768033E+03 -0.12723047642E+04  0.12782350180E+04  0.00000000000E+00 0. -1.
          1    1    1    2  502    0  0.17148421282E+01 -0.23468542343E+02  0.13505454824E+03  0.13708918325E+03  0.00000000000E+00 0. -1.
         22    1    3    3    0    0 -0.36397668803E+02  0.33603775050E+02  0.25856291328E+02  0.55879797719E+02  0.00000000000E+00 0.  1.
         22    1    3    3    0    0 -0.25206989391E+02  0.97282447621E+02 -0.12215386698E+03  0.15817975264E+03  0.00000000000E+00 0.  1.
</event>
<event>
 7    1  0.5562528E-006  0.7560227E+02  0.7818608E-02  0.1499519E+00
          2   -1    0    0  502    0  0.00000000000E+00  0.00000000000E+00  0.90742792550E+01  0.90742792550E+01  0.00000000000E+00 0. -1.
          1   -1    0    0  501    0 -0.00000000000E+00 -0.00000000000E+00 -0.31390557719E+04  0.31390557719E+04  0.00000000000E+00 0. -1.
         25    2    1    2    0    0 -0.83546174054E+02  0.47793685365E+02 -0.24998135213E+04  0.25047871045E+04  0.12500639166E+03 0.  0.
          2    1    1    2  501    0  0.19922065705E+02 -0.10368643686E+02 -0.41980269439E+03  0.42040302055E+03  0.00000000000E+00 0. -1.
          1    1    1    2  502    0  0.63624108349E+02 -0.37425041679E+02 -0.21036527692E+03  0.22293992608E+03  0.00000000000E+00 0. -1.
         22    1    3    3    0    0 -0.88880491168E+01  0.21339528414E+02 -0.18526970139E+04  0.18528412231E+04  0.00000000000E+00 0.  1.
         22    1    3    3    0    0 -0.74658124937E+02  0.26454156950E+02 -0.64711650744E+03  0.65194588138E+03  0.00000000000E+00 0.  1.
</event>
<event>
 7    1  0.5562528E-006  0.1486551E+03  0.7818608E-02  0.1225705E+00
          2   -1    0    0  502    0  0.00000000000E+00  0.00000000000E+00  0.16049400414E+04  0.16049400414E+04  0.00000000000E+00 0. -1.
          1   -1    0    0  501    0 -0.00000000000E+00 -0.00000000000E+00 -0.19786985882E+03  0.19786985882E+03  0.00000000000E+00 0. -1.
         25    2    1    2    0    0 -0.13536863080E+02  0.51908197726E+02  0.24830972481E+03  0.28312968090E+03  0.12500795622E+03 0.  0.
          2    1    1    2  501    0  0.10200088699E+03 -0.12658818106E+03 -0.14074378345E+03  0.21502920990E+03  0.00000000000E+00 0. -1.
          1    1    1    2  502    0 -0.88464023907E+02  0.74679983337E+02  0.12995042412E+04  0.13046510094E+04  0.00000000000E+00 0. -1.
         22    1    3    3    0    0  0.31123241615E+02  0.75429651698E+02  0.18473526905E+03  0.20195397534E+03  0.00000000000E+00 0. -1.
         22    1    3    3    0    0 -0.44660104695E+02 -0.23521453972E+02  0.63574455764E+02  0.81175705565E+02  0.00000000000E+00 0. -1.
</event>
<event>
 7    1  0.5562528E-006  0.4417427E+02  0.7818608E-02  0.1575415E+00
          2   -1    0    0  502    0  0.00000000000E+00  0.00000000000E+00  0.39356512637E+03  0.39356512637E+03  0.00000000000E+00 0. -1.
          1   -1    0    0  501    0 -0.00000000000E+00 -0.00000000000E+00 -0.55095793077E+03  0.55095793077E+03  0.00000000000E+00 0. -1.
         25    2    1    2    0    0  0.33544095619E+02 -0.31194319833E+02  0.78906323146E+00  0.13312686903E+03  0.12499539470E+03 0.  0.
          2    1    1    2  501    0  0.96191204819E+01  0.21339016660E+02 -0.48300389207E+03  0.48357071962E+03  0.00000000000E+00 0. -1.
          1    1    1    2  502    0 -0.43163216101E+02  0.98553031728E+01  0.32482202445E+03  0.32782546849E+03  0.00000000000E+00 0. -1.
         22    1    3    3    0    0 -0.75113750025E+01 -0.53865397314E+02 -0.42716280003E+02  0.69156217071E+02  0.00000000000E+00 0. -1.
         22    1    3    3    0    0  0.41055470622E+02  0.22671077482E+02  0.43505343234E+02  0.63970651959E+02  0.00000000000E+00 0. -1.
</event>
<event>
 7    1  0.5562528E-006  0.4489527E+02  0.7818608E-02  0.1479255E+00
          2   -1    0    0  502    0  0.00000000000E+00  0.00000000000E+00  0.71637481124E+03  0.71637481124E+03  0.00000000000E+00 0. -1.
          1   -1    0    0  501    0 -0.00000000000E+00 -0.00000000000E+00 -0.27334066860E+04  0.27334066860E+04  0.00000000000E+00 0. -1.
         25    2    1    2    0    0 -0.66938705678E+01  0.25110453549E+02  0.31201926484E+03  0.33712748407E+03  0.12499430429E+03 0.  0.
          2    1    1    2  501    0  0.44793176144E+02  0.30260017914E+01 -0.27192352554E+04  0.27196058463E+04  0.00000000000E+00 0. -1.
          1    1    1    2  502    0 -0.38099305576E+02 -0.28136455340E+02  0.39018411581E+03  0.39304816681E+03  0.00000000000E+00 0. -1.
         22    1    3    3    0    0 -0.57165365366E+01  0.78293196988E+01  0.31849834168E+03  0.31864583897E+03  0.00000000000E+00 0.  1.
         22    1    3    3    0    0 -0.97733403123E+00  0.17281133850E+02 -0.64790768430E+01  0.18481645102E+02  0.00000000000E+00 0.  1.
</event>
<event>
 7    1  0.5562528E-006  0.1366009E+03  0.7818608E-02  0.1235920E+00
          2   -1    0    0  502    0  0.00000000000E+00  0.00000000000E+00  0.10723863055E+04  0.10723863055E+04  0.00000000000E+00 0. -1.
          1   -1    0    0  501    0 -0.00000000000E+00 -0.00000000000E+00 -0.95625658734E+02  0.95625658734E+02  0.00000000000E+00 0. -1.
         25    2    1    2    0    0 -0.84508027225E+02  0.33545957544E+02  0.14849193786E+03  0.21432378088E+03  0.12497155480E+03 0.  0.
          2    1    1    2  501    0 -0.51643891519E+02 -0.10094992687E+03  0.18364280247E+01  0.11340789979E+03  0.00000000000E+00 0. -1.
          1    1    1    2  502    0  0.13615191874E+03  0.67403969330E+02  0.82643228089E+03  0.84028028357E+03  0.00000000000E+00 0. -1.
         22    1    3    3    0    0  0.65205596612E+01 -0.20672198656E+02  0.91467562351E+02  0.94000917325E+02  0.00000000000E+00 0.  1.
         22    1    3    3    0    0 -0.91028586886E+02  0.54218156199E+02  0.57024375507E+02  0.12032286356E+03  0.00000000000E+00 0.  1.
</event>
<event>
 7    1  0.5562528E-006  0.6416602E+02  0.7818608E-02  0.1537103E+00
          2   -1    0    0  502    0  0.00000000000E+00  0.00000000000E+00  0.26221628650E+04  0.26221628650E+04  0.00000000000E+00 0. -1.
          1   -1    0    0  501    0 -0.00000000000E+00 -0.00000000000E+00 -0.95334436643E+03  0.95334436643E+03  0.00000000000E+00 0. -1.
         25    2    1    2    0    0 -0.29227813002E+02 -0.32573332547E+02  0.20924596009E+02  0.13407960962E+03  0.12499686377E+03 0.  0.
          2    1    1    2  501    0 -0.14539929829E+02 -0.14548806706E+02 -0.89624249018E+03  0.89647848750E+03  0.00000000000E+00 0. -1.
          1    1    1    2  502    0  0.43767742831E+02  0.47122139252E+02  0.25441363927E+04  0.25449491343E+04  0.00000000000E+00 0. -1.
         22    1    3    3    0    0  0.36773717187E+01  0.45176072512E+02  0.20269298535E+02  0.49651234159E+02  0.00000000000E+00 0.  1.
         22    1    3    3    0    0 -0.32905184721E+02 -0.77749405059E+02  0.65529747398E+00  0.84428375463E+02  0.00000000000E+00 0.  1.
</event>
<event>
 7    1  0.5562528E-006  0.8531519E+02  0.7818608E-02  0.1438719E+00
          2   -1    0    0  502    0  0.00000000000E+00  0.00000000000E+00  0.27100562578E+04  0.27100562578E+04  0.00000000000E+00 0. -1.
          1   -1    0    0  501    0 -0.00000000000E+00 -0.00000000000E+00 -0.34629796453E+03  0.34629796453E+03  0.00000000000E+00 0. -1.
         25    2    1    2    0    0 -0.13512454986E+02  0.99019092634E+02  0.61435500321E+03  0.63485799153E+03  0.12500092917E+03 0.  0.
          2    1    1    2  501    0 -0.13448292585E+02 -0.84157679596E+02 -0.33052718206E+03  0.34133794059E+03  0.00000000000E+00 0. -1.
          1    1    1    2  502    0  0.26960747571E+02 -0.14861413037E+02  0.20799304721E+04  0.20801582902E+04  0.00000000000E+00 0. -1.
         22    1    3    3    0    0 -0.58825486313E+02  0.96480830468E+02  0.47688960762E+03  0.49009456877E+03  0.00000000000E+00 0. -1.
         22    1    3    3    0    0  0.45313031326E+02  0.25382621658E+01  0.13746539560E+03  0.14476342276E+03  0.00000000000E+00 0. -1.
</event>
<event>
 7    1  0.5562528E-006  0.6496885E+02  0.7818608E-02  0.1484249E+00
          2   -1    0    0  502    0  0.00000000000E+00  0.00000000000E+00  0.51867957735E+03  0.51867957735E+03  0.00000000000E+00 0. -1.
          1   -1    0    0  501    0 -0.00000000000E+00 -0.00000000000E+00 -0.55266506129E+02  0.55266506129E+02  0.00000000000E+00 0. -1.
         25    2    1    2    0    0  0.32398281868E+02  0.26128542565E+02  0.11089051264E+03  0.17219038276E+03  0.12498188956E+03 0.  0.
          2    1    1    2  501    0  0.78943933616E+01  0.27967384949E+02 -0.11709371193E+02  0.31330583160E+02  0.00000000000E+00 0. -1.
          1    1    1    2  502    0 -0.40292675229E+02 -0.54095927514E+02  0.36423192977E+03  0.37042511755E+03  0.00000000000E+00 0. -1.
         22    1    3    3    0    0  0.48676156177E+02  0.60470644982E+02  0.30752190167E+02  0.83497091475E+02  0.00000000000E+00 0.  1.
         22    1    3    3    0    0 -0.16277874309E+02 -0.34342102417E+02  0.80138322473E+02  0.88693291287E+02  0.00000000000E+00 0.  1.
</event>
<event>
 7    1  0.5562528E-006  0.2355309E+03  0.7818608E-02  0.1207616E+00
          2   -1    0    0  502    0  0.00000000000E+00  0.00000000000E+00  0.30723392336E+03  0.30723392336E+03  0.00000000000E+00 0. -1.
          1   -1    0    0  501    0 -0.00000000000E+00 -0.00000000000E+00 -0.25970384204E+04  0.25970384204E+04  0.00000000000E+00 0. -1.
         25    2    1    2    0    0  0.74127517698E+02 -0.20038845227E+03 -0.10001558138E+04  0.10303333208E+04  0.12499871778E+03 0.  0.
          2    1    1    2  501    0  0.85014085877E+02  0.24397377592E+02 -0.15321300752E+04  0.15346808119E+04  0.00000000000E+00 0. -1.
          1    1    1    2  502    0 -0.15914160357E+03  0.17599107468E+03  0.24248139197E+03  0.33925821111E+03  0.00000000000E+00 0. -1.
         22    1    3    3    0    0  0.30153411995E+02 -0.19043979985E+03 -0.90113192174E+03  0.92152877654E+03  0.00000000000E+00 0.  1.
         22    1    3    3    0    0  0.43974105703E+02 -0.99486524204E+01 -0.99023892020E+02  0.10880454424E+03  0.00000000000E+00 0.  1.
</event>
<event>
 7    1  0.5562528E-006  0.8497286E+02  0.7818608E-02  0.1418447E+00
          2   -1    0    0  502    0  0.00000000000E+00  0.00000000000E+00  0.73151046716E+03  0.73151046716E+03  0.00000000000E+00 0. -1.
          1   -1    0    0  501    0 -0.00000000000E+00 -0.00000000000E+00 -0.75878032806E+03  0.75878032806E+03  0.00000000000E+00 0. -1.
         25    2    1    2    0    0  0.20201405013E+02  0.50526835116E+02 -0.18514063729E+03  0.22991973673E+03  0.12499988773E+03 0.  0.
          2    1    1    2  501    0 -0.26523157497E+02 -0.86023585575E+02 -0.54711129757E+03  0.55446758885E+03  0.00000000000E+00 0. -1.
          1    1    1    2  502    0  0.63217524836E+01  0.35496750460E+02  0.70498207396E+03  0.70590346964E+03  0.00000000000E+00 0. -1.
         22    1    3    3    0    0 -0.41770769778E+02 -0.10680807165E+02 -0.31823355609E+02  0.53587338166E+02  0.00000000000E+00 0. -1.
         22    1    3    3    0    0  0.61972174792E+02  0.61207642281E+02 -0.15331728168E+03  0.17633239856E+03  0.00000000000E+00 0. -1.
</event>
<event>
 7    1  0.5562528E-006  0.1123161E+03  0.7818608E-02  0.1370281E+00
          2   -1    0    0  502    0  0.00000000000E+00  0.00000000000E+00  0.16480637179E+03  0.16480637179E+03  0.00000000000E+00 0. -1.
          1   -1    0    0  501    0 -0.00000000000E+00 -0.00000000000E+00 -0.39798809856E+03  0.39798809856E+03  0.00000000000E+00 0. -1.
         25    2    1    2    0    0 -0.42492195689E+02 -0.95458377972E+02 -0.13855965469E+02  0.16350729470E+03  0.12499903608E+03 0.  0.
          2    1    1    2  501    0  0.69993766906E+01  0.11406459642E+03 -0.29350897476E+03  0.31497181095E+03  0.00000000000E+00 0. -1.
          1    1    1    2  502    0  0.35492818999E+02 -0.18606218444E+02  0.74183213458E+02  0.84315364699E+02  0.00000000000E+00 0. -1.
         22    1    3    3    0    0  0.26356763559E+01  0.21208851428E+02 -0.30574847766E+02  0.37303933904E+02  0.00000000000E+00 0.  1.
         22    1    3    3    0    0 -0.45127872045E+02 -0.11666722940E+03  0.16718882297E+02  0.12620336080E+03  0.00000000000E+00 0.  1.
</event>
<event>
 7    1  0.5562528E-006  0.3030535E+02  0.7818608E-02  0.1601197E+00
          2   -1    0    0  502    0  0.00000000000E+00  0.00000000000E+00  0.23696553985E+04  0.23696553985E+04  0.00000000000E+00 0. -1.
          1   -1    0    0  501    0 -0.00000000000E+00 -0.00000000000E+00 -0.19777023968E+02  0.19777023968E+02  0.00000000000E+00 0. -1.
         25    2    1    2    0    0  0.43585418650E+01  0.16876190188E+02  0.45440533300E+03  0.47160415563E+03  0.12498988069E+03 0.  0.
          2    1    1    2  501    0  0.26053932973E+02 -0.13067470412E+02  0.81622416560E+01  0.30268604117E+02  0.00000000000E+00 0. -1.
          1    1    1    2  502    0 -0.30412474838E+02 -0.38087197768E+01  0.18873107999E+04  0.18875596627E+04  0.00000000000E+00 0. -1.
         22    1    3    3    0    0  0.38863704555E+02 -0.33105226837E+01  0.41001597375E+03  0.41186702444E+03  0.00000000000E+00 0.  1.
         22    1    3    3    0    0 -0.34505162690E+02  0.20186712872E+02  0.44389359245E+02  0.59737131192E+02  0.00000000000E+00 0.  1.
</event>
<event>
 7    1  0.5562528E-006  0.7341906E+02  0.7818608E-02  0.1416981E+00
          2   -1    0    0  502    0  0.00000000000E+00  0.00000000000E+00  0.22200959472E+04  0.22200959472E+04  0.00000000000E+00 0. -1.
          1   -1    0    0  501    0 -0.00000000000E+00 -0.00000000000E+00 -0.82868220291E+03  0.82868220291E+03  0.00000000000E+00 0. -1.
         25    2    1    2    0    0  0.18404972260E+02  0.29365497290E+02  0.70624661420E+03  0.71806022949E+03  0.12500055067E+03 0.  0.
          2    1    1    2  501    0 -0.57017247564E+02 -0.46402087045E+02 -0.82083714786E+03  0.82412240808E+03  0.00000000000E+00 0. -1.
          1    1    1    2  502    0  0.38612275304E+02  0.17036589755E+02  0.15060042780E+04  0.15065955125E+04  0.00000000000E+00 0. -1.
         22    1    3    3    0    0  0.17205054287E+02  0.78599521576E+02  0.44163060570E+03  0.44890031251E+03  0.00000000000E+00 0. -1.
         22    1    3    3    0    0  0.11999179731E+01 -0.49234024286E+02  0.26461600851E+03  0.26915991698E+03  0.00000000000E+00 0. -1.
</event>
<event>
 7    1  0.5562528E-006  0.2300802E+03  0.7818608E-02  0.1152823E+00
          2   -1    0    0  502    0  0.00000000000E+00  0.00000000000E+00  0.10694280687E+04  0.10694280687E+04  0.00000000000E+00 0. -1.
          1   -1    0    0  501    0 -0.00000000000E+00 -0.00000000000E+00 -0.22009050658E+03  0.22009050658E+03  0.00000000000E+00 0. -1.
         25    2    1    2    0    0 -0.17926697245E+03  0.51576251695E+02  0.47541123241E+03  0.52577391761E+03  0.12500246151E+03 0.  0.
          2    1    1    2  501    0 -0.91582385344E+02  0.14039993279E+03 -0.92328714349E+02  0.19137415167E+03  0.00000000000E+00 0. -1.
          1    1    1    2  502    0  0.27084935779E+03 -0.19197618449E+03  0.46625504403E+03  0.57237050597E+03  0.00000000000E+00 0. -1.
         22    1    3    3    0    0 -0.15766179120E+03  0.69173842780E+02  0.46529953827E+03  0.49613095171E+03  0.00000000000E+00 0. -1.
         22    1    3    3    0    0 -0.21605181245E+02 -0.17597591086E+02  0.10111694139E+02  0.29642965894E+02  0.00000000000E+00 0. -1.
</event>
<event>
 7    1  0.5562528E-006  0.6420328E+02  0.7818608E-02  0.1391241E+00
          2   -1    0    0  502    0  0.00000000000E+00  0.00000000000E+00  0.23767430253E+04  0.23767430253E+04  0.00000000000E+00 0. -1.
          1   -1    0    0  501    0 -0.00000000000E+00 -0.00000000000E+00 -0.27628244615E+04  0.27628244615E+04  0.00000000000E+00 0. -1.
         25    2    1    2    0    0  0.95308450629E+02  0.28793595413E+02  0.45172499150E+02  0.16606472863E+03  0.12499667003E+03 0.  0.
          2    1    1    2  501    0 -0.34241163181E+02 -0.48170778396E+02 -0.27016032637E+04  0.27022496324E+04  0.00000000000E+00 0. -1.
          1    1    1    2  502    0 -0.61067287448E+02  0.19377182983E+02  0.22703493283E+04  0.22712531258E+04  0.00000000000E+00 0. -1.
         22    1    3    3    0    0  0.40389333980E+02 -0.48193240608E+01 -0.41488274792E+02  0.58101644804E+02  0.00000000000E+00 0.  1.
         22    1    3    3    0    0  0.54919116650E+02  0.33612919474E+02  0.86660773943E+02  0.10796308383E+03  0.00000000000E+00 0.  1.
</event>
<event>
 7    1  0.5562528E-006  0.9429407E+02  0.7818608E-02  0.1381249E+00
          2   -1    0    0  502    0  0.00000000000E+00  0.00000000000E+00  0.14531098186E+04  0.14531098186E+04  0.00000000000E+00 0. -1.
          1   -1    0    0  501    0 -0.00000000000E+00 -0.00000000000E+00 -0.16383529084E+03  0.16383529084E+03  0.00000000000E+00 0. -1.
         25    2    1    2    0    0 -0.78449486833E+02  0.10113173844E+03 -0.47530754518E+01  0.17896653844E+03  0.12499791859E+03 0.  0.
          2    1    1    2  501    0  0.45739336421E+01 -0.43383762135E+02 -0.63596256711E+02  0.77120396483E+02  0.00000000000E+00 0. -1.
          1    1    1    2  502    0  0.73875553191E+02 -0.57747976306E+02  0.13576238599E+04  0.13608581745E+04  0.00000000000E+00 0. -1.
         22    1    3    3    0    0  0.17419853492E+02  0.34862237949E+02  0.38378755025E+02  0.54696944775E+02  0.00000000000E+00 0. -1.
         22    1    3    3    0    0 -0.95869340325E+02  0.66269500492E+02 -0.43131830477E+02  0.12426959367E+03  0.00000000000E+00 0. -1.
</event>
<event>
 7    1  0.5562528E-006  0.7003323E+02  0.7818608E-02  0.1450554E+00
          2   -1    0    0  502    0  0.00000000000E+00  0.00000000000E+00  0.36951694417E+03  0.36951694417E+03  0.00000000000E+00 0. -1.
          1   -1    0    0  501    0 -0.00000000000E+00 -0.00000000000E+00 -0.19817585089E+03  0.19817585089E+03  0.00000000000E+00 0. -1.
         25    2    1    2    0    0  0.25876471511E+02  0.80699756238E+02  0.24279763626E+03  0.28593261400E+03  0.12499890056E+03 0.  0.
          2    1    1    2  501    0  0.15436599580E+02 -0.30684582422E+02 -0.16465932696E+03  0.16820382326E+03  0.00000000000E+00 0. -1.
          1    1    1    2  502    0 -0.41313071090E+02 -0.50015173816E+02  0.93202783976E+02  0.11355635780E+03  0.00000000000E+00 0. -1.
         22    1    3    3    0    0 -0.50874744196E+02  0.31218389535E+02  0.94310736556E+02  0.11161246558E+03  0.00000000000E+00 0.  1.
         22    1    3    3    0    0  0.76751215706E+02  0.49481366703E+02  0.14848689970E+03  0.17432014842E+03  0.00000000000E+00 0.  1.
</event>
<event>
 7    1  0.5562528E-006  0.6887146E+02  0.7818608E-02  0.1529022E+00
          2   -1    0    0  502    0  0.00000000000E+00  0.00000000000E+00  0.96800818142E+03  0.96800818142E+03  0.00000000000E+00 0. -1.
          1   -1    0    0  501    0 -0.00000000000E+00 -0.00000000000E+00 -0.59294723183E+03  0.59294723183E+03  0.00000000000E+00 0. -1.
         25    2    1    2    0    0  0.65042192081E+02 -0.43257030652E+02  0.93368765037E-01  0.14739722252E+03  0.12499710012E+03 0.  0.
          2    1    1    2  501    0 -0.64670430241E+02  0.23052072581E+02 -0.51691108872E+03  0.52145060767E+03  0.00000000000E+00 0. -1.
          1    1    1    2  502    0 -0.37176183994E+00  0.20204958070E+02  0.89187866955E+03  0.89210758305E+03  0.00000000000E+00 0. -1.
         22    1    3    3    0    0  0.45033023439E+02  0.40854076528E+02  0.31514518501E+01  0.60884812702E+02  0.00000000000E+00 0. -1.
         22    1    3    3    0    0  0.20009168642E+02 -0.84111107180E+02 -0.30580830851E+01  0.86512409820E+02  0.00000000000E+00 0. -1.
</event>
<event>
 7    1  0.5562528E-006  0.1714058E+03  0.7818608E-02  0.1236621E+00
          2   -1    0    0  502    0  0.00000000000E+00  0.00000000000E+00  0.84531226944E+03  0.84531226944E+03  0.00000000000E+00 0. -1.
          1   -1    0    0  501    0 -0.00000000000E+00 -0.00000000000E+00 -0.53509954534E+03  0.53509954534E+03  0.00000000000E+00 0. -1.
         25    2    1    2    0    0  0.90466015652E+02  0.83800686349E+02  0.27814952756E+03  0.32894071988E+03  0.12501272934E+03 0.  0.
          2    1    1    2  501    0  0.46881208065E+02  0.76501293855E+02 -0.48486791298E+03  0.49309957277E+03  0.00000000000E+00 0. -1.
          1    1    1    2  502    0 -0.13734722372E+03 -0.16030198020E+03  0.51693110952E+03  0.55837152212E+03  0.00000000000E+00 0. -1.
         22    1    3    3    0    0  0.11416712376E+03  0.42412404774E+02  0.23471987929E+03  0.26443593924E+03  0.00000000000E+00 0.  1.
         22    1    3    3    0    0 -0.23701108112E+02  0.41388281574E+02  0.43429648262E+02  0.64504780641E+02  0.00000000000E+00 0.  1.
</event>
<event>
 7    1  0.5562528E-006  0.1000298E+03  0.7818608E-02  0.1410458E+00
          2   -1    0    0  502    0  0.00000000000E+00  0.00000000000E+00  0.10132474520E+04  0.10132474520E+04  0.00000000000E+00 0. -1.
          1   -1    0    0  501    0 -0.00000000000E+00 -0.00000000000E+00 -0.87806893570E+03  0.87806893570E+03  0.00000000000E+00 0. -1.
         25    2    1    2    0    0 -0.10638504697E+03  0.69083396926E+02  0.58583343265E+02  0.18747670508E+03  0.12500085156E+03 0.  0.
          2    1    1    2  501    0  0.32409704459E+02 -0.33763725851E+01 -0.81054462108E+03  0.81119934147E+03  0.00000000000E+00 0. -1.
          1    1    1    2  502    0  0.73975342507E+02 -0.65707024340E+02  0.88713979416E+03  0.89264034119E+03  0.00000000000E+00 0. -1.
         22    1    3    3    0    0  0.18371310935E+02  0.27478113547E+02  0.44184327329E+02  0.55179765957E+02  0.00000000000E+00 0. -1.
         22    1    3    3    0    0 -0.12475635790E+03  0.41605283378E+02  0.14399015936E+02  0.13229693912E+03  0.00000000000E+00 0. -1.
</event>
<event>
 7    1  0.5562528E-006  0.1538410E+03  0.7818608E-02  0.1354122E+00
          2   -1    0    0  502    0  0.00000000000E+00  0.00000000000E+00  0.14086324054E+04  0.14086324054E+04  0.00000000000E+00 0. -1.
          1   -1    0    0  501    0 -0.00000000000E+00 -0.00000000000E+00 -0.98801723152E+03  0.98801723152E+03  0.00000000000E+00 0. -1.
         25    2    1    2    0    0 -0.25884447413E+02 -0.12566496820E+03  0.15066435600E+02  0.17975700022E+03  0.12499557110E+03 0.  0.
          2    1    1    2  501    0 -0.26412537457E+02 -0.20602279074E+02 -0.90075903930E+03  0.90138167438E+03  0.00000000000E+00 0. -1.
          1    1    1    2  502    0  0.52296984870E+02  0.14626724727E+03  0.13063077776E+04  0.13155109624E+04  0.00000000000E+00 0. -1.
         22    1    3    3    0    0 -0.37158130228E+02 -0.14873455233E+03  0.15404744812E+02  0.15407790193E+03  0.00000000000E+00 0.  1.
         22    1    3    3    0    0  0.11273682815E+02  0.23069584130E+02 -0.33830921279E+00  0.25679098295E+02  0.00000000000E+00 0.  1.
</event>
<event>
 7    1  0.5562528E-006  0.5447493E+02  0.7818608E-02  0.1435623E+00
          2   -1    0    0  502    0  0.00000000000E+00  0.00000000000E+00  0.21267891447E+02  0.21267891447E+02  0.00000000000E+00 0. -1.
          1   -1    0    0  501    0 -0.00000000000E+00 -0.00000000000E+00 -0.92497906372E+03  0.92497906372E+03  0.00000000000E+00 0. -1.
         25    2    1    2    0    0 -0.51414087920E+02 -0.15765907409E+01 -0.55137534134E+03  0.56770214094E+03  0.12500023886E+03 0.  0.
          2    1    1    2  501    0  0.11999760508E+02 -0.47865753597E+02 -0.52247604216E+02  0.71867494502E+02  0.00000000000E+00 0. -1.
          1    1    1    2  502    0  0.39414327412E+02  0.49442344338E+02 -0.30008822672E+03  0.30667731973E+03  0.00000000000E+00 0. -1.
         22    1    3    3    0    0 -0.33004630435E+01 -0.14171363028E+02 -0.48264664878E+03  0.48286593187E+03  0.00000000000E+00 0.  1.
         22    1    3    3    0    0 -0.48113624877E+02  0.12594772287E+02 -0.68728692561E+02  0.84836209067E+02  0.00000000000E+00 0.  1.
</event>
<event>
 7    1  0.5562528E-006  0.7129435E+02  0.7818608E-02  0.1407725E+00
          2   -1    0    0  502    0  0.00000000000E+00  0.00000000000E+00  0.34081672426E+03  0.34081672426E+03  0.00000000000E+00 0. -1.
          1   -1    0    0  501    0 -0.00000000000E+00 -0.00000000000E+00 -0.12006704135E+04  0.12006704135E+04  0.00000000000E+00 0. -1.
         25    2    1    2    0    0  0.10219782397E+02  0.74940915682E+02  0.50121948129E+02  0.15445449769E+03  0.12499358934E+03 0.  0.
          2    1    1    2  501    0  0.40429388665E+02 -0.23384670885E+02 -0.11425414653E+04  0.11434956835E+04  0.00000000000E+00 0. -1.
          1    1    1    2  502    0 -0.50649171062E+02 -0.51556244797E+02  0.23256582790E+03  0.24353695657E+03  0.00000000000E+00 0. -1.
         22    1    3    3    0    0  0.12600133585E+02  0.89743302705E+02  0.80092001177E+02  0.12094359181E+03  0.00000000000E+00 0. -1.
         22    1    3    3    0    0 -0.23803511877E+01 -0.14802387023E+02 -0.29970053047E+02  0.33510905882E+02  0.00000000000E+00 0. -1.
</event>
<event>
 7    1  0.5562528E-006  0.2966364E+02  0.7818608E-02  0.1645923E+00
          2   -1    0    0  502    0  0.00000000000E+00  0.00000000000E+00  0.46801286732E+02  0.46801286732E+02  0.00000000000E+00 0. -1.
          1   -1    0    0  501    0 -0.00000000000E+00 -0.00000000000E+00 -0.13438641720E+04  0.13438641720E+04  0.00000000000E+00 0. -1.
         25    2    1    2    0    0 -0.10553382761E+02  0.51349790927E+02 -0.71205015755E+03  0.72483774795E+03  0.12500463616E+03 0.  0.
          2    1    1    2  501    0  0.43452195763E+01 -0.22518322436E+02 -0.61979835495E+03  0.62022250570E+03  0.00000000000E+00 0. -1.
          1    1    1    2  502    0  0.62081631844E+01 -0.28831468491E+02  0.34785627254E+02  0.45605205064E+02  0.00000000000E+00 0. -1.
         22    1    3    3    0    0 -0.30046070000E+02  0.32920748419E+01 -0.60632741869E+03  0.60708034290E+03  0.00000000000E+00 0. -1.
         22    1    3    3    0    0  0.19492687239E+02  0.48057716085E+02 -0.10572273887E+03  0.11775740505E+03  0.00000000000E+00 0. -1.
</event>
<event>
 7    1  0.5562528E-006  0.1748792E+03  0.7818608E-02  0.1280741E+00
          2   -1    0    0  502    0  0.00000000000E+00  0.00000000000E+00  0.10273154941E+04  0.10273154941E+04  0.00000000000E+00 0. -1.
          1   -1    0    0  501    0 -0.00000000000E+00 -0.00000000000E+00 -0.31362274809E+03  0.31362274809E+03  0.00000000000E+00 0. -1.
         25    2    1    2    0    0  0.15751227043E+03  0.45112813760E+02  0.97574904877E+02  0.22798636155E+03  0.12494653932E+03 0.  0.
          2    1    1    2  501    0 -0.14709590898E+03 -0.10109287716E+03 -0.21525703678E+03  0.27962934062E+03  0.00000000000E+00 0. -1.
          1    1    1    2  502    0 -0.10416361454E+02  0.55980063401E+02  0.83137487789E+03  0.83332253999E+03  0.00000000000E+00 0. -1.
         22    1    3    3    0    0  0.70994091129E+02 -0.34695108925E+02  0.73346032910E+02  0.10781257859E+03  0.00000000000E+00 0.  1.
         22    1    3    3    0    0  0.86518179305E+02  0.79807922685E+02  0.24228871967E+02  0.12017378296E+03  0.00000000000E+00 0.  1.
</event>
<event>
 7    1  0.5562528E-006  0.1433334E+03  0.7818608E-02  0.1249985E+00
          2   -1    0    0  502    0  0.00000000000E+00  0.00000000000E+00  0.13868459295E+03  0.13868459295E+03  0.00000000000E+00 0. -1.
          1   -1    0    0  501    0 -0.00000000000E+00 -0.00000000000E+00 -0.11660633838E+04  0.11660633838E+04  0.00000000000E+00 0. -1.
         25    2    1    2    0    0  0.18187446050E+03 -0.46793540605E+02 -0.35144428846E+03  0.41761942437E+03  0.12499976358E+03 0.  0.
          2    1    1    2  501    0 -0.79705330961E+02 -0.49353184694E+02 -0.73057738173E+03  0.73656770722E+03  0.00000000000E+00 0. -1.
          1    1    1    2  502    0 -0.10216912954E+03  0.96146725299E+02  0.54642879380E+02  0.15056084512E+03  0.00000000000E+00 0. -1.
         22    1    3    3    0    0  0.30960479757E+02 -0.56866221443E+02 -0.55560253123E+02  0.85318580479E+02  0.00000000000E+00 0. -1.
         22    1    3    3    0    0  0.15091398075E+03  0.10072680838E+02 -0.29588403533E+03  0.33230084389E+03  0.00000000000E+00 0. -1.
</event>
<event>
 7    1  0.5562528E-006  0.5576454E+02  0.7818608E-02  0.1528828E+00
          2   -1    0    0  502    0  0.00000000000E+00  0.00000000000E+00  0.18552563378E+04  0.18552563378E+04  0.00000000000E+00 0. -1.
          1   -1    0    0  501    0 -0.00000000000E+00 -0.00000000000E+00 -0.75751341188E+03  0.75751341188E+03  0.00000000000E+00 0. -1.
         25    2    1    2    0    0 -0.58329946936E+02 -0.18711641653E+02  0.25890956406E+03  0.29395791565E+03  0.12499834226E+03 0.  0.
          2    1    1    2  501    0  0.55428138193E+02 -0.61095518450E+01 -0.73883958327E+03  0.74094097939E+03  0.00000000000E+00 0. -1.
          1    1    1    2  502    0  0.29018087426E+01  0.24821193498E+02  0.15776729452E+04  0.15778708547E+04  0.00000000000E+00 0. -1.
         22    1    3    3    0    0 -0.42009568277E+01  0.20798517070E+02  0.20981205589E+03  0.21088225423E+03  0.00000000000E+00 0. -1.
         22    1    3    3    0    0 -0.54128990108E+02 -0.39510158723E+02  0.49097508170E+02  0.83075661424E+02  0.00000000000E+00 0. -1.
</event>
<event>
 7    1  0.5562528E-006  0.7491768E+02  0.7818608E-02  0.1415053E+00
          2   -1    0    0  502    0  0.00000000000E+00  0.00000000000E+00  0.27077221223E+04  0.27077221223E+04  0.00000000000E+00 0. -1.
          1   -1    0    0  501    0 -0.00000000000E+00 -0.00000000000E+00 -0.41170668924E+03  0.41170668924E+03  0.00000000000E+00 0. -1.
         25    2    1    2    0    0  0.88890407958E+02 -0.57703571337E+02  0.70748911944E+03  0.72622153135E+03  0.12500260677E+03 0.  0.
          2    1    1    2  501    0 -0.41942099656E+02  0.18065944436E+01 -0.40057406193E+03  0.40276790165E+03  0.00000000000E+00 0. -1.
          1    1    1    2  502    0 -0.46948308301E+02  0.55896976894E+02  0.19891003755E+04  0.19904393785E+04  0.00000000000E+00 0. -1.
         22    1    3    3    0    0  0.18627336449E+02 -0.79015973797E+02  0.24925624495E+03  0.26214342911E+03  0.00000000000E+00 0.  1.
         22    1    3    3    0    0  0.70263071509E+02  0.21312402460E+02  0.45823287449E+03  0.46407810224E+03  0.00000000000E+00 0.  1.
</event>
<event>
 7    1  0.5562528E-006  0.1428692E+03  0.7818608E-02  0.1211518E+00
          2   -1    0    0  502    0  0.00000000000E+00  0.00000000000E+00  0.44532639567E+03  0.44532639567E+03  0.00000000000E+00 0. -1.
          1   -1    0    0  501    0 -0.00000000000E+00 -0.00000000000E+00 -0.45660080925E+03  0.45660080925E+03  0.00000000000E+00 0. -1.
         25    2    1    2    0    0 -0.17062546101E+03 -0.46893297369E+02 -0.18550299200E+03  0.28522334043E+03  0.12501585740E+03 0.  0.
          2    1    1    2  501    0  0.60642743847E+02  0.13328506255E+03 -0.18223986769E+03  0.23378156397E+03  0.00000000000E+00 0. -1.
          1    1    1    2  502    0  0.10998271716E+03 -0.86391765177E+02  0.35646844610E+03  0.38292230051E+03  0.00000000000E+00 0. -1.
         22    1    3    3    0    0  0.17064420048E+02 -0.10957326249E+02 -0.40654684617E+02  0.45431936030E+02  0.00000000000E+00 0. -1.
         22    1    3    3    0    0 -0.18768988106E+03 -0.35935971120E+02 -0.14484830738E+03  0.23979140440E+03  0.00000000000E+00 0. -1.
</event>
<event>
 7    1  0.5562528E-006  0.6141738E+02  0.7818608E-02  0.1397519E+00
          2   -1    0    0  502    0  0.00000000000E+00  0.00000000000E+00  0.26658512950E+04  0.26658512950E+04  0.00000000000E+00 0. -1.
          1   -1    0    0  501    0 -0.00000000000E+00 -0.00000000000E+00 -0.43332776519E+02  0.43332776519E+02  0.00000000000E+00 0. -1.
         25    2    1    2    0    0 -0.57231441760E+02 -0.16936305939E+02  0.20726980710E+03  0.24929672865E+03  0.12500323834E+03 0.  0.
          2    1    1    2  501    0  0.10631962245E+02  0.57791395667E+02  0.17463469879E+02  0.61301360625E+02  0.00000000000E+00 0. -1.
          1    1    1    2  502    0  0.46599479514E+02 -0.40855089728E+02  0.23977852415E+04  0.23985859822E+04  0.00000000000E+00 0. -1.
         22    1    3    3    0    0 -0.34035989408E+02 -0.37365968478E+02  0.12469120115E+02  0.52059035063E+02  0.00000000000E+00 0.  1.
         22    1    3    3    0    0 -0.23195452352E+02  0.20429662540E+02  0.19480068698E+03  0.19723769358E+03  0.00000000000E+00 0.  1.
</event>
<event>
 7    1  0.5562528E-006  0.1281619E+03  0.7818608E-02  0.1376844E+00
          2   -1    0    0  502    0  0.00000000000E+00  0.00000000000E+00  0.45208597528E+02  0.45208597528E+02  0.00000000000E+00 0. -1.
          1   -1    0    0  501    0 -0.00000000000E+00 -0.00000000000E+00 -0.13090213437E+04  0.13090213437E+04  0.00000000000E+00 0. -1.
         25    2    1    2    0    0 -0.27359360537E+02 -0.10047870757E+03 -0.41541199519E+03  0.44613408119E+03  0.12499594939E+03 0.  0.
          2    1    1    2  501    0  0.27944658204E+02  0.13374526472E+03 -0.86155217965E+03  0.87231924089E+03  0.00000000000E+00 0. -1.
          1    1    1    2  502    0 -0.58529766723E+00 -0.33266557156E+02  0.13151428708E+02  0.35776619117E+02  0.00000000000E+00 0. -1.
         22    1    3    3    0    0  0.21422988968E+02 -0.11074873978E+03 -0.29249971654E+03  0.31349690907E+03  0.00000000000E+00 0. -1.
         22    1    3    3    0    0 -0.48782349505E+02  0.10270032210E+02 -0.12291227865E+03  0.13263717212E+03  0.00000000000E+00 0. -1.
</event>
<event>
 7    1  0.5562528E-006  0.4812430E+02  0.7818608E-02  0.1520636E+00
          2   -1    0    0  502    0  0.00000000000E+00  0.00000000000E+00  0.11047647424E+04  0.11047647424E+04  0.00000000000E+00 0. -1.
          1   -1    0    0  501    0 -0.00000000000E+00 -0.00000000000E+00 -0.31421088629E+03  0.31421088629E+03  0.00000000000E+00 0. -1.
         25    2    1    2    0    0  0.56370006103E+02  0.25157963717E+02  0.79763275541E+03  0.80971993359E+03  0.12497142726E+03 0.  0.
          2    1    1    2  501    0 -0.10739800048E+02 -0.28629265380E+02 -0.30566123714E+03  0.30718686500E+03  0.00000000000E+00 0. -1.
          1    1    1    2  502    0 -0.45630206055E+02  0.34713016636E+01  0.29858233780E+03  0.30206883005E+03  0.00000000000E+00 0. -1.
         22    1    3    3    0    0  0.36086328534E+02  0.75812474703E+02  0.43856712370E+03  0.44653205531E+03  0.00000000000E+00 0.  1.
         22    1    3    3    0    0  0.20283677568E+02 -0.50654510986E+02  0.35906563170E+03  0.36318787828E+03  0.00000000000E+00 0.  1.
</event>
<event>
 7    1  0.5562528E-006  0.1253180E+03  0.7818608E-02  0.1424237E+00
          2   -1    0    0  502    0  0.00000000000E+00  0.00000000000E+00  0.13054974121E+04  0.13054974121E+04  0.00000000000E+00 0. -1.
          1   -1    0    0  501    0 -0.00000000000E+00 -0.00000000000E+00 -0.11514785248E+04  0.11514785248E+04  0.00000000000E+00 0. -1.
         25    2    1    2    0    0 -0.44266897865E+02  0.95462340781E+02  0.18367874650E+03  0.24583427207E+03  0.12499596255E+03 0.  0.
          2    1    1    2  501    0 -0.31270639946E+01  0.23174848721E+02 -0.11165371127E+04  0.11167819734E+04  0.00000000000E+00 0. -1.
          1    1    1    2  502    0  0.47393961860E+02 -0.11863718950E+03  0.10868772535E+04  0.10943596915E+04  0.00000000000E+00 0. -1.
         22    1    3    3    0    0 -0.28146798984E+02 -0.87137004535E+01  0.11802024416E+03  0.12164271002E+03  0.00000000000E+00 0. -1.
         22    1    3    3    0    0 -0.16120098881E+02  0.10417604123E+03  0.65658502334E+02  0.12419156205E+03  0.00000000000E+00 0. -1.
</event>
<event>
 7    1  0.5562528E-006  0.3714635E+02  0.7818608E-02  0.1618005E+00
          2   -1    0    0  502    0  0.00000000000E+00  0.00000000000E+00  0.29296515540E+03  0.29296515540E+03  0.00000000000E+00 0. -1.
          1   -1    0    0  501    0 -0.00000000000E+00 -0.00000000000E+00 -0.73792637599E+03  0.73792637599E+03  0.00000000000E+00 0. -1.
         25    2    1    2    0    0  0.32369231308E+02 -0.35555702352E+02  0.21685895228E+03  0.25489545393E+03  0.12502764551E+03 0.  0.
          2    1    1    2  501    0 -0.34341111034E+02  0.14127320691E+02 -0.71638216832E+03  0.71734392322E+03  0.00000000000E+00 0. -1.
          1    1    1    2  502    0  0.19718797257E+01  0.21428381660E+02  0.54561995445E+02  0.58652154241E+02  0.00000000000E+00 0. -1.
         22    1    3    3    0    0  0.12498152335E+02  0.40398063830E+02  0.13501999232E+03  0.14148712203E+03  0.00000000000E+00 0. -1.
         22    1    3    3    0    0  0.19871078973E+02 -0.75953766182E+02  0.81838959960E+02  0.11340833190E+03  0.00000000000E+00 0. -1.
</event>
<event>
 7    1  0.5562528E-006  0.5323200E+02  0.7818608E-02  0.1472138E+00
          2   -1    0    0  502    0  0.00000000000E+00  0.00000000000E+00  0.73659380983E+03  0.73659380983E+03  0.00000000000E+00 0. -1.
          1   -1    0    0  501    0 -0.00000000000E+00 -0.00000000000E+00 -0.13471914888E+04  0.13471914888E+04  0.00000000000E+00 0. -1.
         25    2    1    2    0    0 -0.61114037068E+01 -0.57561308903E+02 -0.10793285743E+02  0.13817599435E+03  0.12500182742E+03 0.  0.
          2    1    1    2  501    0  0.38651301819E+02  0.36717438844E+02 -0.12715930644E+04  0.12727101063E+04  0.00000000000E+00 0. -1.
          1    1    1    2  502    0 -0.32539898112E+02  0.20843870059E+02  0.67178867115E+03  0.67289919793E+03  0.00000000000E+00 0. -1.
         22    1    3    3    0    0 -0.30800412792E+02  0.31773405152E+02  0.35297240034E+01  0.44392270213E+02  0.00000000000E+00 0. -1.
         22    1    3    3    0    0  0.24689009085E+02 -0.89334714054E+02 -0.14323009746E+02  0.93783724137E+02  0.00000000000E+00 0. -1.
</event>
<event>
 7    1  0.5562528E-006  0.1068644E+03  0.7818608E-02  0.1281957E+00
          2   -1    0    0  502    0  0.00000000000E+00  0.00000000000E+00  0.99082639710E+03  0.99082639710E+03  0.00000000000E+00 0. -1.
          1   -1    0    0  501    0 -0.00000000000E+00 -0.00000000000E+00 -0.42646880736E+03  0.42646880736E+03  0.00000000000E+00 0. -1.
         25    2    1    2    0    0  0.37664546797E+02 -0.58344951211E+02 -0.11591352229E+01  0.14300127900E+03  0.12500108314E+03 0.  0.
          2    1    1    2  501    0  0.39771020059E+02  0.10822775748E+03 -0.34261798620E+03  0.36149974549E+03  0.00000000000E+00 0. -1.
          1    1    1    2  502    0 -0.77435566856E+02 -0.49882806265E+02  0.90813471116E+03  0.91279417997E+03  0.00000000000E+00 0. -1.
         22    1    3    3    0    0 -0.26117854284E+01 -0.83986667013E+02 -0.27573490692E+02  0.88435733999E+02  0.00000000000E+00 0. -1.
         22    1    3    3    0    0  0.40276332225E+02  0.25641715802E+02  0.26414355469E+02  0.54565545004E+02  0.00000000000E+00 0. -1.
</event>
<event>
 7    1  0.5562528E-006  0.8906504E+02  0.7818608E-02  0.1428495E+00
          2   -1    0    0  502    0  0.00000000000E+00  0.00000000000E+00  0.22976334674E+03  0.22976334674E+03  0.00000000000E+00 0. -1.
          1   -1    0    0  501    0 -0.00000000000E+00 -0.00000000000E+00 -0.20784383791E+04  0.20784383791E+04  0.00000000000E+00 0. -1.
         25    2    1    2    0    0  0.35565504442E+02 -0.50911538122E+02  0.49837352349E+02  0.14820934827E+03  0.12500143761E+03 0.  0.
          2    1    1    2  501    0 -0.66039342830E+02  0.60182161792E+02 -0.20263131034E+04  0.20282820022E+04  0.00000000000E+00 0. -1.
          1    1    1    2  502    0  0.30473838388E+02 -0.92706236707E+01  0.12780071868E+03  0.13171037538E+03  0.00000000000E+00 0. -1.
         22    1    3    3    0    0 -0.41315205982E+02 -0.70673273021E+01 -0.77410862603E+01  0.42624145470E+02  0.00000000000E+00 0. -1.
         22    1    3    3    0    0  0.76880710425E+02 -0.43844210820E+02  0.57578438609E+02  0.10558520280E+03  0.00000000000E+00 0. -1.
</event>
<event>
 7    1  0.5562528E-006  0.1126458E+03  0.7818608E-02  0.1286945E+00
          2   -1    0    0  502    0  0.00000000000E+00  0.00000000000E+00  0.67373194034E+03  0.67373194034E+03  0.00000000000E+00 0. -1.
          1   -1    0    0  501    0 -0.00000000000E+00 -0.00000000000E+00 -0.96761599962E+03  0.96761599962E+03  0.00000000000E+00 0. -1.
         25    2    1    2    0    0  0.88424960271E+02 -0.11130699173E+03 -0.30202179683E+03  0.35644112190E+03  0.12499955045E+03 0.  0.
          2    1    1    2  501    0 -0.50634819005E+01  0.11122973780E+03 -0.63080121379E+03  0.64055278060E+03  0.00000000000E+00 0. -1.
          1    1    1    2  502    0 -0.83361478371E+02  0.77253925344E-01  0.63893895134E+03  0.64435403745E+03  0.00000000000E+00 0. -1.
         22    1    3    3    0    0  0.11054753600E+03 -0.12178262986E+03 -0.26972516916E+03  0.31591681426E+03  0.00000000000E+00 0.  1.
         22    1    3    3    0    0 -0.22122575727E+02  0.10475638133E+02 -0.32296627664E+02  0.40524307638E+02  0.00000000000E+00 0.  1.
</event>
<event>
 7    1  0.5562528E-006  0.2487149E+03  0.7818608E-02  0.1141548E+00
          2   -1    0    0  502    0  0.00000000000E+00  0.00000000000E+00  0.85931738165E+03  0.85931738165E+03  0.00000000000E+00 0. -1.
          1   -1    0    0  501    0 -0.00000000000E+00 -0.00000000000E+00 -0.99396184624E+03  0.99396184624E+03  0.00000000000E+00 0. -1.
         25    2    1    2    0    0 -0.23967393965E+03 -0.23791222088E+03  0.22367310857E+03  0.42391076688E+03  0.12499942633E+03 0.  0.
          2    1    1    2  501    0  0.13724450440E+02  0.17681772308E+03 -0.85876635267E+03  0.87688797244E+03  0.00000000000E+00 0. -1.
          1    1    1    2  502    0  0.22594948921E+03  0.61094497805E+02  0.50044877951E+03  0.55248048857E+03  0.00000000000E+00 0. -1.
         22    1    3    3    0    0 -0.14682338938E+03 -0.66756216463E+02  0.69847123425E+02  0.17576154516E+03  0.00000000000E+00 0. -1.
         22    1    3    3    0    0 -0.92850550273E+02 -0.17115600442E+03  0.15382598514E+03  0.24814922172E+03  0.00000000000E+00 0. -1.
</event>
<event>
 7    1  0.5562528E-006  0.7218232E+02  0.7818608E-02  0.1359178E+00
          2   -1    0    0  502    0  0.00000000000E+00  0.00000000000E+00  0.94702202993E+03  0.94702202993E+03  0.00000000000E+00 0. -1.
          1   -1    0    0  501    0 -0.00000000000E+00 -0.00000000000E+00 -0.46804067736E+02  0.46804067736E+02  0.00000000000E+00 0. -1.
         25    2    1    2    0    0  0.39111188942E+02 -0.10064087364E+02  0.21270682496E+03  0.24999885272E+03  0.12499704804E+03 0.  0.
          2    1    1    2  501    0 -0.68675447205E+02 -0.51625151794E+02  0.43697549818E+02  0.96389570010E+02  0.00000000000E+00 0. -1.
          1    1    1    2  502    0  0.29564258263E+02  0.61689239159E+02  0.64381358741E+03  0.64743767494E+03  0.00000000000E+00 0. -1.
         22    1    3    3    0    0 -0.45590984541E+02 -0.52044800505E+01  0.63282478426E+02  0.78168385936E+02  0.00000000000E+00 0. -1.
         22    1    3    3    0    0  0.84702173484E+02 -0.48596073137E+01  0.14942434654E+03  0.17183046678E+03  0.00000000000E+00 0. -1.
</event>
<event>
 7    1  0.9104025E-006  0.1047568E+03  0.7818608E-02  0.1288787E+00
          2   -1    0    0  502    0  0.00000000000E+00  0.00000000000E+00  0.16003399780E+04  0.16003399780E+04  0.00000000000E+00 0. -1.
          1   -1    0    0  501    0 -0.00000000000E+00 -0.00000000000E+00 -0.21123419186E+04  0.21123419186E+04  0.00000000000E+00 0. -1.
         25    2    1    2    0    0  0.84619197772E+02 -0.16199336495E+01 -0.23955211101E+03  0.28314916315E+03  0.12500080754E+03 0.  0.
          2    1    1    2  501    0 -0.21251961643E+02  0.85499587334E+02 -0.18481905671E+04  0.18502892200E+04  0.00000000000E+00 0. -1.
          1    1    1    2  502    0 -0.63367236129E+02 -0.83879653685E+02  0.15757407375E+04  0.15792435134E+04  0.00000000000E+00 0. -1.
         22    1    3    3    0    0  0.76138540057E+02  0.49698102886E+02 -0.19300288676E+03  0.21334735295E+03  0.00000000000E+00 0. -1.
         22    1    3    3    0    0  0.84806577145E+01 -0.51318036536E+02 -0.46549224254E+02  0.69801810204E+02  0.00000000000E+00 0. -1.
</event>
<event>
 7    1  0.5562528E-006  0.5255527E+02  0.7818608E-02  0.1433351E+00
          2   -1    0    0  502    0  0.00000000000E+00  0.00000000000E+00  0.14309396714E+03  0.14309396714E+03  0.00000000000E+00 0. -1.
          1   -1    0    0  501    0 -0.00000000000E+00 -0.00000000000E+00 -0.94051398031E+03  0.94051398031E+03  0.00000000000E+00 0. -1.
         25    2    1    2    0    0 -0.61876451257E+02 -0.45880262636E+02 -0.18270265834E+03  0.23439821253E+03  0.12501426699E+03 0.  0.
          2    1    1    2  501    0  0.52099084362E+02 -0.52254202091E+01 -0.72519992670E+03  0.72708772049E+03  0.00000000000E+00 0. -1.
          1    1    1    2  502    0  0.97773668947E+01  0.51105682845E+02  0.11048257187E+03  0.12212201443E+03  0.00000000000E+00 0. -1.
         22    1    3    3    0    0 -0.49849719900E+01 -0.79338071116E+02 -0.11543386892E+03  0.14015833036E+03  0.00000000000E+00 0. -1.
         22    1    3    3    0    0 -0.56891479267E+02  0.33457808480E+02 -0.67268789417E+02  0.94239882168E+02  0.00000000000E+00 0. -1.
</event>
<event>
 7    1  0.5562528E-006  0.2845484E+03  0.7818608E-02  0.1243628E+00
          2   -1    0    0  502    0  0.00000000000E+00  0.00000000000E+00  0.60910588909E+03  0.60910588909E+03  0.00000000000E+00 0. -1.
          1   -1    0    0  501    0 -0.00000000000E+00 -0.00000000000E+00 -0.13137936619E+04  0.13137936619E+04  0.00000000000E+00 0. -1.
         25    2    1    2    0    0  0.31268877349E+03 -0.26055549951E+02 -0.15019727254E+03  0.36964443874E+03  0.12499851865E+03 0.  0.
          2    1    1    2  501    0 -0.38427459253E+02 -0.32512337787E+02 -0.10138257317E+04  0.10150745470E+04  0.00000000000E+00 0. -1.
          1    1    1    2  502    0 -0.27426131424E+03  0.58567887738E+02  0.45933523144E+03  0.53818056524E+03  0.00000000000E+00 0. -1.
         22    1    3    3    0    0  0.16023733371E+03  0.47945522559E+02 -0.60153822700E+02  0.17774492576E+03  0.00000000000E+00 0. -1.
         22    1    3    3    0    0  0.15245143978E+03 -0.74001072510E+02 -0.90043449840E+02  0.19189951298E+03  0.00000000000E+00 0. -1.
</event>
<event>
 7    1  0.5562528E-006  0.7384283E+02  0.7818608E-02  0.1392499E+00
          2   -1    0    0  502    0  0.00000000000E+00  0.00000000000E+00  0.99562803520E+02  0.99562803520E+02  0.00000000000E+00 0. -1.
          1   -1    0    0  501    0 -0.00000000000E+00 -0.00000000000E+00 -0.10027316823E+04  0.10027316823E+04  0.00000000000E+00 0. -1.
         25    2    1    2    0    0 -0.11982881727E+03  0.16306424004E+02 -0.19371085965E+03  0.26033227852E+03  0.12499661268E+03 0.  0.
          2    1    1    2  501    0  0.69018848853E+02 -0.18782120160E+02 -0.76402211859E+03  0.76736312605E+03  0.00000000000E+00 0. -1.
          1    1    1    2  502    0  0.50809968420E+02  0.24756961562E+01  0.54564099499E+02  0.74599081204E+02  0.00000000000E+00 0. -1.
         22    1    3    3    0    0 -0.36799034271E+02  0.36874100237E+02 -0.40235317374E+01  0.52249947360E+02  0.00000000000E+00 0.  1.
         22    1    3    3    0    0 -0.83029783002E+02 -0.20567676233E+02 -0.18968732791E+03  0.20808233116E+03  0.00000000000E+00 0.  1.
</event>
<event>
 7    1  0.5562528E-006  0.5438631E+02  0.7818608E-02  0.1458576E+00
          2   -1    0    0  502    0  0.00000000000E+00  0.00000000000E+00  0.20654195213E+04  0.20654195213E+04  0.00000000000E+00 0. -1.
          1   -1    0    0  501    0 -0.00000000000E+00 -0.00000000000E+00 -0.59134778563E+02  0.59134778563E+02  0.00000000000E+00 0. -1.
         25    2    1    2    0    0  0.67813922367E+02  0.66821067503E+02  0.12139482432E+04  0.12240752998E+04  0.12500487684E+03 0.  0.
          2    1    1    2  501    0 -0.41470226028E+02 -0.34485244583E+02 -0.39967993702E+02  0.67130114415E+02  0.00000000000E+00 0. -1.
          1    1    1    2  502    0 -0.26343696339E+02 -0.32335822920E+02  0.83230449328E+03  0.83334888571E+03  0.00000000000E+00 0. -1.
         22    1    3    3    0    0  0.23983667074E+01  0.54077414129E+02  0.17954639946E+03  0.18752874031E+03  0.00000000000E+00 0.  1.
         22    1    3    3    0    0  0.65415555660E+02  0.12743653374E+02  0.10344018437E+04  0.10365465595E+04  0.00000000000E+00 0.  1.
</event>
<event>
 7    1  0.5562528E-006  0.9790709E+02  0.7818608E-02  0.1293681E+00
          2   -1    0    0  502    0  0.00000000000E+00  0.00000000000E+00  0.14510365312E+03  0.14510365312E+03  0.00000000000E+00 0. -1.
          1   -1    0    0  501    0 -0.00000000000E+00 -0.00000000000E+00 -0.77531887923E+03  0.77531887923E+03  0.00000000000E+00 0. -1.
         25    2    1    2    0    0 -0.56909653467E+02 -0.31414268358E+00 -0.18327577878E+03  0.22902802045E+03  0.12500006289E+03 0.  0.
          2    1    1    2  501    0  0.39197195657E+02  0.96605720161E+02 -0.54378073824E+03  0.55368454611E+03  0.00000000000E+00 0. -1.
          1    1    1    2  502    0  0.17712457810E+02 -0.96291577477E+02  0.96841290906E+02  0.13770996579E+03  0.00000000000E+00 0. -1.
         22    1    3    3    0    0 -0.39775065581E+02 -0.56900988853E+02 -0.13828055730E+03  0.15472973502E+03  0.00000000000E+00 0.  1.
         22    1    3    3    0    0 -0.17134587886E+02  0.56586846169E+02 -0.44995221484E+02  0.74298285430E+02  0.00000000000E+00 0.  1.
</event>
<event>
 7    1  0.5562528E-006  0.3890687E+02  0.7818608E-02  0.1543095E+00
          2   -1    0    0  502    0  0.00000000000E+00  0.00000000000E+00  0.34251088159E+03  0.34251088159E+03  0.00000000000E+00 0. -1.
          1   -1    0    0  501    0 -0.00000000000E+00 -0.00000000000E+00 -0.16648922976E+03  0.16648922976E+03  0.00000000000E+00 0. -1.
         25    2    1    2    0    0  0.28068817701E+02 -0.42104785278E+01 -0.31971252477E+02  0.13210885084E+03  0.12500000331E+03 0.  0.
          2    1    1    2  501    0 -0.94585255830E+00  0.32611428357E+02 -0.79914600950E+02  0.86317688463E+02  0.00000000000E+00 0. -1.
          1    1    1    2  502    0 -0.27122965143E+02 -0.28400949829E+02  0.28790750526E+03  0.29057357205E+03  0.00000000000E+00 0. -1.
         22    1    3    3    0    0  0.37556199750E+02 -0.19967103732E+02  0.39659063923E+02  0.58154920018E+02  0.00000000000E+00 0.  1.
         22    1    3    3    0    0 -0.94873820486E+01  0.15756625204E+02 -0.71630316400E+02  0.73953930819E+02  0.00000000000E+00 0.  1.
</event>
<event>
 7    1  0.5562528E-006  0.8806523E+02  0.7818608E-02  0.1415072E+00
          2   -1    0    0  502    0  0.00000000000E+00  0.00000000000E+00  0.67612657260E+03  0.67612657260E+03  0.00000000000E+00 0. -1.
          1   -1    0    0  501    0 -0.00000000000E+00 -0.00000000000E+00 -0.96503310804E+03  0.96503310804E+03  0.00000000000E+00 0. -1.
         25    2    1    2    0    0  0.10276017980E+02 -0.53408825433E+02  0.34000480002E+03  0.36631391831E+03  0.12499809411E+03 0.  0.
          2    1    1    2  501    0 -0.23777795512E+01  0.88232691101E+02 -0.94883697671E+03  0.95293350764E+03  0.00000000000E+00 0. -1.
          1    1    1    2  502    0 -0.78982384283E+01 -0.34823865667E+02  0.31992564125E+03  0.32191225469E+03  0.00000000000E+00 0. -1.
         22    1    3    3    0    0  0.51905392380E+02 -0.40172753151E+02  0.29994862350E+03  0.30704591936E+03  0.00000000000E+00 0. -1.
         22    1    3    3    0    0 -0.41629374400E+02 -0.13236072282E+02  0.40056176512E+02  0.59267998947E+02  0.00000000000E+00 0. -1.
</event>
<event>
 7    1  0.5562528E-006  0.1080699E+03  0.7818608E-02  0.1291270E+00
          2   -1    0    0  502    0  0.00000000000E+00  0.00000000000E+00  0.20396185501E+03  0.20396185501E+03  0.00000000000E+00 0. -1.
          1   -1    0    0  501    0 -0.00000000000E+00 -0.00000000000E+00 -0.32914512503E+03  0.32914512503E+03  0.00000000000E+00 0. -1.
         25    2    1    2    0    0 -0.62425914192E+02 -0.11198566028E+03 -0.59481120865E+01  0.17914369655E+03  0.12497720234E+03 0.  0.
          2    1    1    2  501    0 -0.39465175953E+02  0.73513780646E+02 -0.20109490167E+03  0.21771755909E+03  0.00000000000E+00 0. -1.
          1    1    1    2  502    0  0.10189109015E+03  0.38471879639E+02  0.81859743738E+02  0.13624572441E+03  0.00000000000E+00 0. -1.
         22    1    3    3    0    0 -0.58341256543E+02 -0.62508106352E+01 -0.36383209748E+02  0.69039936270E+02  0.00000000000E+00 0.  1.
         22    1    3    3    0    0 -0.40846576493E+01 -0.10573484965E+03  0.30435097661E+02  0.11010376028E+03  0.00000000000E+00 0.  1.
</event>
<event>
 7    1  0.5562528E-006  0.7137223E+02  0.7818608E-02  0.1460826E+00
          2   -1    0    0  502    0  0.00000000000E+00  0.00000000000E+00  0.33833703733E+02  0.33833703733E+02  0.00000000000E+00 0. -1.
          1   -1    0    0  501    0 -0.00000000000E+00 -0.00000000000E+00 -0.15410753331E+04  0.15410753331E+04  0.00000000000E+00 0. -1.
         25    2    1    2    0    0  0.14594450594E+02  0.99391043407E+02 -0.10298815666E+04  0.10422918388E+04  0.12499863449E+03 0.  0.
          2    1    1    2  501    0  0.17864320169E+01 -0.31215677552E+02 -0.45909906408E+03  0.46016253705E+03  0.00000000000E+00 0. -1.
          1    1    1    2  502    0 -0.16380882611E+02 -0.68175365855E+02 -0.18260998754E+02  0.72454660997E+02  0.00000000000E+00 0. -1.
         22    1    3    3    0    0  0.20282347355E+02 -0.14251508555E+01 -0.61366166980E+03  0.61399841176E+03  0.00000000000E+00 0.  1.
         22    1    3    3    0    0 -0.56878967613E+01  0.10081619426E+03 -0.41621989677E+03  0.42829342706E+03  0.00000000000E+00 0.  1.
</event>
<event>
 7    1  0.5562528E-006  0.4112400E+02  0.7818608E-02  0.1500306E+00
          2   -1    0    0  502    0  0.00000000000E+00  0.00000000000E+00  0.46447166301E+03  0.46447166301E+03  0.00000000000E+00 0. -1.
          1   -1    0    0  501    0 -0.00000000000E+00 -0.00000000000E+00 -0.23860166373E+04  0.23860166373E+04  0.00000000000E+00 0. -1.
         25    2    1    2    0    0  0.29960900976E+02 -0.49085387414E+02 -0.12313300291E+03  0.18464503072E+03  0.12500008048E+03 0.  0.
          2    1    1    2  501    0 -0.40020439445E+02  0.92059607231E+01 -0.22309631950E+04  0.22313411131E+04  0.00000000000E+00 0. -1.
          1    1    1    2  502    0  0.10059538468E+02  0.39879426690E+02  0.43255122362E+03  0.43450215654E+03  0.00000000000E+00 0. -1.
         22    1    3    3    0    0  0.99867285996E+01  0.35106695300E+02 -0.80061117160E+02  0.87988620196E+02  0.00000000000E+00 0.  1.
         22    1    3    3    0    0  0.19974172377E+02 -0.84192082713E+02 -0.43071885752E+02  0.96656410527E+02  0.00000000000E+00 0.  1.
</event>
<event>
 7    1  0.5562528E-006  0.5911775E+02  0.7818608E-02  0.1435939E+00
          2   -1    0    0  502    0  0.00000000000E+00  0.00000000000E+00  0.25708765408E+04  0.25708765408E+04  0.00000000000E+00 0. -1.
          1   -1    0    0  501    0 -0.00000000000E+00 -0.00000000000E+00 -0.64715979616E+02  0.64715979616E+02  0.00000000000E+00 0. -1.
         25    2    1    2    0    0  0.43386350025E+02  0.16088583765E+02  0.26849970557E+03  0.29976362900E+03  0.12499969395E+03 0.  0.
          2    1    1    2  501    0  0.93217985317E+01 -0.44395658980E+02 -0.38124880455E+02  0.59256872798E+02  0.00000000000E+00 0. -1.
          1    1    1    2  502    0 -0.52708148557E+02  0.28307075214E+02  0.22757857361E+04  0.22765720187E+04  0.00000000000E+00 0. -1.
         22    1    3    3    0    0  0.39788993973E+02 -0.41652337378E+02  0.20892684168E+03  0.21672218720E+03  0.00000000000E+00 0.  1.
         22    1    3    3    0    0  0.35973560526E+01  0.57740921143E+02  0.59572863883E+02  0.83041441801E+02  0.00000000000E+00 0.  1.
</event>
<event>
 7    1  0.5562528E-006  0.4944722E+02  0.7818608E-02  0.1474363E+00
          2   -1    0    0  502    0  0.00000000000E+00  0.00000000000E+00  0.14988630499E+02  0.14988630499E+02  0.00000000000E+00 0. -1.
          1   -1    0    0  501    0 -0.00000000000E+00 -0.00000000000E+00 -0.11731146026E+04  0.11731146026E+04  0.00000000000E+00 0. -1.
         25    2    1    2    0    0  0.13575138756E+02  0.26549716708E+02 -0.43610230384E+03  0.45464272037E+03  0.12500244764E+03 0.  0.
          2    1    1    2  501    0 -0.25817207558E+02  0.31781748490E+02 -0.54771495585E+03  0.54924337101E+03  0.00000000000E+00 0. -1.
          1    1    1    2  502    0  0.12242068802E+02 -0.58331465198E+02 -0.17430871244E+03  0.18421714175E+03  0.00000000000E+00 0. -1.
         22    1    3    3    0    0  0.52694341817E+02  0.22153664587E+02 -0.92110602191E+02  0.10840591105E+03  0.00000000000E+00 0. -1.
         22    1    3    3    0    0 -0.39119203061E+02  0.43960521213E+01 -0.34399170165E+03  0.34623680932E+03  0.00000000000E+00 0. -1.
</event>
<event>
 7    1  0.5562528E-006  0.7284154E+02  0.7818608E-02  0.1385216E+00
          2   -1    0    0  502    0  0.00000000000E+00  0.00000000000E+00  0.11028852935E+04  0.11028852935E+04  0.00000000000E+00 0. -1.
          1   -1    0    0  501    0 -0.00000000000E+00 -0.00000000000E+00 -0.10313405181E+04  0.10313405181E+04  0.00000000000E+00 0. -1.
         25    2    1    2    0    0 -0.92333940603E+02  0.82148082464E+02  0.34531990081E+03  0.38748535180E+03  0.12500079968E+03 0.  0.
          2    1    1    2  501    0  0.42001174150E+02 -0.35015774160E+02 -0.10079009838E+04  0.10093832752E+04  0.00000000000E+00 0. -1.
          1    1    1    2  502    0  0.50332766453E+02 -0.47132308303E+02  0.73412585840E+03  0.73735718470E+03  0.00000000000E+00 0. -1.
         22    1    3    3    0    0 -0.65630298107E+02  0.34872483527E+02  0.55846229431E+02  0.92963581464E+02  0.00000000000E+00 0.  1.
         22    1    3    3    0    0 -0.26703642496E+02  0.47275598936E+02  0.28947367138E+03  0.29452177033E+03  0.00000000000E+00 0.  1.
</event>
<event>
 7    1  0.5562528E-006  0.5808288E+02  0.7818608E-02  0.1442322E+00
          2   -1    0    0  502    0  0.00000000000E+00  0.00000000000E+00  0.14503337634E+04  0.14503337634E+04  0.00000000000E+00 0. -1.
          1   -1    0    0  501    0 -0.00000000000E+00 -0.00000000000E+00 -0.25535137944E+02  0.25535137944E+02  0.00000000000E+00 0. -1.
         25    2    1    2    0    0 -0.53999231073E+02  0.59413835777E+02  0.95553490305E+03  0.96701483043E+03  0.12499924194E+03 0.  0.
          2    1    1    2  501    0  0.43583103902E+02 -0.61772495418E+01  0.84052012177E+01  0.44813979573E+02  0.00000000000E+00 0. -1.
          1    1    1    2  502    0  0.10416127171E+02 -0.53236586235E+02  0.46085852120E+03  0.46404009136E+03  0.00000000000E+00 0. -1.
         22    1    3    3    0    0  0.17237607581E+02  0.23959967342E+01  0.59023796396E+03  0.59049447924E+03  0.00000000000E+00 0. -1.
         22    1    3    3    0    0 -0.71236838654E+02  0.57017839043E+02  0.36529693909E+03  0.37652035119E+03  0.00000000000E+00 0. -1.
</event>
<event>
 7    1  0.5562528E-006  0.1035687E+03  0.7818608E-02  0.1412595E+00
          2   -1    0    0  502    0  0.00000000000E+00  0.00000000000E+00  0.23703248456E+04  0.23703248456E+04  0.00000000000E+00 0. -1.
          1   -1    0    0  501    0 -0.00000000000E+00 -0.00000000000E+00 -0.11395362403E+03  0.11395362403E+03  0.00000000000E+00 0. -1.
         25    2    1    2    0    0 -0.35221309517E+02 -0.84322352480E+02  0.19731867150E+03  0.25082075606E+03  0.12500237509E+03 0.  0.
          2    1    1    2  501    0  0.12241558114E+02  0.10505802417E+03 -0.54975573885E+02  0.11920301134E+03  0.00000000000E+00 0. -1.
          1    1    1    2  502    0  0.22979751403E+02 -0.20735671689E+02  0.21140281240E+04  0.21142547023E+04  0.00000000000E+00 0. -1.
         22    1    3    3    0    0  0.23074531944E+02 -0.89565821967E+01 -0.67060225150E+01  0.25644202601E+02  0.00000000000E+00 0.  1.
         22    1    3    3    0    0 -0.58295841461E+02 -0.75365770284E+02  0.20402469401E+03  0.22517655346E+03  0.00000000000E+00 0.  1.
</event>
<event>
 7    1  0.5562528E-006  0.1149174E+03  0.7818608E-02  0.1336382E+00
          2   -1    0    0  502    0  0.00000000000E+00  0.00000000000E+00  0.29668983952E+03  0.29668983952E+03  0.00000000000E+00 0. -1.
          1   -1    0    0  501    0 -0.00000000000E+00 -0.00000000000E+00 -0.29338475269E+03  0.29338475269E+03  0.00000000000E+00 0. -1.
         25    2    1    2    0    0  0.93904297476E+02  0.83632079997E+02 -0.73850560740E+02  0.19207485122E+03  0.12500600489E+03 0.  0.
          2    1    1    2  501    0 -0.47608491735E+02  0.21475935163E+02 -0.14160101694E+03  0.15092591651E+03  0.00000000000E+00 0. -1.
          1    1    1    2  502    0 -0.46295805741E+02 -0.10510801516E+03  0.21875666451E+03  0.24707382449E+03  0.00000000000E+00 0. -1.
         22    1    3    3    0    0  0.82422655121E+02  0.79512617442E+02 -0.10701284799E+03  0.15674023110E+03  0.00000000000E+00 0. -1.
         22    1    3    3    0    0  0.11481642355E+02  0.41194625554E+01  0.33162287254E+02  0.35334620117E+02  0.00000000000E+00 0. -1.
</event>
<event>
 7    1  0.5562528E-006  0.8640221E+02  0.7818608E-02  0.1337398E+00
          2   -1    0    0  502    0  0.00000000000E+00  0.00000000000E+00  0.66508285220E+03  0.66508285220E+03  0.00000000000E+00 0. -1.
          1   -1    0    0  501    0 -0.00000000000E+00 -0.00000000000E+00 -0.46441452875E+03  0.46441452875E+03  0.00000000000E+00 0. -1.
         25    2    1    2    0    0 -0.12985847932E+03  0.76511850770E+02  0.19091319344E+03  0.27347784919E+03  0.12499999443E+03 0.  0.
          2    1    1    2  501    0  0.64048756216E+02 -0.56265574312E+02 -0.41604422228E+03  0.42468912503E+03  0.00000000000E+00 0. -1.
          1    1    1    2  502    0  0.65809723103E+02 -0.20246276458E+02  0.42579935228E+03  0.43133040673E+03  0.00000000000E+00 0. -1.
         22    1    3    3    0    0 -0.11630122553E+03  0.58445864513E+02  0.64876710372E+02  0.14543342700E+03  0.00000000000E+00 0. -1.
         22    1    3    3    0    0 -0.13557253784E+02  0.18065986257E+02  0.12603648307E+03  0.12804442219E+03  0.00000000000E+00 0. -1.
</event>
<event>
 7    1  0.5562528E-006  0.6417129E+02  0.7818608E-02  0.1453499E+00
          2   -1    0    0  502    0  0.00000000000E+00  0.00000000000E+00  0.11824807376E+04  0.11824807376E+04  0.00000000000E+00 0. -1.
          1   -1    0    0  501    0 -0.00000000000E+00 -0.00000000000E+00 -0.14344630206E+04  0.14344630206E+04  0.00000000000E+00 0. -1.
         25    2    1    2    0    0  0.46778631202E+01 -0.43729763844E+02 -0.32006064255E+02  0.13632179575E+03  0.12500027680E+03 0.  0.
          2    1    1    2  501    0 -0.40814944581E+02  0.50040568645E+02 -0.13492290413E+04  0.13507734540E+04  0.00000000000E+00 0. -1.
          1    1    1    2  502    0  0.36137081460E+02 -0.63108048008E+01  0.11292528225E+04  0.11298485084E+04  0.00000000000E+00 0. -1.
         22    1    3    3    0    0  0.44373451568E+02  0.12871338566E+02 -0.46646795138E+02  0.65655144941E+02  0.00000000000E+00 0. -1.
         22    1    3    3    0    0 -0.39695588447E+02 -0.56601102411E+02  0.14640730883E+02  0.70666650813E+02  0.00000000000E+00 0. -1.
</event>
<event>
 7    1  0.5562528E-006  0.6048920E+03  0.7818608E-02  0.1169500E+00
          2   -1    0    0  502    0  0.00000000000E+00  0.00000000000E+00  0.11160028231E+04  0.11160028231E+04  0.00000000000E+00 0. -1.
          1   -1    0    0  501    0 -0.00000000000E+00 -0.00000000000E+00 -0.21449267723E+04  0.21449267723E+04  0.00000000000E+00 0. -1.
         25    2    1    2    0    0  0.21184143983E+03  0.57622219798E+03  0.67258610255E+02  0.63012482461E+03  0.12499902746E+03 0.  0.
          2    1    1    2  501    0  0.42498930337E+02 -0.30877126631E+02 -0.17450638679E+04  0.17458543636E+04  0.00000000000E+00 0. -1.
          1    1    1    2  502    0 -0.25434037017E+03 -0.54534507135E+03  0.64888130843E+03  0.88495040718E+03  0.00000000000E+00 0. -1.
         22    1    3    3    0    0  0.21650286440E+03  0.51399970355E+03  0.87433510115E+02  0.56454743311E+03  0.00000000000E+00 0.  1.
         22    1    3    3    0    0 -0.46614245623E+01  0.62222494430E+02 -0.20174899860E+02  0.65577391504E+02  0.00000000000E+00 0.  1.
</event>
<event>
 7    1  0.5562528E-006  0.2025431E+02  0.7818608E-02  0.1772566E+00
          2   -1    0    0  502    0  0.00000000000E+00  0.00000000000E+00  0.46694829049E+03  0.46694829049E+03  0.00000000000E+00 0. -1.
          1   -1    0    0  501    0 -0.00000000000E+00 -0.00000000000E+00 -0.58148975119E+02  0.58148975119E+02  0.00000000000E+00 0. -1.
         25    2    1    2    0    0 -0.27983666927E+00 -0.70552665272E+01  0.43399457847E+03  0.45169265836E+03  0.12500043355E+03 0.  0.
          2    1    1    2  501    0 -0.50284897530E+01 -0.19620172763E+02 -0.38214837863E+02  0.43250557469E+02  0.00000000000E+00 0. -1.
          1    1    1    2  502    0  0.53083264222E+01  0.26675439291E+02  0.13019574766E+02  0.30154049775E+02  0.00000000000E+00 0. -1.
         22    1    3    3    0    0  0.12319246714E+02 -0.99685992263E+01  0.43789814201E+03  0.43818480073E+03  0.00000000000E+00 0.  1.
         22    1    3    3    0    0 -0.12599083384E+02  0.29133326991E+01 -0.39035635481E+01  0.13507857635E+02  0.00000000000E+00 0.  1.
</event>
<event>
 7    1  0.5562528E-006  0.2031820E+03  0.7818608E-02  0.1353852E+00
          2   -1    0    0  502    0  0.00000000000E+00  0.00000000000E+00  0.54784050767E+03  0.54784050767E+03  0.00000000000E+00 0. -1.
          1   -1    0    0  501    0 -0.00000000000E+00 -0.00000000000E+00 -0.67045363733E+03  0.67045363733E+03  0.00000000000E+00 0. -1.
         25    2    1    2    0    0 -0.17365432811E+03  0.51591730673E+02  0.24844004509E+02  0.22149493156E+03  0.12500099121E+03 0.  0.
          2    1    1    2  501    0  0.19743132171E+03 -0.60585101965E+02 -0.55308088336E+03  0.59037966167E+03  0.00000000000E+00 0. -1.
          1    1    1    2  502    0 -0.23776993605E+02  0.89933712921E+01  0.40562374919E+03  0.40641955177E+03  0.00000000000E+00 0. -1.
         22    1    3    3    0    0 -0.16320611671E+03  0.27967255171E+02 -0.22948901899E+02  0.16716774807E+03  0.00000000000E+00 0.  1.
         22    1    3    3    0    0 -0.10448211394E+02  0.23624475501E+02  0.47792906408E+02  0.54327183499E+02  0.00000000000E+00 0.  1.
</event>
<event>
 7    1  0.5562528E-006  0.1510071E+03  0.7818608E-02  0.1409482E+00
          2   -1    0    0  502    0  0.00000000000E+00  0.00000000000E+00  0.30612605502E+03  0.30612605502E+03  0.00000000000E+00 0. -1.
          1   -1    0    0  501    0 -0.00000000000E+00 -0.00000000000E+00 -0.11008148721E+04  0.11008148721E+04  0.00000000000E+00 0. -1.
         25    2    1    2    0    0 -0.99224241449E+02  0.10536751126E+03 -0.32147079205E+03  0.37405513796E+03  0.12500405421E+03 0.  0.
          2    1    1    2  501    0  0.11903624134E+03 -0.96393183132E+02 -0.74482395077E+03  0.76041040902E+03  0.00000000000E+00 0. -1.
          1    1    1    2  502    0 -0.19811999891E+02 -0.89743281273E+01  0.27160592572E+03  0.27247538016E+03  0.00000000000E+00 0. -1.
         22    1    3    3    0    0 -0.26110825443E+02  0.95792741418E+02 -0.25911610351E+03  0.27748726027E+03  0.00000000000E+00 0.  1.
         22    1    3    3    0    0 -0.73113416006E+02  0.95747698404E+01 -0.62354688536E+02  0.96567877682E+02  0.00000000000E+00 0.  1.
</event>
<event>
 7    1  0.5562528E-006  0.7719771E+02  0.7818608E-02  0.1509914E+00
          2   -1    0    0  502    0  0.00000000000E+00  0.00000000000E+00  0.99272249772E+03  0.99272249772E+03  0.00000000000E+00 0. -1.
          1   -1    0    0  501    0 -0.00000000000E+00 -0.00000000000E+00 -0.25125920037E+03  0.25125920037E+03  0.00000000000E+00 0. -1.
         25    2    1    2    0    0 -0.21631043129E+02 -0.65630821625E+02  0.48727434394E+03  0.50777656747E+03  0.12500179772E+03 0.  0.
          2    1    1    2  501    0  0.42104437196E+02  0.64858702601E+02 -0.23458543150E+03  0.24700153766E+03  0.00000000000E+00 0. -1.
          1    1    1    2  502    0 -0.20473394067E+02  0.77211902431E+00  0.48877438490E+03  0.48920359297E+03  0.00000000000E+00 0. -1.
         22    1    3    3    0    0 -0.56027916034E+02 -0.75685966496E+02  0.23821221389E+03  0.25614947149E+03  0.00000000000E+00 0. -1.
         22    1    3    3    0    0  0.34396872905E+02  0.10055144870E+02  0.24906213005E+03  0.25162709598E+03  0.00000000000E+00 0. -1.
</event>
<event>
 7    1  0.5562528E-006  0.8310401E+02  0.7818608E-02  0.1427258E+00
          2   -1    0    0  502    0  0.00000000000E+00  0.00000000000E+00  0.25598395452E+04  0.25598395452E+04  0.00000000000E+00 0. -1.
          1   -1    0    0  501    0 -0.00000000000E+00 -0.00000000000E+00 -0.38231268888E+03  0.38231268888E+03  0.00000000000E+00 0. -1.
         25    2    1    2    0    0 -0.33450208792E+02 -0.44252431622E+02  0.29069231458E+03  0.32123178643E+03  0.12494256553E+03 0.  0.
          2    1    1    2  501    0 -0.33676852973E+02 -0.73067046314E+01 -0.36543739637E+03  0.36705859072E+03  0.00000000000E+00 0. -1.
          1    1    1    2  502    0  0.67127061765E+02  0.51559136253E+02  0.22522719381E+04  0.22538618569E+04  0.00000000000E+00 0. -1.
         22    1    3    3    0    0  0.87777473735E+01 -0.36375911313E+00  0.24483680107E+03  0.24499436795E+03  0.00000000000E+00 0. -1.
         22    1    3    3    0    0 -0.42227956165E+02 -0.43888672509E+02  0.45855513516E+02  0.76237418478E+02  0.00000000000E+00 0. -1.
</event>
<event>
 7    1  0.5562528E-006  0.7069061E+02  0.7818608E-02  0.1366433E+00
          2   -1    0    0  502    0  0.00000000000E+00  0.00000000000E+00  0.38382070352E+03  0.38382070352E+03  0.00000000000E+00 0. -1.
          1   -1    0    0  501    0 -0.00000000000E+00 -0.00000000000E+00 -0.70681951916E+03  0.70681951916E+03  0.00000000000E+00 0. -1.
         25    2    1    2    0    0  0.11231277292E+03  0.62213128315E+02 -0.50054868679E+02  0.18605266191E+03  0.12500188331E+03 0.  0.
          2    1    1    2  501    0 -0.67708254675E+02 -0.13924620722E+02 -0.58328190837E+03  0.58736367563E+03  0.00000000000E+00 0. -1.
          1    1    1    2  502    0 -0.44604518240E+02 -0.48288507593E+02  0.31033796141E+03  0.31722388514E+03  0.00000000000E+00 0. -1.
         22    1    3    3    0    0  0.13250435447E+03  0.76363020906E+02 -0.51452713254E+02  0.16135704700E+03  0.00000000000E+00 0. -1.
         22    1    3    3    0    0 -0.20191581558E+02 -0.14149892591E+02  0.13978445750E+01  0.24695614907E+02  0.00000000000E+00 0. -1.
</event>
<event>
 7    1  0.5562528E-006  0.4450410E+02  0.7818608E-02  0.1485445E+00
          2   -1    0    0  502    0  0.00000000000E+00  0.00000000000E+00  0.36665986213E+03  0.36665986213E+03  0.00000000000E+00 0. -1.
          1   -1    0    0  501    0 -0.00000000000E+00 -0.00000000000E+00 -0.83576185291E+02  0.83576185291E+02  0.00000000000E+00 0. -1.
         25    2    1    2    0    0 -0.13367778024E+02  0.62694710320E+01  0.16894184674E+03  0.21064865326E+03  0.12495400667E+03 0.  0.
          2    1    1    2  501    0 -0.22514484720E+01  0.42008225875E+02 -0.51413156717E+02  0.66430962246E+02  0.00000000000E+00 0. -1.
          1    1    1    2  502    0  0.15619226496E+02 -0.48277696907E+02  0.16555498681E+03  0.17315643191E+03  0.00000000000E+00 0. -1.
         22    1    3    3    0    0 -0.21326328954E+02 -0.53068619396E+02  0.12140364523E+03  0.13420110188E+03  0.00000000000E+00 0. -1.
         22    1    3    3    0    0  0.79585509300E+01  0.59338090428E+02  0.47538201517E+02  0.76447551380E+02  0.00000000000E+00 0. -1.
</event>
<event>
 7    1  0.5562528E-006  0.9975573E+02  0.7818608E-02  0.1329407E+00
          2   -1    0    0  502    0  0.00000000000E+00  0.00000000000E+00  0.12169721142E+04  0.12169721142E+04  0.00000000000E+00 0. -1.
          1   -1    0    0  501    0 -0.00000000000E+00 -0.00000000000E+00 -0.12193061416E+03  0.12193061416E+03  0.00000000000E+00 0. -1.
         25    2    1    2    0    0 -0.76292905745E+00  0.77849348329E+02  0.54689707989E+03  0.56637473657E+03  0.12499129224E+03 0.  0.
          2    1    1    2  501    0 -0.63176856790E+02 -0.79285271964E+02 -0.87352763179E+02  0.13382068158E+03  0.00000000000E+00 0. -1.
          1    1    1    2  502    0  0.63939785848E+02  0.14359236353E+01  0.63549718335E+03  0.63870731022E+03  0.00000000000E+00 0. -1.
         22    1    3    3    0    0  0.32542408690E+02  0.10089350091E+03  0.36905247731E+03  0.38397687157E+03  0.00000000000E+00 0. -1.
         22    1    3    3    0    0 -0.33305337747E+02 -0.23044152580E+02  0.17784460258E+03  0.18239786500E+03  0.00000000000E+00 0. -1.
</event>
<event>
 7    1  0.5562528E-006  0.8242936E+02  0.7818608E-02  0.1368107E+00
          2   -1    0    0  502    0  0.00000000000E+00  0.00000000000E+00  0.70229166263E+02  0.70229166263E+02  0.00000000000E+00 0. -1.
          1   -1    0    0  501    0 -0.00000000000E+00 -0.00000000000E+00 -0.15047972804E+04  0.15047972804E+04  0.00000000000E+00 0. -1.
         25    2    1    2    0    0  0.65806902109E+02  0.10546158206E+03 -0.23307772527E+03  0.29223703347E+03  0.12499825622E+03 0.  0.
          2    1    1    2  501    0 -0.63609024029E+02 -0.49908440676E+02 -0.12211466931E+04  0.12238203325E+04  0.00000000000E+00 0. -1.
          1    1    1    2  502    0 -0.21978780793E+01 -0.55553141383E+02  0.19656304143E+02  0.58969080696E+02  0.00000000000E+00 0. -1.
         22    1    3    3    0    0  0.75557787858E+02  0.10839877198E+03 -0.11935319651E+03  0.17805745867E+03  0.00000000000E+00 0. -1.
         22    1    3    3    0    0 -0.97508857490E+01 -0.29371899246E+01 -0.11372452876E+03  0.11417957479E+03  0.00000000000E+00 0. -1.
</event>
<event>
 7    1  0.5562528E-006  0.1271863E+03  0.7818608E-02  0.1358284E+00
          2   -1    0    0  502    0  0.00000000000E+00  0.00000000000E+00  0.62888585108E+03  0.62888585108E+03  0.00000000000E+00 0. -1.
          1   -1    0    0  501    0 -0.00000000000E+00 -0.00000000000E+00 -0.69677595469E+03  0.69677595469E+03  0.00000000000E+00 0. -1.
         25    2    1    2    0    0  0.92275073802E+02  0.52222151208E+00  0.99078841497E+02  0.18427874037E+03  0.12500830117E+03 0.  0.
          2    1    1    2  501    0 -0.12780517783E+03  0.15840933898E+02 -0.64703460320E+03  0.65972636480E+03  0.00000000000E+00 0. -1.
          1    1    1    2  502    0  0.35530104030E+02 -0.16363155410E+02  0.48006565810E+03  0.48165670060E+03  0.00000000000E+00 0. -1.
         22    1    3    3    0    0 -0.17314855432E+02 -0.13320471467E+02 -0.14202469109E+02  0.26056655724E+02  0.00000000000E+00 0. -1.
         22    1    3    3    0    0  0.10958992923E+03  0.13842692979E+02  0.11328131061E+03  0.15822208465E+03  0.00000000000E+00 0. -1.
</event>
<event>
 7    1  0.5562528E-006  0.4234307E+02  0.7818608E-02  0.1582302E+00
          2   -1    0    0  502    0  0.00000000000E+00  0.00000000000E+00  0.29306951076E+03  0.29306951076E+03  0.00000000000E+00 0. -1.
          1   -1    0    0  501    0 -0.00000000000E+00 -0.00000000000E+00 -0.63360826768E+03  0.63360826768E+03  0.00000000000E+00 0. -1.
         25    2    1    2    0    0 -0.10396435158E+02  0.49471467741E+02  0.96647948930E+02  0.16589458405E+03  0.12499869999E+03 0.  0.
          2    1    1    2  501    0 -0.16231044165E+02 -0.16857087949E+02 -0.59601235838E+03  0.59647157481E+03  0.00000000000E+00 0. -1.
          1    1    1    2  502    0  0.26627479323E+02 -0.32614379792E+02  0.15882565254E+03  0.16431161958E+03  0.00000000000E+00 0. -1.
         22    1    3    3    0    0 -0.21289673760E+02  0.65461850514E+02  0.11829209171E+03  0.13686315444E+03  0.00000000000E+00 0.  1.
         22    1    3    3    0    0  0.10893238602E+02 -0.15990382772E+02 -0.21644142783E+02  0.29031429611E+02  0.00000000000E+00 0.  1.
</event>
<event>
 7    1  0.5562528E-006  0.9153578E+02  0.7818608E-02  0.1332819E+00
          2   -1    0    0  502    0  0.00000000000E+00  0.00000000000E+00  0.68943789776E+03  0.68943789776E+03  0.00000000000E+00 0. -1.
          1   -1    0    0  501    0 -0.00000000000E+00 -0.00000000000E+00 -0.84243233942E+03  0.84243233942E+03  0.00000000000E+00 0. -1.
         25    2    1    2    0    0  0.54250516454E+02  0.11686081272E+03  0.17206470552E+02  0.18033352201E+03  0.12499819378E+03 0.  0.
          2    1    1    2  501    0 -0.74429047764E+02 -0.52298403909E+02 -0.75619742824E+03  0.76164910337E+03  0.00000000000E+00 0. -1.
          1    1    1    2  502    0  0.20178531310E+02 -0.64562408811E+02  0.58599651602E+03  0.58988761179E+03  0.00000000000E+00 0. -1.
         22    1    3    3    0    0  0.56460264967E+02  0.10244039125E+03  0.62590315412E+02  0.13266251491E+03  0.00000000000E+00 0. -1.
         22    1    3    3    0    0 -0.22097485129E+01  0.14420421475E+02 -0.45383844860E+02  0.47671007104E+02  0.00000000000E+00 0. -1.
</event>
<event>
 7    1  0.5562528E-006  0.7583152E+02  0.7818608E-02  0.1345526E+00
          2   -1    0    0  502    0  0.00000000000E+00  0.00000000000E+00  0.23907127662E+04  0.23907127662E+04  0.00000000000E+00 0. -1.
          1   -1    0    0  501    0 -0.00000000000E+00 -0.00000000000E+00 -0.10539230420E+03  0.10539230420E+03  0.00000000000E+00 0. -1.
         25    2    1    2    0    0 -0.85078403408E+02 -0.38470843982E+02  0.19234706909E+04  0.19297886915E+04  0.12500621833E+03 0.  0.
          2    1    1    2  501    0  0.18273077147E+02  0.70809388442E+02 -0.85696353993E+02  0.11265762259E+03  0.00000000000E+00 0. -1.
          1    1    1    2  502    0  0.66805326261E+02 -0.32338544460E+02  0.44754612512E+03  0.45365875632E+03  0.00000000000E+00 0. -1.
         22    1    3    3    0    0  0.39832435530E+01 -0.53373082195E+02  0.11163745536E+04  0.11176567881E+04  0.00000000000E+00 0.  1.
         22    1    3    3    0    0 -0.89061646961E+02  0.14902238213E+02  0.80709613730E+03  0.81213190340E+03  0.00000000000E+00 0.  1.
</event>
<event>
 7    1  0.5562528E-006  0.1211091E+03  0.7818608E-02  0.1373783E+00
          2   -1    0    0  502    0  0.00000000000E+00  0.00000000000E+00  0.53770914041E+02  0.53770914041E+02  0.00000000000E+00 0. -1.
          1   -1    0    0  501    0 -0.00000000000E+00 -0.00000000000E+00 -0.24478865879E+04  0.24478865879E+04  0.00000000000E+00 0. -1.
         25    2    1    2    0    0 -0.87850620409E+02 -0.36114413179E+02 -0.31258649390E+03  0.34980242962E+03  0.12501776375E+03 0.  0.
          2    1    1    2  501    0 -0.30847539317E+02 -0.18763279248E+02 -0.19943784698E+04  0.19947052695E+04  0.00000000000E+00 0. -1.
          1    1    1    2  502    0  0.11869815973E+03  0.54877692428E+02 -0.87150710157E+02  0.15714980283E+03  0.00000000000E+00 0. -1.
         22    1    3    3    0    0 -0.45362451449E+02  0.15061476785E+01 -0.28142194549E+03  0.28505847099E+03  0.00000000000E+00 0. -1.
         22    1    3    3    0    0 -0.42488168960E+02 -0.37620560858E+02 -0.31164548410E+02  0.64743958625E+02  0.00000000000E+00 0. -1.
</event>
<event>
 7    1  0.5562528E-006  0.1204997E+03  0.7818608E-02  0.1300173E+00
          2   -1    0    0  502    0  0.00000000000E+00  0.00000000000E+00  0.68000100495E+03  0.68000100495E+03  0.00000000000E+00 0. -1.
          1   -1    0    0  501    0 -0.00000000000E+00 -0.00000000000E+00 -0.14796316554E+03  0.14796316554E+03  0.00000000000E+00 0. -1.
         25    2    1    2    0    0 -0.36372033010E+02 -0.76590309027E+02  0.30567066120E+03  0.34094452201E+03  0.12497845313E+03 0.  0.
          2    1    1    2  501    0 -0.13311008780E+02  0.12432238947E+03 -0.95833550074E+02  0.15753510339E+03  0.00000000000E+00 0. -1.
          1    1    1    2  502    0  0.49683041790E+02 -0.47732080447E+02  0.32220072829E+03  0.32948454510E+03  0.00000000000E+00 0. -1.
         22    1    3    3    0    0 -0.63212954630E+02 -0.61264105161E+02  0.10110665172E+03  0.13405865596E+03  0.00000000000E+00 0. -1.
         22    1    3    3    0    0  0.26840921619E+02 -0.15326203866E+02  0.20456400948E+03  0.20688586605E+03  0.00000000000E+00 0. -1.
</event>
<event>
 7    1  0.5562528E-006  0.5534547E+02  0.7818608E-02  0.1449553E+00
          2   -1    0    0  502    0  0.00000000000E+00  0.00000000000E+00  0.20169063055E+03  0.20169063055E+03  0.00000000000E+00 0. -1.
          1   -1    0    0  501    0 -0.00000000000E+00 -0.00000000000E+00 -0.57065447438E+03  0.57065447438E+03  0.00000000000E+00 0. -1.
         25    2    1    2    0    0 -0.92036293404E+02  0.49873614376E+01 -0.16650492281E+03  0.22769354296E+03  0.12499962843E+03 0.  0.
          2    1    1    2  501    0  0.51813731621E+02  0.12314276043E+02 -0.36880953518E+03  0.37263491170E+03  0.00000000000E+00 0. -1.
          1    1    1    2  502    0  0.40222561783E+02 -0.17301637480E+02  0.16635061417E+03  0.17201665027E+03  0.00000000000E+00 0. -1.
         22    1    3    3    0    0  0.23304647231E+02  0.14109171885E+02 -0.30216685842E+01  0.27409957951E+02  0.00000000000E+00 0.  1.
         22    1    3    3    0    0 -0.11534094063E+03 -0.91218104476E+01 -0.16348325423E+03  0.20028358501E+03  0.00000000000E+00 0.  1.
</event>
<event>
 7    1  0.5562528E-006  0.2503365E+03  0.7818608E-02  0.1286629E+00
          2   -1    0    0  502    0  0.00000000000E+00  0.00000000000E+00  0.13430124278E+04  0.13430124278E+04  0.00000000000E+00 0. -1.
          1   -1    0    0  501    0 -0.00000000000E+00 -0.00000000000E+00 -0.58858556219E+03  0.58858556219E+03  0.00000000000E+00 0. -1.
         25    2    1    2    0    0  0.47709850907E+02 -0.24286623219E+03  0.36080790639E+03  0.45504724811E+03  0.12500166433E+03 0.  0.
          2    1    1    2  501    0  0.37217321930E+02  0.55073712679E+01 -0.52378797102E+03  0.52513740942E+03  0.00000000000E+00 0. -1.
          1    1    1    2  502    0 -0.84927172837E+02  0.23735886092E+03  0.91740693022E+03  0.95141333245E+03  0.00000000000E+00 0. -1.
         22    1    3    3    0    0  0.47716451894E+02 -0.25459039745E+03  0.35971857409E+03  0.44327258295E+03  0.00000000000E+00 0. -1.
         22    1    3    3    0    0 -0.66009873391E-02  0.11724165261E+02  0.10893323055E+01  0.11774665155E+02  0.00000000000E+00 0. -1.
</event>
<event>
 7    1  0.5562528E-006  0.5908579E+02  0.7818608E-02  0.1510389E+00
          2   -1    0    0  502    0  0.00000000000E+00  0.00000000000E+00  0.10963990958E+04  0.10963990958E+04  0.00000000000E+00 0. -1.
          1   -1    0    0  501    0 -0.00000000000E+00 -0.00000000000E+00 -0.52850585281E+03  0.52850585281E+03  0.00000000000E+00 0. -1.
         25    2    1    2    0    0  0.29665736457E+02 -0.28677211031E+02  0.54767219258E+03  0.56326968096E+03  0.12500185843E+03 0.  0.
          2    1    1    2  501    0 -0.55253314145E+02  0.21113093754E+02 -0.51869620227E+03  0.52205789114E+03  0.00000000000E+00 0. -1.
          1    1    1    2  502    0  0.25587577688E+02  0.75641172771E+01  0.53891725268E+03  0.53957737651E+03  0.00000000000E+00 0. -1.
         22    1    3    3    0    0  0.58205884391E+02 -0.62241980334E+02  0.40834980392E+03  0.41714691831E+03  0.00000000000E+00 0. -1.
         22    1    3    3    0    0 -0.28540147934E+02  0.33564769303E+02  0.13932238866E+03  0.14612276265E+03  0.00000000000E+00 0. -1.
</event>
<event>
 7    1  0.5562528E-006  0.1516094E+03  0.7818608E-02  0.1220879E+00
          2   -1    0    0  502    0  0.00000000000E+00  0.00000000000E+00  0.17424092694E+04  0.17424092694E+04  0.00000000000E+00 0. -1.
          1   -1    0    0  501    0 -0.00000000000E+00 -0.00000000000E+00 -0.29943365847E+04  0.29943365847E+04  0.00000000000E+00 0. -1.
         25    2    1    2    0    0  0.23750376849E+03 -0.10029784683E+03  0.53727160361E+03  0.60889542686E+03  0.12500066669E+03 0.  0.
          2    1    1    2  501    0 -0.15008550999E+03  0.18995591602E+02 -0.29535366212E+04  0.29574085050E+04  0.00000000000E+00 0. -1.
          1    1    1    2  502    0 -0.87418258503E+02  0.81302255231E+02  0.11643377022E+04  0.11704419222E+04  0.00000000000E+00 0. -1.
         22    1    3    3    0    0  0.16113681143E+02 -0.64671259839E+01 -0.29180011503E+01  0.17606509284E+02  0.00000000000E+00 0. -1.
         22    1    3    3    0    0  0.22139008735E+03 -0.93830720849E+02  0.54018960476E+03  0.59128891757E+03  0.00000000000E+00 0. -1.
</event>
<event>
 7    1  0.5562528E-006  0.2824950E+03  0.7818608E-02  0.1323826E+00
          2   -1    0    0  502    0  0.00000000000E+00  0.00000000000E+00  0.75861504148E+03  0.75861504148E+03  0.00000000000E+00 0. -1.
          1   -1    0    0  501    0 -0.00000000000E+00 -0.00000000000E+00 -0.70146189394E+03  0.70146189394E+03  0.00000000000E+00 0. -1.
         25    2    1    2    0    0 -0.65514975070E+02 -0.26646623348E+03 -0.14484696407E+03  0.33452994933E+03  0.12503270954E+03 0.  0.
          2    1    1    2  501    0 -0.23561630557E+02 -0.27955243230E+01 -0.43113717452E+03  0.43178956523E+03  0.00000000000E+00 0. -1.
          1    1    1    2  502    0  0.89076605627E+02  0.26926175780E+03  0.63313728614E+03  0.69375742085E+03  0.00000000000E+00 0. -1.
         22    1    3    3    0    0 -0.39748704302E+02 -0.13462092781E+03 -0.47724453608E+01  0.14044760565E+03  0.00000000000E+00 0. -1.
         22    1    3    3    0    0 -0.25766270767E+02 -0.13184530567E+03 -0.14007451871E+03  0.19408234368E+03  0.00000000000E+00 0. -1.
</event>
<event>
 7    1  0.5562528E-006  0.1613146E+03  0.7818608E-02  0.1282457E+00
          2   -1    0    0  502    0  0.00000000000E+00  0.00000000000E+00  0.19801416886E+04  0.19801416886E+04  0.00000000000E+00 0. -1.
          1   -1    0    0  501    0 -0.00000000000E+00 -0.00000000000E+00 -0.32434554774E+03  0.32434554774E+03  0.00000000000E+00 0. -1.
         25    2    1    2    0    0  0.97228493427E+01 -0.12837208150E+03  0.56455269460E+03  0.59238321197E+03  0.12499679887E+03 0.  0.
          2    1    1    2  501    0 -0.41623926274E+02 -0.44223976422E+02 -0.30189975199E+03  0.30794767669E+03  0.00000000000E+00 0. -1.
          1    1    1    2  502    0  0.31901076932E+02  0.17259605793E+03  0.13931431983E+04  0.14041563477E+04  0.00000000000E+00 0. -1.
         22    1    3    3    0    0  0.40973296292E+02  0.56749660506E+01  0.11384603341E+03  0.12112776548E+03  0.00000000000E+00 0.  1.
         22    1    3    3    0    0 -0.31250446949E+02 -0.13404704755E+03  0.45070666120E+03  0.47125544648E+03  0.00000000000E+00 0.  1.
</event>
<event>
 7    1  0.5562528E-006  0.1998024E+03  0.7818608E-02  0.1320236E+00
          2   -1    0    0  502    0  0.00000000000E+00  0.00000000000E+00  0.18537279897E+04  0.18537279897E+04  0.00000000000E+00 0. -1.
          1   -1    0    0  501    0 -0.00000000000E+00 -0.00000000000E+00 -0.29188730976E+03  0.29188730976E+03  0.00000000000E+00 0. -1.
         25    2    1    2    0    0  0.18515018742E+03 -0.94596120836E+02 -0.97517464419E+02  0.26146685926E+03  0.12500497849E+03 0.  0.
          2    1    1    2  501    0  0.51452146064E+01  0.34252553719E+02 -0.10395344415E+03  0.10957202755E+03  0.00000000000E+00 0. -1.
          1    1    1    2  502    0 -0.19029540203E+03  0.60343567117E+02  0.17633115885E+04  0.17745764126E+04  0.00000000000E+00 0. -1.
         22    1    3    3    0    0  0.84632655786E+02 -0.11020152447E+03 -0.72442054423E+02  0.15670007553E+03  0.00000000000E+00 0.  1.
         22    1    3    3    0    0  0.10051753163E+03  0.15605403634E+02 -0.25075409996E+02  0.10476678374E+03  0.00000000000E+00 0.  1.
</event>
<event>
 7    1  0.5562528E-006  0.1402127E+03  0.7818608E-02  0.1310047E+00
          2   -1    0    0  502    0  0.00000000000E+00  0.00000000000E+00  0.10853267064E+04  0.10853267064E+04  0.00000000000E+00 0. -1.
          1   -1    0    0  501    0 -0.00000000000E+00 -0.00000000000E+00 -0.12089984153E+04  0.12089984153E+04  0.00000000000E+00 0. -1.
         25    2    1    2    0    0  0.23828932668E+01  0.17956905210E+03 -0.19418709023E+03  0.29254778708E+03  0.12499943624E+03 0.  0.
          2    1    1    2  501    0 -0.30363744088E+02 -0.13326902466E+03 -0.96008108856E+03  0.96976197414E+03  0.00000000000E+00 0. -1.
          1    1    1    2  502    0  0.27980850821E+02 -0.46300027445E+02  0.10305964699E+04  0.10320153605E+04  0.00000000000E+00 0. -1.
         22    1    3    3    0    0  0.39065236355E+02  0.18062651876E+02 -0.81689733293E+02  0.92333984045E+02  0.00000000000E+00 0. -1.
         22    1    3    3    0    0 -0.36682343088E+02  0.16150640022E+03 -0.11249735694E+03  0.20021380304E+03  0.00000000000E+00 0. -1.
</event>
<event>
 7    1  0.5562528E-006  0.1178623E+03  0.7818608E-02  0.1324289E+00
          2   -1    0    0  502    0  0.00000000000E+00  0.00000000000E+00  0.13031450020E+04  0.13031450020E+04  0.00000000000E+00 0. -1.
          1   -1    0    0  501    0 -0.00000000000E+00 -0.00000000000E+00 -0.29352959640E+03  0.29352959640E+03  0.00000000000E+00 0. -1.
         25    2    1    2    0    0  0.10855209267E+03 -0.47854028711E+02  0.35901550975E+03  0.39823456926E+03  0.12500028411E+03 0.  0.
          2    1    1    2  501    0 -0.11801078906E+03 -0.79867339468E+01 -0.26023073372E+03  0.28585025630E+03  0.00000000000E+00 0. -1.
          1    1    1    2  502    0  0.94586963925E+01  0.55840762657E+02  0.91083062958E+03  0.91258977284E+03  0.00000000000E+00 0. -1.
         22    1    3    3    0    0  0.21254348060E+02 -0.76498348634E+02  0.18857734363E+03  0.20460977295E+03  0.00000000000E+00 0. -1.
         22    1    3    3    0    0  0.87297744605E+02  0.28644319923E+02  0.17043816612E+03  0.19362479631E+03  0.00000000000E+00 0. -1.
</event>
<event>
 7    1  0.5562528E-006  0.3942874E+03  0.7818608E-02  0.1120680E+00
          2   -1    0    0  502    0  0.00000000000E+00  0.00000000000E+00  0.35768604124E+04  0.35768604124E+04  0.00000000000E+00 0. -1.
          1   -1    0    0  501    0 -0.00000000000E+00 -0.00000000000E+00 -0.24434001732E+04  0.24434001732E+04  0.00000000000E+00 0. -1.
         25    2    1    2    0    0 -0.25860871825E+03 -0.31528752186E+03 -0.12446794886E+03  0.44429816390E+03  0.12499559016E+03 0.  0.
          2    1    1    2  501    0  0.12683856795E+03  0.37452988859E+03 -0.21393633839E+04  0.21756002271E+04  0.00000000000E+00 0. -1.
          1    1    1    2  502    0  0.13177015031E+03 -0.59242366731E+02  0.33972915719E+04  0.34003621947E+04  0.00000000000E+00 0. -1.
         22    1    3    3    0    0 -0.24716704496E+03 -0.27256358078E+03 -0.14506536209E+03  0.39550779128E+03  0.00000000000E+00 0.  1.
         22    1    3    3    0    0 -0.11441673291E+02 -0.42723941077E+02  0.20597413234E+02  0.48790372624E+02  0.00000000000E+00 0.  1.
</event>
<event>
 7    1  0.1027330E-005  0.9677202E+02  0.7818608E-02  0.1322594E+00
          2   -1    0    0  502    0  0.00000000000E+00  0.00000000000E+00  0.24721723525E+04  0.24721723525E+04  0.00000000000E+00 0. -1.
          1   -1    0    0  501    0 -0.00000000000E+00 -0.00000000000E+00 -0.19284608882E+04  0.19284608882E+04  0.00000000000E+00 0. -1.
         25    2    1    2    0    0 -0.13976236602E+02  0.10026535393E+03 -0.67759925553E+03  0.69642958694E+03  0.12499976829E+03 0.  0.
          2    1    1    2  501    0  0.67269102577E+02 -0.19455368823E+02 -0.12395066331E+04  0.12414831199E+04  0.00000000000E+00 0. -1.
          1    1    1    2  502    0 -0.53292865975E+02 -0.80809985105E+02  0.24608173529E+04  0.24627205338E+04  0.00000000000E+00 0. -1.
         22    1    3    3    0    0  0.21364054440E+02 -0.19698729680E+02 -0.65075789980E+02  0.71269356771E+02  0.00000000000E+00 0. -1.
         22    1    3    3    0    0 -0.35340291042E+02  0.11996408361E+03 -0.61252346555E+03  0.62516023016E+03  0.00000000000E+00 0. -1.
</event>
<event>
 7    1  0.5562528E-006  0.1067565E+03  0.7818608E-02  0.1453155E+00
          2   -1    0    0  502    0  0.00000000000E+00  0.00000000000E+00  0.64772473593E+03  0.64772473593E+03  0.00000000000E+00 0. -1.
          1   -1    0    0  501    0 -0.00000000000E+00 -0.00000000000E+00 -0.11012222935E+03  0.11012222935E+03  0.00000000000E+00 0. -1.
         25    2    1    2    0    0  0.42642331018E+02 -0.87605616217E+02  0.17389819185E+02  0.15943284711E+03  0.12499325798E+03 0.  0.
          2    1    1    2  501    0 -0.61962053475E+02  0.98350208278E+02  0.48125902799E+02  0.12581002368E+03  0.00000000000E+00 0. -1.
          1    1    1    2  502    0  0.19319722457E+02 -0.10744592061E+02  0.47208678459E+03  0.47260409448E+03  0.00000000000E+00 0. -1.
         22    1    3    3    0    0  0.83183488490E+02 -0.32603245231E+02  0.17810628074E+02  0.91102595075E+02  0.00000000000E+00 0. -1.
         22    1    3    3    0    0 -0.40541157472E+02 -0.55002370986E+02 -0.42080888909E+00  0.68330252037E+02  0.00000000000E+00 0. -1.
</event>
<event>
 7    1  0.5562528E-006  0.9591022E+02  0.7818608E-02  0.1334288E+00
          2   -1    0    0  502    0  0.00000000000E+00  0.00000000000E+00  0.42131101341E+03  0.42131101341E+03  0.00000000000E+00 0. -1.
          1   -1    0    0  501    0 -0.00000000000E+00 -0.00000000000E+00 -0.28785047885E+03  0.28785047885E+03  0.00000000000E+00 0. -1.
         25    2    1    2    0    0  0.67094155146E+02  0.25456047142E+01  0.13562981748E+03  0.19628688815E+03  0.12499995725E+03 0.  0.
          2    1    1    2  501    0 -0.73035344559E+02 -0.66000595064E+02 -0.24382999532E+03  0.26295114893E+03  0.00000000000E+00 0. -1.
          1    1    1    2  502    0  0.59411894128E+01  0.63454990350E+02  0.24166071240E+03  0.24992345518E+03  0.00000000000E+00 0. -1.
         22    1    3    3    0    0  0.15885933357E+02 -0.27516101300E+02  0.13311426748E+03  0.13685359665E+03  0.00000000000E+00 0. -1.
         22    1    3    3    0    0  0.51208221789E+02  0.30061706014E+02  0.25155500016E+01  0.59433291505E+02  0.00000000000E+00 0. -1.
</event>
<event>
 7    1  0.5562528E-006  0.6132817E+02  0.7818608E-02  0.1501355E+00
          2   -1    0    0  502    0  0.00000000000E+00  0.00000000000E+00  0.37272419786E+03  0.37272419786E+03  0.00000000000E+00 0. -1.
          1   -1    0    0  501    0 -0.00000000000E+00 -0.00000000000E+00 -0.37508827721E+03  0.37508827721E+03  0.00000000000E+00 0. -1.
         25    2    1    2    0    0 -0.15055046925E+02 -0.58369694401E+02  0.18536931089E+03  0.23156115471E+03  0.12500044515E+03 0.  0.
          2    1    1    2  501    0 -0.12223535778E+02  0.60190439794E+02 -0.34814775762E+03  0.35352392423E+03  0.00000000000E+00 0. -1.
          1    1    1    2  502    0  0.27278582703E+02 -0.18207453923E+01  0.16041436738E+03  0.16272739613E+03  0.00000000000E+00 0. -1.
         22    1    3    3    0    0 -0.18032898134E+02  0.33417872624E+02  0.96769976632E+02  0.10395368201E+03  0.00000000000E+00 0. -1.
         22    1    3    3    0    0  0.29778512091E+01 -0.91787567026E+02  0.88599334254E+02  0.12760747270E+03  0.00000000000E+00 0. -1.
</event>
<event>
 7    1  0.5562528E-006  0.6572850E+02  0.7818608E-02  0.1456708E+00
          2   -1    0    0  502    0  0.00000000000E+00  0.00000000000E+00  0.14311251578E+04  0.14311251578E+04  0.00000000000E+00 0. -1.
          1   -1    0    0  501    0 -0.00000000000E+00 -0.00000000000E+00 -0.12322359622E+02  0.12322359622E+02  0.00000000000E+00 0. -1.
         25    2    1    2    0    0 -0.20576994296E+02  0.48215820276E+02  0.77857724135E+03  0.79028831301E+03  0.12499967561E+03 0.  0.
          2    1    1    2  501    0 -0.63077126526E+01 -0.70601322098E+02  0.21260210719E+03  0.22410709472E+03  0.00000000000E+00 0. -1.
          1    1    1    2  502    0  0.26884706949E+02  0.22385501821E+02  0.42762344963E+03  0.42905210970E+03  0.00000000000E+00 0. -1.
         22    1    3    3    0    0 -0.14902247667E+02  0.40147420628E+02  0.72939975490E+02  0.84582104449E+02  0.00000000000E+00 0.  1.
         22    1    3    3    0    0 -0.56747466291E+01  0.80683996489E+01  0.70563726587E+03  0.70570620856E+03  0.00000000000E+00 0.  1.
</event>
<event>
 7    1  0.5562528E-006  0.4529307E+02  0.7818608E-02  0.1537883E+00
          2   -1    0    0  502    0  0.00000000000E+00  0.00000000000E+00  0.90235430316E+03  0.90235430316E+03  0.00000000000E+00 0. -1.
          1   -1    0    0  501    0 -0.00000000000E+00 -0.00000000000E+00 -0.10041974831E+04  0.10041974831E+04  0.00000000000E+00 0. -1.
         25    2    1    2    0    0  0.48597767724E+02 -0.10419875058E+02 -0.51505677726E+02  0.14404298518E+03  0.12500091967E+03 0.  0.
          2    1    1    2  501    0 -0.68928897597E+01  0.28160255365E+02 -0.90559118604E+03  0.90605513527E+03  0.00000000000E+00 0. -1.
          1    1    1    2  502    0 -0.41704877965E+02 -0.17740380307E+02  0.85525368384E+03  0.85645366580E+03  0.00000000000E+00 0. -1.
         22    1    3    3    0    0  0.37796811038E+02 -0.27782850307E+02  0.32834744097E+02  0.57259113822E+02  0.00000000000E+00 0.  1.
         22    1    3    3    0    0  0.10800956686E+02  0.17362975249E+02 -0.84340421823E+02  0.86783871359E+02  0.00000000000E+00 0.  1.
</event>
<event>
 7    1  0.5562528E-006  0.1153674E+03  0.7818608E-02  0.1320559E+00
          2   -1    0    0  502    0  0.00000000000E+00  0.00000000000E+00  0.50871436769E+03  0.50871436769E+03  0.00000000000E+00 0. -1.
          1   -1    0    0  501    0 -0.00000000000E+00 -0.00000000000E+00 -0.26567171945E+04  0.26567171945E+04  0.00000000000E+00 0. -1.
         25    2    1    2    0    0 -0.11724484186E+03  0.12302321994E+03 -0.35129235056E+03  0.40977519632E+03  0.12501332077E+03 0.  0.
          2    1    1    2  501    0  0.87630635384E+02 -0.71055167805E+02 -0.22729134384E+04  0.22757116390E+04  0.00000000000E+00 0. -1.
          1    1    1    2  502    0  0.29614206476E+02 -0.51968052131E+02  0.47620296219E+03  0.47994472689E+03  0.00000000000E+00 0. -1.
         22    1    3    3    0    0 -0.99253030805E+02  0.13895094058E+02 -0.15928874239E+03  0.18819442397E+03  0.00000000000E+00 0. -1.
         22    1    3    3    0    0 -0.17991811055E+02  0.10912812588E+03 -0.19200360817E+03  0.22158077234E+03  0.00000000000E+00 0. -1.
</event>
<event>
 7    1  0.6285971E-006  0.1180610E+03  0.7818608E-02  0.1359892E+00
          2   -1    0    0  502    0  0.00000000000E+00  0.00000000000E+00  0.18627903845E+04  0.18627903845E+04  0.00000000000E+00 0. -1.
          1   -1    0    0  501    0 -0.00000000000E+00 -0.00000000000E+00 -0.64854861860E+03  0.64854861860E+03  0.00000000000E+00 0. -1.
         25    2    1    2    0    0 -0.12014550443E+02  0.10545923349E+03 -0.34944935830E+03  0.38601304158E+03  0.12500085960E+03 0.  0.
          2    1    1    2  501    0 -0.41573889662E+02 -0.15347330708E+00 -0.27737440589E+03  0.28047276677E+03  0.00000000000E+00 0. -1.
          1    1    1    2  502    0  0.53588440105E+02 -0.10530576018E+03  0.18410655301E+04  0.18448531948E+04  0.00000000000E+00 0. -1.
         22    1    3    3    0    0  0.39877480901E+02  0.82929445858E+01 -0.17514566115E+03  0.17981932330E+03  0.00000000000E+00 0.  1.
         22    1    3    3    0    0 -0.51892031343E+02  0.97166288900E+02 -0.17430369715E+03  0.20619371828E+03  0.00000000000E+00 0.  1.
</event>
<event>
 7    1  0.5562528E-006  0.1384601E+03  0.7818608E-02  0.1292739E+00
          2   -1    0    0  502    0  0.00000000000E+00  0.00000000000E+00  0.67561180942E+03  0.67561180942E+03  0.00000000000E+00 0. -1.
          1   -1    0    0  501    0 -0.00000000000E+00 -0.00000000000E+00 -0.64224259336E+03  0.64224259336E+03  0.00000000000E+00 0. -1.
         25    2    1    2    0    0  0.40077173718E+02 -0.12151466449E+03  0.14136842065E+03  0.22799583955E+03  0.12500031582E+03 0.  0.
          2    1    1    2  501    0  0.61202618160E+02  0.19510484134E+02 -0.58661573834E+03  0.59012239741E+03  0.00000000000E+00 0. -1.
          1    1    1    2  502    0 -0.10127979188E+03  0.10200418036E+03  0.47861653375E+03  0.49973616582E+03  0.00000000000E+00 0. -1.
         22    1    3    3    0    0  0.51327942653E+02 -0.11346089391E+03  0.16127154595E+03  0.20375584329E+03  0.00000000000E+00 0. -1.
         22    1    3    3    0    0 -0.11250768934E+02 -0.80537705816E+01 -0.19903125294E+02  0.24239996259E+02  0.00000000000E+00 0. -1.
</event>
<event>
 7    1  0.5562528E-006  0.1311797E+03  0.7818608E-02  0.1415018E+00
          2   -1    0    0  502    0  0.00000000000E+00  0.00000000000E+00  0.21012299492E+04  0.21012299492E+04  0.00000000000E+00 0. -1.
          1   -1    0    0  501    0 -0.00000000000E+00 -0.00000000000E+00 -0.15069425972E+03  0.15069425972E+03  0.00000000000E+00 0. -1.
         25    2    1    2    0    0  0.14504454857E+03 -0.15065270454E+02  0.88287949392E+02  0.21138835254E+03  0.12500156054E+03 0.  0.
          2    1    1    2  501    0 -0.18038225477E+02 -0.15803989433E+02 -0.85299975372E+02  0.88607163700E+02  0.00000000000E+00 0. -1.
          1    1    1    2  502    0 -0.12700632309E+03  0.30869259888E+02  0.19475477155E+04  0.19519286927E+04  0.00000000000E+00 0. -1.
         22    1    3    3    0    0  0.11704336912E+03 -0.45141730694E+02  0.13652086884E+02  0.12618758093E+03  0.00000000000E+00 0. -1.
         22    1    3    3    0    0  0.28001179455E+02  0.30076460239E+02  0.74635862508E+02  0.85200771615E+02  0.00000000000E+00 0. -1.
</event>
<event>
 7    1  0.5562528E-006  0.3115565E+02  0.7818608E-02  0.1643748E+00
          2   -1    0    0  502    0  0.00000000000E+00  0.00000000000E+00  0.86745794301E+02  0.86745794301E+02  0.00000000000E+00 0. -1.
          1   -1    0    0  501    0 -0.00000000000E+00 -0.00000000000E+00 -0.15006216027E+03  0.15006216027E+03  0.00000000000E+00 0. -1.
         25    2    1    2    0    0  0.30794576965E+01  0.15379173347E+02 -0.12490921726E+02  0.12659893202E+03  0.12500105771E+03 0.  0.
          2    1    1    2  501    0 -0.24435045390E+02 -0.21094144288E+02 -0.72430256234E+02  0.79298022577E+02  0.00000000000E+00 0. -1.
          1    1    1    2  502    0  0.21355587693E+02  0.57149709418E+01  0.21604811990E+02  0.30910999979E+02  0.00000000000E+00 0. -1.
         22    1    3    3    0    0 -0.18652320238E+02  0.41422724553E+01  0.53185692543E+02  0.56513585647E+02  0.00000000000E+00 0. -1.
         22    1    3    3    0    0  0.21731777934E+02  0.11236900891E+02 -0.65676614270E+02  0.70085346370E+02  0.00000000000E+00 0. -1.
</event>
<event>
 7    1  0.5562528E-006  0.1060099E+03  0.7818608E-02  0.1449973E+00
          2   -1    0    0  502    0  0.00000000000E+00  0.00000000000E+00  0.10010295242E+04  0.10010295242E+04  0.00000000000E+00 0. -1.
          1   -1    0    0  501    0 -0.00000000000E+00 -0.00000000000E+00 -0.11157013961E+03  0.11157013961E+03  0.00000000000E+00 0. -1.
         25    2    1    2    0    0 -0.10594548339E+03  0.13894124010E+02  0.51806015152E+03  0.54353372471E+03  0.12500038867E+03 0.  0.
          2    1    1    2  501    0  0.99847802506E+02 -0.35852286047E+02 -0.69984899007E+02  0.12709388722E+03  0.00000000000E+00 0. -1.
          1    1    1    2  502    0  0.60976808822E+01  0.21958162037E+02  0.44138413205E+03  0.44197205185E+03  0.00000000000E+00 0. -1.
         22    1    3    3    0    0 -0.66482504437E+02 -0.22905056055E+01  0.82908585481E+02  0.10629677022E+03  0.00000000000E+00 0. -1.
         22    1    3    3    0    0 -0.39462978951E+02  0.16184629616E+02  0.43515156604E+03  0.43723695449E+03  0.00000000000E+00 0. -1.
</event>
<event>
 7    1  0.5562528E-006  0.9499945E+02  0.7818608E-02  0.1341040E+00
          2   -1    0    0  502    0  0.00000000000E+00  0.00000000000E+00  0.11008691212E+03  0.11008691212E+03  0.00000000000E+00 0. -1.
          1   -1    0    0  501    0 -0.00000000000E+00 -0.00000000000E+00 -0.33011193711E+03  0.33011193711E+03  0.00000000000E+00 0. -1.
         25    2    1    2    0    0  0.79349747859E+02 -0.47273868223E+02 -0.85264470048E+02  0.17727396663E+03  0.12499931316E+03 0.  0.
          2    1    1    2  501    0 -0.38729031611E+02  0.92345398562E+02 -0.16661827510E+03  0.19439459900E+03  0.00000000000E+00 0. -1.
          1    1    1    2  502    0 -0.40620716248E+02 -0.45071530339E+02  0.31857720159E+02  0.68530283593E+02  0.00000000000E+00 0. -1.
         22    1    3    3    0    0  0.57699685905E+02 -0.63457582718E+02  0.21305860461E+01  0.85794276935E+02  0.00000000000E+00 0. -1.
         22    1    3    3    0    0  0.21650061954E+02  0.16183714495E+02 -0.87395056094E+02  0.91479689698E+02  0.00000000000E+00 0. -1.
</event>
<event>
 7    1  0.5562528E-006  0.7653441E+02  0.7818608E-02  0.1348990E+00
          2   -1    0    0  502    0  0.00000000000E+00  0.00000000000E+00  0.58773181385E+03  0.58773181385E+03  0.00000000000E+00 0. -1.
          1   -1    0    0  501    0 -0.00000000000E+00 -0.00000000000E+00 -0.10330243909E+03  0.10330243909E+03  0.00000000000E+00 0. -1.
         25    2    1    2    0    0 -0.14884991776E+02 -0.60759503421E+02  0.67507266254E+02  0.15522780072E+03  0.12500063554E+03 0.  0.
          2    1    1    2  501    0 -0.61110101477E+02  0.51689695356E+02 -0.27660749507E+02  0.84684037290E+02  0.00000000000E+00 0. -1.
          1    1    1    2  502    0  0.75995093253E+02  0.90698080649E+01  0.44458285801E+03  0.45112241493E+03  0.00000000000E+00 0. -1.
         22    1    3    3    0    0 -0.36223384270E+02 -0.53596836115E+02 -0.17724591467E+02  0.67073955841E+02  0.00000000000E+00 0. -1.
         22    1    3    3    0    0  0.21338392494E+02 -0.71626673064E+01  0.85231857721E+02  0.88153844884E+02  0.00000000000E+00 0. -1.
</event>
<event>
 7    1  0.5562528E-006  0.8490454E+02  0.7818608E-02  0.1442892E+00
          2   -1    0    0  502    0  0.00000000000E+00  0.00000000000E+00  0.61542847025E+02  0.61542847025E+02  0.00000000000E+00 0. -1.
          1   -1    0    0  501    0 -0.00000000000E+00 -0.00000000000E+00 -0.41607302987E+03  0.41607302987E+03  0.00000000000E+00 0. -1.
         25    2    1    2    0    0  0.63152602463E+02 -0.98331354561E+01 -0.13787977199E+03  0.19677606072E+03  0.12500017919E+03 0.  0.
          2    1    1    2  501    0  0.29354216812E+02 -0.61204621790E+01 -0.17601304519E+03  0.17854893497E+03  0.00000000000E+00 0. -1.
          1    1    1    2  502    0 -0.92506819275E+02  0.15953597635E+02 -0.40637365670E+02  0.10229088121E+03  0.00000000000E+00 0. -1.
         22    1    3    3    0    0  0.32789304040E+02 -0.32552875848E+01  0.18194255039E+02  0.37639955806E+02  0.00000000000E+00 0.  1.
         22    1    3    3    0    0  0.30363298423E+02 -0.65778478713E+01 -0.15607402703E+03  0.15913610491E+03  0.00000000000E+00 0.  1.
</event>
<event>
 7    1  0.5562528E-006  0.1214390E+03  0.7818608E-02  0.1302331E+00
          2   -1    0    0  502    0  0.00000000000E+00  0.00000000000E+00  0.44040527893E+03  0.44040527893E+03  0.00000000000E+00 0. -1.
          1   -1    0    0  501    0 -0.00000000000E+00 -0.00000000000E+00 -0.79212012898E+03  0.79212012898E+03  0.00000000000E+00 0. -1.
         25    2    1    2    0    0  0.28552959613E+02 -0.18227199155E+03  0.11902743550E+03  0.25264755525E+03  0.12499962546E+03 0.  0.
          2    1    1    2  501    0 -0.45547297554E+01  0.11969649431E+03 -0.71583477183E+03  0.72578744607E+03  0.00000000000E+00 0. -1.
          1    1    1    2  502    0 -0.23998229858E+02  0.62575497243E+02  0.24509248628E+03  0.25409040659E+03  0.00000000000E+00 0. -1.
         22    1    3    3    0    0  0.23319435510E+01 -0.18136954134E+03  0.13106433190E+03  0.22378160689E+03  0.00000000000E+00 0.  1.
         22    1    3    3    0    0  0.26221016062E+02 -0.90245020942E+00 -0.12036896400E+02  0.28865948359E+02  0.00000000000E+00 0.  1.
</event>
<event>
 7    1  0.5562528E-006  0.7132062E+02  0.7818608E-02  0.1420927E+00
          2   -1    0    0  502    0  0.00000000000E+00  0.00000000000E+00  0.15934145224E+04  0.15934145224E+04  0.00000000000E+00 0. -1.
          1   -1    0    0  501    0 -0.00000000000E+00 -0.00000000000E+00 -0.56805146816E+02  0.56805146816E+02  0.00000000000E+00 0. -1.
         25    2    1    2    0    0  0.16908264829E+02 -0.99696083301E+02  0.40290372611E+03  0.43379844666E+03  0.12499792543E+03 0.  0.
          2    1    1    2  501    0  0.16713508565E+02  0.38689486306E+02 -0.29301251685E+02  0.51330118542E+02  0.00000000000E+00 0. -1.
          1    1    1    2  502    0 -0.33621773394E+02  0.61006596995E+02  0.11630069011E+04  0.11650911040E+04  0.00000000000E+00 0. -1.
         22    1    3    3    0    0 -0.40812851782E+02 -0.63768560381E+02  0.30726925275E+03  0.31645933680E+03  0.00000000000E+00 0.  1.
         22    1    3    3    0    0  0.57721116611E+02 -0.35927522919E+02  0.95634473362E+02  0.11733910985E+03  0.00000000000E+00 0.  1.
</event>
<event>
 7    1  0.5562528E-006  0.4389405E+02  0.7818608E-02  0.1568045E+00
          2   -1    0    0  502    0  0.00000000000E+00  0.00000000000E+00  0.97749904487E+01  0.97749904487E+01  0.00000000000E+00 0. -1.
          1   -1    0    0  501    0 -0.00000000000E+00 -0.00000000000E+00 -0.16143006036E+04  0.16143006036E+04  0.00000000000E+00 0. -1.
         25    2    1    2    0    0 -0.24196412441E+02 -0.58974002391E+02 -0.10584264125E+04  0.10676852766E+04  0.12498791857E+03 0.  0.
          2    1    1    2  501    0  0.89334750066E+01  0.39598319980E+02 -0.51546339845E+03  0.51705932837E+03  0.00000000000E+00 0. -1.
          1    1    1    2  502    0  0.15262937434E+02  0.19375682410E+02 -0.30635802240E+02  0.39330989142E+02  0.00000000000E+00 0. -1.
         22    1    3    3    0    0 -0.39959840553E+02  0.99386245039E+01 -0.12546328908E+03  0.13204772630E+03  0.00000000000E+00 0. -1.
         22    1    3    3    0    0  0.15763428112E+02 -0.68912626895E+02 -0.93296312341E+03  0.93563755026E+03  0.00000000000E+00 0. -1.
</event>
<event>
 7    1  0.5562528E-006  0.6897604E+02  0.7818608E-02  0.1401116E+00
          2   -1    0    0  502    0  0.00000000000E+00  0.00000000000E+00  0.74213237611E+03  0.74213237611E+03  0.00000000000E+00 0. -1.
          1   -1    0    0  501    0 -0.00000000000E+00 -0.00000000000E+00 -0.46378934758E+03  0.46378934758E+03  0.00000000000E+00 0. -1.
         25    2    1    2    0    0  0.51549541126E+02 -0.19576668392E+02 -0.28815739504E+03  0.31890548699E+03  0.12500169670E+03 0.  0.
          2    1    1    2  501    0  0.10681000848E+02  0.49716734133E+02 -0.15452804262E+03  0.16267991083E+03  0.00000000000E+00 0. -1.
          1    1    1    2  502    0 -0.62230541974E+02 -0.30140065741E+02  0.72102846620E+03  0.72433632588E+03  0.00000000000E+00 0. -1.
         22    1    3    3    0    0  0.81160930766E+01 -0.66566520976E+02 -0.19226190512E+03  0.20362124850E+03  0.00000000000E+00 0. -1.
         22    1    3    3    0    0  0.43433448049E+02  0.46989852584E+02 -0.95895489923E+02  0.11528423848E+03  0.00000000000E+00 0. -1.
</event>
<event>
 7    1  0.5562528E-006  0.4145324E+02  0.7818608E-02  0.1501598E+00
          2   -1    0    0  502    0  0.00000000000E+00  0.00000000000E+00  0.27178383437E+04  0.27178383437E+04  0.00000000000E+00 0. -1.
          1   -1    0    0  501    0 -0.00000000000E+00 -0.00000000000E+00 -0.57799816752E+01  0.57799816752E+01  0.00000000000E+00 0. -1.
         25    2    1    2    0    0  0.14757004270E+02 -0.39557431546E+01  0.10971530186E+04  0.11043564570E+04  0.12500008252E+03 0.  0.
          2    1    1    2  501    0  0.95867800624E+01  0.40329456784E+02  0.23267905246E+03  0.23634278684E+03  0.00000000000E+00 0. -1.
          1    1    1    2  502    0 -0.24343784332E+02 -0.36373713629E+02  0.13822262910E+04  0.13829190816E+04  0.00000000000E+00 0. -1.
         22    1    3    3    0    0 -0.18522816021E+02 -0.47233952476E+02  0.23201585101E+03  0.23749841284E+03  0.00000000000E+00 0.  1.
         22    1    3    3    0    0  0.33279820290E+02  0.43278209322E+02  0.86513716762E+03  0.86685804411E+03  0.00000000000E+00 0.  1.
</event>
<event>
 7    1  0.5562528E-006  0.3001354E+02  0.7818608E-02  0.1629140E+00
          2   -1    0    0  502    0  0.00000000000E+00  0.00000000000E+00  0.18715470768E+03  0.18715470768E+03  0.00000000000E+00 0. -1.
          1   -1    0    0  501    0 -0.00000000000E+00 -0.00000000000E+00 -0.25635925581E+03  0.25635925581E+03  0.00000000000E+00 0. -1.
         25    2    1    2    0    0  0.48921047143E+01  0.25066729347E+01 -0.49579222479E+02  0.13459409227E+03  0.12500901677E+03 0.  0.
          2    1    1    2  501    0  0.21372713267E+02  0.12886001948E+02 -0.16170286765E+03  0.16361741755E+03  0.00000000000E+00 0. -1.
          1    1    1    2  502    0 -0.26264817981E+02 -0.15392674882E+02  0.14207754200E+03  0.14530245368E+03  0.00000000000E+00 0. -1.
         22    1    3    3    0    0  0.57424197566E+02  0.24742847817E+02 -0.60136862695E+01  0.62816489927E+02  0.00000000000E+00 0. -1.
         22    1    3    3    0    0 -0.52532092852E+02 -0.22236174882E+02 -0.43565536209E+02  0.71777602342E+02  0.00000000000E+00 0. -1.
</event>
<event>
 7    1  0.5562528E-006  0.5523803E+03  0.7818608E-02  0.1169832E+00
          2   -1    0    0  502    0  0.00000000000E+00  0.00000000000E+00  0.15220655456E+04  0.15220655456E+04  0.00000000000E+00 0. -1.
          1   -1    0    0  501    0 -0.00000000000E+00 -0.00000000000E+00 -0.22577304547E+04  0.22577304547E+04  0.00000000000E+00 0. -1.
         25    2    1    2    0    0 -0.77955519963E+02  0.50088947102E+03 -0.13754074098E+04  0.14711689047E+04  0.12500031168E+03 0.  0.
          2    1    1    2  501    0  0.26528348815E+02  0.50797056632E+02 -0.78129262153E+03  0.78339150794E+03  0.00000000000E+00 0. -1.
          1    1    1    2  502    0  0.51427171148E+02 -0.55168652766E+03  0.14210351223E+04  0.15252355876E+04  0.00000000000E+00 0. -1.
         22    1    3    3    0    0 -0.57297250144E+02  0.47717928310E+03 -0.11947160682E+04  0.12877614401E+04  0.00000000000E+00 0. -1.
         22    1    3    3    0    0 -0.20658269819E+02  0.23710187926E+02 -0.18069134164E+03  0.18340746459E+03  0.00000000000E+00 0. -1.
</event>
<event>
 7    1  0.5562528E-006  0.5011992E+02  0.7818608E-02  0.1504503E+00
          2   -1    0    0  502    0  0.00000000000E+00  0.00000000000E+00  0.31913822175E+03  0.31913822175E+03  0.00000000000E+00 0. -1.
          1   -1    0    0  501    0 -0.00000000000E+00 -0.00000000000E+00 -0.83421634715E+02  0.83421634715E+02  0.00000000000E+00 0. -1.
         25    2    1    2    0    0  0.46472151755E+02  0.52381598457E+02  0.16019270864E+03  0.21492924326E+03  0.12501753061E+03 0.  0.
          2    1    1    2  501    0 -0.45190687332E+02 -0.19666668866E+02 -0.42544039043E+02  0.65107383175E+02  0.00000000000E+00 0. -1.
          1    1    1    2  502    0 -0.12814644232E+01 -0.32714929591E+02  0.11806791744E+03  0.12252323003E+03  0.00000000000E+00 0. -1.
         22    1    3    3    0    0 -0.33073309217E+02  0.48940391174E+02  0.42231167700E+02  0.72611825457E+02  0.00000000000E+00 0. -1.
         22    1    3    3    0    0  0.79545460972E+02  0.34412072831E+01  0.11796154094E+03  0.14231741780E+03  0.00000000000E+00 0. -1.
</event>
<event>
 7    1  0.5562528E-006  0.7355243E+02  0.7818608E-02  0.1404574E+00
          2   -1    0    0  502    0  0.00000000000E+00  0.00000000000E+00  0.82980073915E+03  0.82980073915E+03  0.00000000000E+00 0. -1.
          1   -1    0    0  501    0 -0.00000000000E+00 -0.00000000000E+00 -0.14206411422E+04  0.14206411422E+04  0.00000000000E+00 0. -1.
         25    2    1    2    0    0  0.93579315172E+02  0.59942860470E+02  0.22025688836E+03  0.27656587562E+03  0.12500140774E+03 0.  0.
          2    1    1    2  501    0 -0.25993740193E+02 -0.38440952226E+02 -0.13899350147E+04  0.13907094328E+04  0.00000000000E+00 0. -1.
          1    1    1    2  502    0 -0.67585574979E+02 -0.21501908244E+02  0.57883772325E+03  0.58316657300E+03  0.00000000000E+00 0. -1.
         22    1    3    3    0    0  0.38321875112E+02 -0.67194423845E+01  0.17420021310E+03  0.17849210420E+03  0.00000000000E+00 0.  1.
         22    1    3    3    0    0  0.55257440059E+02  0.66662302855E+02  0.46056675262E+02  0.98073771417E+02  0.00000000000E+00 0.  1.
</event>
<event>
 7    1  0.5562528E-006  0.1210598E+03  0.7818608E-02  0.1341790E+00
          2   -1    0    0  502    0  0.00000000000E+00  0.00000000000E+00  0.23146696074E+04  0.23146696074E+04  0.00000000000E+00 0. -1.
          1   -1    0    0  501    0 -0.00000000000E+00 -0.00000000000E+00 -0.10078093802E+03  0.10078093802E+03  0.00000000000E+00 0. -1.
         25    2    1    2    0    0  0.67286804647E+01 -0.10603122880E+03  0.53591083808E+03  0.56045798962E+03  0.12499934053E+03 0.  0.
          2    1    1    2  501    0  0.39451529240E+02  0.11629097442E+03 -0.45430650807E+02  0.13093493775E+03  0.00000000000E+00 0. -1.
          1    1    1    2  502    0 -0.46180209705E+02 -0.10259745624E+02  0.17234084821E+04  0.17240576180E+04  0.00000000000E+00 0. -1.
         22    1    3    3    0    0 -0.23347340950E+02 -0.89998982147E+02  0.50790525831E+03  0.51634549145E+03  0.00000000000E+00 0. -1.
         22    1    3    3    0    0  0.30076021414E+02 -0.16032246652E+02  0.28005579770E+02  0.44112498173E+02  0.00000000000E+00 0. -1.
</event>
<event>
 7    1  0.5562528E-006  0.4809233E+02  0.7818608E-02  0.1458425E+00
          2   -1    0    0  502    0  0.00000000000E+00  0.00000000000E+00  0.39617441564E+02  0.39617441564E+02  0.00000000000E+00 0. -1.
          1   -1    0    0  501    0 -0.00000000000E+00 -0.00000000000E+00 -0.15205891324E+04  0.15205891324E+04  0.00000000000E+00 0. -1.
         25    2    1    2    0    0  0.11854286768E+01 -0.19279055528E+01 -0.43972588005E+03  0.45715331015E+03  0.12500070933E+03 0.  0.
          2    1    1    2  501    0 -0.33139050831E+02  0.37870052721E+02 -0.10524668579E+04  0.10536692197E+04  0.00000000000E+00 0. -1.
          1    1    1    2  502    0  0.31953622154E+02 -0.35942147168E+02  0.11221047134E+02  0.49384044089E+02  0.00000000000E+00 0. -1.
         22    1    3    3    0    0 -0.14561710107E+02  0.50533371943E+02 -0.33366397481E+03  0.33778293795E+03  0.00000000000E+00 0.  1.
         22    1    3    3    0    0  0.15747138784E+02 -0.52461277496E+02 -0.10606190524E+03  0.11937037220E+03  0.00000000000E+00 0.  1.
</event>
<event>
 7    1  0.5562528E-006  0.9416984E+02  0.7818608E-02  0.1300623E+00
          2   -1    0    0  502    0  0.00000000000E+00  0.00000000000E+00  0.47187137119E+03  0.47187137119E+03  0.00000000000E+00 0. -1.
          1   -1    0    0  501    0 -0.00000000000E+00 -0.00000000000E+00 -0.14759612251E+03  0.14759612251E+03  0.00000000000E+00 0. -1.
         25    2    1    2    0    0 -0.30356478785E+02  0.63800031895E+02  0.24512224749E+03  0.28408016461E+03  0.12499865535E+03 0.  0.
          2    1    1    2  501    0 -0.87770248962E+02 -0.20846750216E+01 -0.86180615028E+02  0.12302463525E+03  0.00000000000E+00 0. -1.
          1    1    1    2  502    0  0.11812672775E+03 -0.61715356873E+02  0.16533361622E+03  0.21236269384E+03  0.00000000000E+00 0. -1.
         22    1    3    3    0    0  0.32746793661E+01  0.15538586859E+02  0.21923976734E+03  0.21981411873E+03  0.00000000000E+00 0.  1.
         22    1    3    3    0    0 -0.33631158151E+02  0.48261445036E+02  0.25882480142E+02  0.64266045886E+02  0.00000000000E+00 0.  1.
</event>
<event>
 7    1  0.5562528E-006  0.1156589E+03  0.7818608E-02  0.1321733E+00
          2   -1    0    0  502    0  0.00000000000E+00  0.00000000000E+00  0.21369105859E+04  0.21369105859E+04  0.00000000000E+00 0. -1.
          1   -1    0    0  501    0 -0.00000000000E+00 -0.00000000000E+00 -0.16135174317E+04  0.16135174317E+04  0.00000000000E+00 0. -1.
         25    2    1    2    0    0 -0.60539404869E+02 -0.21815292998E+02 -0.62324247068E+02  0.15377863985E+03  0.12499052664E+03 0.  0.
          2    1    1    2  501    0 -0.30942631295E+02 -0.50283758536E+02 -0.15032640830E+04  0.15044230808E+04  0.00000000000E+00 0. -1.
          1    1    1    2  502    0  0.91482036164E+02  0.72099051534E+02  0.20889814842E+04  0.20922262969E+04  0.00000000000E+00 0. -1.
         22    1    3    3    0    0  0.13368061784E+02 -0.41134190001E+02  0.14325515464E+02  0.45562562002E+02  0.00000000000E+00 0.  1.
         22    1    3    3    0    0 -0.73907466653E+02  0.19318897003E+02 -0.76649762532E+02  0.10821607785E+03  0.00000000000E+00 0.  1.
</event>
<event>
 7    1  0.5562528E-006  0.1731968E+03  0.7818608E-02  0.1230476E+00
          2   -1    0    0  502    0  0.00000000000E+00  0.00000000000E+00  0.11730444538E+04  0.11730444538E+04  0.00000000000E+00 0. -1.
          1   -1    0    0  501    0 -0.00000000000E+00 -0.00000000000E+00 -0.22213013152E+03  0.22213013152E+03  0.00000000000E+00 0. -1.
         25    2    1    2    0    0  0.23359516720E+03 -0.19807684319E+02  0.35178723563E+03  0.44083762170E+03  0.12499801219E+03 0.  0.
          2    1    1    2  501    0 -0.83633594409E+02 -0.44159502365E+02 -0.15566198625E+03  0.18214086232E+03  0.00000000000E+00 0. -1.
          1    1    1    2  502    0 -0.14996157279E+03  0.63967186684E+02  0.75478907286E+03  0.77219610126E+03  0.00000000000E+00 0. -1.
         22    1    3    3    0    0  0.20330292659E+03 -0.57502866764E+02  0.31821523421E+03  0.38196805485E+03  0.00000000000E+00 0. -1.
         22    1    3    3    0    0  0.30292240611E+02  0.37695182446E+02  0.33572001425E+02  0.58869566845E+02  0.00000000000E+00 0. -1.
</event>
<event>
 7    1  0.5562528E-006  0.1227207E+03  0.7818608E-02  0.1366769E+00
          2   -1    0    0  502    0  0.00000000000E+00  0.00000000000E+00  0.25853805532E+03  0.25853805532E+03  0.00000000000E+00 0. -1.
          1   -1    0    0  501    0 -0.00000000000E+00 -0.00000000000E+00 -0.77988617612E+03  0.77988617612E+03  0.00000000000E+00 0. -1.
         25    2    1    2    0    0  0.37201971183E+02  0.11574610662E+03 -0.34424944653E+02  0.17774548447E+03  0.12500892999E+03 0.  0.
          2    1    1    2  501    0 -0.36874330974E+02  0.81337486270E+01 -0.65266522173E+03  0.65375665641E+03  0.00000000000E+00 0. -1.
          1    1    1    2  502    0 -0.32764020907E+00 -0.12387985525E+03  0.16574204558E+03  0.20692209055E+03  0.00000000000E+00 0. -1.
         22    1    3    3    0    0  0.22415587855E+02  0.31159023696E+02 -0.73871518603E+02  0.83248691265E+02  0.00000000000E+00 0.  1.
         22    1    3    3    0    0  0.14786383329E+02  0.84587082927E+02  0.39446573950E+02  0.94496793207E+02  0.00000000000E+00 0.  1.
</event>
<event>
 7    1  0.5562528E-006  0.1407016E+03  0.7818608E-02  0.1315302E+00
          2   -1    0    0  502    0  0.00000000000E+00  0.00000000000E+00  0.82101337075E+02  0.82101337075E+02  0.00000000000E+00 0. -1.
          1   -1    0    0  501    0 -0.00000000000E+00 -0.00000000000E+00 -0.19111178486E+04  0.19111178486E+04  0.00000000000E+00 0. -1.
         25    2    1    2    0    0  0.97174951968E+02  0.20283963815E+01 -0.97396955973E+03  0.98675728627E+03  0.12500461213E+03 0.  0.
          2    1    1    2  501    0  0.43736400178E+02  0.27020909971E+02 -0.86093343401E+03  0.86246703129E+03  0.00000000000E+00 0. -1.
          1    1    1    2  502    0 -0.14091135215E+03 -0.29049306353E+02  0.58864822288E+01  0.14399486809E+03  0.00000000000E+00 0. -1.
         22    1    3    3    0    0 -0.17058039567E+02 -0.19069299373E+02 -0.57251706148E+02  0.62708633770E+02  0.00000000000E+00 0.  1.
         22    1    3    3    0    0  0.11423299153E+03  0.21097695755E+02 -0.91671785358E+03  0.92404865250E+03  0.00000000000E+00 0.  1.
</event>
<event>
 7    1  0.5562528E-006  0.8782747E+02  0.7818608E-02  0.1370653E+00
          2   -1    0    0  502    0  0.00000000000E+00  0.00000000000E+00  0.18725140380E+03  0.18725140380E+03  0.00000000000E+00 0. -1.
          1   -1    0    0  501    0 -0.00000000000E+00 -0.00000000000E+00 -0.64085735488E+03  0.64085735488E+03  0.00000000000E+00 0. -1.
         25    2    1    2    0    0 -0.83288016760E+02  0.95662928070E+02 -0.55447836807E+02  0.18651299024E+03  0.12499737348E+03 0.  0.
          2    1    1    2  501    0  0.13794305938E+02 -0.49192728369E+02 -0.50407728336E+03  0.50665976256E+03  0.00000000000E+00 0. -1.
          1    1    1    2  502    0  0.69493710822E+02 -0.46470199701E+02  0.10591916909E+03  0.13493600589E+03  0.00000000000E+00 0. -1.
         22    1    3    3    0    0 -0.74318489704E+02  0.16126522910E+02  0.17702392405E+02  0.78081222774E+02  0.00000000000E+00 0.  1.
         22    1    3    3    0    0 -0.89695270562E+01  0.79536405160E+02 -0.73150229212E+02  0.10843176746E+03  0.00000000000E+00 0.  1.
</event>
<event>
 7    1  0.5562528E-006  0.6615760E+02  0.7818608E-02  0.1416344E+00
          2   -1    0    0  502    0  0.00000000000E+00  0.00000000000E+00  0.14622168228E+04  0.14622168228E+04  0.00000000000E+00 0. -1.
          1   -1    0    0  501    0 -0.00000000000E+00 -0.00000000000E+00 -0.18668808285E+04  0.18668808285E+04  0.00000000000E+00 0. -1.
         25    2    1    2    0    0 -0.10943543146E+03  0.51147217509E+01  0.17892557592E+03  0.24421539566E+03  0.12499809488E+03 0.  0.
          2    1    1    2  501    0  0.46061681448E+02  0.96775310489E+01 -0.18330870616E+04  0.18336912249E+04  0.00000000000E+00 0. -1.
          1    1    1    2  502    0  0.63373750008E+02 -0.14792252800E+02  0.12494974799E+04  0.12511910307E+04  0.00000000000E+00 0. -1.
         22    1    3    3    0    0 -0.79548406050E+02  0.47644544357E+02  0.50313558098E+02  0.10549599822E+03  0.00000000000E+00 0.  1.
         22    1    3    3    0    0 -0.29887025406E+02 -0.42529822607E+02  0.12861201782E+03  0.13871939744E+03  0.00000000000E+00 0.  1.
</event>
<event>
 7    1  0.5562528E-006  0.6745907E+02  0.7818608E-02  0.1431268E+00
          2   -1    0    0  502    0  0.00000000000E+00  0.00000000000E+00  0.85631948742E+02  0.85631948742E+02  0.00000000000E+00 0. -1.
          1   -1    0    0  501    0 -0.00000000000E+00 -0.00000000000E+00 -0.38587229829E+03  0.38587229829E+03  0.00000000000E+00 0. -1.
         25    2    1    2    0    0 -0.88820138962E+02  0.54868089858E+02 -0.99260946165E+02  0.19073152011E+03  0.12500501174E+03 0.  0.
          2    1    1    2  501    0  0.51088766092E+02 -0.38371618272E+02 -0.22445453127E+03  0.23337154864E+03  0.00000000000E+00 0. -1.
          1    1    1    2  502    0  0.37731372869E+02 -0.16496471586E+02  0.23475127881E+02  0.47401178281E+02  0.00000000000E+00 0. -1.
         22    1    3    3    0    0 -0.59013649330E+02 -0.92620210206E+01 -0.10391375005E+03  0.11986018225E+03  0.00000000000E+00 0. -1.
         22    1    3    3    0    0 -0.29806489632E+02  0.64130110879E+02  0.46528038843E+01  0.70871337856E+02  0.00000000000E+00 0. -1.
</event>
<event>
 7    1  0.5562528E-006  0.4760116E+02  0.7818608E-02  0.1463195E+00
          2   -1    0    0  502    0  0.00000000000E+00  0.00000000000E+00  0.24952837930E+04  0.24952837930E+04  0.00000000000E+00 0. -1.
          1   -1    0    0  501    0 -0.00000000000E+00 -0.00000000000E+00 -0.50283093262E+03  0.50283093262E+03  0.00000000000E+00 0. -1.
         25    2    1    2    0    0 -0.15751396999E+02 -0.20233831391E+02  0.24924759049E+02  0.13002393402E+03  0.12500986107E+03 0.  0.
          2    1    1    2  501    0  0.41517147861E+02 -0.19999531558E+02 -0.44886552104E+03  0.45122490047E+03  0.00000000000E+00 0. -1.
          1    1    1    2  502    0 -0.25765750863E+02  0.40233362949E+02  0.24163936224E+04  0.24168658911E+04  0.00000000000E+00 0. -1.
         22    1    3    3    0    0 -0.20410398095E+02  0.98185031834E+00 -0.48938408872E+02  0.53033161733E+02  0.00000000000E+00 0. -1.
         22    1    3    3    0    0  0.46590010966E+01 -0.21215681709E+02  0.73863167921E+02  0.76990772285E+02  0.00000000000E+00 0. -1.
</event>
<event>
 7    1  0.5562528E-006  0.5182644E+02  0.7818608E-02  0.1455622E+00
          2   -1    0    0  502    0  0.00000000000E+00  0.00000000000E+00  0.11190063170E+04  0.11190063170E+04  0.00000000000E+00 0. -1.
          1   -1    0    0  501    0 -0.00000000000E+00 -0.00000000000E+00 -0.73122169382E+02  0.73122169382E+02  0.00000000000E+00 0. -1.
         25    2    1    2    0    0 -0.57880901176E+02  0.29690820635E+02  0.12856859974E+03  0.19075084420E+03  0.12499702465E+03 0.  0.
          2    1    1    2  501    0  0.50076920701E+02  0.14344797595E+02 -0.25154923705E+02  0.57846705970E+02  0.00000000000E+00 0. -1.
          1    1    1    2  502    0  0.78039804750E+01 -0.44035618230E+02  0.94247047160E+03  0.94353093623E+03  0.00000000000E+00 0. -1.
         22    1    3    3    0    0 -0.28905861985E+02  0.44278229461E+02  0.14503306096E+03  0.15437195093E+03  0.00000000000E+00 0.  1.
         22    1    3    3    0    0 -0.28975039191E+02 -0.14587408826E+02 -0.16464461221E+02  0.36378893272E+02  0.00000000000E+00 0.  1.
</event>
<event>
 7    1  0.5562528E-006  0.9534184E+02  0.7818608E-02  0.1411014E+00
          2   -1    0    0  502    0  0.00000000000E+00  0.00000000000E+00  0.22204143595E+03  0.22204143595E+03  0.00000000000E+00 0. -1.
          1   -1    0    0  501    0 -0.00000000000E+00 -0.00000000000E+00 -0.43504918600E+03  0.43504918600E+03  0.00000000000E+00 0. -1.
         25    2    1    2    0    0 -0.90744193368E+02 -0.87309055303E+02 -0.53422564653E+02  0.18530173562E+03  0.12500153216E+03 0.  0.
          2    1    1    2  501    0  0.69161847074E+02  0.60986390924E+02 -0.30697207396E+03  0.32052231616E+03  0.00000000000E+00 0. -1.
          1    1    1    2  502    0  0.21582346294E+02  0.26322664379E+02  0.14738688856E+03  0.15126657017E+03  0.00000000000E+00 0. -1.
         22    1    3    3    0    0  0.21353258885E+02 -0.57524682666E+02 -0.21251385553E+02  0.64935908161E+02  0.00000000000E+00 0. -1.
         22    1    3    3    0    0 -0.11209745225E+03 -0.29784372637E+02 -0.32171179100E+02  0.12036582746E+03  0.00000000000E+00 0. -1.
</event>
<event>
 7    1  0.5562528E-006  0.2335294E+03  0.7818608E-02  0.1277498E+00
          2   -1    0    0  502    0  0.00000000000E+00  0.00000000000E+00  0.13551746881E+04  0.13551746881E+04  0.00000000000E+00 0. -1.
          1   -1    0    0  501    0 -0.00000000000E+00 -0.00000000000E+00 -0.68454903276E+03  0.68454903276E+03  0.00000000000E+00 0. -1.
         25    2    1    2    0    0 -0.24432090856E+03 -0.40819327808E+02  0.16817889341E+02  0.27796886424E+03  0.12499969681E+03 0.  0.
          2    1    1    2  501    0  0.21869103604E+03  0.76557437830E+02 -0.52931906393E+03  0.57781093964E+03  0.00000000000E+00 0. -1.
          1    1    1    2  502    0  0.25629872519E+02 -0.35738110022E+02  0.11831268299E+04  0.11839439169E+04  0.00000000000E+00 0. -1.
         22    1    3    3    0    0 -0.20667392846E+03 -0.39979481333E+02 -0.35531320755E+02  0.21348289483E+03  0.00000000000E+00 0. -1.
         22    1    3    3    0    0 -0.37646980104E+02 -0.83984647439E+00  0.52349210096E+02  0.64485969410E+02  0.00000000000E+00 0. -1.
</event>
<event>
 7    1  0.5562528E-006  0.1225272E+03  0.7818608E-02  0.1368246E+00
          2   -1    0    0  502    0  0.00000000000E+00  0.00000000000E+00  0.10924630330E+04  0.10924630330E+04  0.00000000000E+00 0. -1.
          1   -1    0    0  501    0 -0.00000000000E+00 -0.00000000000E+00 -0.30885153288E+03  0.30885153288E+03  0.00000000000E+00 0. -1.
         25    2    1    2    0    0 -0.85034117090E+02  0.53064748951E+02  0.41823258828E+03  0.44787323774E+03  0.12500108214E+03 0.  0.
          2    1    1    2  501    0 -0.37348717033E+02 -0.87310800069E+00 -0.28609324898E+03  0.28852215876E+03  0.00000000000E+00 0. -1.
          1    1    1    2  502    0  0.12238283412E+03 -0.52191640950E+02  0.65147216085E+03  0.66491916940E+03  0.00000000000E+00 0. -1.
         22    1    3    3    0    0 -0.66552882133E+02  0.82546332910E+01  0.38071996030E+03  0.38658131520E+03  0.00000000000E+00 0.  1.
         22    1    3    3    0    0 -0.18481234958E+02  0.44810115660E+02  0.37512627978E+02  0.61291922542E+02  0.00000000000E+00 0.  1.
</event>
<event>
 7    1  0.5562528E-006  0.1148434E+03  0.7818608E-02  0.1335014E+00
          2   -1    0    0  502    0  0.00000000000E+00  0.00000000000E+00  0.41989061749E+03  0.41989061749E+03  0.00000000000E+00 0. -1.
          1   -1    0    0  501    0 -0.00000000000E+00 -0.00000000000E+00 -0.97331223349E+03  0.97331223349E+03  0.00000000000E+00 0. -1.
         25    2    1    2    0    0 -0.45067402033E+02 -0.99206375220E+02  0.25991665392E+03  0.30830956937E+03  0.12500059190E+03 0.  0.
          2    1    1    2  501    0  0.44332703646E+02 -0.28842347562E+02 -0.91799345143E+03  0.91951576740E+03  0.00000000000E+00 0. -1.
          1    1    1    2  502    0  0.73469838676E+00  0.12804872278E+03  0.10465518152E+03  0.16537751421E+03  0.00000000000E+00 0. -1.
         22    1    3    3    0    0  0.26278453467E+02 -0.76900959274E+02  0.82575011486E+02  0.11585744333E+03  0.00000000000E+00 0.  1.
         22    1    3    3    0    0 -0.71345855500E+02 -0.22305415946E+02  0.17734164243E+03  0.19245212604E+03  0.00000000000E+00 0.  1.
</event>
<event>
 7    1  0.5562528E-006  0.9584252E+02  0.7818608E-02  0.1444508E+00
          2   -1    0    0  502    0  0.00000000000E+00  0.00000000000E+00  0.18985726513E+04  0.18985726513E+04  0.00000000000E+00 0. -1.
          1   -1    0    0  501    0 -0.00000000000E+00 -0.00000000000E+00 -0.56277199612E+03  0.56277199612E+03  0.00000000000E+00 0. -1.
         25    2    1    2    0    0  0.10149512676E+03  0.20123187295E+02  0.22915169097E+03  0.28078706442E+03  0.12499869858E+03 0.  0.
          2    1    1    2  501    0 -0.15336549751E+02  0.21299159992E+02 -0.53524237429E+03  0.53588549450E+03  0.00000000000E+00 0. -1.
          1    1    1    2  502    0 -0.86158577007E+02 -0.41422347287E+02  0.16418913385E+04  0.16446720885E+04  0.00000000000E+00 0. -1.
         22    1    3    3    0    0  0.97526014743E+02  0.53883382851E+02  0.21832244401E+03  0.24511106066E+03  0.00000000000E+00 0. -1.
         22    1    3    3    0    0  0.39691120148E+01 -0.33760195556E+02  0.10829246958E+02  0.35676003754E+02  0.00000000000E+00 0. -1.
</event>
<event>
 7    1  0.5562528E-006  0.1210614E+03  0.7818608E-02  0.1299552E+00
          2   -1    0    0  502    0  0.00000000000E+00  0.00000000000E+00  0.14688714292E+04  0.14688714292E+04  0.00000000000E+00 0. -1.
          1   -1    0    0  501    0 -0.00000000000E+00 -0.00000000000E+00 -0.10121805261E+04  0.10121805261E+04  0.00000000000E+00 0. -1.
         25    2    1    2    0    0  0.97354770681E+02  0.88457640955E+02  0.16953279446E+03  0.24833214989E+03  0.12499913062E+03 0.  0.
          2    1    1    2  501    0 -0.62949855798E+02  0.28182299331E+02 -0.96861739712E+03  0.97106981641E+03  0.00000000000E+00 0. -1.
          1    1    1    2  502    0 -0.34404914883E+02 -0.11663994029E+03  0.12557755057E+04  0.12616499890E+04  0.00000000000E+00 0. -1.
         22    1    3    3    0    0  0.69624104749E+02  0.10282144425E+03  0.17700692185E+03  0.21622029448E+03  0.00000000000E+00 0.  1.
         22    1    3    3    0    0  0.27730665931E+02 -0.14363803294E+02 -0.74741273906E+01  0.32111855417E+02  0.00000000000E+00 0.  1.
</event>
<event>
 7    1  0.5562528E-006  0.9469828E+02  0.7818608E-02  0.1449632E+00
          2   -1    0    0  502    0  0.00000000000E+00  0.00000000000E+00  0.74860593783E+03  0.74860593783E+03  0.00000000000E+00 0. -1.
          1   -1    0    0  501    0 -0.00000000000E+00 -0.00000000000E+00 -0.90474884818E+02  0.90474884818E+02  0.00000000000E+00 0. -1.
         25    2    1    2    0    0  0.69424343851E+02  0.22667605270E+02  0.55634462440E+03  0.57487156747E+03  0.12499767255E+03 0.  0.
          2    1    1    2  501    0 -0.94333489657E+02 -0.16867992876E+02 -0.51508494241E+02  0.10879550282E+03  0.00000000000E+00 0. -1.
          1    1    1    2  502    0  0.24909145806E+02 -0.57996123938E+01  0.15329492286E+03  0.15541375236E+03  0.00000000000E+00 0. -1.
         22    1    3    3    0    0  0.46845634962E+02 -0.49810544599E+02  0.24046627827E+03  0.24999926970E+03  0.00000000000E+00 0. -1.
         22    1    3    3    0    0  0.22578708889E+02  0.72478149869E+02  0.31587834613E+03  0.32487229777E+03  0.00000000000E+00 0. -1.
</event>
<event>
 7    1  0.5562528E-006  0.1226541E+03  0.7818608E-02  0.1401887E+00
          2   -1    0    0  502    0  0.00000000000E+00  0.00000000000E+00  0.26325049048E+04  0.26325049048E+04  0.00000000000E+00 0. -1.
          1   -1    0    0  501    0 -0.00000000000E+00 -0.00000000000E+00 -0.36660799822E+03  0.36660799822E+03  0.00000000000E+00 0. -1.
         25    2    1    2    0    0  0.11060558144E+03 -0.82378305630E+02 -0.31490502333E+03  0.36580089988E+03  0.12500137898E+03 0.  0.
          2    1    1    2  501    0 -0.51974466283E+00  0.28418511952E+02 -0.16668233479E+02  0.32950143602E+02  0.00000000000E+00 0. -1.
          1    1    1    2  502    0 -0.11008583677E+03  0.53959793678E+02  0.25974701634E+04  0.26003618595E+04  0.00000000000E+00 0. -1.
         22    1    3    3    0    0  0.58765964896E+02 -0.11163257423E+03 -0.22557270034E+03  0.25845369681E+03  0.00000000000E+00 0.  1.
         22    1    3    3    0    0  0.51839616541E+02  0.29254268595E+02 -0.89332322994E+02  0.10734720306E+03  0.00000000000E+00 0.  1.
</event>
<event>
 7    1  0.5562528E-006  0.3020514E+02  0.7818608E-02  0.1620094E+00
          2   -1    0    0  502    0  0.00000000000E+00  0.00000000000E+00  0.18909705648E+04  0.18909705648E+04  0.00000000000E+00 0. -1.
          1   -1    0    0  501    0 -0.00000000000E+00 -0.00000000000E+00 -0.15563260133E+03  0.15563260133E+03  0.00000000000E+00 0. -1.
         25    2    1    2    0    0 -0.16158406985E+02 -0.20827442445E+02  0.12459777318E+04  0.12525096891E+04  0.12500054706E+03 0.  0.
          2    1    1    2  501    0 -0.86901176745E+01  0.28946749274E+02 -0.15059840390E+03  0.15360114483E+03  0.00000000000E+00 0. -1.
          1    1    1    2  502    0  0.24848524660E+02 -0.81193068293E+01  0.63995863560E+03  0.64049233219E+03  0.00000000000E+00 0. -1.
         22    1    3    3    0    0 -0.74869992954E+01 -0.46343821721E+02  0.17483083592E+03  0.18102382760E+03  0.00000000000E+00 0.  1.
         22    1    3    3    0    0 -0.86714076898E+01  0.25516379276E+02  0.10711468959E+04  0.10714858615E+04  0.00000000000E+00 0.  1.
</event>
<event>
 7    1  0.5562528E-006  0.7954206E+02  0.7818608E-02  0.1383532E+00
          2   -1    0    0  502    0  0.00000000000E+00  0.00000000000E+00  0.63503727470E+03  0.63503727470E+03  0.00000000000E+00 0. -1.
          1   -1    0    0  501    0 -0.00000000000E+00 -0.00000000000E+00 -0.33492540776E+02  0.33492540776E+02  0.00000000000E+00 0. -1.
         25    2    1    2    0    0  0.72379119012E+02  0.75827762480E+02  0.32724601030E+03  0.36565434458E+03  0.12499824808E+03 0.  0.
          2    1    1    2  501    0 -0.50435027587E+02 -0.57718730976E+01  0.75727054222E+02  0.91167939913E+02  0.00000000000E+00 0. -1.
          1    1    1    2  502    0 -0.21944091425E+02 -0.70055889383E+02  0.19857166940E+03  0.21170753098E+03  0.00000000000E+00 0. -1.
         22    1    3    3    0    0 -0.22332057313E+02  0.34005914224E+02  0.18675559772E+03  0.19113549191E+03  0.00000000000E+00 0. -1.
         22    1    3    3    0    0  0.94711176324E+02  0.41821848256E+02  0.14049041258E+03  0.17451885267E+03  0.00000000000E+00 0. -1.
</event>
<event>
 7    1  0.6082613E-006  0.7005235E+02  0.7818608E-02  0.1489843E+00
          2   -1    0    0  502    0  0.00000000000E+00  0.00000000000E+00  0.72897026094E+03  0.72897026094E+03  0.00000000000E+00 0. -1.
          1   -1    0    0  501    0 -0.00000000000E+00 -0.00000000000E+00 -0.90046729847E+03  0.90046729847E+03  0.00000000000E+00 0. -1.
         25    2    1    2    0    0 -0.13443071226E+02  0.47615718902E+02 -0.41639905271E+03  0.43756312083E+03  0.12500136304E+03 0.  0.
          2    1    1    2  501    0 -0.22707443439E+02  0.12492704938E+02 -0.47141729576E+03  0.47212917979E+03  0.00000000000E+00 0. -1.
          1    1    1    2  502    0  0.36150514665E+02 -0.60108423840E+02  0.71631931094E+03  0.71974525879E+03  0.00000000000E+00 0. -1.
         22    1    3    3    0    0  0.45198950743E+01  0.80786053689E+02 -0.16976566851E+03  0.18806168703E+03  0.00000000000E+00 0. -1.
         22    1    3    3    0    0 -0.17962966300E+02 -0.33170334787E+02 -0.24663338420E+03  0.24950143380E+03  0.00000000000E+00 0. -1.
</event>
<event>
 7    1  0.5562528E-006  0.1605155E+03  0.7818608E-02  0.1294724E+00
          2   -1    0    0  502    0  0.00000000000E+00  0.00000000000E+00  0.16750370419E+04  0.16750370419E+04  0.00000000000E+00 0. -1.
          1   -1    0    0  501    0 -0.00000000000E+00 -0.00000000000E+00 -0.14017463817E+04  0.14017463817E+04  0.00000000000E+00 0. -1.
         25    2    1    2    0    0 -0.17856425263E+03  0.45468761454E+02  0.21537766379E+03  0.30978188848E+03  0.12499871914E+03 0.  0.
          2    1    1    2  501    0  0.41592292564E+02  0.35057694288E+02 -0.13495261864E+04  0.13506220376E+04  0.00000000000E+00 0. -1.
          1    1    1    2  502    0  0.13697196007E+03 -0.80526455742E+02  0.14074391827E+04  0.14163794975E+04  0.00000000000E+00 0. -1.
         22    1    3    3    0    0 -0.17361926115E+03  0.57930296475E+01  0.13498613595E+03  0.21999650891E+03  0.00000000000E+00 0.  1.
         22    1    3    3    0    0 -0.49449914773E+01  0.39675731807E+02  0.80391527845E+02  0.89785379569E+02  0.00000000000E+00 0.  1.
</event>
<event>
 7    1  0.5562528E-006  0.1126139E+03  0.7818608E-02  0.1411391E+00
          2   -1    0    0  502    0  0.00000000000E+00  0.00000000000E+00  0.42332341643E+03  0.42332341643E+03  0.00000000000E+00 0. -1.
          1   -1    0    0  501    0 -0.00000000000E+00 -0.00000000000E+00 -0.18288616384E+04  0.18288616384E+04  0.00000000000E+00 0. -1.
         25    2    1    2    0    0 -0.13257445697E+03 -0.29804990601E+02 -0.24860802243E+03  0.30966729954E+03  0.12499425379E+03 0.  0.
          2    1    1    2  501    0  0.21065995129E+02  0.19541601629E+02 -0.15416064207E+04  0.15418741864E+04  0.00000000000E+00 0. -1.
          1    1    1    2  502    0  0.11150846184E+03  0.10263388973E+02  0.38467622113E+03  0.40064356893E+03  0.00000000000E+00 0. -1.
         22    1    3    3    0    0  0.15604761247E+02 -0.29905455133E+02 -0.27614837022E+02  0.43593853283E+02  0.00000000000E+00 0. -1.
         22    1    3    3    0    0 -0.14817921822E+03  0.10046453198E+00 -0.22099318541E+03  0.26607344626E+03  0.00000000000E+00 0. -1.
</event>
<event>
 7    1  0.5562528E-006  0.5943099E+02  0.7818608E-02  0.1432589E+00
          2   -1    0    0  502    0  0.00000000000E+00  0.00000000000E+00  0.59830606361E+03  0.59830606361E+03  0.00000000000E+00 0. -1.
          1   -1    0    0  501    0 -0.00000000000E+00 -0.00000000000E+00 -0.13448203287E+03  0.13448203287E+03  0.00000000000E+00 0. -1.
         25    2    1    2    0    0 -0.84737553004E+02  0.34897970403E+02  0.32974228323E+03  0.36435346702E+03  0.12500061743E+03 0.  0.
          2    1    1    2  501    0  0.46113088930E+02  0.39031541658E+01 -0.10944638111E+03  0.11882828754E+03  0.00000000000E+00 0. -1.
          1    1    1    2  502    0  0.38624464074E+02 -0.38801124569E+02  0.24352812862E+03  0.24960634191E+03  0.00000000000E+00 0. -1.
         22    1    3    3    0    0 -0.80521965578E+02  0.70528245430E+02  0.17204774889E+03  0.20262884356E+03  0.00000000000E+00 0.  1.
         22    1    3    3    0    0 -0.42155874269E+01 -0.35630275027E+02  0.15769453434E+03  0.16172462347E+03  0.00000000000E+00 0.  1.
</event>
<event>
 7    1  0.5562528E-006  0.1077804E+03  0.7818608E-02  0.1297664E+00
          2   -1    0    0  502    0  0.00000000000E+00  0.00000000000E+00  0.71254815718E+03  0.71254815718E+03  0.00000000000E+00 0. -1.
          1   -1    0    0  501    0 -0.00000000000E+00 -0.00000000000E+00 -0.36372225535E+03  0.36372225535E+03  0.00000000000E+00 0. -1.
         25    2    1    2    0    0  0.15145361645E+03  0.30289347498E+01  0.56914695562E+02  0.20448055749E+03  0.12500257372E+03 0.  0.
          2    1    1    2  501    0 -0.60143783558E+02  0.50963577075E+02 -0.27960849589E+03  0.29050898758E+03  0.00000000000E+00 0. -1.
          1    1    1    2  502    0 -0.91309832893E+02 -0.53992511825E+02  0.57151970216E+03  0.58128086746E+03  0.00000000000E+00 0. -1.
         22    1    3    3    0    0  0.49849286628E+02  0.53802549802E+01 -0.39929855633E+02  0.64095958467E+02  0.00000000000E+00 0.  1.
         22    1    3    3    0    0  0.10160432982E+03 -0.23513202304E+01  0.96844551195E+02  0.14038459902E+03  0.00000000000E+00 0.  1.
</event>
<event>
 7    1  0.5562528E-006  0.7358725E+02  0.7818608E-02  0.1362520E+00
          2   -1    0    0  502    0  0.00000000000E+00  0.00000000000E+00  0.50971523685E+03  0.50971523685E+03  0.00000000000E+00 0. -1.
          1   -1    0    0  501    0 -0.00000000000E+00 -0.00000000000E+00 -0.12560367378E+04  0.12560367378E+04  0.00000000000E+00 0. -1.
         25    2    1    2    0    0  0.12010871008E+03  0.11021290533E+02 -0.23435757235E+03  0.29171224719E+03  0.12499996942E+03 0.  0.
          2    1    1    2  501    0 -0.58591044444E+02  0.28707912879E+02 -0.98913368382E+03  0.99128325882E+03  0.00000000000E+00 0. -1.
          1    1    1    2  502    0 -0.61517665640E+02 -0.39729203412E+02  0.47716975519E+03  0.48275646868E+03  0.00000000000E+00 0. -1.
         22    1    3    3    0    0 -0.64550699853E+01  0.40426819475E+02 -0.35607133616E+02  0.54257383145E+02  0.00000000000E+00 0.  1.
         22    1    3    3    0    0  0.12656378007E+03 -0.29405528942E+02 -0.19875043874E+03  0.23745486404E+03  0.00000000000E+00 0.  1.
</event>
<event>
 7    1  0.5562528E-006  0.3689999E+02  0.7818608E-02  0.1550354E+00
          2   -1    0    0  502    0  0.00000000000E+00  0.00000000000E+00  0.95721009008E+02  0.95721009008E+02  0.00000000000E+00 0. -1.
          1   -1    0    0  501    0 -0.00000000000E+00 -0.00000000000E+00 -0.13851167464E+04  0.13851167464E+04  0.00000000000E+00 0. -1.
         25    2    1    2    0    0  0.13307243284E+02  0.65145717182E+02 -0.72329960894E+02  0.15899034114E+03  0.12500103256E+03 0.  0.
          2    1    1    2  501    0  0.11771393247E+01 -0.32804701204E+02 -0.12632267257E+04  0.12636531544E+04  0.00000000000E+00 0. -1.
          1    1    1    2  502    0 -0.14484382609E+02 -0.32341015979E+02  0.46160949189E+02  0.58194259890E+02  0.00000000000E+00 0. -1.
         22    1    3    3    0    0 -0.17406423393E+02 -0.28264785937E+02  0.54213229326E+01  0.33634393732E+02  0.00000000000E+00 0.  1.
         22    1    3    3    0    0  0.30713666677E+02  0.93410503119E+02 -0.77751283827E+02  0.12535594741E+03  0.00000000000E+00 0.  1.
</event>
<event>
 7    1  0.5562528E-006  0.7857314E+02  0.7818608E-02  0.1432716E+00
          2   -1    0    0  502    0  0.00000000000E+00  0.00000000000E+00  0.30513991925E+03  0.30513991925E+03  0.00000000000E+00 0. -1.
          1   -1    0    0  501    0 -0.00000000000E+00 -0.00000000000E+00 -0.88968968804E+03  0.88968968804E+03  0.00000000000E+00 0. -1.
         25    2    1    2    0    0  0.25283371285E+02 -0.42090329923E+02 -0.22156628868E+03  0.25908948451E+03  0.12499958387E+03 0.  0.
          2    1    1    2  501    0 -0.52565511352E+02  0.63967369632E+02 -0.64564078146E+03  0.65092778098E+03  0.00000000000E+00 0. -1.
          1    1    1    2  502    0  0.27282140066E+02 -0.21877039709E+02  0.28265730136E+03  0.28481234180E+03  0.00000000000E+00 0. -1.
         22    1    3    3    0    0  0.50895678612E+02 -0.28461552829E+02 -0.22254727733E+03  0.23006025458E+03  0.00000000000E+00 0.  1.
         22    1    3    3    0    0 -0.25612307327E+02 -0.13628777094E+02  0.98098864675E+00  0.29029229931E+02  0.00000000000E+00 0.  1.
</event>
<event>
 7    1  0.5562528E-006  0.1867610E+03  0.7818608E-02  0.1204950E+00
          2   -1    0    0  502    0  0.00000000000E+00  0.00000000000E+00  0.23851419168E+04  0.23851419168E+04  0.00000000000E+00 0. -1.
          1   -1    0    0  501    0 -0.00000000000E+00 -0.00000000000E+00 -0.52241792839E+03  0.52241792839E+03  0.00000000000E+00 0. -1.
         25    2    1    2    0    0  0.24467043015E+03  0.14654773933E+03  0.70236091669E+02  0.31922723791E+03  0.12503224207E+03 0.  0.
          2    1    1    2  501    0 -0.16530695214E+03 -0.63621748811E+02 -0.37661824221E+03  0.41619156132E+03  0.00000000000E+00 0. -1.
          1    1    1    2  502    0 -0.79363478012E+02 -0.82925990517E+02  0.21691061389E+04  0.21721410459E+04  0.00000000000E+00 0. -1.
         22    1    3    3    0    0  0.21210321272E+03  0.13202666750E+03  0.10353306591E+03  0.27044021430E+03  0.00000000000E+00 0.  1.
         22    1    3    3    0    0  0.32567217434E+02  0.14521071831E+02 -0.33296974243E+02  0.48787023605E+02  0.00000000000E+00 0.  1.
</event>
<event>
 7    1  0.5562528E-006  0.3352194E+02  0.7818608E-02  0.1640395E+00
          2   -1    0    0  502    0  0.00000000000E+00  0.00000000000E+00  0.81373820623E+02  0.81373820623E+02  0.00000000000E+00 0. -1.
          1   -1    0    0  501    0 -0.00000000000E+00 -0.00000000000E+00 -0.85511094581E+03  0.85511094581E+03  0.00000000000E+00 0. -1.
         25    2    1    2    0    0 -0.10608916504E+02 -0.73141523068E+01 -0.38395151073E+02  0.13139739303E+03  0.12500016534E+03 0.  0.
          2    1    1    2  501    0  0.25311749326E+02  0.22228684441E+02 -0.76666668930E+03  0.76740641876E+03  0.00000000000E+00 0. -1.
          1    1    1    2  502    0 -0.14702832822E+02 -0.14914532134E+02  0.31324715186E+02  0.37680954649E+02  0.00000000000E+00 0. -1.
         22    1    3    3    0    0  0.20722309209E+02 -0.54958286517E+02  0.61245440112E+01  0.59053682317E+02  0.00000000000E+00 0.  1.
         22    1    3    3    0    0 -0.31331225713E+02  0.47644134210E+02 -0.44519695084E+02  0.72343710713E+02  0.00000000000E+00 0.  1.
</event>
<event>
 7    1  0.5562528E-006  0.1616433E+03  0.7818608E-02  0.1279686E+00
          2   -1    0    0  502    0  0.00000000000E+00  0.00000000000E+00  0.61346525980E+03  0.61346525980E+03  0.00000000000E+00 0. -1.
          1   -1    0    0  501    0 -0.00000000000E+00 -0.00000000000E+00 -0.66723813172E+03  0.66723813172E+03  0.00000000000E+00 0. -1.
         25    2    1    2    0    0 -0.12152766315E+03 -0.43878810395E+02  0.16270401274E+03  0.24248595680E+03  0.12503007866E+03 0.  0.
          2    1    1    2  501    0  0.16376725792E+03 -0.18128937517E+01 -0.61419762273E+03  0.63565849410E+03  0.00000000000E+00 0. -1.
          1    1    1    2  502    0 -0.42239594775E+02  0.45691704146E+02  0.39772073806E+03  0.40255894062E+03  0.00000000000E+00 0. -1.
         22    1    3    3    0    0 -0.10633840318E+03  0.10492813335E+02  0.53379350964E+02  0.11944584644E+03  0.00000000000E+00 0.  1.
         22    1    3    3    0    0 -0.15189259974E+02 -0.54371623729E+02  0.10932466178E+03  0.12304011036E+03  0.00000000000E+00 0.  1.
</event>
<event>
 7    1  0.5562528E-006  0.5669750E+02  0.7818608E-02  0.1435814E+00
          2   -1    0    0  502    0  0.00000000000E+00  0.00000000000E+00  0.32998739644E+04  0.32998739644E+04  0.00000000000E+00 0. -1.
          1   -1    0    0  501    0 -0.00000000000E+00 -0.00000000000E+00 -0.31946541681E+02  0.31946541681E+02  0.00000000000E+00 0. -1.
         25    2    1    2    0    0  0.14983729274E+02  0.41492606351E+02  0.19002543587E+04  0.19048725184E+04  0.12500613937E+03 0.  0.
          2    1    1    2  501    0  0.44526684401E+02 -0.16090413957E+02 -0.94725841350E+01  0.48283091194E+02  0.00000000000E+00 0. -1.
          1    1    1    2  502    0 -0.59510413675E+02 -0.25402192394E+02  0.13771456481E+04  0.13786648965E+04  0.00000000000E+00 0. -1.
         22    1    3    3    0    0  0.14434056704E+02 -0.30168639340E+02  0.12886612939E+04  0.12890951940E+04  0.00000000000E+00 0.  1.
         22    1    3    3    0    0  0.54967256973E+00  0.71661245691E+02  0.61159306482E+03  0.61577732437E+03  0.00000000000E+00 0.  1.
</event>
<event>
 7    1  0.5562528E-006  0.5366807E+02  0.7818608E-02  0.1440698E+00
          2   -1    0    0  502    0  0.00000000000E+00  0.00000000000E+00  0.59210004737E+03  0.59210004737E+03  0.00000000000E+00 0. -1.
          1   -1    0    0  501    0 -0.00000000000E+00 -0.00000000000E+00 -0.12932314625E+04  0.12932314625E+04  0.00000000000E+00 0. -1.
         25    2    1    2    0    0  0.33033547394E+02 -0.73209784098E+02 -0.40624032358E+03  0.43255898207E+03  0.12500073889E+03 0.  0.
          2    1    1    2  501    0  0.13376578692E+02  0.46327667494E+02 -0.87192204377E+03  0.87325439366E+03  0.00000000000E+00 0. -1.
          1    1    1    2  502    0 -0.46410126086E+02  0.26882116604E+02  0.57703095222E+03  0.57951813415E+03  0.00000000000E+00 0. -1.
         22    1    3    3    0    0  0.45037787990E+02 -0.10056671757E+03 -0.24591553246E+03  0.26947451852E+03  0.00000000000E+00 0.  1.
         22    1    3    3    0    0 -0.12004240596E+02  0.27356933470E+02 -0.16032479112E+03  0.16308446355E+03  0.00000000000E+00 0.  1.
</event>
<event>
 7    1  0.5562528E-006  0.9677060E+02  0.7818608E-02  0.1370950E+00
          2   -1    0    0  502    0  0.00000000000E+00  0.00000000000E+00  0.78032782945E+03  0.78032782945E+03  0.00000000000E+00 0. -1.
          1   -1    0    0  501    0 -0.00000000000E+00 -0.00000000000E+00 -0.97809951949E+03  0.97809951949E+03  0.00000000000E+00 0. -1.
         25    2    1    2    0    0 -0.55963040687E+02  0.46839924831E+02  0.32548345660E+02  0.14836240228E+03  0.12500466841E+03 0.  0.
          2    1    1    2  501    0  0.95114505113E+02 -0.22209138072E+02 -0.91682018869E+03  0.92200828266E+03  0.00000000000E+00 0. -1.
          1    1    1    2  502    0 -0.39151464426E+02 -0.24630786758E+02  0.68650015299E+03  0.68805666400E+03  0.00000000000E+00 0. -1.
         22    1    3    3    0    0 -0.92039069011E+02  0.27879698734E+02 -0.58159107427E-01  0.96168972171E+02  0.00000000000E+00 0.  1.
         22    1    3    3    0    0  0.36076028324E+02  0.18960226096E+02  0.32606504767E+02  0.52193430107E+02  0.00000000000E+00 0.  1.
</event>
<event>
 7    1  0.5562528E-006  0.9240692E+02  0.7818608E-02  0.1313100E+00
          2   -1    0    0  502    0  0.00000000000E+00  0.00000000000E+00  0.14161647527E+04  0.14161647527E+04  0.00000000000E+00 0. -1.
          1   -1    0    0  501    0 -0.00000000000E+00 -0.00000000000E+00 -0.19646796505E+03  0.19646796505E+03  0.00000000000E+00 0. -1.
         25    2    1    2    0    0 -0.54524546971E+02  0.19284699965E+02  0.14425384459E+01  0.13773599827E+03  0.12499719368E+03 0.  0.
          2    1    1    2  501    0  0.98067347306E+02  0.47646428944E+02 -0.10373772465E+03  0.15049552257E+03  0.00000000000E+00 0. -1.
          1    1    1    2  502    0 -0.43542800334E+02 -0.66931128909E+02  0.13219919738E+04  0.13244011969E+04  0.00000000000E+00 0. -1.
         22    1    3    3    0    0  0.39869074757E+02  0.14920997310E+02 -0.58067166713E+01  0.42963906261E+02  0.00000000000E+00 0.  1.
         22    1    3    3    0    0 -0.94393621729E+02  0.43637026548E+01  0.72492551172E+01  0.94772092008E+02  0.00000000000E+00 0.  1.
</event>
<event>
 7    1  0.5562528E-006  0.8547580E+02  0.7818608E-02  0.1411624E+00
          2   -1    0    0  502    0  0.00000000000E+00  0.00000000000E+00  0.19159189825E+04  0.19159189825E+04  0.00000000000E+00 0. -1.
          1   -1    0    0  501    0 -0.00000000000E+00 -0.00000000000E+00 -0.11661620429E+04  0.11661620429E+04  0.00000000000E+00 0. -1.
         25    2    1    2    0    0  0.69292555301E+02 -0.14682726623E+02  0.34329080477E+03  0.37214377117E+03  0.12500147639E+03 0.  0.
          2    1    1    2  501    0 -0.83080311791E+02 -0.20500379687E+02 -0.11499164348E+04  0.11530960111E+04  0.00000000000E+00 0. -1.
          1    1    1    2  502    0  0.13787756491E+02  0.35183106310E+02  0.15563825697E+04  0.15568412432E+04  0.00000000000E+00 0. -1.
         22    1    3    3    0    0  0.62520993692E+02 -0.51810080062E+02  0.31411841604E+03  0.32444342857E+03  0.00000000000E+00 0. -1.
         22    1    3    3    0    0  0.67715616083E+01  0.37127353439E+02  0.29172388735E+02  0.47700342604E+02  0.00000000000E+00 0. -1.
</event>
<event>
 7    1  0.5562528E-006  0.1780517E+03  0.7818608E-02  0.1214557E+00
          2   -1    0    0  502    0  0.00000000000E+00  0.00000000000E+00  0.86624541605E+03  0.86624541605E+03  0.00000000000E+00 0. -1.
          1   -1    0    0  501    0 -0.00000000000E+00 -0.00000000000E+00 -0.67921038858E+03  0.67921038858E+03  0.00000000000E+00 0. -1.
         25    2    1    2    0    0 -0.76292198824E+02 -0.11044658310E+03 -0.20173224865E+03  0.27265293354E+03  0.12499909880E+03 0.  0.
          2    1    1    2  501    0  0.41171318786E+02  0.21326943564E+03 -0.41143887041E+03  0.46525355856E+03  0.00000000000E+00 0. -1.
          1    1    1    2  502    0  0.35120880038E+02 -0.10282285254E+03  0.80020614654E+03  0.80754931253E+03  0.00000000000E+00 0. -1.
         22    1    3    3    0    0 -0.70197623096E+02 -0.94875655528E+02 -0.64677348936E+02  0.13458178096E+03  0.00000000000E+00 0.  1.
         22    1    3    3    0    0 -0.60945757284E+01 -0.15570927572E+02 -0.13705489971E+03  0.13807115258E+03  0.00000000000E+00 0.  1.
</event>
<event>
 7    1  0.5562528E-006  0.7261003E+02  0.7818608E-02  0.1400397E+00
          2   -1    0    0  502    0  0.00000000000E+00  0.00000000000E+00  0.57724624528E+03  0.57724624528E+03  0.00000000000E+00 0. -1.
          1   -1    0    0  501    0 -0.00000000000E+00 -0.00000000000E+00 -0.12961896869E+04  0.12961896869E+04  0.00000000000E+00 0. -1.
         25    2    1    2    0    0 -0.76274449033E+02 -0.70949991436E+02  0.21262790513E+03  0.26775362457E+03  0.12501873688E+03 0.  0.
          2    1    1    2  501    0  0.47990713527E+02  0.75546375680E+01 -0.12645811595E+04  0.12655140023E+04  0.00000000000E+00 0. -1.
          1    1    1    2  502    0  0.28283735507E+02  0.63395353868E+02  0.33300981271E+03  0.34016830533E+03  0.00000000000E+00 0. -1.
         22    1    3    3    0    0 -0.76991179127E+02 -0.78009612376E+02  0.22680487644E+03  0.25189996678E+03  0.00000000000E+00 0.  1.
         22    1    3    3    0    0  0.71673009343E+00  0.70596209402E+01 -0.14176971310E+02  0.15853657791E+02  0.00000000000E+00 0.  1.
</event>
<event>
 7    1  0.5562528E-006  0.1414939E+03  0.7818608E-02  0.1244859E+00
          2   -1    0    0  502    0  0.00000000000E+00  0.00000000000E+00  0.69926095033E+02  0.69926095033E+02  0.00000000000E+00 0. -1.
          1   -1    0    0  501    0 -0.00000000000E+00 -0.00000000000E+00 -0.17026095513E+04  0.17026095513E+04  0.00000000000E+00 0. -1.
         25    2    1    2    0    0 -0.88875680275E+01  0.10199420174E+03 -0.27389655990E+03  0.31799960051E+03  0.12499045701E+03 0.  0.
          2    1    1    2  501    0 -0.88269708192E+02 -0.12557553422E+03 -0.13448616499E+04  0.13535928536E+04  0.00000000000E+00 0. -1.
          1    1    1    2  502    0  0.97157276219E+02  0.23581332480E+02 -0.13925246545E+02  0.10094319222E+03  0.00000000000E+00 0. -1.
         22    1    3    3    0    0  0.65927631244E+01  0.12203373020E+03 -0.26380889855E+03  0.29074186280E+03  0.00000000000E+00 0.  1.
         22    1    3    3    0    0 -0.15480331152E+02 -0.20039528455E+02 -0.10087661350E+02  0.27257737705E+02  0.00000000000E+00 0.  1.
</event>
<event>
 7    1  0.5562528E-006  0.2388487E+03  0.7818608E-02  0.1232372E+00
          2   -1    0    0  502    0  0.00000000000E+00  0.00000000000E+00  0.44175050064E+03  0.44175050064E+03  0.00000000000E+00 0. -1.
          1   -1    0    0  501    0 -0.00000000000E+00 -0.00000000000E+00 -0.21154223643E+04  0.21154223643E+04  0.00000000000E+00 0. -1.
         25    2    1    2    0    0  0.29140823410E+03 -0.87298113848E+02 -0.12578230293E+04  0.13001088508E+04  0.12499812530E+03 0.  0.
          2    1    1    2  501    0 -0.63017225462E+02  0.23492107488E+02 -0.80151175893E+03  0.80432838413E+03  0.00000000000E+00 0. -1.
          1    1    1    2  502    0 -0.22839100864E+03  0.63806006360E+02  0.38566292457E+03  0.45273562999E+03  0.00000000000E+00 0. -1.
         22    1    3    3    0    0 -0.54807437696E+01 -0.11223873286E+02 -0.12668518491E+02  0.17790594272E+02  0.00000000000E+00 0. -1.
         22    1    3    3    0    0  0.29688897787E+03 -0.76074240563E+02 -0.12451545108E+04  0.12823182565E+04  0.00000000000E+00 0. -1.
</event>
<event>
 7    1  0.5562528E-006  0.1535056E+03  0.7818608E-02  0.1274416E+00
          2   -1    0    0  502    0  0.00000000000E+00  0.00000000000E+00  0.21555379937E+04  0.21555379937E+04  0.00000000000E+00 0. -1.
          1   -1    0    0  501    0 -0.00000000000E+00 -0.00000000000E+00 -0.88484745895E+03  0.88484745895E+03  0.00000000000E+00 0. -1.
         25    2    1    2    0    0 -0.87189465131E+02 -0.82827593647E+02  0.80681951453E+03  0.82525491043E+03  0.12500210026E+03 0.  0.
          2    1    1    2  501    0  0.54952210142E+02  0.14373156002E+03 -0.86797170402E+03  0.88150631633E+03  0.00000000000E+00 0. -1.
          1    1    1    2  502    0  0.32237254989E+02 -0.60903966370E+02  0.13318427243E+04  0.13336242259E+04  0.00000000000E+00 0. -1.
         22    1    3    3    0    0 -0.24333832023E+02 -0.10027450209E+03  0.58547914632E+03  0.59450226402E+03  0.00000000000E+00 0. -1.
         22    1    3    3    0    0 -0.62855633108E+02  0.17446908441E+02  0.22134036821E+03  0.23075264641E+03  0.00000000000E+00 0. -1.
</event>
<event>
 7    1  0.5562528E-006  0.3709410E+02  0.7818608E-02  0.1548070E+00
          2   -1    0    0  502    0  0.00000000000E+00  0.00000000000E+00  0.83263818924E+03  0.83263818924E+03  0.00000000000E+00 0. -1.
          1   -1    0    0  501    0 -0.00000000000E+00 -0.00000000000E+00 -0.23502652635E+04  0.23502652635E+04  0.00000000000E+00 0. -1.
         25    2    1    2    0    0 -0.45944398018E+01 -0.17192589726E+01  0.18170009222E+03  0.22059985590E+03  0.12500123272E+03 0.  0.
          2    1    1    2  501    0 -0.31151733124E+02 -0.11297686969E+02 -0.23301245245E+04  0.23303601369E+04  0.00000000000E+00 0. -1.
          1    1    1    2  502    0  0.35746172926E+02  0.13016945941E+02  0.63079735796E+03  0.63194345995E+03  0.00000000000E+00 0. -1.
         22    1    3    3    0    0  0.52787997441E+02 -0.25860125790E+02  0.60542817577E+02  0.84384545622E+02  0.00000000000E+00 0. -1.
         22    1    3    3    0    0 -0.57382437243E+02  0.24140866817E+02  0.12115727465E+03  0.13621531028E+03  0.00000000000E+00 0. -1.
</event>
<event>
 7    1  0.5562528E-006  0.1727306E+03  0.7818608E-02  0.1256848E+00
          2   -1    0    0  502    0  0.00000000000E+00  0.00000000000E+00  0.23367162322E+03  0.23367162322E+03  0.00000000000E+00 0. -1.
          1   -1    0    0  501    0 -0.00000000000E+00 -0.00000000000E+00 -0.28481884865E+04  0.28481884865E+04  0.00000000000E+00 0. -1.
         25    2    1    2    0    0  0.27897834927E+02 -0.14946847873E+03 -0.70608285558E+03  0.73300152743E+03  0.12497649755E+03 0.  0.
          2    1    1    2  501    0  0.72346762767E+02  0.68069444671E+01 -0.20934031794E+04  0.20946639970E+04  0.00000000000E+00 0. -1.
          1    1    1    2  502    0 -0.10024459769E+03  0.14266153427E+03  0.18496917172E+03  0.25419458533E+03  0.00000000000E+00 0. -1.
         22    1    3    3    0    0  0.69988128851E+02 -0.91190870100E+02 -0.53880184733E+03  0.55092789333E+03  0.00000000000E+00 0. -1.
         22    1    3    3    0    0 -0.42090293923E+02 -0.58277608632E+02 -0.16728100825E+03  0.18207363410E+03  0.00000000000E+00 0. -1.
</event>
<event>
 7    1  0.5562528E-006  0.1388439E+03  0.7818608E-02  0.1253004E+00
          2   -1    0    0  502    0  0.00000000000E+00  0.00000000000E+00  0.14514561906E+04  0.14514561906E+04  0.00000000000E+00 0. -1.
          1   -1    0    0  501    0 -0.00000000000E+00 -0.00000000000E+00 -0.59356072155E+03  0.59356072155E+03  0.00000000000E+00 0. -1.
         25    2    1    2    0    0  0.14518231499E+03  0.10462691266E+03  0.15165794157E+02  0.21881643461E+03  0.12500374115E+03 0.  0.
          2    1    1    2  501    0 -0.53849866072E+02 -0.12648646859E+03 -0.48043037118E+03  0.49971189336E+03  0.00000000000E+00 0. -1.
          1    1    1    2  502    0 -0.91332448920E+02  0.21859555932E+02  0.13231600461E+04  0.13264885842E+04  0.00000000000E+00 0. -1.
         22    1    3    3    0    0  0.84459667906E+02  0.88448736424E+02 -0.46437406534E+02  0.13081684602E+03  0.00000000000E+00 0. -1.
         22    1    3    3    0    0  0.60722647086E+02  0.16178176236E+02  0.61603200691E+02  0.87999588583E+02  0.00000000000E+00 0. -1.
</event>
<event>
 7    1  0.5562528E-006  0.1350214E+03  0.7818608E-02  0.1223805E+00
          2   -1    0    0  502    0  0.00000000000E+00  0.00000000000E+00  0.51412473829E+03  0.51412473829E+03  0.00000000000E+00 0. -1.
          1   -1    0    0  501    0 -0.00000000000E+00 -0.00000000000E+00 -0.61614066415E+03  0.61614066415E+03  0.00000000000E+00 0. -1.
         25    2    1    2    0    0  0.17484993249E+03 -0.91031112499E+02 -0.32867823239E+03  0.40312961096E+03  0.12499976182E+03 0.  0.
          2    1    1    2  501    0 -0.43941468018E+02  0.12235800548E+03 -0.22279609090E+03  0.25795432200E+03  0.00000000000E+00 0. -1.
          1    1    1    2  502    0 -0.13090846447E+03 -0.31326892980E+02  0.44945839743E+03  0.46918146949E+03  0.00000000000E+00 0. -1.
         22    1    3    3    0    0  0.17010298809E+03 -0.35127589967E+02 -0.27639500173E+03  0.32644014936E+03  0.00000000000E+00 0. -1.
         22    1    3    3    0    0  0.47469444004E+01 -0.55903522533E+02 -0.52283230654E+02  0.76689461599E+02  0.00000000000E+00 0. -1.
</event>
<event>
 7    1  0.5562528E-006  0.1192307E+03  0.7818608E-02  0.1381287E+00
          2   -1    0    0  502    0  0.00000000000E+00  0.00000000000E+00  0.11948595360E+04  0.11948595360E+04  0.00000000000E+00 0. -1.
          1   -1    0    0  501    0 -0.00000000000E+00 -0.00000000000E+00 -0.34365390556E+03  0.34365390556E+03  0.00000000000E+00 0. -1.
         25    2    1    2    0    0 -0.64531639213E+00  0.89275008295E+02  0.74967489940E+03  0.76524224193E+03  0.12495115245E+03 0.  0.
          2    1    1    2  501    0 -0.17965511168E+02 -0.11831238889E+03 -0.32449185483E+03  0.34585480307E+03  0.00000000000E+00 0. -1.
          1    1    1    2  502    0  0.18610827560E+02  0.29037380599E+02  0.42602258582E+03  0.42741639651E+03  0.00000000000E+00 0. -1.
         22    1    3    3    0    0 -0.50067975534E+02  0.80172477455E+02  0.35451197128E+03  0.36689666950E+03  0.00000000000E+00 0. -1.
         22    1    3    3    0    0  0.49422659142E+02  0.91025308406E+01  0.39516292813E+03  0.39834557243E+03  0.00000000000E+00 0. -1.
</event>
<event>
 7    1  0.5562528E-006  0.1315828E+03  0.7818608E-02  0.1434487E+00
          2   -1    0    0  502    0  0.00000000000E+00  0.00000000000E+00  0.26725675088E+03  0.26725675088E+03  0.00000000000E+00 0. -1.
          1   -1    0    0  501    0 -0.00000000000E+00 -0.00000000000E+00 -0.80210567710E+03  0.80210567710E+03  0.00000000000E+00 0. -1.
         25    2    1    2    0    0 -0.28042821216E+01  0.12400242080E+03 -0.11438600333E+03  0.20998633675E+03  0.12500255798E+03 0.  0.
          2    1    1    2  501    0  0.19131414932E+02  0.76520466160E+01 -0.61968369106E+03  0.62002616221E+03  0.00000000000E+00 0. -1.
          1    1    1    2  502    0 -0.16327132810E+02 -0.13165446742E+03  0.19922076816E+03  0.23934992902E+03  0.00000000000E+00 0. -1.
         22    1    3    3    0    0 -0.17719087483E+02  0.10765938444E+03 -0.17373050437E+02  0.11048227008E+03  0.00000000000E+00 0.  1.
         22    1    3    3    0    0  0.14914805362E+02  0.16343036360E+02 -0.97012952889E+02  0.99504066674E+02  0.00000000000E+00 0.  1.
</event>
<event>
 7    1  0.5562528E-006  0.3724324E+02  0.7818608E-02  0.1536140E+00
          2   -1    0    0  502    0  0.00000000000E+00  0.00000000000E+00  0.17185674047E+03  0.17185674047E+03  0.00000000000E+00 0. -1.
          1   -1    0    0  501    0 -0.00000000000E+00 -0.00000000000E+00 -0.37452972864E+03  0.37452972864E+03  0.00000000000E+00 0. -1.
         25    2    1    2    0    0  0.23555749953E+02  0.44046832037E+02 -0.14634793295E+03  0.19883989625E+03  0.12499836037E+03 0.  0.
          2    1    1    2  501    0  0.11098568074E+02 -0.35630055456E+02 -0.19798261916E+03  0.20146909578E+03  0.00000000000E+00 0. -1.
          1    1    1    2  502    0 -0.34654318027E+02 -0.84167765816E+01  0.14165756395E+03  0.14607747708E+03  0.00000000000E+00 0. -1.
         22    1    3    3    0    0 -0.93583733245E+01  0.19828957928E+02 -0.15543838070E+03  0.15697724968E+03  0.00000000000E+00 0.  1.
         22    1    3    3    0    0  0.32914123277E+02  0.24217874110E+02  0.90904477468E+01  0.41862646569E+02  0.00000000000E+00 0.  1.
</event>
<event>
 7    1  0.5562528E-006  0.1402904E+03  0.7818608E-02  0.1388628E+00
          2   -1    0    0  502    0  0.00000000000E+00  0.00000000000E+00  0.58114362393E+03  0.58114362393E+03  0.00000000000E+00 0. -1.
          1   -1    0    0  501    0 -0.00000000000E+00 -0.00000000000E+00 -0.12172329831E+04  0.12172329831E+04  0.00000000000E+00 0. -1.
         25    2    1    2    0    0  0.11740942404E+02 -0.16523965778E+03 -0.29575598988E+02  0.20961866560E+03  0.12499309852E+03 0.  0.
          2    1    1    2  501    0 -0.49275078464E+01  0.27178034120E+02 -0.10877306397E+04  0.10880812793E+04  0.00000000000E+00 0. -1.
          1    1    1    2  502    0 -0.68134345578E+01  0.13806162367E+03  0.48121687954E+03  0.50067666210E+03  0.00000000000E+00 0. -1.
         22    1    3    3    0    0  0.43800734441E+02 -0.41784912219E+02  0.31455338286E+02  0.68219656503E+02  0.00000000000E+00 0. -1.
         22    1    3    3    0    0 -0.32059792037E+02 -0.12345474557E+03 -0.61030937273E+02  0.14139900909E+03  0.00000000000E+00 0. -1.
</event>
<event>
 7    1  0.5562528E-006  0.2863157E+02  0.7818608E-02  0.1641147E+00
          2   -1    0    0  502    0  0.00000000000E+00  0.00000000000E+00  0.95701874225E+02  0.95701874225E+02  0.00000000000E+00 0. -1.
          1   -1    0    0  501    0 -0.00000000000E+00 -0.00000000000E+00 -0.79090471273E+03  0.79090471273E+03  0.00000000000E+00 0. -1.
         25    2    1    2    0    0 -0.65078859695E+01 -0.20696515070E+02 -0.39453791953E+02  0.13285957159E+03  0.12499746297E+03 0.  0.
          2    1    1    2  501    0 -0.21491726970E+02  0.11584942367E+02 -0.70009237738E+03  0.70051798127E+03  0.00000000000E+00 0. -1.
          1    1    1    2  502    0  0.27999612939E+02  0.91115727025E+01  0.44343330826E+02  0.53229034094E+02  0.00000000000E+00 0. -1.
         22    1    3    3    0    0  0.20939333240E+02 -0.43972598422E+02 -0.70258158420E+02  0.85488326180E+02  0.00000000000E+00 0.  1.
         22    1    3    3    0    0 -0.27447219209E+02  0.23276083352E+02  0.30804366467E+02  0.47371245413E+02  0.00000000000E+00 0.  1.
</event>
<event>
 7    1  0.5562528E-006  0.1206744E+03  0.7818608E-02  0.1295054E+00
          2   -1    0    0  502    0  0.00000000000E+00  0.00000000000E+00  0.23484686431E+04  0.23484686431E+04  0.00000000000E+00 0. -1.
          1   -1    0    0  501    0 -0.00000000000E+00 -0.00000000000E+00 -0.17562022818E+03  0.17562022818E+03  0.00000000000E+00 0. -1.
         25    2    1    2    0    0 -0.11757601300E+03  0.12419307865E+03  0.61532882755E+03  0.65076962975E+03  0.12499402135E+03 0.  0.
          2    1    1    2  501    0  0.10687960859E+03 -0.52856687389E+02 -0.13451164829E+03  0.17975111588E+03  0.00000000000E+00 0. -1.
          1    1    1    2  502    0  0.10696404401E+02 -0.71336391265E+02  0.16920312356E+04  0.16935681256E+04  0.00000000000E+00 0. -1.
         22    1    3    3    0    0 -0.11792845762E+03  0.78237764432E+02  0.56568752290E+03  0.58312146459E+03  0.00000000000E+00 0.  1.
         22    1    3    3    0    0  0.35244462283E+00  0.45955314221E+02  0.49641304653E+02  0.67648165164E+02  0.00000000000E+00 0.  1.
</event>
<event>
 7    1  0.5562528E-006  0.2654603E+03  0.7818608E-02  0.1205277E+00
          2   -1    0    0  502    0  0.00000000000E+00  0.00000000000E+00  0.79485068687E+03  0.79485068687E+03  0.00000000000E+00 0. -1.
          1   -1    0    0  501    0 -0.00000000000E+00 -0.00000000000E+00 -0.47766718740E+03  0.47766718740E+03  0.00000000000E+00 0. -1.
         25    2    1    2    0    0 -0.10317718823E+03 -0.19079765083E+03  0.30299271964E+01  0.25036539958E+03  0.12499750844E+03 0.  0.
          2    1    1    2  501    0  0.17227284171E+03  0.23204470630E+03 -0.29190844946E+03  0.41077149436E+03  0.00000000000E+00 0. -1.
          1    1    1    2  502    0 -0.69095653484E+02 -0.41247055464E+02  0.60606202174E+03  0.61138098033E+03  0.00000000000E+00 0. -1.
         22    1    3    3    0    0  0.71231276463E+00 -0.68867476446E+02 -0.46025897357E+02  0.82834895600E+02  0.00000000000E+00 0.  1.
         22    1    3    3    0    0 -0.10388950099E+03 -0.12193017439E+03  0.49055824553E+02  0.16753050398E+03  0.00000000000E+00 0.  1.
</event>
<event>
 7    1  0.5562528E-006  0.2466189E+03  0.7818608E-02  0.1172314E+00
          2   -1    0    0  502    0  0.00000000000E+00  0.00000000000E+00  0.38598451211E+03  0.38598451211E+03  0.00000000000E+00 0. -1.
          1   -1    0    0  501    0 -0.00000000000E+00 -0.00000000000E+00 -0.10698738342E+04  0.10698738342E+04  0.00000000000E+00 0. -1.
         25    2    1    2    0    0 -0.35265789765E+02 -0.15228378940E+03 -0.52311741019E+02  0.20686941752E+03  0.12499763683E+03 0.  0.
          2    1    1    2  501    0  0.12259635888E+03  0.24139747465E+03 -0.90704034753E+03  0.94658586510E+03  0.00000000000E+00 0. -1.
          1    1    1    2  502    0 -0.87330569112E+02 -0.89113685246E+02  0.27546276647E+03  0.30240306366E+03  0.00000000000E+00 0. -1.
         22    1    3    3    0    0  0.17754317396E+02  0.98674033616E+01  0.13088506779E+02  0.24163825131E+02  0.00000000000E+00 0. -1.
         22    1    3    3    0    0 -0.53020107161E+02 -0.16215119276E+03 -0.65400247798E+02  0.18270559239E+03  0.00000000000E+00 0. -1.
</event>
<event>
 7    1  0.5562528E-006  0.1517629E+03  0.7818608E-02  0.1276270E+00
          2   -1    0    0  502    0  0.00000000000E+00  0.00000000000E+00  0.53788297153E+03  0.53788297153E+03  0.00000000000E+00 0. -1.
          1   -1    0    0  501    0 -0.00000000000E+00 -0.00000000000E+00 -0.44663788005E+03  0.44663788005E+03  0.00000000000E+00 0. -1.
         25    2    1    2    0    0 -0.97345150023E+02 -0.86167332049E+02 -0.24486368812E+02  0.18200330202E+03  0.12499892937E+03 0.  0.
          2    1    1    2  501    0 -0.52818968552E+02  0.43574090772E+02 -0.32647169099E+03  0.33357504379E+03  0.00000000000E+00 0. -1.
          1    1    1    2  502    0  0.15016411857E+03  0.42593241276E+02  0.44220315128E+03  0.46894250577E+03  0.00000000000E+00 0. -1.
         22    1    3    3    0    0 -0.91362449492E+02 -0.21660311584E+02 -0.56664318548E+02  0.10966818714E+03  0.00000000000E+00 0.  1.
         22    1    3    3    0    0 -0.59827005305E+01 -0.64507020465E+02  0.32177949736E+02  0.72335114876E+02  0.00000000000E+00 0.  1.
</event>
<event>
 7    1  0.5562528E-006  0.7067492E+02  0.7818608E-02  0.1419313E+00
          2   -1    0    0  502    0  0.00000000000E+00  0.00000000000E+00  0.17512604560E+04  0.17512604560E+04  0.00000000000E+00 0. -1.
          1   -1    0    0  501    0 -0.00000000000E+00 -0.00000000000E+00 -0.39410795111E+02  0.39410795111E+02  0.00000000000E+00 0. -1.
         25    2    1    2    0    0 -0.10358985799E+03 -0.10120266791E+02  0.69884726382E+03  0.71752612300E+03  0.12499184197E+03 0.  0.
          2    1    1    2  501    0  0.37415542341E+02  0.21315017466E+02 -0.12976208297E+02  0.44973711877E+02  0.00000000000E+00 0. -1.
          1    1    1    2  502    0  0.66174315648E+02 -0.11194750676E+02  0.10259786053E+04  0.10281714162E+04  0.00000000000E+00 0. -1.
         22    1    3    3    0    0 -0.77641698814E+02  0.83861878200E+01  0.67000744879E+03  0.67454321060E+03  0.00000000000E+00 0. -1.
         22    1    3    3    0    0 -0.25948159175E+02 -0.18506454611E+02  0.28839815031E+02  0.42982912394E+02  0.00000000000E+00 0. -1.
</event>
<event>
 7    1  0.5562528E-006  0.3033121E+02  0.7818608E-02  0.1656144E+00
          2   -1    0    0  502    0  0.00000000000E+00  0.00000000000E+00  0.58009470142E+03  0.58009470142E+03  0.00000000000E+00 0. -1.
          1   -1    0    0  501    0 -0.00000000000E+00 -0.00000000000E+00 -0.40747288534E+03  0.40747288534E+03  0.00000000000E+00 0. -1.
         25    2    1    2    0    0  0.92902287729E+01 -0.65526435238E+00  0.70569902139E+02  0.14384239193E+03  0.12499513954E+03 0.  0.
          2    1    1    2  501    0 -0.30157665457E+02  0.42380387181E+01 -0.36997369379E+03  0.37122497203E+03  0.00000000000E+00 0. -1.
          1    1    1    2  502    0  0.20867436684E+02 -0.35827743658E+01  0.47202560773E+03  0.47250022279E+03  0.00000000000E+00 0. -1.
         22    1    3    3    0    0  0.32061441087E+02 -0.48587075748E+01 -0.27843719005E+02  0.42741264978E+02  0.00000000000E+00 0.  1.
         22    1    3    3    0    0 -0.22771212314E+02  0.42034432224E+01  0.98413621144E+02  0.10110112696E+03  0.00000000000E+00 0.  1.
</event>
<event>
 7    1  0.5562528E-006  0.6319924E+02  0.7818608E-02  0.1432973E+00
          2   -1    0    0  502    0  0.00000000000E+00  0.00000000000E+00  0.30106071527E+03  0.30106071527E+03  0.00000000000E+00 0. -1.
          1   -1    0    0  501    0 -0.00000000000E+00 -0.00000000000E+00 -0.23506510904E+03  0.23506510904E+03  0.00000000000E+00 0. -1.
         25    2    1    2    0    0 -0.64417438799E+02  0.53663016974E+02 -0.97254916526E+02  0.17920283630E+03  0.12500324770E+03 0.  0.
          2    1    1    2  501    0  0.43039460109E+02  0.55258200648E+01 -0.87889744140E+02  0.98018043945E+02  0.00000000000E+00 0. -1.
          1    1    1    2  502    0  0.21377978689E+02 -0.59188837039E+02  0.25114026690E+03  0.25890494407E+03  0.00000000000E+00 0. -1.
         22    1    3    3    0    0 -0.14816555786E+02  0.63373893984E+02 -0.10933233697E+03  0.12723733993E+03  0.00000000000E+00 0. -1.
         22    1    3    3    0    0 -0.49600883013E+02 -0.97108770100E+01  0.12077420448E+02  0.51965496366E+02  0.00000000000E+00 0. -1.
</event>
<event>
 7    1  0.5562528E-006  0.3307425E+03  0.7818608E-02  0.1173502E+00
          2   -1    0    0  502    0  0.00000000000E+00  0.00000000000E+00  0.19590262962E+04  0.19590262962E+04  0.00000000000E+00 0. -1.
          1   -1    0    0  501    0 -0.00000000000E+00 -0.00000000000E+00 -0.28120085592E+04  0.28120085592E+04  0.00000000000E+00 0. -1.
         25    2    1    2    0    0 -0.18090942457E+02  0.32242149041E+03  0.25675424887E+03  0.43108251286E+03  0.12500595548E+03 0.  0.
          2    1    1    2  501    0 -0.73693678747E+02 -0.32303140939E+03 -0.27134551880E+04  0.27336091723E+04  0.00000000000E+00 0. -1.
          1    1    1    2  502    0  0.91784621204E+02  0.60991897678E+00  0.16037186761E+04  0.16063431703E+04  0.00000000000E+00 0. -1.
         22    1    3    3    0    0 -0.27943586744E+02  0.18669472839E+03  0.22046664591E+03  0.29024353156E+03  0.00000000000E+00 0.  1.
         22    1    3    3    0    0  0.98526442866E+01  0.13572676202E+03  0.36287602956E+02  0.14083898131E+03  0.00000000000E+00 0.  1.
</event>
<event>
 7    1  0.5562528E-006  0.6113239E+02  0.7818608E-02  0.1487596E+00
          2   -1    0    0  502    0  0.00000000000E+00  0.00000000000E+00  0.42362630538E+03  0.42362630538E+03  0.00000000000E+00 0. -1.
          1   -1    0    0  501    0 -0.00000000000E+00 -0.00000000000E+00 -0.11079781942E+04  0.11079781942E+04  0.00000000000E+00 0. -1.
         25    2    1    2    0    0  0.32574784284E+02  0.23506517015E+02  0.99119843642E+02  0.16450470024E+03  0.12499352016E+03 0.  0.
          2    1    1    2  501    0  0.29118903641E+02 -0.78867457093E+01 -0.10716012057E+04  0.10720257718E+04  0.00000000000E+00 0. -1.
          1    1    1    2  502    0 -0.61693687926E+02 -0.15619771306E+02  0.28812947325E+03  0.29507402756E+03  0.00000000000E+00 0. -1.
         22    1    3    3    0    0 -0.21100957048E+02  0.53245965304E+02  0.83376580110E+02  0.10115353341E+03  0.00000000000E+00 0.  1.
         22    1    3    3    0    0  0.53675741333E+02 -0.29739448289E+02  0.15743263532E+02  0.63351166830E+02  0.00000000000E+00 0.  1.
</event>
<event>
 7    1  0.5562528E-006  0.1451275E+03  0.7818608E-02  0.1280302E+00
          2   -1    0    0  502    0  0.00000000000E+00  0.00000000000E+00  0.73777343269E+03  0.73777343269E+03  0.00000000000E+00 0. -1.
          1   -1    0    0  501    0 -0.00000000000E+00 -0.00000000000E+00 -0.73649551171E+03  0.73649551171E+03  0.00000000000E+00 0. -1.
         25    2    1    2    0    0 -0.24998710695E+02 -0.10609252357E+03  0.42877135207E+03  0.45972353559E+03  0.12498118949E+03 0.  0.
          2    1    1    2  501    0  0.93654096084E+02  0.11190362247E+03 -0.70944525731E+03  0.72429695813E+03  0.00000000000E+00 0. -1.
          1    1    1    2  502    0 -0.68655385389E+02 -0.58110988997E+01  0.28195182622E+03  0.29024845068E+03  0.00000000000E+00 0. -1.
         22    1    3    3    0    0 -0.36314513488E+02  0.18266452941E+02  0.11783509316E+03  0.12464957430E+03  0.00000000000E+00 0.  1.
         22    1    3    3    0    0  0.11315802793E+02 -0.12435897651E+03  0.31093625891E+03  0.33507396129E+03  0.00000000000E+00 0.  1.
</event>
<event>
 7    1  0.5562528E-006  0.1105584E+03  0.7818608E-02  0.1290062E+00
          2   -1    0    0  502    0  0.00000000000E+00  0.00000000000E+00  0.10097463215E+04  0.10097463215E+04  0.00000000000E+00 0. -1.
          1   -1    0    0  501    0 -0.00000000000E+00 -0.00000000000E+00 -0.63842052862E+02  0.63842052862E+02  0.00000000000E+00 0. -1.
         25    2    1    2    0    0  0.68783285485E+02  0.13715172613E+03  0.55977249181E+03  0.59372700815E+03  0.12499912513E+03 0.  0.
          2    1    1    2  501    0 -0.90939763036E+02 -0.57696484417E+02  0.26526595437E+02  0.11091701889E+03  0.00000000000E+00 0. -1.
          1    1    1    2  502    0  0.22156477550E+02 -0.79455241709E+02  0.35960518142E+03  0.36894434735E+03  0.00000000000E+00 0. -1.
         22    1    3    3    0    0  0.28437437869E+02  0.36760335515E+02  0.35705585768E+02  0.58608011353E+02  0.00000000000E+00 0. -1.
         22    1    3    3    0    0  0.40345847616E+02  0.10039139061E+03  0.52406690604E+03  0.53511899680E+03  0.00000000000E+00 0. -1.
</event>
<event>
 7    1  0.5562528E-006  0.4303555E+02  0.7818608E-02  0.1545045E+00
          2   -1    0    0  502    0  0.00000000000E+00  0.00000000000E+00  0.57851532319E+03  0.57851532319E+03  0.00000000000E+00 0. -1.
          1   -1    0    0  501    0 -0.00000000000E+00 -0.00000000000E+00 -0.82075376510E+03  0.82075376510E+03  0.00000000000E+00 0. -1.
         25    2    1    2    0    0 -0.18410229228E+02  0.19699229356E+02  0.51110813156E+03  0.52686497525E+03  0.12501273464E+03 0.  0.
          2    1    1    2  501    0  0.38556107694E+02  0.19117674716E+02 -0.80418932613E+03  0.80534000968E+03  0.00000000000E+00 0. -1.
          1    1    1    2  502    0 -0.20145878466E+02 -0.38816904073E+02  0.50842752661E+02  0.67064103357E+02  0.00000000000E+00 0. -1.
         22    1    3    3    0    0  0.20075438179E+02  0.64129225812E+02  0.22687952102E+03  0.23662184574E+03  0.00000000000E+00 0.  1.
         22    1    3    3    0    0 -0.38485667407E+02 -0.44429996456E+02  0.28422861054E+03  0.29024312952E+03  0.00000000000E+00 0.  1.
</event>
<event>
 7    1  0.5562528E-006  0.7235068E+02  0.7818608E-02  0.1352482E+00
          2   -1    0    0  502    0  0.00000000000E+00  0.00000000000E+00  0.29636618392E+03  0.29636618392E+03  0.00000000000E+00 0. -1.
          1   -1    0    0  501    0 -0.00000000000E+00 -0.00000000000E+00 -0.19021351851E+03  0.19021351851E+03  0.00000000000E+00 0. -1.
         25    2    1    2    0    0  0.36662163286E+02  0.50720627449E+02 -0.48104050524E+02  0.14783657420E+03  0.12499982691E+03 0.  0.
          2    1    1    2  501    0 -0.70558017378E+02  0.16005860379E+02 -0.71005950072E+02  0.10137290727E+03  0.00000000000E+00 0. -1.
          1    1    1    2  502    0  0.33895854092E+02 -0.66726487828E+02  0.22526266601E+03  0.23737022096E+03  0.00000000000E+00 0. -1.
         22    1    3    3    0    0  0.77679984672E+02  0.59292588289E+02 -0.30358117097E+02  0.10232988966E+03  0.00000000000E+00 0.  1.
         22    1    3    3    0    0 -0.41017821386E+02 -0.85719608403E+01 -0.17745933427E+02  0.45506684532E+02  0.00000000000E+00 0.  1.
</event>
<event>
 7    1  0.5562528E-006  0.5129821E+02  0.7818608E-02  0.1480082E+00
          2   -1    0    0  502    0  0.00000000000E+00  0.00000000000E+00  0.11780626909E+02  0.11780626909E+02  0.00000000000E+00 0. -1.
          1   -1    0    0  501    0 -0.00000000000E+00 -0.00000000000E+00 -0.34931664423E+04  0.34931664423E+04  0.00000000000E+00 0. -1.
         25    2    1    2    0    0  0.68097377648E+01  0.34624460898E+02 -0.54553849223E+03  0.56078650659E+03  0.12499613453E+03 0.  0.
          2    1    1    2  501    0  0.37421778151E+02  0.60055461459E+01 -0.27157867770E+04  0.27160512282E+04  0.00000000000E+00 0. -1.
          1    1    1    2  502    0 -0.44231515916E+02 -0.40630007044E+02 -0.22006054607E+03  0.22810933434E+03  0.00000000000E+00 0. -1.
         22    1    3    3    0    0 -0.40958729978E+02 -0.28455880516E+02 -0.24353719389E+03  0.24859147111E+03  0.00000000000E+00 0. -1.
         22    1    3    3    0    0  0.47768467742E+02  0.63080341414E+02 -0.30200129833E+03  0.31219503548E+03  0.00000000000E+00 0. -1.
</event>
<event>
 7    1  0.5562528E-006  0.7262015E+02  0.7818608E-02  0.1374488E+00
          2   -1    0    0  502    0  0.00000000000E+00  0.00000000000E+00  0.18839732785E+04  0.18839732785E+04  0.00000000000E+00 0. -1.
          1   -1    0    0  501    0 -0.00000000000E+00 -0.00000000000E+00 -0.60636806632E+03  0.60636806632E+03  0.00000000000E+00 0. -1.
         25    2    1    2    0    0 -0.11699235786E+03 -0.53332515559E+02  0.46466800329E+03  0.49806990160E+03  0.12500281829E+03 0.  0.
          2    1    1    2  501    0  0.50566075034E+02  0.32046234468E+02 -0.58727724433E+03  0.59032063389E+03  0.00000000000E+00 0. -1.
          1    1    1    2  502    0  0.66426282823E+02  0.21286281091E+02  0.14002144532E+04  0.14019508094E+04  0.00000000000E+00 0. -1.
         22    1    3    3    0    0 -0.13335637405E+03 -0.65268962033E+02  0.44760153040E+03  0.47158359801E+03  0.00000000000E+00 0. -1.
         22    1    3    3    0    0  0.16364016190E+02  0.11936446474E+02  0.17066472894E+02  0.26486303581E+02  0.00000000000E+00 0. -1.
</event>
<event>
 7    1  0.5562528E-006  0.7434724E+02  0.7818608E-02  0.1385612E+00
          2   -1    0    0  502    0  0.00000000000E+00  0.00000000000E+00  0.11907923933E+04  0.11907923933E+04  0.00000000000E+00 0. -1.
          1   -1    0    0  501    0 -0.00000000000E+00 -0.00000000000E+00 -0.10731129028E+03  0.10731129028E+03  0.00000000000E+00 0. -1.
         25    2    1    2    0    0 -0.31118702064E+02 -0.72369075194E+01  0.12085296965E+03  0.17677918627E+03  0.12499877590E+03 0.  0.
          2    1    1    2  501    0  0.78897658883E+02 -0.16619631293E+02 -0.57985584189E+02  0.99314554297E+02  0.00000000000E+00 0. -1.
          1    1    1    2  502    0 -0.47778956819E+02  0.23856538812E+02  0.10206137176E+04  0.10220099431E+04  0.00000000000E+00 0. -1.
         22    1    3    3    0    0  0.23361454542E+02 -0.41422296955E+02  0.99654676315E+01  0.48588833989E+02  0.00000000000E+00 0. -1.
         22    1    3    3    0    0 -0.54480156606E+02  0.34185389435E+02  0.11088750201E+03  0.12819035228E+03  0.00000000000E+00 0. -1.
</event>
<event>
 7    1  0.5562528E-006  0.8758875E+02  0.7818608E-02  0.1316411E+00
          2   -1    0    0  502    0  0.00000000000E+00  0.00000000000E+00  0.16467718114E+04  0.16467718114E+04  0.00000000000E+00 0. -1.
          1   -1    0    0  501    0 -0.00000000000E+00 -0.00000000000E+00 -0.14040604261E+03  0.14040604261E+03  0.00000000000E+00 0. -1.
         25    2    1    2    0    0  0.76883938456E+01 -0.23283463310E+02  0.74318970891E+02  0.14747665263E+03  0.12499929029E+03 0.  0.
          2    1    1    2  501    0 -0.70103365230E+02 -0.42083549103E+02 -0.86174549492E+02  0.11879208687E+03  0.00000000000E+00 0. -1.
          1    1    1    2  502    0  0.62414971385E+02  0.65367012413E+02  0.15182213474E+04  0.15209091146E+04  0.00000000000E+00 0. -1.
         22    1    3    3    0    0  0.22299363515E+02 -0.70346738954E+01 -0.31609343567E+02  0.39317920224E+02  0.00000000000E+00 0.  1.
         22    1    3    3    0    0 -0.14610969670E+02 -0.16248789414E+02  0.10592831446E+03  0.10815873241E+03  0.00000000000E+00 0.  1.
</event>
<event>
 7    1  0.5562528E-006  0.5887520E+02  0.7818608E-02  0.1411506E+00
          2   -1    0    0  502    0  0.00000000000E+00  0.00000000000E+00  0.20317529922E+04  0.20317529922E+04  0.00000000000E+00 0. -1.
          1   -1    0    0  501    0 -0.00000000000E+00 -0.00000000000E+00 -0.27416606948E+02  0.27416606948E+02  0.00000000000E+00 0. -1.
         25    2    1    2    0    0  0.13162751064E+02 -0.56124722811E+02  0.53353635871E+03  0.55100786401E+03  0.12500151042E+03 0.  0.
          2    1    1    2  501    0  0.40736749434E+02  0.45628970898E+02  0.33360203854E+02  0.69673445020E+02  0.00000000000E+00 0. -1.
          1    1    1    2  502    0 -0.53899500498E+02  0.10495751913E+02  0.14374398227E+04  0.14384882901E+04  0.00000000000E+00 0. -1.
         22    1    3    3    0    0 -0.47908348155E+02  0.18405011547E+01  0.27376178756E+03  0.27792825261E+03  0.00000000000E+00 0. -1.
         22    1    3    3    0    0  0.61071099219E+02 -0.57965223966E+02  0.25977457115E+03  0.27307961140E+03  0.00000000000E+00 0. -1.
</event>
<event>
 7    1  0.5562528E-006  0.1683426E+03  0.7818608E-02  0.1275754E+00
          2   -1    0    0  502    0  0.00000000000E+00  0.00000000000E+00  0.69401242375E+03  0.69401242375E+03  0.00000000000E+00 0. -1.
          1   -1    0    0  501    0 -0.00000000000E+00 -0.00000000000E+00 -0.20362727645E+03  0.20362727645E+03  0.00000000000E+00 0. -1.
         25    2    1    2    0    0 -0.73080497789E+02  0.10377134049E+03  0.43937760061E+02  0.18348124893E+03  0.12500236673E+03 0.  0.
          2    1    1    2  501    0 -0.60830320074E+02  0.12165035048E+02 -0.11214320354E+03  0.12815777002E+03  0.00000000000E+00 0. -1.
          1    1    1    2  502    0  0.13391081786E+03 -0.11593637554E+03  0.55859059077E+03  0.58600068124E+03  0.00000000000E+00 0. -1.
         22    1    3    3    0    0 -0.47121060468E+02  0.12891651080E+02  0.70071471966E+02  0.85420139257E+02  0.00000000000E+00 0.  1.
         22    1    3    3    0    0 -0.25959437321E+02  0.90879689408E+02 -0.26133711905E+02  0.98061109676E+02  0.00000000000E+00 0.  1.
</event>
<event>
 7    1  0.5562528E-006  0.1009591E+03  0.7818608E-02  0.1319162E+00
          2   -1    0    0  502    0  0.00000000000E+00  0.00000000000E+00  0.28346926591E+04  0.28346926591E+04  0.00000000000E+00 0. -1.
          1   -1    0    0  501    0 -0.00000000000E+00 -0.00000000000E+00 -0.98309791083E+02  0.98309791083E+02  0.00000000000E+00 0. -1.
         25    2    1    2    0    0  0.35801047410E+02  0.14263351510E+01  0.20610897476E+03  0.24370129660E+03  0.12500265221E+03 0.  0.
          2    1    1    2  501    0  0.67446910425E+02  0.15517735165E+02 -0.63196363641E+02  0.93721215357E+02  0.00000000000E+00 0. -1.
          1    1    1    2  502    0 -0.10324795783E+03 -0.16944070316E+02  0.25934702569E+04  0.25955799382E+04  0.00000000000E+00 0. -1.
         22    1    3    3    0    0  0.58189072010E+02 -0.46903648325E+02  0.14097828377E+03  0.15956439710E+03  0.00000000000E+00 0. -1.
         22    1    3    3    0    0 -0.22388024601E+02  0.48329983476E+02  0.65130690989E+02  0.84136899497E+02  0.00000000000E+00 0. -1.
</event>
<event>
 7    1  0.5562528E-006  0.9198994E+02  0.7818608E-02  0.1408052E+00
          2   -1    0    0  502    0  0.00000000000E+00  0.00000000000E+00  0.41066666920E+03  0.41066666920E+03  0.00000000000E+00 0. -1.
          1   -1    0    0  501    0 -0.00000000000E+00 -0.00000000000E+00 -0.94448054713E+03  0.94448054713E+03  0.00000000000E+00 0. -1.
         25    2    1    2    0    0  0.32435965843E+02 -0.83065843776E+02 -0.10424187554E+03  0.18558976053E+03  0.12500065726E+03 0.  0.
          2    1    1    2  501    0 -0.64495346305E+02  0.66459626167E+02 -0.79599287914E+03  0.80136208748E+03  0.00000000000E+00 0. -1.
          1    1    1    2  502    0  0.32059380463E+02  0.16606217609E+02  0.36642087675E+03  0.36819536833E+03  0.00000000000E+00 0. -1.
         22    1    3    3    0    0  0.75721952285E+02 -0.53247241865E+02 -0.94210724368E+02  0.13207855015E+03  0.00000000000E+00 0.  1.
         22    1    3    3    0    0 -0.43285986443E+02 -0.29818601911E+02 -0.10031151169E+02  0.53511210377E+02  0.00000000000E+00 0.  1.
</event>
<event>
 7    1  0.5562528E-006  0.1037682E+03  0.7818608E-02  0.1464897E+00
          2   -1    0    0  502    0  0.00000000000E+00  0.00000000000E+00  0.26299075788E+04  0.26299075788E+04  0.00000000000E+00 0. -1.
          1   -1    0    0  501    0 -0.00000000000E+00 -0.00000000000E+00 -0.12609078015E+04  0.12609078015E+04  0.00000000000E+00 0. -1.
         25    2    1    2    0    0  0.96164910710E+02 -0.51175738965E+02  0.15323063780E+03  0.22576608521E+03  0.12499620218E+03 0.  0.
          2    1    1    2  501    0 -0.15520766947E+02 -0.13969060307E+02 -0.12234499704E+04  0.12236281538E+04  0.00000000000E+00 0. -1.
          1    1    1    2  502    0 -0.80644143763E+02  0.65144799271E+02  0.24392191099E+04  0.24414211412E+04  0.00000000000E+00 0. -1.
         22    1    3    3    0    0 -0.23893231685E+02 -0.23926732236E+02  0.68560211712E+01  0.34501884907E+02  0.00000000000E+00 0.  1.
         22    1    3    3    0    0  0.12005814239E+03 -0.27249006729E+02  0.14637461663E+03  0.19126420030E+03  0.00000000000E+00 0.  1.
</event>
<event>
 7    1  0.5562528E-006  0.4391213E+02  0.7818608E-02  0.1497806E+00
          2   -1    0    0  502    0  0.00000000000E+00  0.00000000000E+00  0.10107347789E+03  0.10107347789E+03  0.00000000000E+00 0. -1.
          1   -1    0    0  501    0 -0.00000000000E+00 -0.00000000000E+00 -0.60162959944E+03  0.60162959944E+03  0.00000000000E+00 0. -1.
         25    2    1    2    0    0 -0.13510811725E+02 -0.15811243943E+02 -0.35070233385E+03  0.37289453488E+03  0.12500267879E+03 0.  0.
          2    1    1    2  501    0 -0.29921082459E+02  0.25209710636E+02 -0.23260937958E+03  0.23587692587E+03  0.00000000000E+00 0. -1.
          1    1    1    2  502    0  0.43431894184E+02 -0.93984666925E+01  0.82755591877E+02  0.93931616592E+02  0.00000000000E+00 0. -1.
         22    1    3    3    0    0  0.25176767244E+02 -0.60911613900E+02 -0.21174524939E+03  0.22176596888E+03  0.00000000000E+00 0.  1.
         22    1    3    3    0    0 -0.38687578969E+02  0.45100369957E+02 -0.13895708446E+03  0.15112856599E+03  0.00000000000E+00 0.  1.
</event>
<event>
 7    1  0.5562528E-006  0.3894609E+02  0.7818608E-02  0.1530889E+00
          2   -1    0    0  502    0  0.00000000000E+00  0.00000000000E+00  0.19527184099E+03  0.19527184099E+03  0.00000000000E+00 0. -1.
          1   -1    0    0  501    0 -0.00000000000E+00 -0.00000000000E+00 -0.86137886359E+03  0.86137886359E+03  0.00000000000E+00 0. -1.
         25    2    1    2    0    0 -0.20796669884E+01 -0.69639354163E+02 -0.10108385897E+03  0.17520472057E+03  0.12499913161E+03 0.  0.
          2    1    1    2  501    0  0.13113612217E+02  0.32772350996E+02 -0.72045595847E+03  0.72132016603E+03  0.00000000000E+00 0. -1.
          1    1    1    2  502    0 -0.11033945229E+02  0.36867003167E+02  0.15543279484E+03  0.16012581798E+03  0.00000000000E+00 0. -1.
         22    1    3    3    0    0  0.40101098614E+02 -0.67695523748E+02 -0.10673635858E+03  0.13260253500E+03  0.00000000000E+00 0.  1.
         22    1    3    3    0    0 -0.42180765602E+02 -0.19438304150E+01  0.56524996105E+01  0.42602185570E+02  0.00000000000E+00 0.  1.
</event>
<event>
 7    1  0.5562528E-006  0.4781777E+03  0.7818608E-02  0.1245577E+00
          2   -1    0    0  502    0  0.00000000000E+00  0.00000000000E+00  0.13797232590E+04  0.13797232590E+04  0.00000000000E+00 0. -1.
          1   -1    0    0  501    0 -0.00000000000E+00 -0.00000000000E+00 -0.16932468439E+04  0.16932468439E+04  0.00000000000E+00 0. -1.
         25    2    1    2    0    0  0.22933863312E+03  0.39857599980E+03  0.23961625420E+03  0.53338668990E+03  0.12500550158E+03 0.  0.
          2    1    1    2  501    0  0.25261291685E+02  0.14983725225E+02 -0.14868423393E+04  0.14871324039E+04  0.00000000000E+00 0. -1.
          1    1    1    2  502    0 -0.25459992481E+03 -0.41355972503E+03  0.93370250010E+03  0.10524510091E+04  0.00000000000E+00 0. -1.
         22    1    3    3    0    0  0.33277782418E+02  0.17707365060E+03  0.78319994421E+02  0.19645994519E+03  0.00000000000E+00 0.  1.
         22    1    3    3    0    0  0.19606085071E+03  0.22150234921E+03  0.16129625978E+03  0.33692674471E+03  0.00000000000E+00 0.  1.
</event>
<event>
 7    1  0.5562528E-006  0.4787716E+02  0.7818608E-02  0.1577358E+00
          2   -1    0    0  502    0  0.00000000000E+00  0.00000000000E+00  0.32356231710E+03  0.32356231710E+03  0.00000000000E+00 0. -1.
          1   -1    0    0  501    0 -0.00000000000E+00 -0.00000000000E+00 -0.10073676473E+04  0.10073676473E+04  0.00000000000E+00 0. -1.
         25    2    1    2    0    0  0.25930118151E+02 -0.16439091172E+02 -0.26310472214E+03  0.29290250420E+03  0.12500066963E+03 0.  0.
          2    1    1    2  501    0 -0.47039253070E+02  0.13323878393E+02 -0.72817458797E+03  0.72981398153E+03  0.00000000000E+00 0. -1.
          1    1    1    2  502    0  0.21109134919E+02  0.31152127790E+01  0.30747397990E+03  0.30821347869E+03  0.00000000000E+00 0. -1.
         22    1    3    3    0    0 -0.30750392422E+01 -0.39945760410E+02 -0.16239460777E+02  0.43230078966E+02  0.00000000000E+00 0. -1.
         22    1    3    3    0    0  0.29005157394E+02  0.23506669238E+02 -0.24686526136E+03  0.24967242523E+03  0.00000000000E+00 0. -1.
</event>
<event>
 7    1  0.5562528E-006  0.1168794E+03  0.7818608E-02  0.1267072E+00
          2   -1    0    0  502    0  0.00000000000E+00  0.00000000000E+00  0.15234053468E+03  0.15234053468E+03  0.00000000000E+00 0. -1.
          1   -1    0    0  501    0 -0.00000000000E+00 -0.00000000000E+00 -0.24055678054E+04  0.24055678054E+04  0.00000000000E+00 0. -1.
         25    2    1    2    0    0 -0.89302875464E+02 -0.10190814619E+03 -0.78760690516E+03  0.80889425723E+03  0.12500003403E+03 0.  0.
          2    1    1    2  501    0  0.11926673346E+03  0.94883370726E+01 -0.15881443702E+04  0.15926446944E+04  0.00000000000E+00 0. -1.
          1    1    1    2  502    0 -0.29963858000E+02  0.92419809121E+02  0.12252400464E+03  0.15636938836E+03  0.00000000000E+00 0. -1.
         22    1    3    3    0    0 -0.99437319492E+01 -0.76316377165E+02 -0.58131968605E+03  0.58639205709E+03  0.00000000000E+00 0.  1.
         22    1    3    3    0    0 -0.79359143515E+02 -0.25591769029E+02 -0.20628721910E+03  0.22250220014E+03  0.00000000000E+00 0.  1.
</event>
<event>
 7    1  0.5562528E-006  0.8115670E+02  0.7818608E-02  0.1349397E+00
          2   -1    0    0  502    0  0.00000000000E+00  0.00000000000E+00  0.30183067590E+03  0.30183067590E+03  0.00000000000E+00 0. -1.
          1   -1    0    0  501    0 -0.00000000000E+00 -0.00000000000E+00 -0.10446040851E+04  0.10446040851E+04  0.00000000000E+00 0. -1.
         25    2    1    2    0    0 -0.39632386439E+02 -0.74223735815E+02 -0.54540677222E+03  0.56583912553E+03  0.12500191912E+03 0.  0.
          2    1    1    2  501    0 -0.39042758499E+02  0.53340515939E+02 -0.48099594209E+03  0.48551688326E+03  0.00000000000E+00 0. -1.
          1    1    1    2  502    0  0.78675144938E+02  0.20883219876E+02  0.28362930509E+03  0.29507875222E+03  0.00000000000E+00 0. -1.
         22    1    3    3    0    0 -0.64925817118E+02  0.57089997179E+01 -0.19765083130E+03  0.20811969037E+03  0.00000000000E+00 0.  1.
         22    1    3    3    0    0  0.25293430679E+02 -0.79932735533E+02 -0.34775594092E+03  0.35771943516E+03  0.00000000000E+00 0.  1.
</event>
<event>
 7    1  0.5562528E-006  0.6646524E+02  0.7818608E-02  0.1438584E+00
          2   -1    0    0  502    0  0.00000000000E+00  0.00000000000E+00  0.61323641335E+03  0.61323641335E+03  0.00000000000E+00 0. -1.
          1   -1    0    0  501    0 -0.00000000000E+00 -0.00000000000E+00 -0.62087313559E+02  0.62087313559E+02  0.00000000000E+00 0. -1.
         25    2    1    2    0    0 -0.73318271829E+02 -0.59314188471E+02  0.47815114941E+03  0.50313759542E+03  0.12500070522E+03 0.  0.
          2    1    1    2  501    0  0.33909082983E+02  0.55905892336E+02 -0.22236466740E+02  0.69063414046E+02  0.00000000000E+00 0. -1.
          1    1    1    2  502    0  0.39409188845E+02  0.34082961359E+01  0.95234417122E+02  0.10312271744E+03  0.00000000000E+00 0. -1.
         22    1    3    3    0    0 -0.46535653496E+02  0.32843127613E+02  0.12855726163E+03  0.14061012622E+03  0.00000000000E+00 0. -1.
         22    1    3    3    0    0 -0.26782618332E+02 -0.92157316084E+02  0.34959388778E+03  0.36252746920E+03  0.00000000000E+00 0. -1.
</event>
<event>
 7    1  0.5562528E-006  0.1381582E+03  0.7818608E-02  0.1416742E+00
          2   -1    0    0  502    0  0.00000000000E+00  0.00000000000E+00  0.10774439583E+04  0.10774439583E+04  0.00000000000E+00 0. -1.
          1   -1    0    0  501    0 -0.00000000000E+00 -0.00000000000E+00 -0.72972464319E+03  0.72972464319E+03  0.00000000000E+00 0. -1.
         25    2    1    2    0    0 -0.44534793689E+02 -0.11847196035E+03  0.39358871060E+03  0.43192979842E+03  0.12502929419E+03 0.  0.
          2    1    1    2  501    0 -0.20643146338E+02 -0.88725932656E+01 -0.70267526057E+03  0.70303441183E+03  0.00000000000E+00 0. -1.
          1    1    1    2  502    0  0.65177940027E+02  0.12734455362E+03  0.65680586513E+03  0.67220439129E+03  0.00000000000E+00 0. -1.
         22    1    3    3    0    0 -0.28768928459E+02 -0.67071951020E+02  0.61271477851E+02  0.95291614827E+02  0.00000000000E+00 0. -1.
         22    1    3    3    0    0 -0.15765865230E+02 -0.51400009331E+02  0.33231723275E+03  0.33663818359E+03  0.00000000000E+00 0. -1.
</event>
<event>
 7    1  0.5562528E-006  0.5527851E+02  0.7818608E-02  0.1533384E+00
          2   -1    0    0  502    0  0.00000000000E+00  0.00000000000E+00  0.26616108176E+03  0.26616108176E+03  0.00000000000E+00 0. -1.
          1   -1    0    0  501    0 -0.00000000000E+00 -0.00000000000E+00 -0.10730143121E+03  0.10730143121E+03  0.00000000000E+00 0. -1.
         25    2    1    2    0    0  0.24423535386E+02  0.46725437993E+02  0.14311440691E+02  0.13641628695E+03  0.12499924149E+03 0.  0.
          2    1    1    2  501    0  0.20399107581E+02 -0.13505374263E+02 -0.38538380232E+02  0.45647841953E+02  0.00000000000E+00 0. -1.
          1    1    1    2  502    0 -0.44822642967E+02 -0.33220063731E+02  0.18308659009E+03  0.19139838407E+03  0.00000000000E+00 0. -1.
         22    1    3    3    0    0 -0.90405054270E+01 -0.13854400529E+02  0.54108994176E+02  0.56581431611E+02  0.00000000000E+00 0.  1.
         22    1    3    3    0    0  0.33464040813E+02  0.60579838522E+02 -0.39797553485E+02  0.79834855334E+02  0.00000000000E+00 0.  1.
</event>
<event>
 7    1  0.5562528E-006  0.1189204E+03  0.7818608E-02  0.1423063E+00
          2   -1    0    0  502    0  0.00000000000E+00  0.00000000000E+00  0.17110971382E+03  0.17110971382E+03  0.00000000000E+00 0. -1.
          1   -1    0    0  501    0 -0.00000000000E+00 -0.00000000000E+00 -0.69018229485E+03  0.69018229485E+03  0.00000000000E+00 0. -1.
         25    2    1    2    0    0  0.16541631126E+01 -0.12729996837E+03  0.98250565152E+02  0.20367968951E+03  0.12499689662E+03 0.  0.
          2    1    1    2  501    0  0.20901697321E+02  0.11683529892E+03 -0.62120840136E+03  0.63244544899E+03  0.00000000000E+00 0. -1.
          1    1    1    2  502    0 -0.22555860433E+02  0.10464669449E+02  0.38852551830E+01  0.25166870175E+02  0.00000000000E+00 0. -1.
         22    1    3    3    0    0  0.48739106526E+02 -0.78133869603E+01  0.19793755673E+02  0.53182161336E+02  0.00000000000E+00 0. -1.
         22    1    3    3    0    0 -0.47084943413E+02 -0.11948658141E+03  0.78456809479E+02  0.15049752817E+03  0.00000000000E+00 0. -1.
</event>
<event>
 7    1  0.5562528E-006  0.3989502E+02  0.7818608E-02  0.1510189E+00
          2   -1    0    0  502    0  0.00000000000E+00  0.00000000000E+00  0.22906997548E+04  0.22906997548E+04  0.00000000000E+00 0. -1.
          1   -1    0    0  501    0 -0.00000000000E+00 -0.00000000000E+00 -0.44572012741E+02  0.44572012741E+02  0.00000000000E+00 0. -1.
         25    2    1    2    0    0 -0.39905189278E+02  0.19595965179E+02  0.61122953980E+03  0.62546186302E+03  0.12499826311E+03 0.  0.
          2    1    1    2  501    0  0.46569369285E+01 -0.39295831421E+02 -0.26690366359E+02  0.47730756174E+02  0.00000000000E+00 0. -1.
          1    1    1    2  502    0  0.35248252349E+02  0.19699866242E+02  0.16615885686E+04  0.16620791483E+04  0.00000000000E+00 0. -1.
         22    1    3    3    0    0 -0.65932059192E+02  0.66874847818E+01  0.15843750331E+03  0.17173875898E+03  0.00000000000E+00 0. -1.
         22    1    3    3    0    0  0.26026869915E+02  0.12908480397E+02  0.45279203650E+03  0.45372310404E+03  0.00000000000E+00 0. -1.
</event>
<event>
 7    1  0.5562528E-006  0.1462592E+03  0.7818608E-02  0.1280225E+00
          2   -1    0    0  502    0  0.00000000000E+00  0.00000000000E+00  0.19900090342E+03  0.19900090342E+03  0.00000000000E+00 0. -1.
          1   -1    0    0  501    0 -0.00000000000E+00 -0.00000000000E+00 -0.12984443839E+04  0.12984443839E+04  0.00000000000E+00 0. -1.
         25    2    1    2    0    0 -0.17889587109E+02 -0.11500839997E+03 -0.27457180446E+03  0.32336036986E+03  0.12500113439E+03 0.  0.
          2    1    1    2  501    0  0.84399011745E+02  0.13105592021E+03 -0.98641216949E+03  0.99865300056E+03  0.00000000000E+00 0. -1.
          1    1    1    2  502    0 -0.66509424636E+02 -0.16047520237E+02  0.16154049342E+03  0.17543191695E+03  0.00000000000E+00 0. -1.
         22    1    3    3    0    0  0.27946072708E+01  0.20912499594E+02 -0.64808637875E+01  0.22071340342E+02  0.00000000000E+00 0. -1.
         22    1    3    3    0    0 -0.20684194380E+02 -0.13592089957E+03 -0.26809094067E+03  0.30128902951E+03  0.00000000000E+00 0. -1.
</event>
<event>
 7    1  0.5562528E-006  0.8266555E+02  0.7818608E-02  0.1341257E+00
          2   -1    0    0  502    0  0.00000000000E+00  0.00000000000E+00  0.20647032848E+02  0.20647032848E+02  0.00000000000E+00 0. -1.
          1   -1    0    0  501    0 -0.00000000000E+00 -0.00000000000E+00 -0.30187450827E+04  0.30187450827E+04  0.00000000000E+00 0. -1.
         25    2    1    2    0    0  0.35757349819E+02 -0.72383115399E+01 -0.12546039483E+04  0.12613433024E+04  0.12499951266E+03 0.  0.
          2    1    1    2  501    0 -0.99188206590E+02  0.35879198797E+02 -0.16816185694E+04  0.16849233307E+04  0.00000000000E+00 0. -1.
          1    1    1    2  502    0  0.63430856771E+02 -0.28640887257E+02 -0.61875532156E+02  0.93125482512E+02  0.00000000000E+00 0. -1.
         22    1    3    3    0    0  0.75806167111E+02 -0.20771392365E+02 -0.10149949983E+04  0.10180338267E+04  0.00000000000E+00 0. -1.
         22    1    3    3    0    0 -0.40048817292E+02  0.13533080825E+02 -0.23960895001E+03  0.24330947571E+03  0.00000000000E+00 0. -1.
</event>
<event>
 7    1  0.5562528E-006  0.6764111E+02  0.7818608E-02  0.1415522E+00
          2   -1    0    0  502    0  0.00000000000E+00  0.00000000000E+00  0.55049954355E+02  0.55049954355E+02  0.00000000000E+00 0. -1.
          1   -1    0    0  501    0 -0.00000000000E+00 -0.00000000000E+00 -0.13541068290E+04  0.13541068290E+04  0.00000000000E+00 0. -1.
         25    2    1    2    0    0  0.22924171631E+02 -0.14845978024E+01 -0.66672768238E+03  0.67873161571E+03  0.12499232793E+03 0.  0.
          2    1    1    2  501    0  0.46121745877E+02 -0.43724378511E+01 -0.65567085346E+03  0.65730556192E+03  0.00000000000E+00 0. -1.
          1    1    1    2  502    0 -0.69045917508E+02  0.58570356535E+01  0.23341661207E+02  0.73119605709E+02  0.00000000000E+00 0. -1.
         22    1    3    3    0    0  0.39763549783E+02  0.45017493844E+02 -0.52888952748E+03  0.53228925117E+03  0.00000000000E+00 0.  1.
         22    1    3    3    0    0 -0.16839378152E+02 -0.46502091647E+02 -0.13783815490E+03  0.14644236454E+03  0.00000000000E+00 0.  1.
</event>
<event>
 7    1  0.5562528E-006  0.3722499E+02  0.7818608E-02  0.1556416E+00
          2   -1    0    0  502    0  0.00000000000E+00  0.00000000000E+00  0.59927712907E+03  0.59927712907E+03  0.00000000000E+00 0. -1.
          1   -1    0    0  501    0 -0.00000000000E+00 -0.00000000000E+00 -0.65803916191E+03  0.65803916191E+03  0.00000000000E+00 0. -1.
         25    2    1    2    0    0 -0.18181413277E+02 -0.45738469742E+02  0.13167809281E+03  0.18811289691E+03  0.12499908182E+03 0.  0.
          2    1    1    2  501    0  0.29550203093E+02  0.10324983156E+02 -0.62864453845E+03  0.62942336746E+03  0.00000000000E+00 0. -1.
          1    1    1    2  502    0 -0.11368789815E+02  0.35413486586E+02  0.43820441280E+03  0.43978002662E+03  0.00000000000E+00 0. -1.
         22    1    3    3    0    0 -0.71605066864E+02 -0.26937450577E+02  0.87898772292E+02  0.11652942124E+03  0.00000000000E+00 0. -1.
         22    1    3    3    0    0  0.53423653586E+02 -0.18801019165E+02  0.43779320515E+02  0.71583475670E+02  0.00000000000E+00 0. -1.
</event>
<event>
 7    1  0.5562528E-006  0.6809947E+02  0.7818608E-02  0.1455770E+00
          2   -1    0    0  502    0  0.00000000000E+00  0.00000000000E+00  0.36772383151E+03  0.36772383151E+03  0.00000000000E+00 0. -1.
          1   -1    0    0  501    0 -0.00000000000E+00 -0.00000000000E+00 -0.64145209487E+03  0.64145209487E+03  0.00000000000E+00 0. -1.
         25    2    1    2    0    0 -0.43403456531E+02  0.39829682266E+02  0.47379717405E+02  0.14608268491E+03  0.12500019832E+03 0.  0.
          2    1    1    2  501    0  0.21620789930E+02  0.26237633706E+02 -0.58713625239E+03  0.58811975893E+03  0.00000000000E+00 0. -1.
          1    1    1    2  502    0  0.21782666601E+02 -0.66067315972E+02  0.26602827161E+03  0.27497348254E+03  0.00000000000E+00 0. -1.
         22    1    3    3    0    0 -0.80929406781E+02  0.18688843076E+02  0.13866692860E+01  0.83070840788E+02  0.00000000000E+00 0. -1.
         22    1    3    3    0    0  0.37525950250E+02  0.21140839190E+02  0.45993048119E+02  0.63011844118E+02  0.00000000000E+00 0. -1.
</event>
<event>
 7    1  0.5562528E-006  0.1146180E+03  0.7818608E-02  0.1272828E+00
          2   -1    0    0  502    0  0.00000000000E+00  0.00000000000E+00  0.10921276878E+04  0.10921276878E+04  0.00000000000E+00 0. -1.
          1   -1    0    0  501    0 -0.00000000000E+00 -0.00000000000E+00 -0.87701401372E+02  0.87701401372E+02  0.00000000000E+00 0. -1.
         25    2    1    2    0    0 -0.16353892554E+03  0.50525039966E+02  0.59059764844E+03  0.62747807326E+03  0.12500156101E+03 0.  0.
          2    1    1    2  501    0  0.91470360686E+02  0.20358163547E+02 -0.29029995742E+02  0.98102101710E+02  0.00000000000E+00 0. -1.
          1    1    1    2  502    0  0.72068564856E+02 -0.70883203513E+02  0.44285863377E+03  0.45424891424E+03  0.00000000000E+00 0. -1.
         22    1    3    3    0    0 -0.15142012817E+03  0.63351811856E+01  0.53157400892E+03  0.55275592868E+03  0.00000000000E+00 0.  1.
         22    1    3    3    0    0 -0.12118797377E+02  0.44189858780E+02  0.59023639522E+02  0.74722144584E+02  0.00000000000E+00 0.  1.
</event>
<event>
 7    1  0.5562528E-006  0.1036963E+03  0.7818608E-02  0.1359332E+00
          2   -1    0    0  502    0  0.00000000000E+00  0.00000000000E+00  0.27458937515E+03  0.27458937515E+03  0.00000000000E+00 0. -1.
          1   -1    0    0  501    0 -0.00000000000E+00 -0.00000000000E+00 -0.26862539582E+04  0.26862539582E+04  0.00000000000E+00 0. -1.
         25    2    1    2    0    0  0.12039269345E+03 -0.24358879424E+02 -0.75126203652E+03  0.77143145027E+03  0.12499631720E+03 0.  0.
          2    1    1    2  501    0 -0.10042084586E+03 -0.18800848751E+02 -0.19214014341E+04  0.19241157161E+04  0.00000000000E+00 0. -1.
          1    1    1    2  502    0 -0.19971847585E+02  0.43159728174E+02  0.26099888760E+03  0.26529616688E+03  0.00000000000E+00 0. -1.
         22    1    3    3    0    0  0.10522637863E+03  0.16002077261E+02 -0.30396473765E+03  0.32206089326E+03  0.00000000000E+00 0.  1.
         22    1    3    3    0    0  0.15166314815E+02 -0.40360956685E+02 -0.44729729887E+03  0.44937055700E+03  0.00000000000E+00 0.  1.
</event>
<event>
 7    1  0.5562528E-006  0.2335610E+03  0.7818608E-02  0.1269510E+00
          2   -1    0    0  502    0  0.00000000000E+00  0.00000000000E+00  0.13900389082E+04  0.13900389082E+04  0.00000000000E+00 0. -1.
          1   -1    0    0  501    0 -0.00000000000E+00 -0.00000000000E+00 -0.46182016189E+03  0.46182016189E+03  0.00000000000E+00 0. -1.
         25    2    1    2    0    0  0.10105582741E+03 -0.16230975113E+03  0.57142640158E+03  0.61539406013E+03  0.12499992499E+03 0.  0.
          2    1    1    2  501    0 -0.10907894719E+03  0.20911028950E+03 -0.40742935681E+03  0.47076959405E+03  0.00000000000E+00 0. -1.
          1    1    1    2  502    0  0.80231197747E+01 -0.46800538372E+02  0.76422170154E+03  0.76569541592E+03  0.00000000000E+00 0. -1.
         22    1    3    3    0    0  0.10442462953E+03 -0.59977258848E+02  0.37534827718E+03  0.39419297814E+03  0.00000000000E+00 0.  1.
         22    1    3    3    0    0 -0.33688021141E+01 -0.10233249228E+03  0.19607812440E+03  0.22120108198E+03  0.00000000000E+00 0.  1.
</event>
<event>
 7    1  0.5562528E-006  0.7143381E+02  0.7818608E-02  0.1369620E+00
          2   -1    0    0  502    0  0.00000000000E+00  0.00000000000E+00  0.10188207213E+03  0.10188207213E+03  0.00000000000E+00 0. -1.
          1   -1    0    0  501    0 -0.00000000000E+00 -0.00000000000E+00 -0.12722762920E+04  0.12722762920E+04  0.00000000000E+00 0. -1.
         25    2    1    2    0    0  0.32662326819E+02  0.12901750999E+03 -0.56429090048E+03  0.59309469275E+03  0.12499899491E+03 0.  0.
          2    1    1    2  501    0 -0.18972185529E+02 -0.60447136052E+02 -0.67789385891E+03  0.68084791549E+03  0.00000000000E+00 0. -1.
          1    1    1    2  502    0 -0.13690141290E+02 -0.68570373936E+02  0.71790539563E+02  0.10021575585E+03  0.00000000000E+00 0. -1.
         22    1    3    3    0    0  0.45211524962E+02  0.53214807935E+02 -0.44995173512E+03  0.45533774466E+03  0.00000000000E+00 0.  1.
         22    1    3    3    0    0 -0.12549198143E+02  0.75802702052E+02 -0.11433916536E+03  0.13775694809E+03  0.00000000000E+00 0.  1.
</event>
<event>
 7    1  0.5562528E-006  0.1753470E+03  0.7818608E-02  0.1253399E+00
          2   -1    0    0  502    0  0.00000000000E+00  0.00000000000E+00  0.49877933940E+03  0.49877933940E+03  0.00000000000E+00 0. -1.
          1   -1    0    0  501    0 -0.00000000000E+00 -0.00000000000E+00 -0.21345694240E+03  0.21345694240E+03  0.00000000000E+00 0. -1.
         25    2    1    2    0    0  0.10313789246E+03 -0.93853164173E+02 -0.94288257875E+02  0.20966955077E+03  0.12500081463E+03 0.  0.
          2    1    1    2  501    0 -0.24908705490E+02 -0.69756276002E+02 -0.81272984709E+01  0.74514660513E+02  0.00000000000E+00 0. -1.
          1    1    1    2  502    0 -0.78229186972E+02  0.16360944018E+03  0.38773795335E+03  0.42805207052E+03  0.00000000000E+00 0. -1.
         22    1    3    3    0    0  0.13211113975E+03 -0.70388649105E+02 -0.70678744847E+02  0.16553972376E+03  0.00000000000E+00 0.  1.
         22    1    3    3    0    0 -0.28973247292E+02 -0.23464515068E+02 -0.23609513028E+02  0.44129827005E+02  0.00000000000E+00 0.  1.
</event>
<event>
 7    1  0.5562528E-006  0.2158497E+03  0.7818608E-02  0.1337462E+00
          2   -1    0    0  502    0  0.00000000000E+00  0.00000000000E+00  0.54753967224E+03  0.54753967224E+03  0.00000000000E+00 0. -1.
          1   -1    0    0  501    0 -0.00000000000E+00 -0.00000000000E+00 -0.25374030666E+03  0.25374030666E+03  0.00000000000E+00 0. -1.
         25    2    1    2    0    0  0.17150025255E+02 -0.21469489011E+03  0.87471722611E+02  0.26393472737E+03  0.12498887490E+03 0.  0.
          2    1    1    2  501    0 -0.44555153894E+02  0.21191204956E+03 -0.93777170424E+02  0.23597888927E+03  0.00000000000E+00 0. -1.
          1    1    1    2  502    0  0.27405128639E+02  0.27828405519E+01  0.30010481339E+03  0.30136636226E+03  0.00000000000E+00 0. -1.
         22    1    3    3    0    0  0.91782353878E+01 -0.20518835715E+03  0.11381234190E+03  0.23481854927E+03  0.00000000000E+00 0. -1.
         22    1    3    3    0    0  0.79717898670E+01 -0.95065329689E+01 -0.26340619288E+02  0.29116178102E+02  0.00000000000E+00 0. -1.
</event>
<event>
 7    1  0.5562528E-006  0.1150525E+03  0.7818608E-02  0.1317685E+00
          2   -1    0    0  502    0  0.00000000000E+00  0.00000000000E+00  0.64924325312E+03  0.64924325312E+03  0.00000000000E+00 0. -1.
          1   -1    0    0  501    0 -0.00000000000E+00 -0.00000000000E+00 -0.79567545897E+02  0.79567545897E+02  0.00000000000E+00 0. -1.
         25    2    1    2    0    0 -0.12451551020E+02 -0.63411812883E+02  0.67139662291E+02  0.15591284860E+03  0.12499993188E+03 0.  0.
          2    1    1    2  501    0  0.11413349917E+02 -0.60471960705E+02  0.67977870589E+01  0.61913911981E+02  0.00000000000E+00 0. -1.
          1    1    1    2  502    0  0.10382011039E+01  0.12388377359E+03  0.49573825788E+03  0.51098403844E+03  0.00000000000E+00 0. -1.
         22    1    3    3    0    0 -0.54079023641E+02 -0.70734297471E+02  0.17545052677E+02  0.90750815479E+02  0.00000000000E+00 0.  1.
         22    1    3    3    0    0  0.41627472621E+02  0.73224845882E+01  0.49594609614E+02  0.65162033118E+02  0.00000000000E+00 0.  1.
</event>
<event>
 7    1  0.5562528E-006  0.7291237E+02  0.7818608E-02  0.1390944E+00
          2   -1    0    0  502    0  0.00000000000E+00  0.00000000000E+00  0.48123715885E+03  0.48123715885E+03  0.00000000000E+00 0. -1.
          1   -1    0    0  501    0 -0.00000000000E+00 -0.00000000000E+00 -0.11212396194E+04  0.11212396194E+04  0.00000000000E+00 0. -1.
         25    2    1    2    0    0  0.74116793744E+02  0.20517240374E+02 -0.35185972807E+03  0.38124222666E+03  0.12500444346E+03 0.  0.
          2    1    1    2  501    0 -0.41904266574E+02 -0.61548723524E+02 -0.75138452995E+03  0.75506484806E+03  0.00000000000E+00 0. -1.
          1    1    1    2  502    0 -0.32212527170E+02  0.41031483149E+02  0.46324179750E+03  0.46616970351E+03  0.00000000000E+00 0. -1.
         22    1    3    3    0    0  0.18012969290E+02  0.44840498586E+02 -0.29094111732E+03  0.29492689115E+03  0.00000000000E+00 0.  1.
         22    1    3    3    0    0  0.56103824454E+02 -0.24323258212E+02 -0.60918610744E+02  0.86315335506E+02  0.00000000000E+00 0.  1.
</event>
<event>
 7    1  0.5562528E-006  0.8006260E+02  0.7818608E-02  0.1443531E+00
          2   -1    0    0  502    0  0.00000000000E+00  0.00000000000E+00  0.37192719111E+04  0.37192719111E+04  0.00000000000E+00 0. -1.
          1   -1    0    0  501    0 -0.00000000000E+00 -0.00000000000E+00 -0.68506619492E+03  0.68506619492E+03  0.00000000000E+00 0. -1.
         25    2    1    2    0    0 -0.12688456583E+02  0.48817027523E+02  0.13958759311E+03  0.19404643559E+03  0.12500089563E+03 0.  0.
          2    1    1    2  501    0 -0.19157473290E+02  0.25191423019E+02 -0.65699898638E+03  0.65776081115E+03  0.00000000000E+00 0. -1.
          1    1    1    2  502    0  0.31845929873E+02 -0.74008450542E+02  0.35516171094E+04  0.35525308593E+04  0.00000000000E+00 0. -1.
         22    1    3    3    0    0 -0.64216992254E+02  0.50179841294E+02  0.69908500897E+02  0.10737335360E+03  0.00000000000E+00 0. -1.
         22    1    3    3    0    0  0.51528535671E+02 -0.13628137715E+01  0.69679092214E+02  0.86673081989E+02  0.00000000000E+00 0. -1.
</event>
<event>
 7    1  0.5562528E-006  0.3260875E+03  0.7818608E-02  0.1087201E+00
          2   -1    0    0  502    0  0.00000000000E+00  0.00000000000E+00  0.19029191849E+04  0.19029191849E+04  0.00000000000E+00 0. -1.
          1   -1    0    0  501    0 -0.00000000000E+00 -0.00000000000E+00 -0.21968103282E+04  0.21968103282E+04  0.00000000000E+00 0. -1.
         25    2    1    2    0    0 -0.40307368794E+03  0.29455161172E+03  0.21204197251E+03  0.55661124293E+03  0.12500091109E+03 0.  0.
          2    1    1    2  501    0  0.26870371510E+03 -0.10015668493E+02 -0.19991267099E+04  0.20171290495E+04  0.00000000000E+00 0. -1.
          1    1    1    2  502    0  0.13436997283E+03 -0.28453594323E+03  0.14931935940E+04  0.15259892208E+04  0.00000000000E+00 0. -1.
         22    1    3    3    0    0 -0.55810924029E+02  0.10214886883E+03  0.64520236797E+02  0.13308685735E+03  0.00000000000E+00 0. -1.
         22    1    3    3    0    0 -0.34726276391E+03  0.19240274289E+03  0.14752173571E+03  0.42352438558E+03  0.00000000000E+00 0. -1.
</event>
<event>
 7    1  0.5562528E-006  0.1151003E+03  0.7818608E-02  0.1354031E+00
          2   -1    0    0  502    0  0.00000000000E+00  0.00000000000E+00  0.25823309615E+04  0.25823309615E+04  0.00000000000E+00 0. -1.
          1   -1    0    0  501    0 -0.00000000000E+00 -0.00000000000E+00 -0.57919378737E+03  0.57919378737E+03  0.00000000000E+00 0. -1.
         25    2    1    2    0    0  0.14766835672E+03  0.52591188846E+02  0.26446491936E+03  0.33185569588E+03  0.12495892363E+03 0.  0.
          2    1    1    2  501    0 -0.10296260134E+03 -0.49587343668E+02 -0.53929022593E+03  0.55126595189E+03  0.00000000000E+00 0. -1.
          1    1    1    2  502    0 -0.44705755385E+02 -0.30038451781E+01  0.22779624807E+04  0.22784031011E+04  0.00000000000E+00 0. -1.
         22    1    3    3    0    0  0.44005552933E+02 -0.39106471754E+02  0.53524272163E+02  0.79565397834E+02  0.00000000000E+00 0. -1.
         22    1    3    3    0    0  0.10366280379E+03  0.91697660600E+02  0.21094064720E+03  0.25229029805E+03  0.00000000000E+00 0. -1.
</event>
<event>
 7    1  0.5562528E-006  0.8973830E+02  0.7818608E-02  0.1360790E+00
          2   -1    0    0  502    0  0.00000000000E+00  0.00000000000E+00  0.15394671891E+04  0.15394671891E+04  0.00000000000E+00 0. -1.
          1   -1    0    0  501    0 -0.00000000000E+00 -0.00000000000E+00 -0.12601843589E+03  0.12601843589E+03  0.00000000000E+00 0. -1.
         25    2    1    2    0    0  0.76949271759E+02  0.10912051941E+03  0.90186393088E+03  0.92022394085E+03  0.12500029326E+03 0.  0.
          2    1    1    2  501    0 -0.69739257327E+02 -0.55317026274E+02 -0.98502533356E+02  0.13276402557E+03  0.00000000000E+00 0. -1.
          1    1    1    2  502    0 -0.72100144324E+01 -0.53803493134E+02  0.61008735567E+03  0.61249765855E+03  0.00000000000E+00 0. -1.
         22    1    3    3    0    0 -0.95664847723E+01  0.32733960763E+02  0.49671002673E+02  0.60251459109E+02  0.00000000000E+00 0.  1.
         22    1    3    3    0    0  0.86515756531E+02  0.76386558645E+02  0.85219292820E+03  0.85997248174E+03  0.00000000000E+00 0.  1.
</event>
<event>
 7    1  0.5562528E-006  0.5186048E+02  0.7818608E-02  0.1565435E+00
          2   -1    0    0  502    0  0.00000000000E+00  0.00000000000E+00  0.88599338521E+03  0.88599338521E+03  0.00000000000E+00 0. -1.
          1   -1    0    0  501    0 -0.00000000000E+00 -0.00000000000E+00 -0.47694480617E+03  0.47694480617E+03  0.00000000000E+00 0. -1.
         25    2    1    2    0    0  0.25861418243E+02 -0.54480540427E+02 -0.12161528955E+03  0.18453368629E+03  0.12500184192E+03 0.  0.
          2    1    1    2  501    0 -0.36660380036E+02  0.36212286987E+02 -0.32168773993E+03  0.32578875858E+03  0.00000000000E+00 0. -1.
          1    1    1    2  502    0  0.10798961792E+02  0.18268253440E+02  0.85235160852E+03  0.85261574652E+03  0.00000000000E+00 0. -1.
         22    1    3    3    0    0 -0.17954039266E+02 -0.31629695123E+02  0.14934742834E+02  0.39317066053E+02  0.00000000000E+00 0. -1.
         22    1    3    3    0    0  0.43815457510E+02 -0.22850845304E+02 -0.13655003238E+03  0.14521662023E+03  0.00000000000E+00 0. -1.
</event>
<event>
 7    1  0.5562528E-006  0.1296556E+03  0.7818608E-02  0.1256314E+00
          2   -1    0    0  502    0  0.00000000000E+00  0.00000000000E+00  0.11391267914E+04  0.11391267914E+04  0.00000000000E+00 0. -1.
          1   -1    0    0  501    0 -0.00000000000E+00 -0.00000000000E+00 -0.34944498301E+03  0.34944498301E+03  0.00000000000E+00 0. -1.
         25    2    1    2    0    0 -0.59461359475E+01  0.73203801987E+02  0.19826953665E+03  0.24562260615E+03  0.12500200931E+03 0.  0.
          2    1    1    2  501    0  0.10222195690E+03 -0.87424725217E+02 -0.30914976217E+03  0.33714386617E+03  0.00000000000E+00 0. -1.
          1    1    1    2  502    0 -0.96275820955E+02  0.14220923230E+02  0.90056203386E+03  0.90580530203E+03  0.00000000000E+00 0. -1.
         22    1    3    3    0    0 -0.51188060481E+02  0.32821805831E+02  0.32156092657E+02  0.68785919844E+02  0.00000000000E+00 0.  1.
         22    1    3    3    0    0  0.45241924534E+02  0.40381996156E+02  0.16611344399E+03  0.17683668631E+03  0.00000000000E+00 0.  1.
</event>
<event>
 7    1  0.5562528E-006  0.1373879E+03  0.7818608E-02  0.1286819E+00
          2   -1    0    0  502    0  0.00000000000E+00  0.00000000000E+00  0.45610944983E+03  0.45610944983E+03  0.00000000000E+00 0. -1.
          1   -1    0    0  501    0 -0.00000000000E+00 -0.00000000000E+00 -0.32580829265E+03  0.32580829265E+03  0.00000000000E+00 0. -1.
         25    2    1    2    0    0 -0.74500337919E+02  0.84629318536E+02  0.15456504166E+03  0.22853331646E+03  0.12499881089E+03 0.  0.
          2    1    1    2  501    0  0.13234974637E+03 -0.48076407752E+02 -0.26663803479E+03  0.30153546714E+03  0.00000000000E+00 0. -1.
          1    1    1    2  502    0 -0.57849408448E+02 -0.36552910784E+02  0.24237415031E+03  0.25184895887E+03  0.00000000000E+00 0. -1.
         22    1    3    3    0    0 -0.87298072000E+02  0.91005502576E+02  0.16721884119E+03  0.20943995732E+03  0.00000000000E+00 0.  1.
         22    1    3    3    0    0  0.12797734081E+02 -0.63761840395E+01 -0.12653799535E+02  0.19093359138E+02  0.00000000000E+00 0.  1.
</event>
<event>
 7    1  0.5562528E-006  0.1282789E+03  0.7818608E-02  0.1241350E+00
          2   -1    0    0  502    0  0.00000000000E+00  0.00000000000E+00  0.10131649949E+04  0.10131649949E+04  0.00000000000E+00 0. -1.
          1   -1    0    0  501    0 -0.00000000000E+00 -0.00000000000E+00 -0.67049151523E+03  0.67049151523E+03  0.00000000000E+00 0. -1.
         25    2    1    2    0    0  0.22190397506E+03  0.36514898847E+02  0.16402746712E+03  0.30513043781E+03  0.12499944848E+03 0.  0.
          2    1    1    2  501    0 -0.10083456085E+03 -0.53732953440E+02 -0.58961996345E+03  0.60058849493E+03  0.00000000000E+00 0. -1.
          1    1    1    2  502    0 -0.12106941422E+03  0.17218054593E+02  0.76826597603E+03  0.77793757743E+03  0.00000000000E+00 0. -1.
         22    1    3    3    0    0  0.11710976758E+03 -0.41406794654E+02  0.58838557702E+02  0.13744524793E+03  0.00000000000E+00 0. -1.
         22    1    3    3    0    0  0.10479420749E+03  0.77921693501E+02  0.10518890942E+03  0.16768518988E+03  0.00000000000E+00 0. -1.
</event>
<event>
 7    1  0.5562528E-006  0.3965195E+02  0.7818608E-02  0.1571700E+00
          2   -1    0    0  502    0  0.00000000000E+00  0.00000000000E+00  0.90736134122E+03  0.90736134122E+03  0.00000000000E+00 0. -1.
          1   -1    0    0  501    0 -0.00000000000E+00 -0.00000000000E+00 -0.18725484276E+03  0.18725484276E+03  0.00000000000E+00 0. -1.
         25    2    1    2    0    0  0.14847543620E+02 -0.95793039523E+00  0.14671530438E+03  0.19331402458E+03  0.12499425738E+03 0.  0.
          2    1    1    2  501    0 -0.36330606918E+02  0.16789903385E+02 -0.16126714722E+03  0.16615928090E+03  0.00000000000E+00 0. -1.
          1    1    1    2  502    0  0.21483063298E+02 -0.15831972990E+02  0.73465834130E+03  0.73514287851E+03  0.00000000000E+00 0. -1.
         22    1    3    3    0    0 -0.17599525745E+02  0.37003885396E+02  0.29040959256E+01  0.41078761106E+02  0.00000000000E+00 0. -1.
         22    1    3    3    0    0  0.32447069366E+02 -0.37961815791E+02  0.14381120845E+03  0.15223526348E+03  0.00000000000E+00 0. -1.
</event>
<event>
 7    1  0.5562528E-006  0.8598645E+02  0.7818608E-02  0.1359522E+00
          2   -1    0    0  502    0  0.00000000000E+00  0.00000000000E+00  0.20025315283E+04  0.20025315283E+04  0.00000000000E+00 0. -1.
          1   -1    0    0  501    0 -0.00000000000E+00 -0.00000000000E+00 -0.23496574573E+03  0.23496574573E+03  0.00000000000E+00 0. -1.
         25    2    1    2    0    0  0.32740115150E+02 -0.11857790003E+02  0.13546500976E+03  0.18758580170E+03  0.12500056723E+03 0.  0.
          2    1    1    2  501    0  0.33218057011E+02 -0.46639639660E+02 -0.20390399593E+03  0.21179125302E+03  0.00000000000E+00 0. -1.
          1    1    1    2  502    0 -0.65958172161E+02  0.58497429664E+02  0.18360047688E+04  0.18381202194E+04  0.00000000000E+00 0. -1.
         22    1    3    3    0    0  0.43772714918E+02  0.50237018793E+02  0.72463090922E+02  0.98441394618E+02  0.00000000000E+00 0.  1.
         22    1    3    3    0    0 -0.11032599768E+02 -0.62094808796E+02  0.63001918833E+02  0.89144407081E+02  0.00000000000E+00 0.  1.
</event>
<event>
 7    1  0.5562528E-006  0.4311709E+02  0.7818608E-02  0.1500061E+00
          2   -1    0    0  502    0  0.00000000000E+00  0.00000000000E+00  0.43405381228E+03  0.43405381228E+03  0.00000000000E+00 0. -1.
          1   -1    0    0  501    0 -0.00000000000E+00 -0.00000000000E+00 -0.45181582185E+03  0.45181582185E+03  0.00000000000E+00 0. -1.
         25    2    1    2    0    0  0.53282467487E+02  0.54245089563E+02  0.10643122143E+03  0.18092477850E+03  0.12499847797E+03 0.  0.
          2    1    1    2  501    0 -0.35762186676E+02 -0.16134348187E+02 -0.41211777757E+03  0.41398105485E+03  0.00000000000E+00 0. -1.
          1    1    1    2  502    0 -0.17520280811E+02 -0.38110741377E+02  0.28792454657E+03  0.29096380078E+03  0.00000000000E+00 0. -1.
         22    1    3    3    0    0  0.60107512709E+00  0.83394727124E+02  0.78584717606E+02  0.11458882862E+03  0.00000000000E+00 0.  1.
         22    1    3    3    0    0  0.52681392360E+02 -0.29149637561E+02  0.27846503828E+02  0.66335949879E+02  0.00000000000E+00 0.  1.
</event>
<event>
 7    1  0.5562528E-006  0.8598402E+02  0.7818608E-02  0.1349691E+00
          2   -1    0    0  502    0  0.00000000000E+00  0.00000000000E+00  0.33051284225E+04  0.33051284225E+04  0.00000000000E+00 0. -1.
          1   -1    0    0  501    0 -0.00000000000E+00 -0.00000000000E+00 -0.54790987448E+03  0.54790987448E+03  0.00000000000E+00 0. -1.
         25    2    1    2    0    0 -0.12380408789E+02 -0.14289763114E+03 -0.17509042071E+02  0.19105939017E+03  0.12499646599E+03 0.  0.
          2    1    1    2  501    0  0.22918187685E+02  0.57861416656E+02 -0.44086943197E+03  0.44524043269E+03  0.00000000000E+00 0. -1.
          1    1    1    2  502    0 -0.10537778896E+02  0.85036214481E+02  0.32155970221E+04  0.32167384741E+04  0.00000000000E+00 0. -1.
         22    1    3    3    0    0 -0.57737241018E+01 -0.14080364355E+03  0.29135877056E+02  0.14390240185E+03  0.00000000000E+00 0. -1.
         22    1    3    3    0    0 -0.66066846872E+01 -0.20939875881E+01 -0.46644919128E+02  0.47156988316E+02  0.00000000000E+00 0. -1.
</event>
<event>
 7    1  0.5562528E-006  0.7917063E+02  0.7818608E-02  0.1386067E+00
          2   -1    0    0  502    0  0.00000000000E+00  0.00000000000E+00  0.34438228234E+03  0.34438228234E+03  0.00000000000E+00 0. -1.
          1   -1    0    0  501    0 -0.00000000000E+00 -0.00000000000E+00 -0.58386296004E+03  0.58386296004E+03  0.00000000000E+00 0. -1.
         25    2    1    2    0    0  0.77459378808E+02 -0.38420417750E+02  0.67662121296E+02  0.16636926962E+03  0.12499794939E+03 0.  0.
          2    1    1    2  501    0 -0.38332213811E+02  0.69495917519E+02 -0.52876641659E+03  0.53468959639E+03  0.00000000000E+00 0. -1.
          1    1    1    2  502    0 -0.39127164997E+02 -0.31075499769E+02  0.22162361760E+03  0.22718637637E+03  0.00000000000E+00 0. -1.
         22    1    3    3    0    0 -0.30428652352E+02 -0.19945447258E+02  0.38757138136E+02  0.53158625892E+02  0.00000000000E+00 0. -1.
         22    1    3    3    0    0  0.10788803116E+03 -0.18474970492E+02  0.28904983160E+02  0.11321064373E+03  0.00000000000E+00 0. -1.
</event>
<event>
 7    1  0.5562528E-006  0.3680000E+03  0.7818608E-02  0.1222727E+00
          2   -1    0    0  502    0  0.00000000000E+00  0.00000000000E+00  0.13024560983E+04  0.13024560983E+04  0.00000000000E+00 0. -1.
          1   -1    0    0  501    0 -0.00000000000E+00 -0.00000000000E+00 -0.35843668892E+04  0.35843668892E+04  0.00000000000E+00 0. -1.
         25    2    1    2    0    0 -0.26322048581E+03 -0.21763035876E+03  0.31511056668E+03  0.48121705307E+03  0.12500874263E+03 0.  0.
          2    1    1    2  501    0 -0.11124989907E+02 -0.46940598372E+02 -0.34609787170E+04  0.34613149040E+04  0.00000000000E+00 0. -1.
          1    1    1    2  502    0  0.27434547572E+03  0.26457095713E+03  0.86395735932E+03  0.94429103042E+03  0.00000000000E+00 0. -1.
         22    1    3    3    0    0 -0.97870764019E+02 -0.15589848586E+03  0.19227915345E+03  0.26618470503E+03  0.00000000000E+00 0.  1.
         22    1    3    3    0    0 -0.16534972179E+03 -0.61731872896E+02  0.12283141323E+03  0.21503234804E+03  0.00000000000E+00 0.  1.
</event>
<event>
 7    1  0.5562528E-006  0.1324389E+03  0.7818608E-02  0.1389745E+00
          2   -1    0    0  502    0  0.00000000000E+00  0.00000000000E+00  0.34378618393E+03  0.34378618393E+03  0.00000000000E+00 0. -1.
          1   -1    0    0  501    0 -0.00000000000E+00 -0.00000000000E+00 -0.15986002611E+04  0.15986002611E+04  0.00000000000E+00 0. -1.
         25    2    1    2    0    0  0.14103689412E+03  0.24071376632E+02 -0.18833126886E+03  0.26751552269E+03  0.12500020551E+03 0.  0.
          2    1    1    2  501    0 -0.91511085388E+01 -0.27515009321E+02 -0.13562098150E+04  0.13565197680E+04  0.00000000000E+00 0. -1.
          1    1    1    2  502    0 -0.13188578558E+03  0.34436326897E+01  0.28972700673E+03  0.31835115435E+03  0.00000000000E+00 0. -1.
         22    1    3    3    0    0  0.56375920827E+02  0.43013035069E+02 -0.16202166206E+03  0.17685978800E+03  0.00000000000E+00 0. -1.
         22    1    3    3    0    0  0.84660973290E+02 -0.18941658437E+02 -0.26309606793E+02  0.90655734691E+02  0.00000000000E+00 0. -1.
</event>
<event>
 7    1  0.5562528E-006  0.6763336E+02  0.7818608E-02  0.1385133E+00
          2   -1    0    0  502    0  0.00000000000E+00  0.00000000000E+00  0.22326094696E+03  0.22326094696E+03  0.00000000000E+00 0. -1.
          1   -1    0    0  501    0 -0.00000000000E+00 -0.00000000000E+00 -0.19114692269E+03  0.19114692269E+03  0.00000000000E+00 0. -1.
         25    2    1    2    0    0  0.65712695510E+01  0.35808042839E+02  0.28014195624E+02  0.13314651439E+03  0.12497120317E+03 0.  0.
          2    1    1    2  501    0 -0.53739241096E+02  0.24190814801E+02 -0.12107439978E+03  0.13465553028E+03  0.00000000000E+00 0. -1.
          1    1    1    2  502    0  0.47167971545E+02 -0.59998857640E+02  0.12517422842E+03  0.14660582498E+03  0.00000000000E+00 0. -1.
         22    1    3    3    0    0 -0.47989046100E+01 -0.45119056917E+02  0.23990769326E+02  0.51325586167E+02  0.00000000000E+00 0.  1.
         22    1    3    3    0    0  0.11370174161E+02  0.80927099756E+02  0.40234262977E+01  0.81820928218E+02  0.00000000000E+00 0.  1.
</event>
<event>
 7    1  0.6110731E-006  0.9293542E+02  0.7818608E-02  0.1409616E+00
          2   -1    0    0  502    0  0.00000000000E+00  0.00000000000E+00  0.11327575055E+04  0.11327575055E+04  0.00000000000E+00 0. -1.
          1   -1    0    0  501    0 -0.00000000000E+00 -0.00000000000E+00 -0.97131839240E+03  0.97131839240E+03  0.00000000000E+00 0. -1.
         25    2    1    2    0    0  0.54857127848E+02  0.32021054730E+02 -0.21909737357E+03  0.26012329207E+03  0.12500326215E+03 0.  0.
          2    1    1    2  501    0 -0.78224452058E+02 -0.58484305432E+02 -0.72816652557E+03  0.73468766686E+03  0.00000000000E+00 0. -1.
          1    1    1    2  502    0  0.23367324209E+02  0.26463250702E+02  0.11087030122E+04  0.11092649390E+04  0.00000000000E+00 0. -1.
         22    1    3    3    0    0  0.55965046870E+02  0.44244675093E+02 -0.42380350091E+02  0.82980550848E+02  0.00000000000E+00 0. -1.
         22    1    3    3    0    0 -0.11079190221E+01 -0.12223620363E+02 -0.17671702348E+03  0.17714274122E+03  0.00000000000E+00 0. -1.
</event>
<event>
 7    1  0.5562528E-006  0.8394205E+02  0.7818608E-02  0.1453004E+00
          2   -1    0    0  502    0  0.00000000000E+00  0.00000000000E+00  0.21839606006E+03  0.21839606006E+03  0.00000000000E+00 0. -1.
          1   -1    0    0  501    0 -0.00000000000E+00 -0.00000000000E+00 -0.15168123463E+04  0.15168123463E+04  0.00000000000E+00 0. -1.
         25    2    1    2    0    0 -0.14339309956E+02  0.97978799114E+02 -0.49561913279E+03  0.52065096921E+03  0.12503457952E+03 0.  0.
          2    1    1    2  501    0  0.31784536029E+02 -0.75891274892E+02 -0.10060279315E+04  0.10093869135E+04  0.00000000000E+00 0. -1.
          1    1    1    2  502    0 -0.17445226073E+02 -0.22087524221E+02  0.20323077800E+03  0.20517052362E+03  0.00000000000E+00 0. -1.
         22    1    3    3    0    0 -0.20674418903E+02  0.37656200398E+02 -0.42664065224E+03  0.42879793279E+03  0.00000000000E+00 0. -1.
         22    1    3    3    0    0  0.63351089474E+01  0.60322598716E+02 -0.68978480550E+02  0.91853036423E+02  0.00000000000E+00 0. -1.
</event>
<event>
 7    1  0.5562528E-006  0.3759808E+02  0.7818608E-02  0.1531782E+00
          2   -1    0    0  502    0  0.00000000000E+00  0.00000000000E+00  0.74305750034E+03  0.74305750034E+03  0.00000000000E+00 0. -1.
          1   -1    0    0  501    0 -0.00000000000E+00 -0.00000000000E+00 -0.47330373284E+03  0.47330373284E+03  0.00000000000E+00 0. -1.
         25    2    1    2    0    0  0.23804020196E+02  0.33142736461E+02  0.65641870334E+00  0.13148861630E+03  0.12499501179E+03 0.  0.
          2    1    1    2  501    0  0.12457760596E+02 -0.35670373071E+02 -0.40652303663E+03  0.40827509185E+03  0.00000000000E+00 0. -1.
          1    1    1    2  502    0 -0.36261780792E+02  0.25276366096E+01  0.67562038542E+03  0.67659752504E+03  0.00000000000E+00 0. -1.
         22    1    3    3    0    0  0.71588474621E+01 -0.23854887429E+02 -0.48422825769E+02  0.54452500463E+02  0.00000000000E+00 0. -1.
         22    1    3    3    0    0  0.16645172734E+02  0.56997623891E+02  0.49079244473E+02  0.77036115832E+02  0.00000000000E+00 0. -1.
</event>
<event>
 7    1  0.5562528E-006  0.1490367E+03  0.7818608E-02  0.1215247E+00
          2   -1    0    0  502    0  0.00000000000E+00  0.00000000000E+00  0.40299588242E+03  0.40299588242E+03  0.00000000000E+00 0. -1.
          1   -1    0    0  501    0 -0.00000000000E+00 -0.00000000000E+00 -0.47413115362E+03  0.47413115362E+03  0.00000000000E+00 0. -1.
         25    2    1    2    0    0 -0.21718683202E+02 -0.89052857971E+02  0.77890925213E+02  0.17348734041E+03  0.12501499245E+03 0.  0.
          2    1    1    2  501    0  0.74154429553E+02 -0.10539012824E+03 -0.37761152930E+03  0.39899426764E+03  0.00000000000E+00 0. -1.
          1    1    1    2  502    0 -0.52435746351E+02  0.19444298621E+03  0.22858533288E+03  0.30464542798E+03  0.00000000000E+00 0. -1.
         22    1    3    3    0    0 -0.54585435917E+02 -0.68162411597E+02  0.96653131773E+02  0.13025940293E+03  0.00000000000E+00 0.  1.
         22    1    3    3    0    0  0.32866752715E+02 -0.20890446375E+02 -0.18762206560E+02  0.43227937480E+02  0.00000000000E+00 0.  1.
</event>
<event>
 7    1  0.5562528E-006  0.3660553E+02  0.7818608E-02  0.1559126E+00
          2   -1    0    0  502    0  0.00000000000E+00  0.00000000000E+00  0.83864050797E+02  0.83864050797E+02  0.00000000000E+00 0. -1.
          1   -1    0    0  501    0 -0.00000000000E+00 -0.00000000000E+00 -0.13582115651E+04  0.13582115651E+04  0.00000000000E+00 0. -1.
         25    2    1    2    0    0  0.17373618617E+02  0.48947578248E+02 -0.40213640508E+02  0.14119332885E+03  0.12498284357E+03 0.  0.
          2    1    1    2  501    0 -0.30318509994E+02 -0.20463000913E+02 -0.12598507800E+04  0.12603816621E+04  0.00000000000E+00 0. -1.
          1    1    1    2  502    0  0.12944891377E+02 -0.28484577335E+02  0.25716906150E+02  0.40500624942E+02  0.00000000000E+00 0. -1.
         22    1    3    3    0    0  0.51642875156E+02  0.67735713609E+02 -0.83181342854E-01  0.85176994380E+02  0.00000000000E+00 0.  1.
         22    1    3    3    0    0 -0.34269256539E+02 -0.18788135361E+02 -0.40130459166E+02  0.56016334465E+02  0.00000000000E+00 0.  1.
</event>
<event>
 7    1  0.5562528E-006  0.6715125E+02  0.7818608E-02  0.1430736E+00
          2   -1    0    0  502    0  0.00000000000E+00  0.00000000000E+00  0.75057789464E+03  0.75057789464E+03  0.00000000000E+00 0. -1.
          1   -1    0    0  501    0 -0.00000000000E+00 -0.00000000000E+00 -0.10804250179E+04  0.10804250179E+04  0.00000000000E+00 0. -1.
         25    2    1    2    0    0 -0.20731642749E+01 -0.35280590968E+02 -0.69942467176E+02  0.14753409864E+03  0.12500137374E+03 0.  0.
          2    1    1    2  501    0 -0.30453981658E+02  0.61110343559E+02 -0.96987958116E+03  0.97227996022E+03  0.00000000000E+00 0. -1.
          1    1    1    2  502    0  0.32527145933E+02 -0.25829752591E+02  0.70997492508E+03  0.71118885367E+03  0.00000000000E+00 0. -1.
         22    1    3    3    0    0  0.26620379866E+01  0.45988698298E+02 -0.11972966054E+02  0.47596205033E+02  0.00000000000E+00 0. -1.
         22    1    3    3    0    0 -0.47352022615E+01 -0.81269289266E+02 -0.57969501122E+02  0.99937893607E+02  0.00000000000E+00 0. -1.
</event>
<event>
 7    1  0.5562528E-006  0.6792422E+02  0.7818608E-02  0.1382847E+00
          2   -1    0    0  502    0  0.00000000000E+00  0.00000000000E+00  0.60624003404E+03  0.60624003404E+03  0.00000000000E+00 0. -1.
          1   -1    0    0  501    0 -0.00000000000E+00 -0.00000000000E+00 -0.52723460015E+03  0.52723460015E+03  0.00000000000E+00 0. -1.
         25    2    1    2    0    0 -0.85056456770E+01  0.89186048141E+02 -0.51768147981E+02  0.16226860030E+03  0.12499864122E+03 0.  0.
          2    1    1    2  501    0  0.49909602475E+02 -0.46068187470E+02 -0.41583145429E+03  0.42134195696E+03  0.00000000000E+00 0. -1.
          1    1    1    2  502    0 -0.41403956798E+02 -0.43117860671E+02  0.54660503616E+03  0.54986407693E+03  0.00000000000E+00 0. -1.
         22    1    3    3    0    0 -0.29631198850E+02  0.34817136618E+02 -0.83993091768E+02  0.95629913794E+02  0.00000000000E+00 0. -1.
         22    1    3    3    0    0  0.21125553173E+02  0.54368911523E+02  0.32224943787E+02  0.66638686505E+02  0.00000000000E+00 0. -1.
</event>
<event>
 7    1  0.5562528E-006  0.6486948E+02  0.7818608E-02  0.1419646E+00
          2   -1    0    0  502    0  0.00000000000E+00  0.00000000000E+00  0.17346235357E+04  0.17346235357E+04  0.00000000000E+00 0. -1.
          1   -1    0    0  501    0 -0.00000000000E+00 -0.00000000000E+00 -0.15247682248E+04  0.15247682248E+04  0.00000000000E+00 0. -1.
         25    2    1    2    0    0  0.80667897735E+02  0.52593736891E+02  0.39073440425E+02  0.16255673938E+03  0.12499819553E+03 0.  0.
          2    1    1    2  501    0 -0.64106135397E+02 -0.88276692271E+01 -0.14619756361E+04  0.14634070810E+04  0.00000000000E+00 0. -1.
          1    1    1    2  502    0 -0.16561762338E+02 -0.43766067664E+02  0.16327575065E+04  0.16334279402E+04  0.00000000000E+00 0. -1.
         22    1    3    3    0    0 -0.12643590066E+02  0.30363465393E+02 -0.29868416188E+02  0.44428849703E+02  0.00000000000E+00 0.  1.
         22    1    3    3    0    0  0.93311487801E+02  0.22230271498E+02  0.68941856613E+02  0.11812788968E+03  0.00000000000E+00 0.  1.
</event>
<event>
 7    1  0.5562528E-006  0.3028928E+02  0.7818608E-02  0.1623707E+00
          2   -1    0    0  502    0  0.00000000000E+00  0.00000000000E+00  0.28400722632E+03  0.28400722632E+03  0.00000000000E+00 0. -1.
          1   -1    0    0  501    0 -0.00000000000E+00 -0.00000000000E+00 -0.15668916445E+03  0.15668916445E+03  0.00000000000E+00 0. -1.
         25    2    1    2    0    0 -0.45395693494E+01 -0.47283867069E+02  0.15925737298E+03  0.20795109140E+03  0.12499749514E+03 0.  0.
          2    1    1    2  501    0  0.16942252128E+02  0.24976361075E+02 -0.12894918507E+03  0.13243394901E+03  0.00000000000E+00 0. -1.
          1    1    1    2  502    0 -0.12402682779E+02  0.22307505994E+02  0.97009873962E+02  0.10031135035E+03  0.00000000000E+00 0. -1.
         22    1    3    3    0    0  0.15583615861E+02  0.28193397297E+02  0.11225677122E+03  0.11678741122E+03  0.00000000000E+00 0.  1.
         22    1    3    3    0    0 -0.20123185210E+02 -0.75477264366E+02  0.47000601764E+02  0.91163680188E+02  0.00000000000E+00 0.  1.
</event>
<event>
 7    1  0.5562528E-006  0.9499320E+02  0.7818608E-02  0.1422869E+00
          2   -1    0    0  502    0  0.00000000000E+00  0.00000000000E+00  0.19356453915E+04  0.19356453915E+04  0.00000000000E+00 0. -1.
          1   -1    0    0  501    0 -0.00000000000E+00 -0.00000000000E+00 -0.43989070197E+03  0.43989070197E+03  0.00000000000E+00 0. -1.
         25    2    1    2    0    0  0.11366196261E+03  0.23977497556E+02  0.10382357211E+04  0.10521662547E+04  0.12500581124E+03 0.  0.
          2    1    1    2  501    0 -0.86440293660E+02 -0.39170666066E+02 -0.42744685817E+03  0.43785509248E+03  0.00000000000E+00 0. -1.
          1    1    1    2  502    0 -0.27221668948E+02  0.15193168510E+02  0.88496582660E+03  0.88551474628E+03  0.00000000000E+00 0. -1.
         22    1    3    3    0    0  0.64727679058E+02  0.13644681065E+02  0.93618422356E+03  0.93851838033E+03  0.00000000000E+00 0.  1.
         22    1    3    3    0    0  0.48934283550E+02  0.10332816491E+02  0.10205149758E+03  0.11364787442E+03  0.00000000000E+00 0.  1.
</event>
<event>
 7    1  0.5562528E-006  0.1497037E+03  0.7818608E-02  0.1292504E+00
          2   -1    0    0  502    0  0.00000000000E+00  0.00000000000E+00  0.21161894209E+04  0.21161894209E+04  0.00000000000E+00 0. -1.
          1   -1    0    0  501    0 -0.00000000000E+00 -0.00000000000E+00 -0.95235519953E+03  0.95235519953E+03  0.00000000000E+00 0. -1.
         25    2    1    2    0    0 -0.45663216551E+02  0.17821423434E+03  0.82332317444E+03  0.85283679261E+03  0.12499641029E+03 0.  0.
          2    1    1    2  501    0  0.47106396032E+02 -0.36419303224E+02 -0.93271301611E+03  0.93461165658E+03  0.00000000000E+00 0. -1.
          1    1    1    2  502    0 -0.14431794812E+01 -0.14179493112E+03  0.12732240630E+04  0.12810961712E+04  0.00000000000E+00 0. -1.
         22    1    3    3    0    0 -0.73378607787E+02  0.16533576155E+03  0.77364770375E+03  0.79451312364E+03  0.00000000000E+00 0. -1.
         22    1    3    3    0    0  0.27715391236E+02  0.12878472793E+02  0.49675470695E+02  0.58323668966E+02  0.00000000000E+00 0. -1.
</event>
<event>
 7    1  0.5562528E-006  0.9222808E+02  0.7818608E-02  0.1398249E+00
          2   -1    0    0  502    0  0.00000000000E+00  0.00000000000E+00  0.73770492851E+03  0.73770492851E+03  0.00000000000E+00 0. -1.
          1   -1    0    0  501    0 -0.00000000000E+00 -0.00000000000E+00 -0.11796540607E+04  0.11796540607E+04  0.00000000000E+00 0. -1.
         25    2    1    2    0    0 -0.67236500716E+02  0.75231314910E+02 -0.77388652519E+02  0.17831096680E+03  0.12500119828E+03 0.  0.
          2    1    1    2  501    0  0.30185857325E+02 -0.87097964649E+02 -0.10492312908E+04  0.10532727771E+04  0.00000000000E+00 0. -1.
          1    1    1    2  502    0  0.37050643392E+02  0.11866649739E+02  0.68467081109E+03  0.68577524533E+03  0.00000000000E+00 0. -1.
         22    1    3    3    0    0 -0.33621820652E+02  0.42177624411E+02  0.29506457668E+02  0.61481784856E+02  0.00000000000E+00 0.  1.
         22    1    3    3    0    0 -0.33614680065E+02  0.33053690499E+02 -0.10689511019E+03  0.11682918194E+03  0.00000000000E+00 0.  1.
</event>
<event>
 7    1  0.5562528E-006  0.1410485E+03  0.7818608E-02  0.1265377E+00
          2   -1    0    0  502    0  0.00000000000E+00  0.00000000000E+00  0.40138540808E+04  0.40138540808E+04  0.00000000000E+00 0. -1.
          1   -1    0    0  501    0 -0.00000000000E+00 -0.00000000000E+00 -0.48768652389E+03  0.48768652389E+03  0.00000000000E+00 0. -1.
         25    2    1    2    0    0 -0.26998365524E+02 -0.17846813783E+03 -0.89203869264E+02  0.23698567272E+03  0.12500036329E+03 0.  0.
          2    1    1    2  501    0 -0.39206320234E+02  0.13034590727E+03 -0.30987676147E+03  0.33845353948E+03  0.00000000000E+00 0. -1.
          1    1    1    2  502    0  0.66204685758E+02  0.48122230556E+02  0.39252481877E+04  0.39261013925E+04  0.00000000000E+00 0. -1.
         22    1    3    3    0    0  0.30647617840E+02 -0.38864261379E+02  0.17015556532E+02  0.52337715425E+02  0.00000000000E+00 0.  1.
         22    1    3    3    0    0 -0.57645983365E+02 -0.13960387645E+03 -0.10621942580E+03  0.18464795730E+03  0.00000000000E+00 0.  1.
</event>
<event>
 7    1  0.5562528E-006  0.6691321E+02  0.7818608E-02  0.1436402E+00
          2   -1    0    0  502    0  0.00000000000E+00  0.00000000000E+00  0.23523713485E+02  0.23523713485E+02  0.00000000000E+00 0. -1.
          1   -1    0    0  501    0 -0.00000000000E+00 -0.00000000000E+00 -0.16907088906E+04  0.16907088906E+04  0.00000000000E+00 0. -1.
         25    2    1    2    0    0 -0.34544434934E+02 -0.60341156010E+02 -0.69193541255E+03  0.70656609987E+03  0.12500666079E+03 0.  0.
          2    1    1    2  501    0 -0.26136071079E+02  0.30200810492E+02 -0.91827012872E+03  0.91913829888E+03  0.00000000000E+00 0. -1.
          1    1    1    2  502    0  0.60680506013E+02  0.30140345518E+02 -0.56979635808E+02  0.88528205306E+02  0.00000000000E+00 0. -1.
         22    1    3    3    0    0 -0.41293103049E+02  0.50367522730E+01 -0.71977213120E+02  0.83133678142E+02  0.00000000000E+00 0. -1.
         22    1    3    3    0    0  0.67486681149E+01 -0.65377908283E+02 -0.61995819943E+03  0.62343242172E+03  0.00000000000E+00 0. -1.
</event>
<event>
 7    1  0.5562528E-006  0.4134776E+03  0.7818608E-02  0.1182836E+00
          2   -1    0    0  502    0  0.00000000000E+00  0.00000000000E+00  0.39712286095E+04  0.39712286095E+04  0.00000000000E+00 0. -1.
          1   -1    0    0  501    0 -0.00000000000E+00 -0.00000000000E+00 -0.19719095495E+03  0.19719095495E+03  0.00000000000E+00 0. -1.
         25    2    1    2    0    0 -0.24000051969E+03  0.30634481496E+03  0.22378431672E+04  0.22748658831E+04  0.12500139965E+03 0.  0.
          2    1    1    2  501    0 -0.53214077075E+02  0.39187127444E+02 -0.14126473445E+03  0.15595862963E+03  0.00000000000E+00 0. -1.
          1    1    1    2  502    0  0.29321459676E+03 -0.34553194241E+03  0.16774592218E+04  0.17375950517E+04  0.00000000000E+00 0. -1.
         22    1    3    3    0    0 -0.17764878379E+03  0.14151462455E+03  0.10737022574E+04  0.10974616243E+04  0.00000000000E+00 0.  1.
         22    1    3    3    0    0 -0.62351735901E+02  0.16483019041E+03  0.11641409098E+04  0.11774042588E+04  0.00000000000E+00 0.  1.
</event>
<event>
 7    1  0.5562528E-006  0.5176054E+02  0.7818608E-02  0.1497147E+00
          2   -1    0    0  502    0  0.00000000000E+00  0.00000000000E+00  0.93788325115E+02  0.93788325115E+02  0.00000000000E+00 0. -1.
          1   -1    0    0  501    0 -0.00000000000E+00 -0.00000000000E+00 -0.12896292284E+04  0.12896292284E+04  0.00000000000E+00 0. -1.
         25    2    1    2    0    0 -0.60584877782E+02 -0.12305070478E+01 -0.63165780169E+03  0.64674778231E+03  0.12497629343E+03 0.  0.
          2    1    1    2  501    0  0.43782825852E+02 -0.27570812986E+02 -0.64613023062E+03  0.64819855020E+03  0.00000000000E+00 0. -1.
          1    1    1    2  502    0  0.16802051930E+02  0.28801320034E+02  0.81947129041E+02  0.88471220986E+02  0.00000000000E+00 0. -1.
         22    1    3    3    0    0  0.69318504986E+01 -0.52792287576E+02 -0.21266806328E+03  0.21923225428E+03  0.00000000000E+00 0. -1.
         22    1    3    3    0    0 -0.67516728280E+02  0.51561780528E+02 -0.41898973841E+03  0.42751552802E+03  0.00000000000E+00 0. -1.
</event>
<event>
 7    1  0.5562528E-006  0.1248565E+03  0.7818608E-02  0.1283982E+00
          2   -1    0    0  502    0  0.00000000000E+00  0.00000000000E+00  0.64503581914E+03  0.64503581914E+03  0.00000000000E+00 0. -1.
          1   -1    0    0  501    0 -0.00000000000E+00 -0.00000000000E+00 -0.90658820044E+03  0.90658820044E+03  0.00000000000E+00 0. -1.
         25    2    1    2    0    0 -0.10016613762E+03 -0.41408088765E+02  0.79079588298E+02  0.18337715129E+03  0.12500285352E+03 0.  0.
          2    1    1    2  501    0 -0.26511912579E+02  0.72654609370E+02 -0.84436039185E+03  0.84789506727E+03  0.00000000000E+00 0. -1.
          1    1    1    2  502    0  0.12667805019E+03 -0.31246520604E+02  0.50372842225E+03  0.52035180102E+03  0.00000000000E+00 0. -1.
         22    1    3    3    0    0 -0.10865066345E+03 -0.56907352614E+02  0.98363536804E+02  0.15722213210E+03  0.00000000000E+00 0. -1.
         22    1    3    3    0    0  0.84845258370E+01  0.15499263848E+02 -0.19283948506E+02  0.26155019184E+02  0.00000000000E+00 0. -1.
</event>
<event>
 7    1  0.5562528E-006  0.7789618E+02  0.7818608E-02  0.1474558E+00
          2   -1    0    0  502    0  0.00000000000E+00  0.00000000000E+00  0.59234755249E+03  0.59234755249E+03  0.00000000000E+00 0. -1.
          1   -1    0    0  501    0 -0.00000000000E+00 -0.00000000000E+00 -0.26052769737E+03  0.26052769737E+03  0.00000000000E+00 0. -1.
         25    2    1    2    0    0 -0.36873019712E+01  0.88485945936E+02  0.39128158169E+03  0.42020602985E+03  0.12501388931E+03 0.  0.
          2    1    1    2  501    0 -0.18337316784E+02 -0.18370313511E+02 -0.23809639491E+03  0.23950703304E+03  0.00000000000E+00 0. -1.
          1    1    1    2  502    0  0.22024618755E+02 -0.70115632424E+02  0.17863466835E+03  0.19316218697E+03  0.00000000000E+00 0. -1.
         22    1    3    3    0    0 -0.38786875646E+02 -0.49533576960E+01  0.43995064531E+02  0.58860200288E+02  0.00000000000E+00 0. -1.
         22    1    3    3    0    0  0.35099573674E+02  0.93439303632E+02  0.34728651716E+03  0.36134582956E+03  0.00000000000E+00 0. -1.
</event>
<event>
 7    1  0.5562528E-006  0.9750327E+02  0.7818608E-02  0.1406295E+00
          2   -1    0    0  502    0  0.00000000000E+00  0.00000000000E+00  0.10054441662E+04  0.10054441662E+04  0.00000000000E+00 0. -1.
          1   -1    0    0  501    0 -0.00000000000E+00 -0.00000000000E+00 -0.38324960454E+02  0.38324960454E+02  0.00000000000E+00 0. -1.
         25    2    1    2    0    0  0.94617301550E+02  0.60524015031E+02  0.41791464198E+03  0.45043815069E+03  0.12500515775E+03 0.  0.
          2    1    1    2  501    0 -0.61959269250E+02 -0.71756800226E+02  0.83459068095E+02  0.12630679108E+03  0.00000000000E+00 0. -1.
          1    1    1    2  502    0 -0.32658032300E+02  0.11232785195E+02  0.46574549567E+03  0.46702418489E+03  0.00000000000E+00 0. -1.
         22    1    3    3    0    0  0.11641778426E+03  0.14781850978E+02  0.29570578438E+03  0.31814071498E+03  0.00000000000E+00 0. -1.
         22    1    3    3    0    0 -0.21800482714E+02  0.45742164053E+02  0.12220885760E+03  0.13229743571E+03  0.00000000000E+00 0. -1.
</event>
<event>
 7    1  0.5562528E-006  0.1909358E+03  0.7818608E-02  0.1283932E+00
          2   -1    0    0  502    0  0.00000000000E+00  0.00000000000E+00  0.24755551190E+03  0.24755551190E+03  0.00000000000E+00 0. -1.
          1   -1    0    0  501    0 -0.00000000000E+00 -0.00000000000E+00 -0.23871702709E+04  0.23871702709E+04  0.00000000000E+00 0. -1.
         25    2    1    2    0    0  0.46208466730E+02  0.21797788280E+03 -0.39538846064E+03  0.47075036443E+03  0.12499716404E+03 0.  0.
          2    1    1    2  501    0 -0.58965267215E+01 -0.18739785511E+03 -0.19464798149E+04  0.19554887867E+04  0.00000000000E+00 0. -1.
          1    1    1    2  502    0 -0.40311940008E+02 -0.30580027696E+02  0.20225351658E+03  0.20848663163E+03  0.00000000000E+00 0. -1.
         22    1    3    3    0    0  0.42791665010E+02  0.23449085145E+03 -0.37421919563E+03  0.44368580368E+03  0.00000000000E+00 0.  1.
         22    1    3    3    0    0  0.34168017205E+01 -0.16512968651E+02 -0.21169265007E+02  0.27064560750E+02  0.00000000000E+00 0.  1.
</event>
<event>
 7    1  0.5562528E-006  0.2781075E+03  0.7818608E-02  0.1254081E+00
          2   -1    0    0  502    0  0.00000000000E+00  0.00000000000E+00  0.33333314195E+03  0.33333314195E+03  0.00000000000E+00 0. -1.
          1   -1    0    0  501    0 -0.00000000000E+00 -0.00000000000E+00 -0.14794482863E+04  0.14794482863E+04  0.00000000000E+00 0. -1.
         25    2    1    2    0    0 -0.60093979718E+02  0.25957677015E+03 -0.57531328182E+03  0.64622302937E+03  0.12500978142E+03 0.  0.
          2    1    1    2  501    0 -0.46376948060E+02 -0.92350937037E+00 -0.80219974739E+03  0.80353973697E+03  0.00000000000E+00 0. -1.
          1    1    1    2  502    0  0.10647092778E+03 -0.25865326078E+03  0.23139788486E+03  0.36301866191E+03  0.00000000000E+00 0. -1.
         22    1    3    3    0    0 -0.72672470835E+02  0.24770960737E+03 -0.57339143104E+03  0.62882356094E+03  0.00000000000E+00 0. -1.
         22    1    3    3    0    0  0.12578491118E+02  0.11867162779E+02 -0.19218507766E+01  0.17399468430E+02  0.00000000000E+00 0. -1.
</event>
<event>
 7    1  0.5562528E-006  0.4490118E+02  0.7818608E-02  0.1508693E+00
          2   -1    0    0  502    0  0.00000000000E+00  0.00000000000E+00  0.55044568731E+03  0.55044568731E+03  0.00000000000E+00 0. -1.
          1   -1    0    0  501    0 -0.00000000000E+00 -0.00000000000E+00 -0.47154291765E+03  0.47154291765E+03  0.00000000000E+00 0. -1.
         25    2    1    2    0    0  0.53215914261E+02 -0.31142462041E+02  0.35752781280E+01  0.13942747746E+03  0.12500180952E+03 0.  0.
          2    1    1    2  501    0 -0.85326056426E+01  0.34477235998E+02 -0.40178370869E+03  0.40335050977E+03  0.00000000000E+00 0. -1.
          1    1    1    2  502    0 -0.44683308618E+02 -0.33347739575E+01  0.47711120021E+03  0.47921061774E+03  0.00000000000E+00 0. -1.
         22    1    3    3    0    0  0.63551286329E+02 -0.54166057722E+02 -0.37247555811E+02  0.91433627387E+02  0.00000000000E+00 0. -1.
         22    1    3    3    0    0 -0.10335372068E+02  0.23023595681E+02  0.40822833939E+02  0.47993850071E+02  0.00000000000E+00 0. -1.
</event>
<event>
 7    1  0.5562528E-006  0.1568146E+03  0.7818608E-02  0.1300701E+00
          2   -1    0    0  502    0  0.00000000000E+00  0.00000000000E+00  0.17347916975E+04  0.17347916975E+04  0.00000000000E+00 0. -1.
          1   -1    0    0  501    0 -0.00000000000E+00 -0.00000000000E+00 -0.69789871790E+03  0.69789871790E+03  0.00000000000E+00 0. -1.
         25    2    1    2    0    0  0.46053740957E+02 -0.13660783276E+03 -0.23128914158E+03  0.29983739561E+03  0.12500059907E+03 0.  0.
          2    1    1    2  501    0 -0.98561026063E+02  0.13229032934E+03 -0.41617136140E+03  0.44767578575E+03  0.00000000000E+00 0. -1.
          1    1    1    2  502    0  0.52507285106E+02  0.43175034206E+01  0.16843534826E+04  0.16851772341E+04  0.00000000000E+00 0. -1.
         22    1    3    3    0    0  0.68102790624E+02 -0.26051943241E+02 -0.12602954368E+03  0.14560267757E+03  0.00000000000E+00 0. -1.
         22    1    3    3    0    0 -0.22049049667E+02 -0.11055588952E+03 -0.10525959790E+03  0.15423471804E+03  0.00000000000E+00 0. -1.
</event>
<event>
 7    1  0.5562528E-006  0.1119325E+03  0.7818608E-02  0.1299116E+00
          2   -1    0    0  502    0  0.00000000000E+00  0.00000000000E+00  0.58090609396E+03  0.58090609396E+03  0.00000000000E+00 0. -1.
          1   -1    0    0  501    0 -0.00000000000E+00 -0.00000000000E+00 -0.68667767731E+02  0.68667767731E+02  0.00000000000E+00 0. -1.
         25    2    1    2    0    0  0.14821609950E+03 -0.83859996547E+02  0.32970247723E+03  0.39157533331E+03  0.12500802771E+03 0.  0.
          2    1    1    2  501    0 -0.91479271200E+02  0.34968359759E+02  0.61436909648E+02  0.11561028116E+03  0.00000000000E+00 0. -1.
          1    1    1    2  502    0 -0.56736828301E+02  0.48891636788E+02  0.12109893935E+03  0.14238824722E+03  0.00000000000E+00 0. -1.
         22    1    3    3    0    0  0.13841229950E+03 -0.22272957339E+02  0.17139821603E+03  0.22143034512E+03  0.00000000000E+00 0.  1.
         22    1    3    3    0    0  0.98038000038E+01 -0.61587039208E+02  0.15830426120E+03  0.17014498819E+03  0.00000000000E+00 0.  1.
</event>
<event>
 7    1  0.5562528E-006  0.5615194E+02  0.7818608E-02  0.1420320E+00
          2   -1    0    0  502    0  0.00000000000E+00  0.00000000000E+00  0.49128092319E+03  0.49128092319E+03  0.00000000000E+00 0. -1.
          1   -1    0    0  501    0 -0.00000000000E+00 -0.00000000000E+00 -0.12716896060E+03  0.12716896060E+03  0.00000000000E+00 0. -1.
         25    2    1    2    0    0 -0.27119413860E+02 -0.47156847092E+01  0.64698616885E+02  0.14341693275E+03  0.12499922112E+03 0.  0.
          2    1    1    2  501    0  0.26829107688E+02 -0.51435503030E+02 -0.75906193887E+02  0.95536182998E+02  0.00000000000E+00 0. -1.
          1    1    1    2  502    0  0.29030617219E+00  0.56151187740E+02  0.37531953959E+03  0.37949676805E+03  0.00000000000E+00 0. -1.
         22    1    3    3    0    0 -0.37670416151E+02 -0.44014002146E+02 -0.95830187020E+01  0.58720753446E+02  0.00000000000E+00 0.  1.
         22    1    3    3    0    0  0.10551002291E+02  0.39298317437E+02  0.74281635587E+02  0.84696179301E+02  0.00000000000E+00 0.  1.
</event>
<event>
 7    1  0.5562528E-006  0.1176937E+03  0.7818608E-02  0.1273690E+00
          2   -1    0    0  502    0  0.00000000000E+00  0.00000000000E+00  0.19478527589E+04  0.19478527589E+04  0.00000000000E+00 0. -1.
          1   -1    0    0  501    0 -0.00000000000E+00 -0.00000000000E+00 -0.47761869915E+02  0.47761869915E+02  0.00000000000E+00 0. -1.
         25    2    1    2    0    0  0.90304200999E+02 -0.58828135867E+02  0.43647859211E+03  0.46663829462E+03  0.12498855287E+03 0.  0.
          2    1    1    2  501    0  0.31457873100E+02  0.84862970884E+02  0.38366924095E+02  0.98302301457E+02  0.00000000000E+00 0. -1.
          1    1    1    2  502    0 -0.12176207410E+03 -0.26034835017E+02  0.14252453728E+04  0.14306740327E+04  0.00000000000E+00 0. -1.
         22    1    3    3    0    0 -0.17917177239E+01 -0.64654543621E+02  0.25461929903E+03  0.26270593389E+03  0.00000000000E+00 0. -1.
         22    1    3    3    0    0  0.92095918723E+02  0.58264077540E+01  0.18185929308E+03  0.20393236073E+03  0.00000000000E+00 0. -1.
</event>
<event>
 7    1  0.5562528E-006  0.1562468E+03  0.7818608E-02  0.1278520E+00
          2   -1    0    0  502    0  0.00000000000E+00  0.00000000000E+00  0.11874070059E+04  0.11874070059E+04  0.00000000000E+00 0. -1.
          1   -1    0    0  501    0 -0.00000000000E+00 -0.00000000000E+00 -0.78595304706E+02  0.78595304706E+02  0.00000000000E+00 0. -1.
         25    2    1    2    0    0 -0.12195571149E+02  0.17363269454E+03  0.32473117193E+03  0.38906586460E+03  0.12499947362E+03 0.  0.
          2    1    1    2  501    0 -0.55111923630E+02 -0.34638056806E+02 -0.11849137728E+02  0.66162838288E+02  0.00000000000E+00 0. -1.
          1    1    1    2  502    0  0.67307494779E+02 -0.13899463774E+03  0.79592966701E+03  0.81077360773E+03  0.00000000000E+00 0. -1.
         22    1    3    3    0    0 -0.27825184432E+02  0.69469457310E+00  0.99338384787E+01  0.29553420041E+02  0.00000000000E+00 0. -1.
         22    1    3    3    0    0  0.15629613282E+02  0.17293799997E+03  0.31479733345E+03  0.35951244456E+03  0.00000000000E+00 0. -1.
</event>
<event>
 7    1  0.5562528E-006  0.1333968E+03  0.7818608E-02  0.1324364E+00
          2   -1    0    0  502    0  0.00000000000E+00  0.00000000000E+00  0.20965894546E+03  0.20965894546E+03  0.00000000000E+00 0. -1.
          1   -1    0    0  501    0 -0.00000000000E+00 -0.00000000000E+00 -0.21153675110E+04  0.21153675110E+04  0.00000000000E+00 0. -1.
         25    2    1    2    0    0  0.13113705540E+03  0.39778066059E+02 -0.10085729801E+03  0.21112204393E+03  0.12498440316E+03 0.  0.
          2    1    1    2  501    0  0.26593058789E+01 -0.49936333815E+02 -0.19298640233E+04  0.19305118124E+04  0.00000000000E+00 0. -1.
          1    1    1    2  502    0 -0.13379636128E+03  0.10158267756E+02  0.12501275575E+03  0.18339260016E+03  0.00000000000E+00 0. -1.
         22    1    3    3    0    0  0.87019792284E+02  0.84084671558E+02 -0.80617936795E+02  0.14540264087E+03  0.00000000000E+00 0. -1.
         22    1    3    3    0    0  0.44117263112E+02 -0.44306605499E+02 -0.20239361220E+02  0.65719403056E+02  0.00000000000E+00 0. -1.
</event>
<event>
 7    1  0.5562528E-006  0.8263941E+02  0.7818608E-02  0.1333423E+00
          2   -1    0    0  502    0  0.00000000000E+00  0.00000000000E+00  0.45100077434E+03  0.45100077434E+03  0.00000000000E+00 0. -1.
          1   -1    0    0  501    0 -0.00000000000E+00 -0.00000000000E+00 -0.68997765769E+03  0.68997765769E+03  0.00000000000E+00 0. -1.
         25    2    1    2    0    0 -0.72198410289E+02  0.89830413972E+02  0.63941113610E+02  0.18165094053E+03  0.12500593772E+03 0.  0.
          2    1    1    2  501    0 -0.81971488432E+01 -0.74076271051E+02 -0.62375723509E+03  0.62819389961E+03  0.00000000000E+00 0. -1.
          1    1    1    2  502    0  0.80395559132E+02 -0.15754142921E+02  0.32083923814E+03  0.33113359189E+03  0.00000000000E+00 0. -1.
         22    1    3    3    0    0 -0.88527931026E+02  0.53428761762E+02  0.87381014438E+02  0.13537824360E+03  0.00000000000E+00 0.  1.
         22    1    3    3    0    0  0.16329520737E+02  0.36401652210E+02 -0.23439900827E+02  0.46272696938E+02  0.00000000000E+00 0.  1.
</event>
<event>
 7    1  0.5562528E-006  0.7491004E+02  0.7818608E-02  0.1378923E+00
          2   -1    0    0  502    0  0.00000000000E+00  0.00000000000E+00  0.12207504088E+04  0.12207504088E+04  0.00000000000E+00 0. -1.
          1   -1    0    0  501    0 -0.00000000000E+00 -0.00000000000E+00 -0.13180215107E+04  0.13180215107E+04  0.00000000000E+00 0. -1.
         25    2    1    2    0    0  0.52582229227E+02  0.22463426247E+02  0.59942767367E+03  0.61498595204E+03  0.12499875557E+03 0.  0.
          2    1    1    2  501    0 -0.24485682366E+02 -0.70863488224E+02 -0.13078903551E+04  0.13100375428E+04  0.00000000000E+00 0. -1.
          1    1    1    2  502    0 -0.28096546862E+02  0.48400061977E+02  0.61119157946E+03  0.61374842464E+03  0.00000000000E+00 0. -1.
         22    1    3    3    0    0  0.81203121958E+02  0.38808246648E+02  0.28591557114E+03  0.29974612732E+03  0.00000000000E+00 0.  1.
         22    1    3    3    0    0 -0.28620892731E+02 -0.16344820401E+02  0.31351210253E+03  0.31523982472E+03  0.00000000000E+00 0.  1.
</event>
<event>
 7    1  0.5562528E-006  0.1360314E+03  0.7818608E-02  0.1321659E+00
          2   -1    0    0  502    0  0.00000000000E+00  0.00000000000E+00  0.69538768994E+03  0.69538768994E+03  0.00000000000E+00 0. -1.
          1   -1    0    0  501    0 -0.00000000000E+00 -0.00000000000E+00 -0.25108881484E+03  0.25108881484E+03  0.00000000000E+00 0. -1.
         25    2    1    2    0    0 -0.48876883368E+02 -0.11686130589E+03  0.18579653648E+03  0.25727801126E+03  0.12500443020E+03 0.  0.
          2    1    1    2  501    0 -0.48002277668E+02  0.14802039778E+02 -0.20175278502E+03  0.20791225387E+03  0.00000000000E+00 0. -1.
          1    1    1    2  502    0  0.96879161036E+02  0.10205926611E+03  0.46025512364E+03  0.48128623965E+03  0.00000000000E+00 0. -1.
         22    1    3    3    0    0 -0.70372401005E+02 -0.11591423104E+03  0.99111903313E+02  0.16796295175E+03  0.00000000000E+00 0. -1.
         22    1    3    3    0    0  0.21495517637E+02 -0.94707484746E+00  0.86684633164E+02  0.89315059515E+02  0.00000000000E+00 0. -1.
</event>
<event>
 7    1  0.5562528E-006  0.1321141E+03  0.7818608E-02  0.1256274E+00
          2   -1    0    0  502    0  0.00000000000E+00  0.00000000000E+00  0.64678762644E+03  0.64678762644E+03  0.00000000000E+00 0. -1.
          1   -1    0    0  501    0 -0.00000000000E+00 -0.00000000000E+00 -0.98217153350E+03  0.98217153350E+03  0.00000000000E+00 0. -1.
         25    2    1    2    0    0  0.41676753990E+01  0.22293905225E+03 -0.64926926380E+02  0.26374298797E+03  0.12500266957E+03 0.  0.
          2    1    1    2  501    0  0.12059209485E+01 -0.12754334533E+03 -0.80862981109E+03  0.81862746752E+03  0.00000000000E+00 0. -1.
          1    1    1    2  502    0 -0.53735963476E+01 -0.95395706920E+02  0.53817283041E+03  0.54658870445E+03  0.00000000000E+00 0. -1.
         22    1    3    3    0    0 -0.59800160699E+02  0.12607861153E+03 -0.36476783962E+02  0.14423047970E+03  0.00000000000E+00 0. -1.
         22    1    3    3    0    0  0.63967836098E+02  0.96860440717E+02 -0.28450142418E+02  0.11951250828E+03  0.00000000000E+00 0. -1.
</event>
<event>
 7    1  0.5562528E-006  0.3324025E+03  0.7818608E-02  0.1249213E+00
          2   -1    0    0  502    0  0.00000000000E+00  0.00000000000E+00  0.10982905814E+04  0.10982905814E+04  0.00000000000E+00 0. -1.
          1   -1    0    0  501    0 -0.00000000000E+00 -0.00000000000E+00 -0.98300309528E+03  0.98300309528E+03  0.00000000000E+00 0. -1.
         25    2    1    2    0    0 -0.18927394605E+03  0.30733175229E+03 -0.17895598326E+03  0.42181438537E+03  0.12499879657E+03 0.  0.
          2    1    1    2  501    0  0.15653791090E+03 -0.28308486389E+03 -0.64382753112E+03  0.72052414778E+03  0.00000000000E+00 0. -1.
          1    1    1    2  502    0  0.32736035155E+02 -0.24246888400E+02  0.93807100054E+03  0.93895514358E+03  0.00000000000E+00 0. -1.
         22    1    3    3    0    0 -0.55692440272E+02  0.19690691257E+03 -0.12717591185E+03  0.24093088776E+03  0.00000000000E+00 0.  1.
         22    1    3    3    0    0 -0.13358150578E+03  0.11042483971E+03 -0.51780071408E+02  0.18088349761E+03  0.00000000000E+00 0.  1.
</event>
<event>
 7    1  0.5562528E-006  0.9562953E+02  0.7818608E-02  0.1324258E+00
          2   -1    0    0  502    0  0.00000000000E+00  0.00000000000E+00  0.18139756193E+03  0.18139756193E+03  0.00000000000E+00 0. -1.
          1   -1    0    0  501    0 -0.00000000000E+00 -0.00000000000E+00 -0.10137021015E+04  0.10137021015E+04  0.00000000000E+00 0. -1.
         25    2    1    2    0    0 -0.23343479364E+02  0.10055111091E+03 -0.94237976266E+02  0.18751198690E+03  0.12499802049E+03 0.  0.
          2    1    1    2  501    0 -0.44841517372E+02 -0.85519301759E+02 -0.86089890598E+03  0.86629743101E+03  0.00000000000E+00 0. -1.
          1    1    1    2  502    0  0.68184996736E+02 -0.15031809156E+02  0.12283234268E+03  0.14129024551E+03  0.00000000000E+00 0. -1.
         22    1    3    3    0    0  0.33717200090E+02  0.51829785282E+02  0.62008053127E+01  0.62141984284E+02  0.00000000000E+00 0. -1.
         22    1    3    3    0    0 -0.57060679454E+02  0.48721325633E+02 -0.10043878158E+03  0.12537000262E+03  0.00000000000E+00 0. -1.
</event>
<event>
 7    1  0.5562528E-006  0.5266206E+02  0.7818608E-02  0.1528303E+00
          2   -1    0    0  502    0  0.00000000000E+00  0.00000000000E+00  0.16605665193E+04  0.16605665193E+04  0.00000000000E+00 0. -1.
          1   -1    0    0  501    0 -0.00000000000E+00 -0.00000000000E+00 -0.46666343401E+02  0.46666343401E+02  0.00000000000E+00 0. -1.
         25    2    1    2    0    0  0.27748811373E+02  0.65033500416E+01  0.30692334402E+03  0.33262807070E+03  0.12500881657E+03 0.  0.
          2    1    1    2  501    0  0.25948077872E+02 -0.56427842237E+01 -0.27976091494E+02  0.38572081281E+02  0.00000000000E+00 0. -1.
          1    1    1    2  502    0 -0.53696889245E+02 -0.86056581796E+00  0.13349529233E+04  0.13360327107E+04  0.00000000000E+00 0. -1.
         22    1    3    3    0    0  0.21777649829E+02 -0.58754869032E+02  0.15329506436E+03  0.16560729883E+03  0.00000000000E+00 0.  1.
         22    1    3    3    0    0  0.59711615440E+01  0.65258219074E+02  0.15362827965E+03  0.16702077187E+03  0.00000000000E+00 0.  1.
</event>
<event>
 7    1  0.7546709E-006  0.6125790E+02  0.7818608E-02  0.1425818E+00
          2   -1    0    0  502    0  0.00000000000E+00  0.00000000000E+00  0.14389635286E+04  0.14389635286E+04  0.00000000000E+00 0. -1.
          1   -1    0    0  501    0 -0.00000000000E+00 -0.00000000000E+00 -0.52258786694E+03  0.52258786694E+03  0.00000000000E+00 0. -1.
         25    2    1    2    0    0  0.91703484213E+01 -0.48857207792E+02 -0.21982314774E+03  0.25771266899E+03  0.12498992531E+03 0.  0.
          2    1    1    2  501    0 -0.47259065666E+02  0.77884676424E+00 -0.28118424378E+03  0.28512910206E+03  0.00000000000E+00 0. -1.
          1    1    1    2  502    0  0.38088717244E+02  0.48078361027E+02  0.14173830532E+04  0.14187096245E+04  0.00000000000E+00 0. -1.
         22    1    3    3    0    0  0.29714189239E+02 -0.45981854406E+02 -0.22318677225E+02  0.59121800800E+02  0.00000000000E+00 0.  1.
         22    1    3    3    0    0 -0.20543840818E+02 -0.28753533855E+01 -0.19750447052E+03  0.19859086819E+03  0.00000000000E+00 0.  1.
</event>
<event>
 7    1  0.5562528E-006  0.3209672E+02  0.7818608E-02  0.1629872E+00
          2   -1    0    0  502    0  0.00000000000E+00  0.00000000000E+00  0.53686824581E+03  0.53686824581E+03  0.00000000000E+00 0. -1.
          1   -1    0    0  501    0 -0.00000000000E+00 -0.00000000000E+00 -0.10240458221E+03  0.10240458221E+03  0.00000000000E+00 0. -1.
         25    2    1    2    0    0  0.33413060245E+02 -0.74352160595E+01  0.29836381863E+03  0.32529563595E+03  0.12499826987E+03 0.  0.
          2    1    1    2  501    0 -0.46646775932E+01  0.22765213217E+02 -0.86212859441E+02  0.89289816233E+02  0.00000000000E+00 0. -1.
          1    1    1    2  502    0 -0.28748382651E+02 -0.15329997158E+02  0.22231270441E+03  0.22468737584E+03  0.00000000000E+00 0. -1.
         22    1    3    3    0    0  0.20058435338E+02 -0.65707453039E+02  0.18061338792E+03  0.19323821079E+03  0.00000000000E+00 0. -1.
         22    1    3    3    0    0  0.13354624906E+02  0.58272236979E+02  0.11775043071E+03  0.13205742516E+03  0.00000000000E+00 0. -1.
</event>
<event>
 7    1  0.5562528E-006  0.2490155E+03  0.7818608E-02  0.1238172E+00
          2   -1    0    0  502    0  0.00000000000E+00  0.00000000000E+00  0.58876979997E+03  0.58876979997E+03  0.00000000000E+00 0. -1.
          1   -1    0    0  501    0 -0.00000000000E+00 -0.00000000000E+00 -0.27005564399E+04  0.27005564399E+04  0.00000000000E+00 0. -1.
         25    2    1    2    0    0  0.12136246115E+03  0.14810996518E+03 -0.93515829972E+03  0.96271022555E+03  0.12499809632E+03 0.  0.
          2    1    1    2  501    0  0.49418007332E+02  0.35402065326E+02 -0.17237377184E+04  0.17248093133E+04  0.00000000000E+00 0. -1.
          1    1    1    2  502    0 -0.17078046848E+03 -0.18351203051E+03  0.54710937812E+03  0.60180670101E+03  0.00000000000E+00 0. -1.
         22    1    3    3    0    0  0.12358262396E+03  0.14316371561E+03 -0.93779917674E+03  0.95667957557E+03  0.00000000000E+00 0.  1.
         22    1    3    3    0    0 -0.22201628138E+01  0.49462495712E+01  0.26408770229E+01  0.60306499808E+01  0.00000000000E+00 0.  1.
</event>
<event>
 7    1  0.5562528E-006  0.7656245E+02  0.7818608E-02  0.1481321E+00
          2   -1    0    0  502    0  0.00000000000E+00  0.00000000000E+00  0.78902982818E+03  0.78902982818E+03  0.00000000000E+00 0. -1.
          1   -1    0    0  501    0 -0.00000000000E+00 -0.00000000000E+00 -0.94852533020E+02  0.94852533020E+02  0.00000000000E+00 0. -1.
         25    2    1    2    0    0  0.63737302216E+02  0.67237043410E+02  0.72674761885E+01  0.15576167549E+03  0.12500247854E+03 0.  0.
          2    1    1    2  501    0 -0.25123787616E+02 -0.15715195600E+01 -0.99805208551E+01  0.27079238808E+02  0.00000000000E+00 0. -1.
          1    1    1    2  502    0 -0.38613514601E+02 -0.65665523850E+02  0.69689033983E+03  0.70104144690E+03  0.00000000000E+00 0. -1.
         22    1    3    3    0    0  0.49266464174E+02  0.52873199511E+02  0.63339840425E+02  0.96097321002E+02  0.00000000000E+00 0. -1.
         22    1    3    3    0    0  0.14470838043E+02  0.14363843899E+02 -0.56072364236E+02  0.59664354486E+02  0.00000000000E+00 0. -1.
</event>
<event>
 7    1  0.5562528E-006  0.1079957E+03  0.7818608E-02  0.1267100E+00
          2   -1    0    0  502    0  0.00000000000E+00  0.00000000000E+00  0.15800592469E+03  0.15800592469E+03  0.00000000000E+00 0. -1.
          1   -1    0    0  501    0 -0.00000000000E+00 -0.00000000000E+00 -0.10084541499E+04  0.10084541499E+04  0.00000000000E+00 0. -1.
         25    2    1    2    0    0 -0.38067868118E+02 -0.18404598238E+02 -0.19948309478E+03  0.23918002899E+03  0.12500275735E+03 0.  0.
          2    1    1    2  501    0  0.12086190833E+03 -0.46365043585E+02 -0.76285309382E+03  0.77375846419E+03  0.00000000000E+00 0. -1.
          1    1    1    2  502    0 -0.82794040208E+02  0.64769641824E+02  0.11188796341E+03  0.15352158139E+03  0.00000000000E+00 0. -1.
         22    1    3    3    0    0 -0.55861889180E+02 -0.27133407079E+01 -0.20689812868E+03  0.21432393364E+03  0.00000000000E+00 0. -1.
         22    1    3    3    0    0  0.17794021062E+02 -0.15691257531E+02  0.74150338964E+01  0.24856095352E+02  0.00000000000E+00 0. -1.
</event>
<event>
 7    1  0.5562528E-006  0.5703252E+02  0.7818608E-02  0.1463510E+00
          2   -1    0    0  502    0  0.00000000000E+00  0.00000000000E+00  0.74805135568E+03  0.74805135568E+03  0.00000000000E+00 0. -1.
          1   -1    0    0  501    0 -0.00000000000E+00 -0.00000000000E+00 -0.26017597913E+03  0.26017597913E+03  0.00000000000E+00 0. -1.
         25    2    1    2    0    0  0.63990868535E+02  0.26408433221E+02  0.56188817600E+02  0.15353862128E+03  0.12499875359E+03 0.  0.
          2    1    1    2  501    0 -0.31799835344E+02 -0.47298077185E+02 -0.20707512572E+03  0.21477533687E+03  0.00000000000E+00 0. -1.
          1    1    1    2  502    0 -0.32191033191E+02  0.20889643964E+02  0.63876168467E+03  0.63991337667E+03  0.00000000000E+00 0. -1.
         22    1    3    3    0    0  0.37956804602E+02 -0.20092907192E+02  0.83319747412E+02  0.93736995065E+02  0.00000000000E+00 0.  1.
         22    1    3    3    0    0  0.26034063933E+02  0.46501340414E+02 -0.27130929812E+02  0.59801626212E+02  0.00000000000E+00 0.  1.
</event>
<event>
 7    1  0.5562528E-006  0.3583216E+02  0.7818608E-02  0.1555580E+00
          2   -1    0    0  502    0  0.00000000000E+00  0.00000000000E+00  0.43672846595E+03  0.43672846595E+03  0.00000000000E+00 0. -1.
          1   -1    0    0  501    0 -0.00000000000E+00 -0.00000000000E+00 -0.71997886626E+03  0.71997886626E+03  0.00000000000E+00 0. -1.
         25    2    1    2    0    0 -0.60694559402E+01  0.55417560929E+01 -0.39576842321E+03  0.41512322477E+03  0.12500839000E+03 0.  0.
          2    1    1    2  501    0  0.11741695923E+02 -0.37738482254E+02 -0.31266147289E+03  0.31514957892E+03  0.00000000000E+00 0. -1.
          1    1    1    2  502    0 -0.56722399833E+01  0.32196726161E+02  0.42517949579E+03  0.42643452853E+03  0.00000000000E+00 0. -1.
         22    1    3    3    0    0 -0.51395868140E+02 -0.26619707785E+02 -0.28917714100E+03  0.29491280572E+03  0.00000000000E+00 0. -1.
         22    1    3    3    0    0  0.45326412200E+02  0.32161463878E+02 -0.10659128222E+03  0.12021041904E+03  0.00000000000E+00 0. -1.
</event>
<event>
 7    1  0.5562528E-006  0.1016768E+03  0.7818608E-02  0.1339080E+00
          2   -1    0    0  502    0  0.00000000000E+00  0.00000000000E+00  0.29165510393E+03  0.29165510393E+03  0.00000000000E+00 0. -1.
          1   -1    0    0  501    0 -0.00000000000E+00 -0.00000000000E+00 -0.30713248623E+03  0.30713248623E+03  0.00000000000E+00 0. -1.
         25    2    1    2    0    0  0.10228014156E+02  0.49841185915E+02 -0.48960203837E+02  0.14356551696E+03  0.12500080005E+03 0.  0.
          2    1    1    2  501    0  0.15505234505E+01  0.57640292055E+02 -0.19451688236E+03  0.20288327904E+03  0.00000000000E+00 0. -1.
          1    1    1    2  502    0 -0.11778537606E+02 -0.10748147797E+03  0.22799970391E+03  0.25233879416E+03  0.00000000000E+00 0. -1.
         22    1    3    3    0    0  0.45604014059E+02  0.40939694175E+02 -0.76382657520E+02  0.97929030564E+02  0.00000000000E+00 0.  1.
         22    1    3    3    0    0 -0.35375999904E+02  0.89014917401E+01  0.27422453683E+02  0.45636486394E+02  0.00000000000E+00 0.  1.
</event>
<event>
 7    1  0.5562528E-006  0.6872806E+02  0.7818608E-02  0.1446280E+00
          2   -1    0    0  502    0  0.00000000000E+00  0.00000000000E+00  0.82390905919E+03  0.82390905919E+03  0.00000000000E+00 0. -1.
          1   -1    0    0  501    0 -0.00000000000E+00 -0.00000000000E+00 -0.43279840213E+02  0.43279840213E+02  0.00000000000E+00 0. -1.
         25    2    1    2    0    0 -0.22667478608E+02 -0.27117839705E+02  0.51859879989E+03  0.53462048226E+03  0.12500061195E+03 0.  0.
          2    1    1    2  501    0  0.39743270722E+02  0.58950035918E+02  0.31349644262E+01  0.71165035688E+02  0.00000000000E+00 0. -1.
          1    1    1    2  502    0 -0.17075792114E+02 -0.31832196214E+02  0.25889545467E+03  0.26140338146E+03  0.00000000000E+00 0. -1.
         22    1    3    3    0    0 -0.12176299780E+02 -0.28375186112E+02  0.52245940410E+03  0.52337103703E+03  0.00000000000E+00 0. -1.
         22    1    3    3    0    0 -0.10491178828E+02  0.12573464067E+01 -0.38606042115E+01  0.11249445234E+02  0.00000000000E+00 0. -1.
</event>
<event>
 7    1  0.5562528E-006  0.9864788E+02  0.7818608E-02  0.1389944E+00
          2   -1    0    0  502    0  0.00000000000E+00  0.00000000000E+00  0.16231854874E+02  0.16231854874E+02  0.00000000000E+00 0. -1.
          1   -1    0    0  501    0 -0.00000000000E+00 -0.00000000000E+00 -0.20477248875E+04  0.20477248875E+04  0.00000000000E+00 0. -1.
         25    2    1    2    0    0  0.10416335245E+02 -0.12163387607E+03 -0.12144880541E+04  0.12269914752E+04  0.12499418710E+03 0.  0.
          2    1    1    2  501    0 -0.26585587722E+02  0.28352597401E+02 -0.58635368208E+03  0.58764045448E+03  0.00000000000E+00 0. -1.
          1    1    1    2  502    0  0.16169252478E+02  0.93281278664E+02 -0.23065129649E+03  0.24932481273E+03  0.00000000000E+00 0. -1.
         22    1    3    3    0    0  0.55270340615E+02 -0.11499505112E+03 -0.81290914559E+03  0.82286083350E+03  0.00000000000E+00 0.  1.
         22    1    3    3    0    0 -0.44854005370E+02 -0.66388249481E+01 -0.40157890848E+03  0.40413064167E+03  0.00000000000E+00 0.  1.
</event>
<event>
 7    1  0.5562528E-006  0.2066280E+03  0.7818608E-02  0.1239106E+00
          2   -1    0    0  502    0  0.00000000000E+00  0.00000000000E+00  0.33185213734E+04  0.33185213734E+04  0.00000000000E+00 0. -1.
          1   -1    0    0  501    0 -0.00000000000E+00 -0.00000000000E+00 -0.85043091946E+03  0.85043091946E+03  0.00000000000E+00 0. -1.
         25    2    1    2    0    0 -0.12502105052E+03 -0.84277229890E+02  0.17932133494E+02  0.19667166296E+03  0.12500106820E+03 0.  0.
          2    1    1    2  501    0  0.15239064297E+03  0.15148517311E+03 -0.74547448338E+03  0.77582399493E+03  0.00000000000E+00 0. -1.
          1    1    1    2  502    0 -0.27369592454E+02 -0.67207943217E+02  0.31956328038E+04  0.31964566350E+04  0.00000000000E+00 0. -1.
         22    1    3    3    0    0  0.86704158551E+01  0.81620952664E+01  0.31395157024E+02  0.33577548970E+02  0.00000000000E+00 0. -1.
         22    1    3    3    0    0 -0.13369146637E+03 -0.92439325157E+02 -0.13463023531E+02  0.16309411399E+03  0.00000000000E+00 0. -1.
</event>
<event>
 7    1  0.5562528E-006  0.5255676E+02  0.7818608E-02  0.1486890E+00
          2   -1    0    0  502    0  0.00000000000E+00  0.00000000000E+00  0.14732750657E+04  0.14732750657E+04  0.00000000000E+00 0. -1.
          1   -1    0    0  501    0 -0.00000000000E+00 -0.00000000000E+00 -0.27383851301E+02  0.27383851301E+02  0.00000000000E+00 0. -1.
         25    2    1    2    0    0  0.57141000273E+02 -0.46423359978E+02  0.77217807581E+03  0.78568589237E+03  0.12499247355E+03 0.  0.
          2    1    1    2  501    0 -0.21883623100E+02  0.47120425013E+02  0.13313854491E+02  0.53632882962E+02  0.00000000000E+00 0. -1.
          1    1    1    2  502    0 -0.35257377173E+02 -0.69706503457E+00  0.66039928410E+03  0.66134014167E+03  0.00000000000E+00 0. -1.
         22    1    3    3    0    0  0.34612312778E+02  0.18805577389E+02  0.71627255921E+02  0.81744270304E+02  0.00000000000E+00 0. -1.
         22    1    3    3    0    0  0.22528687495E+02 -0.65228937367E+02  0.70055081989E+03  0.70394162207E+03  0.00000000000E+00 0. -1.
</event>
<event>
 7    1  0.5562528E-006  0.2891514E+02  0.7818608E-02  0.1640476E+00
          2   -1    0    0  502    0  0.00000000000E+00  0.00000000000E+00  0.86149381845E+03  0.86149381845E+03  0.00000000000E+00 0. -1.
          1   -1    0    0  501    0 -0.00000000000E+00 -0.00000000000E+00 -0.95709675760E+02  0.95709675760E+02  0.00000000000E+00 0. -1.
         25    2    1    2    0    0  0.45281540918E+02  0.23398447876E+02  0.20200164844E+03  0.24295457224E+03  0.12499741153E+03 0.  0.
          2    1    1    2  501    0 -0.17442912042E+02 -0.16873380995E+02 -0.72946856483E+02  0.76877890434E+02  0.00000000000E+00 0. -1.
          1    1    1    2  502    0 -0.27838628876E+02 -0.65250668808E+01  0.63672935073E+03  0.63737103153E+03  0.00000000000E+00 0. -1.
         22    1    3    3    0    0 -0.32945955968E+02  0.42423839680E+02  0.93748235540E+02  0.10804605432E+03  0.00000000000E+00 0.  1.
         22    1    3    3    0    0  0.78227496886E+02 -0.19025391804E+02  0.10825341290E+03  0.13490851792E+03  0.00000000000E+00 0.  1.
</event>
<event>
 7    1  0.5562528E-006  0.1246916E+03  0.7818608E-02  0.1294557E+00
          2   -1    0    0  502    0  0.00000000000E+00  0.00000000000E+00  0.69532213735E+02  0.69532213735E+02  0.00000000000E+00 0. -1.
          1   -1    0    0  501    0 -0.00000000000E+00 -0.00000000000E+00 -0.12673704390E+04  0.12673704390E+04  0.00000000000E+00 0. -1.
         25    2    1    2    0    0  0.31920425557E+02 -0.60368516957E+02 -0.35442323193E+03  0.38197293274E+03  0.12499689040E+03 0.  0.
          2    1    1    2  501    0  0.39558339790E+02 -0.57911546982E+02 -0.80962686170E+03  0.81265876277E+03  0.00000000000E+00 0. -1.
          1    1    1    2  502    0 -0.71478765348E+02  0.11828006394E+03 -0.33788131596E+02  0.14227095718E+03  0.00000000000E+00 0. -1.
         22    1    3    3    0    0  0.60400356837E+02 -0.52962756546E+02 -0.11233576938E+03  0.13810351831E+03  0.00000000000E+00 0. -1.
         22    1    3    3    0    0 -0.28479931280E+02 -0.74057604104E+01 -0.24208746254E+03  0.24386941443E+03  0.00000000000E+00 0. -1.
</event>
<event>
 7    1  0.5562528E-006  0.1540024E+03  0.7818608E-02  0.1258454E+00
          2   -1    0    0  502    0  0.00000000000E+00  0.00000000000E+00  0.75672022848E+03  0.75672022848E+03  0.00000000000E+00 0. -1.
          1   -1    0    0  501    0 -0.00000000000E+00 -0.00000000000E+00 -0.35205514039E+03  0.35205514039E+03  0.00000000000E+00 0. -1.
         25    2    1    2    0    0  0.30212566436E+02  0.93971116811E+02 -0.12523037795E+02  0.15976386384E+03  0.12499718296E+03 0.  0.
          2    1    1    2  501    0 -0.28933416951E+02 -0.17418328098E+03 -0.23386446234E+03  0.29303505718E+03  0.00000000000E+00 0. -1.
          1    1    1    2  502    0 -0.12791494848E+01  0.80212164173E+02  0.65105258823E+03  0.65597644785E+03  0.00000000000E+00 0. -1.
         22    1    3    3    0    0 -0.58892109307E+01 -0.27583365948E+02  0.11931583074E+02  0.30624949911E+02  0.00000000000E+00 0. -1.
         22    1    3    3    0    0  0.36101777367E+02  0.12155448276E+03 -0.24454620868E+02  0.12913891392E+03  0.00000000000E+00 0. -1.
</event>
<event>
 7    1  0.5562528E-006  0.4791359E+02  0.7818608E-02  0.1497146E+00
          2   -1    0    0  502    0  0.00000000000E+00  0.00000000000E+00  0.26194473969E+04  0.26194473969E+04  0.00000000000E+00 0. -1.
          1   -1    0    0  501    0 -0.00000000000E+00 -0.00000000000E+00 -0.52512311233E+02  0.52512311233E+02  0.00000000000E+00 0. -1.
         25    2    1    2    0    0 -0.36791854619E+02 -0.19350680342E+01  0.21472261775E+04  0.21511771334E+04  0.12500166839E+03 0.  0.
          2    1    1    2  501    0  0.30210590411E+02  0.37350230344E+02 -0.38251540156E+02  0.61407652651E+02  0.00000000000E+00 0. -1.
          1    1    1    2  502    0  0.65812642079E+01 -0.35415162310E+02  0.45796044832E+03  0.45937492202E+03  0.00000000000E+00 0. -1.
         22    1    3    3    0    0 -0.77871256147E+02 -0.10210188160E+02  0.95837397505E+03  0.96158663496E+03  0.00000000000E+00 0.  1.
         22    1    3    3    0    0  0.41079401528E+02  0.82751201263E+01  0.11888522024E+04  0.11895904985E+04  0.00000000000E+00 0.  1.
</event>
<event>
 7    1  0.5562528E-006  0.9854483E+02  0.7818608E-02  0.1329480E+00
          2   -1    0    0  502    0  0.00000000000E+00  0.00000000000E+00  0.11380084314E+04  0.11380084314E+04  0.00000000000E+00 0. -1.
          1   -1    0    0  501    0 -0.00000000000E+00 -0.00000000000E+00 -0.41449557050E+03  0.41449557050E+03  0.00000000000E+00 0. -1.
         25    2    1    2    0    0  0.26512477504E+02  0.96276290243E+02 -0.30435770674E+02  0.16285905030E+03  0.12499879439E+03 0.  0.
          2    1    1    2  501    0 -0.80429153358E+02 -0.60511440266E+02 -0.30887163597E+03  0.32485715418E+03  0.00000000000E+00 0. -1.
          1    1    1    2  502    0  0.53916675853E+02 -0.35764849978E+02  0.10628202676E+04  0.10647877974E+04  0.00000000000E+00 0. -1.
         22    1    3    3    0    0  0.12669148532E+02  0.11164808867E+03 -0.59530324914E+02  0.12715998826E+03  0.00000000000E+00 0. -1.
         22    1    3    3    0    0  0.13843328972E+02 -0.15371798430E+02  0.29094554240E+02  0.35699062039E+02  0.00000000000E+00 0. -1.
</event>
<event>
 7    1  0.5562528E-006  0.6980511E+02  0.7818608E-02  0.1449909E+00
          2   -1    0    0  502    0  0.00000000000E+00  0.00000000000E+00  0.71237156661E+03  0.71237156661E+03  0.00000000000E+00 0. -1.
          1   -1    0    0  501    0 -0.00000000000E+00 -0.00000000000E+00 -0.26253577698E+03  0.26253577698E+03  0.00000000000E+00 0. -1.
         25    2    1    2    0    0  0.42992014499E+02 -0.92025286387E+01 -0.15945612635E+03  0.20734176409E+03  0.12502540167E+03 0.  0.
          2    1    1    2  501    0  0.25685966834E+02  0.23219113727E+02 -0.73467269061E+02  0.81217829064E+02  0.00000000000E+00 0. -1.
          1    1    1    2  502    0 -0.68677981333E+02 -0.14016585089E+02  0.68275918504E+03  0.68634775044E+03  0.00000000000E+00 0. -1.
         22    1    3    3    0    0 -0.28838002708E+02 -0.40626827197E+02 -0.37497249556E+02  0.62355538748E+02  0.00000000000E+00 0.  1.
         22    1    3    3    0    0  0.71830017207E+02  0.31424298559E+02 -0.12195887679E+03  0.14498622534E+03  0.00000000000E+00 0.  1.
</event>
<event>
 7    1  0.5562528E-006  0.3518171E+02  0.7818608E-02  0.1606766E+00
          2   -1    0    0  502    0  0.00000000000E+00  0.00000000000E+00  0.31868235415E+02  0.31868235415E+02  0.00000000000E+00 0. -1.
          1   -1    0    0  501    0 -0.00000000000E+00 -0.00000000000E+00 -0.10136724139E+04  0.10136724139E+04  0.00000000000E+00 0. -1.
         25    2    1    2    0    0 -0.26129154622E+02  0.51753092272E+02 -0.34455920592E+03  0.37108901493E+03  0.12499958134E+03 0.  0.
          2    1    1    2  501    0  0.19407927262E+02 -0.28417644864E+02 -0.64726671683E+03  0.64818086434E+03  0.00000000000E+00 0. -1.
          1    1    1    2  502    0  0.67212273605E+01 -0.23335447408E+02  0.10021744234E+02  0.26270770077E+02  0.00000000000E+00 0. -1.
         22    1    3    3    0    0  0.34915415280E+02 -0.14430941269E+02 -0.17579447524E+03  0.17980833077E+03  0.00000000000E+00 0. -1.
         22    1    3    3    0    0 -0.61044569902E+02  0.66184033541E+02 -0.16876473068E+03  0.19128068416E+03  0.00000000000E+00 0. -1.
</event>
<event>
 7    1  0.5562528E-006  0.8861895E+02  0.7818608E-02  0.1365339E+00
          2   -1    0    0  502    0  0.00000000000E+00  0.00000000000E+00  0.15669202553E+04  0.15669202553E+04  0.00000000000E+00 0. -1.
          1   -1    0    0  501    0 -0.00000000000E+00 -0.00000000000E+00 -0.40313923655E+03  0.40313923655E+03  0.00000000000E+00 0. -1.
         25    2    1    2    0    0  0.11240504220E+03 -0.40593266448E+02  0.46960900677E+03  0.50044047821E+03  0.12500138480E+03 0.  0.
          2    1    1    2  501    0 -0.88168433045E+02 -0.64481329916E+01 -0.38202572966E+03  0.39212103888E+03  0.00000000000E+00 0. -1.
          1    1    1    2  502    0 -0.24236609155E+02  0.47041399440E+02  0.10761977416E+04  0.10774979748E+04  0.00000000000E+00 0. -1.
         22    1    3    3    0    0  0.53974846093E+01 -0.63296961716E+02  0.17649691298E+03  0.18758144496E+03  0.00000000000E+00 0. -1.
         22    1    3    3    0    0  0.10700755759E+03  0.22703695268E+02  0.29311209379E+03  0.31285903325E+03  0.00000000000E+00 0. -1.
</event>
<event>
 7    1  0.5562528E-006  0.6996253E+02  0.7818608E-02  0.1411184E+00
          2   -1    0    0  502    0  0.00000000000E+00  0.00000000000E+00  0.12864004215E+03  0.12864004215E+03  0.00000000000E+00 0. -1.
          1   -1    0    0  501    0 -0.00000000000E+00 -0.00000000000E+00 -0.18969866414E+03  0.18969866414E+03  0.00000000000E+00 0. -1.
         25    2    1    2    0    0 -0.19533894158E+02 -0.30252197821E+02 -0.14585445944E+02  0.13090015071E+03  0.12500138291E+03 0.  0.
          2    1    1    2  501    0 -0.29539394918E+02 -0.35686437258E+02 -0.84890490698E+02  0.96708288514E+02  0.00000000000E+00 0. -1.
          1    1    1    2  502    0  0.49073289075E+02  0.65938635078E+02  0.38417314656E+02  0.90730267067E+02  0.00000000000E+00 0. -1.
         22    1    3    3    0    0  0.10126531607E+02  0.43785093216E+02 -0.23380899703E+02  0.50659130483E+02  0.00000000000E+00 0.  1.
         22    1    3    3    0    0 -0.29660425765E+02 -0.74037291037E+02  0.87954537592E+01  0.80241020229E+02  0.00000000000E+00 0.  1.
</event>
<event>
 7    1  0.8299332E-006  0.7961668E+02  0.7818608E-02  0.1435243E+00
          2   -1    0    0  502    0  0.00000000000E+00  0.00000000000E+00  0.97886933792E+03  0.97886933792E+03  0.00000000000E+00 0. -1.
          1   -1    0    0  501    0 -0.00000000000E+00 -0.00000000000E+00 -0.11744591424E+04  0.11744591424E+04  0.00000000000E+00 0. -1.
         25    2    1    2    0    0  0.62497420831E+02  0.73456011918E+02 -0.13816077258E+03  0.20979847028E+03  0.12500114302E+03 0.  0.
          2    1    1    2  501    0 -0.33853179682E+02  0.71081452579E+00 -0.99851629676E+03  0.99909025515E+03  0.00000000000E+00 0. -1.
          1    1    1    2  502    0 -0.28644241149E+02 -0.74166826444E+02  0.94108726482E+03  0.94443975493E+03  0.00000000000E+00 0. -1.
         22    1    3    3    0    0  0.24907123956E+02  0.10391449192E+03 -0.11199477044E+03  0.15479475140E+03  0.00000000000E+00 0. -1.
         22    1    3    3    0    0  0.37590296876E+02 -0.30458480001E+02 -0.26166002137E+02  0.55003718883E+02  0.00000000000E+00 0. -1.
</event>
<event>
 7    1  0.5562528E-006  0.6389402E+02  0.7818608E-02  0.1384332E+00
          2   -1    0    0  502    0  0.00000000000E+00  0.00000000000E+00  0.18152784137E+04  0.18152784137E+04  0.00000000000E+00 0. -1.
          1   -1    0    0  501    0 -0.00000000000E+00 -0.00000000000E+00 -0.20561894310E+03  0.20561894310E+03  0.00000000000E+00 0. -1.
         25    2    1    2    0    0 -0.48058866227E+02  0.30484069014E+02  0.85242429689E+03  0.86341808929E+03  0.12499872754E+03 0.  0.
          2    1    1    2  501    0 -0.16309198604E+02 -0.60633254175E+02 -0.19383803823E+03  0.20375369085E+03  0.00000000000E+00 0. -1.
          1    1    1    2  502    0  0.64368064831E+02  0.30149185161E+02  0.95107321198E+03  0.95372557672E+03  0.00000000000E+00 0. -1.
         22    1    3    3    0    0  0.13980718184E+02  0.66619422540E+01  0.10128744028E+02  0.18504956394E+02  0.00000000000E+00 0.  1.
         22    1    3    3    0    0 -0.62039584412E+02  0.23822126760E+02  0.84229555286E+03  0.84491313289E+03  0.00000000000E+00 0.  1.
</event>
<event>
 7    1  0.5562528E-006  0.2980802E+02  0.7818608E-02  0.1613116E+00
          2   -1    0    0  502    0  0.00000000000E+00  0.00000000000E+00  0.11060056354E+04  0.11060056354E+04  0.00000000000E+00 0. -1.
          1   -1    0    0  501    0 -0.00000000000E+00 -0.00000000000E+00 -0.58411272518E+03  0.58411272518E+03  0.00000000000E+00 0. -1.
         25    2    1    2    0    0 -0.45361828556E+02  0.19117617910E+01  0.44052219029E+03  0.46015848578E+03  0.12499872629E+03 0.  0.
          2    1    1    2  501    0  0.24809765617E+02  0.16511815870E+02 -0.57361710313E+03  0.57439076031E+03  0.00000000000E+00 0. -1.
          1    1    1    2  502    0  0.20552062939E+02 -0.18423577661E+02  0.65498782304E+03  0.65556911446E+03  0.00000000000E+00 0. -1.
         22    1    3    3    0    0  0.11013360863E+02  0.28436026697E+02  0.23475742830E+02  0.38483921750E+02  0.00000000000E+00 0. -1.
         22    1    3    3    0    0 -0.56375189419E+02 -0.26524264906E+02  0.41704644746E+03  0.42167456403E+03  0.00000000000E+00 0. -1.
</event>
<event>
 7    1  0.5562528E-006  0.1313385E+03  0.7818608E-02  0.1314361E+00
          2   -1    0    0  502    0  0.00000000000E+00  0.00000000000E+00  0.63066323685E+03  0.63066323685E+03  0.00000000000E+00 0. -1.
          1   -1    0    0  501    0 -0.00000000000E+00 -0.00000000000E+00 -0.16776816012E+03  0.16776816012E+03  0.00000000000E+00 0. -1.
         25    2    1    2    0    0  0.10120693820E+03  0.70874242820E+02  0.25161700669E+03  0.30692247130E+03  0.12499713076E+03 0.  0.
          2    1    1    2  501    0 -0.13121327173E+03 -0.24132916398E+02 -0.10538238323E+03  0.17001402009E+03  0.00000000000E+00 0. -1.
          1    1    1    2  502    0  0.30006333530E+02 -0.46741326422E+02  0.31666045327E+03  0.32149490557E+03  0.00000000000E+00 0. -1.
         22    1    3    3    0    0  0.12930646537E+03  0.43464526572E+02  0.19933155619E+03  0.24154170726E+03  0.00000000000E+00 0. -1.
         22    1    3    3    0    0 -0.28099527165E+02  0.27409716247E+02  0.52285450506E+02  0.65380764039E+02  0.00000000000E+00 0. -1.
</event>
<event>
 7    1  0.5562528E-006  0.8485173E+02  0.7818608E-02  0.1481398E+00
          2   -1    0    0  502    0  0.00000000000E+00  0.00000000000E+00  0.28338557319E+02  0.28338557319E+02  0.00000000000E+00 0. -1.
          1   -1    0    0  501    0 -0.00000000000E+00 -0.00000000000E+00 -0.22526497046E+04  0.22526497046E+04  0.00000000000E+00 0. -1.
         25    2    1    2    0    0  0.55487337778E+02  0.45785267803E+02 -0.13750079420E+04  0.13825514182E+04  0.12500579206E+03 0.  0.
          2    1    1    2  501    0 -0.36528141054E+01  0.22405646578E+02 -0.79855336988E+03  0.79887598574E+03  0.00000000000E+00 0. -1.
          1    1    1    2  502    0 -0.51834523672E+02 -0.68190914381E+02 -0.50749835441E+02  0.99560858000E+02  0.00000000000E+00 0. -1.
         22    1    3    3    0    0  0.26408247482E+02 -0.40402332871E+02 -0.66338443142E+03  0.66513806679E+03  0.00000000000E+00 0.  1.
         22    1    3    3    0    0  0.29079090296E+02  0.86187600674E+02 -0.71162351059E+03  0.71741335144E+03  0.00000000000E+00 0.  1.
</event>
<event>
 7    1  0.5562528E-006  0.1292602E+03  0.7818608E-02  0.1249597E+00
          2   -1    0    0  502    0  0.00000000000E+00  0.00000000000E+00  0.14107778082E+04  0.14107778082E+04  0.00000000000E+00 0. -1.
          1   -1    0    0  501    0 -0.00000000000E+00 -0.00000000000E+00 -0.33156597822E+03  0.33156597822E+03  0.00000000000E+00 0. -1.
         25    2    1    2    0    0 -0.12596292906E+03  0.17077746686E+03  0.47585988927E+02  0.25083775546E+03  0.12499420202E+03 0.  0.
          2    1    1    2  501    0  0.37566658763E+02 -0.11530754803E+03 -0.21161031395E+03  0.24389753884E+03  0.00000000000E+00 0. -1.
          1    1    1    2  502    0  0.88396270292E+02 -0.55469918827E+02  0.12432361550E+04  0.12476084922E+04  0.00000000000E+00 0. -1.
         22    1    3    3    0    0 -0.12706433834E+03  0.12216866969E+03  0.78778005828E+02  0.19307124108E+03  0.00000000000E+00 0.  1.
         22    1    3    3    0    0  0.11014092838E+01  0.48608797168E+02 -0.31192016901E+02  0.57766514374E+02  0.00000000000E+00 0.  1.
</event>
<event>
 7    1  0.5562528E-006  0.4906740E+02  0.7818608E-02  0.1474050E+00
          2   -1    0    0  502    0  0.00000000000E+00  0.00000000000E+00  0.11200637562E+04  0.11200637562E+04  0.00000000000E+00 0. -1.
          1   -1    0    0  501    0 -0.00000000000E+00 -0.00000000000E+00 -0.15983391776E+04  0.15983391776E+04  0.00000000000E+00 0. -1.
         25    2    1    2    0    0  0.66344593672E+02  0.31533144973E+02  0.42393176491E+03  0.44803909085E+03  0.12499976516E+03 0.  0.
          2    1    1    2  501    0 -0.40382767837E+02  0.89167159187E+01 -0.15851712196E+04  0.15857105888E+04  0.00000000000E+00 0. -1.
          1    1    1    2  502    0 -0.25961825835E+02 -0.40449860892E+02  0.68296403328E+03  0.68465325413E+03  0.00000000000E+00 0. -1.
         22    1    3    3    0    0  0.25082584641E+02  0.10966017045E+02  0.38959025226E+03  0.39055083439E+03  0.00000000000E+00 0.  1.
         22    1    3    3    0    0  0.41262009030E+02  0.20567127927E+02  0.34341512650E+02  0.57488256466E+02  0.00000000000E+00 0.  1.
</event>
<event>
 7    1  0.5562528E-006  0.7374500E+02  0.7818608E-02  0.1510488E+00
          2   -1    0    0  502    0  0.00000000000E+00  0.00000000000E+00  0.14187111554E+03  0.14187111554E+03  0.00000000000E+00 0. -1.
          1   -1    0    0  501    0 -0.00000000000E+00 -0.00000000000E+00 -0.98420285159E+03  0.98420285159E+03  0.00000000000E+00 0. -1.
         25    2    1    2    0    0 -0.36346436800E+02  0.38469323629E+02 -0.12368441375E+02  0.13630449941E+03  0.12499994356E+03 0.  0.
          2    1    1    2  501    0  0.49967312390E+02 -0.54927996320E+02 -0.90689327103E+03  0.90992814119E+03  0.00000000000E+00 0. -1.
          1    1    1    2  502    0 -0.13620875590E+02  0.16458672691E+02  0.76929976364E+02  0.79841326530E+02  0.00000000000E+00 0. -1.
         22    1    3    3    0    0 -0.75929014476E+00  0.40437941093E+01  0.53635674222E+02  0.53793255540E+02  0.00000000000E+00 0.  1.
         22    1    3    3    0    0 -0.35587146655E+02  0.34425529519E+02 -0.66004115597E+02  0.82511243873E+02  0.00000000000E+00 0.  1.
</event>
<event>
 7    1  0.5562528E-006  0.9718366E+02  0.7818608E-02  0.1310719E+00
          2   -1    0    0  502    0  0.00000000000E+00  0.00000000000E+00  0.18413755615E+04  0.18413755615E+04  0.00000000000E+00 0. -1.
          1   -1    0    0  501    0 -0.00000000000E+00 -0.00000000000E+00 -0.80688756911E+03  0.80688756911E+03  0.00000000000E+00 0. -1.
         25    2    1    2    0    0  0.15663359438E+03  0.67436267137E+02  0.61620235596E+01  0.21155139522E+03  0.12503715158E+03 0.  0.
          2    1    1    2  501    0 -0.81156675683E+02 -0.49510159234E+02 -0.70011037842E+03  0.70653535216E+03  0.00000000000E+00 0. -1.
          1    1    1    2  502    0 -0.75476918694E+02 -0.17926107903E+02  0.17284363472E+04  0.17301763832E+04  0.00000000000E+00 0. -1.
         22    1    3    3    0    0  0.34913574213E+02  0.79030109780E+02  0.19449148449E+02  0.88560630596E+02  0.00000000000E+00 0.  1.
         22    1    3    3    0    0  0.12172002016E+03 -0.11593842643E+02 -0.13287124889E+02  0.12299076463E+03  0.00000000000E+00 0.  1.
</event>
<event>
 7    1  0.5562528E-006  0.2545885E+03  0.7818608E-02  0.1258796E+00
          2   -1    0    0  502    0  0.00000000000E+00  0.00000000000E+00  0.40032853231E+03  0.40032853231E+03  0.00000000000E+00 0. -1.
          1   -1    0    0  501    0 -0.00000000000E+00 -0.00000000000E+00 -0.92255081938E+03  0.92255081938E+03  0.00000000000E+00 0. -1.
         25    2    1    2    0    0 -0.92183288580E+02 -0.19284761226E+03 -0.22798210507E+03  0.33658253674E+03  0.12499601418E+03 0.  0.
          2    1    1    2  501    0 -0.15057666627E+02 -0.45960009225E+02 -0.58962470128E+03  0.59160488853E+03  0.00000000000E+00 0. -1.
          1    1    1    2  502    0  0.10724095521E+03  0.23880762148E+03  0.29538451928E+03  0.39469192642E+03  0.00000000000E+00 0. -1.
         22    1    3    3    0    0 -0.97736491903E+02 -0.18143635286E+03 -0.14343426913E+03  0.25108755754E+03  0.00000000000E+00 0. -1.
         22    1    3    3    0    0  0.55532033225E+01 -0.11411259400E+02 -0.84547835932E+02  0.85494979203E+02  0.00000000000E+00 0. -1.
</event>
<event>
 7    1  0.5562528E-006  0.6563810E+03  0.7818608E-02  0.1056623E+00
          2   -1    0    0  502    0  0.00000000000E+00  0.00000000000E+00  0.13228905447E+04  0.13228905447E+04  0.00000000000E+00 0. -1.
          1   -1    0    0  501    0 -0.00000000000E+00 -0.00000000000E+00 -0.17992312873E+04  0.17992312873E+04  0.00000000000E+00 0. -1.
         25    2    1    2    0    0 -0.83427998030E+03  0.12463245546E+03  0.64374283658E+03  0.10684503175E+04  0.12499962692E+03 0.  0.
          2    1    1    2  501    0  0.63152503850E+03 -0.11540916259E+03 -0.14951834196E+04  0.16271805700E+04  0.00000000000E+00 0. -1.
          1    1    1    2  502    0  0.20275494180E+03 -0.92232928726E+01  0.37509984037E+03  0.42649094457E+03  0.00000000000E+00 0. -1.
         22    1    3    3    0    0 -0.72012714361E+03  0.66235331121E+02  0.52447239940E+03  0.89333169640E+03  0.00000000000E+00 0.  1.
         22    1    3    3    0    0 -0.11415283669E+03  0.58397124338E+02  0.11927043718E+03  0.17511862105E+03  0.00000000000E+00 0.  1.
</event>
<event>
 7    1  0.5562528E-006  0.5673746E+02  0.7818608E-02  0.1484814E+00
          2   -1    0    0  502    0  0.00000000000E+00  0.00000000000E+00  0.10053951573E+04  0.10053951573E+04  0.00000000000E+00 0. -1.
          1   -1    0    0  501    0 -0.00000000000E+00 -0.00000000000E+00 -0.56038131349E+03  0.56038131349E+03  0.00000000000E+00 0. -1.
         25    2    1    2    0    0 -0.63350883433E+02  0.24098960986E+02  0.18364760012E+03  0.23224881879E+03  0.12497591147E+03 0.  0.
          2    1    1    2  501    0  0.73308032991E+01 -0.32323555739E+02 -0.53456173722E+03  0.53558827828E+03  0.00000000000E+00 0. -1.
          1    1    1    2  502    0  0.56020080133E+02  0.82245947524E+01  0.79592798094E+03  0.79793937375E+03  0.00000000000E+00 0. -1.
         22    1    3    3    0    0 -0.86261555112E+02 -0.23285995773E+02  0.10970152750E+03  0.14148398717E+03  0.00000000000E+00 0. -1.
         22    1    3    3    0    0  0.22910671679E+02  0.47384956759E+02  0.73946072619E+02  0.90764831623E+02  0.00000000000E+00 0. -1.
</event>
<event>
 7    1  0.5562528E-006  0.1067919E+03  0.7818608E-02  0.1305766E+00
          2   -1    0    0  502    0  0.00000000000E+00  0.00000000000E+00  0.93995192900E+03  0.93995192900E+03  0.00000000000E+00 0. -1.
          1   -1    0    0  501    0 -0.00000000000E+00 -0.00000000000E+00 -0.41542444417E+03  0.41542444417E+03  0.00000000000E+00 0. -1.
         25    2    1    2    0    0 -0.11718238646E+02  0.71905786360E+02  0.29210515010E+02  0.14760200107E+03  0.12500134920E+03 0.  0.
          2    1    1    2  501    0  0.85569860874E+02 -0.72007276088E+02 -0.34579312924E+03  0.36342831085E+03  0.00000000000E+00 0. -1.
          1    1    1    2  502    0 -0.73851622228E+02  0.10148972809E+00  0.84111009906E+03  0.84434606125E+03  0.00000000000E+00 0. -1.
         22    1    3    3    0    0 -0.66389326249E+02  0.24987955178E+02  0.25786013010E+02  0.75477539777E+02  0.00000000000E+00 0.  1.
         22    1    3    3    0    0  0.54671087603E+02  0.46917831181E+02  0.34245019999E+01  0.72124461290E+02  0.00000000000E+00 0.  1.
</event>
<event>
 7    1  0.5562528E-006  0.8880560E+02  0.7818608E-02  0.1357300E+00
          2   -1    0    0  502    0  0.00000000000E+00  0.00000000000E+00  0.47237723977E+02  0.47237723977E+02  0.00000000000E+00 0. -1.
          1   -1    0    0  501    0 -0.00000000000E+00 -0.00000000000E+00 -0.13177012253E+04  0.13177012253E+04  0.00000000000E+00 0. -1.
         25    2    1    2    0    0 -0.59351358778E+02  0.92348719717E+01 -0.17304570932E+03  0.22177585017E+03  0.12502737123E+03 0.  0.
          2    1    1    2  501    0 -0.39128169054E+02  0.40744043603E+02 -0.98126492719E+03  0.98288959097E+03  0.00000000000E+00 0. -1.
          1    1    1    2  502    0  0.98479527832E+02 -0.49978915575E+02 -0.11615286479E+03  0.16027350812E+03  0.00000000000E+00 0. -1.
         22    1    3    3    0    0 -0.58862560173E+02 -0.50617046635E+02 -0.11207134289E+03  0.13633367998E+03  0.00000000000E+00 0.  1.
         22    1    3    3    0    0 -0.48879860481E+00  0.59851918607E+02 -0.60974366423E+02  0.85442170183E+02  0.00000000000E+00 0.  1.
</event>
<event>
 7    1  0.5562528E-006  0.1109597E+03  0.7818608E-02  0.1368484E+00
          2   -1    0    0  502    0  0.00000000000E+00  0.00000000000E+00  0.65366775536E+03  0.65366775536E+03  0.00000000000E+00 0. -1.
          1   -1    0    0  501    0 -0.00000000000E+00 -0.00000000000E+00 -0.13393509660E+04  0.13393509660E+04  0.00000000000E+00 0. -1.
         25    2    1    2    0    0 -0.92152024533E+02  0.10968663997E+03 -0.87252199865E+02  0.20919074170E+03  0.12499866167E+03 0.  0.
          2    1    1    2  501    0  0.66050077521E+01 -0.40639010930E+02 -0.11856712882E+04  0.11863859233E+04  0.00000000000E+00 0. -1.
          1    1    1    2  502    0  0.85547016781E+02 -0.69047629035E+02  0.58724027748E+03  0.59744205631E+03  0.00000000000E+00 0. -1.
         22    1    3    3    0    0  0.30943156230E+02  0.14268941158E+02 -0.20300512324E+02  0.39663489507E+02  0.00000000000E+00 0. -1.
         22    1    3    3    0    0 -0.12309518076E+03  0.95417698807E+02 -0.66951687540E+02  0.16952725220E+03  0.00000000000E+00 0. -1.
</event>
<event>
 7    1  0.5562528E-006  0.9213136E+02  0.7818608E-02  0.1427073E+00
          2   -1    0    0  502    0  0.00000000000E+00  0.00000000000E+00  0.15131886501E+04  0.15131886501E+04  0.00000000000E+00 0. -1.
          1   -1    0    0  501    0 -0.00000000000E+00 -0.00000000000E+00 -0.59763742870E+03  0.59763742870E+03  0.00000000000E+00 0. -1.
         25    2    1    2    0    0 -0.12502611316E+02 -0.65291902426E+02 -0.11809050989E+03  0.18434891069E+03  0.12497921642E+03 0.  0.
          2    1    1    2  501    0 -0.24300496440E+02 -0.19452907732E+02 -0.44443095557E+03  0.44551970104E+03  0.00000000000E+00 0. -1.
          1    1    1    2  502    0  0.36803107756E+02  0.84744810158E+02  0.14780726869E+04  0.14809574671E+04  0.00000000000E+00 0. -1.
         22    1    3    3    0    0 -0.26306239589E+02 -0.32503455102E+02  0.16637320756E+02  0.45003258513E+02  0.00000000000E+00 0.  1.
         22    1    3    3    0    0  0.13803628273E+02 -0.32788447324E+02 -0.13472783064E+03  0.13934565218E+03  0.00000000000E+00 0.  1.
</event>
<event>
 7    1  0.5562528E-006  0.5297479E+02  0.7818608E-02  0.1441592E+00
          2   -1    0    0  502    0  0.00000000000E+00  0.00000000000E+00  0.10001445877E+03  0.10001445877E+03  0.00000000000E+00 0. -1.
          1   -1    0    0  501    0 -0.00000000000E+00 -0.00000000000E+00 -0.99291325477E+03  0.99291325477E+03  0.00000000000E+00 0. -1.
         25    2    1    2    0    0  0.48597876268E+01  0.24395776505E+02 -0.51326501715E+02  0.13739836577E+03  0.12500051876E+03 0.  0.
          2    1    1    2  501    0  0.49134992046E+02 -0.19801029651E+02 -0.88469236574E+03  0.88627699407E+03  0.00000000000E+00 0. -1.
          1    1    1    2  502    0 -0.53994779673E+02 -0.45947468544E+01  0.43120071457E+02  0.69252353701E+02  0.00000000000E+00 0. -1.
         22    1    3    3    0    0 -0.48686516115E+02 -0.13483945371E+02 -0.51030549428E+02  0.71807455108E+02  0.00000000000E+00 0.  1.
         22    1    3    3    0    0  0.53546303742E+02  0.37879721876E+02 -0.29595228709E+00  0.65590910663E+02  0.00000000000E+00 0.  1.
</event>
<event>
 7    1  0.5562528E-006  0.9135011E+02  0.7818608E-02  0.1320738E+00
          2   -1    0    0  502    0  0.00000000000E+00  0.00000000000E+00  0.23308351935E+03  0.23308351935E+03  0.00000000000E+00 0. -1.
          1   -1    0    0  501    0 -0.00000000000E+00 -0.00000000000E+00 -0.71623055397E+03  0.71623055397E+03  0.00000000000E+00 0. -1.
         25    2    1    2    0    0  0.11648631119E+03  0.71604221856E+02 -0.11649097467E+03  0.21884102135E+03  0.12500008066E+03 0.  0.
          2    1    1    2  501    0 -0.75023805889E+02  0.77136028402E+01 -0.53474700043E+03  0.54003928152E+03  0.00000000000E+00 0. -1.
          1    1    1    2  502    0 -0.41462505297E+02 -0.79317824696E+02  0.16809094047E+03  0.19043377045E+03  0.00000000000E+00 0. -1.
         22    1    3    3    0    0  0.40554308360E+01  0.47662611163E+02 -0.88391245742E+02  0.10050464340E+03  0.00000000000E+00 0. -1.
         22    1    3    3    0    0  0.11243088035E+03  0.23941610693E+02 -0.28099728925E+02  0.11833637794E+03  0.00000000000E+00 0. -1.
</event>
<event>
 7    1  0.5562528E-006  0.8257948E+02  0.7818608E-02  0.1456145E+00
          2   -1    0    0  502    0  0.00000000000E+00  0.00000000000E+00  0.66698615420E+02  0.66698615420E+02  0.00000000000E+00 0. -1.
          1   -1    0    0  501    0 -0.00000000000E+00 -0.00000000000E+00 -0.18367162318E+04  0.18367162318E+04  0.00000000000E+00 0. -1.
         25    2    1    2    0    0  0.33476007241E+02  0.10326173072E+03 -0.41437763088E+03  0.44622579854E+03  0.12500005689E+03 0.  0.
          2    1    1    2  501    0 -0.99836847845E+01 -0.26116903171E+02 -0.13741623136E+04  0.13744467363E+04  0.00000000000E+00 0. -1.
          1    1    1    2  502    0 -0.23492322457E+02 -0.77144827550E+02  0.18522328096E+02  0.82742312455E+02  0.00000000000E+00 0. -1.
         22    1    3    3    0    0 -0.43111015847E+02  0.66815443614E+02 -0.22765145532E+03  0.24113906424E+03  0.00000000000E+00 0.  1.
         22    1    3    3    0    0  0.76587023089E+02  0.36446287108E+02 -0.18672617556E+03  0.20508673431E+03  0.00000000000E+00 0.  1.
</event>
<event>
 7    1  0.5562528E-006  0.8013384E+02  0.7818608E-02  0.1435894E+00
          2   -1    0    0  502    0  0.00000000000E+00  0.00000000000E+00  0.73160021028E+03  0.73160021028E+03  0.00000000000E+00 0. -1.
          1   -1    0    0  501    0 -0.00000000000E+00 -0.00000000000E+00 -0.79761552374E+03  0.79761552374E+03  0.00000000000E+00 0. -1.
         25    2    1    2    0    0  0.22323684227E+02 -0.78054105686E+02 -0.17902819195E+03  0.23294880156E+03  0.12499304118E+03 0.  0.
          2    1    1    2  501    0 -0.33449822044E+02 -0.13691455454E+01 -0.58886809556E+03  0.58981895453E+03  0.00000000000E+00 0. -1.
          1    1    1    2  502    0  0.11126137817E+02  0.79423251232E+02  0.70188097406E+03  0.70644797793E+03  0.00000000000E+00 0. -1.
         22    1    3    3    0    0 -0.41512775418E+02 -0.15224516382E+02 -0.11396652113E+03  0.12224346347E+03  0.00000000000E+00 0.  1.
         22    1    3    3    0    0  0.63836459645E+02 -0.62829589304E+02 -0.65061670821E+02  0.11070533809E+03  0.00000000000E+00 0.  1.
</event>
<event>
 7    1  0.5562528E-006  0.5373328E+02  0.7818608E-02  0.1471222E+00
          2   -1    0    0  502    0  0.00000000000E+00  0.00000000000E+00  0.10671713599E+04  0.10671713599E+04  0.00000000000E+00 0. -1.
          1   -1    0    0  501    0 -0.00000000000E+00 -0.00000000000E+00 -0.34285945991E+03  0.34285945991E+03  0.00000000000E+00 0. -1.
         25    2    1    2    0    0 -0.20479530770E+02 -0.64008031989E+02  0.41368860437E+03  0.43735588423E+03  0.12500187496E+03 0.  0.
          2    1    1    2  501    0 -0.15905342262E+02  0.51317702711E+02 -0.32826150913E+03  0.33262908005E+03  0.00000000000E+00 0. -1.
          1    1    1    2  502    0  0.36384873032E+02  0.12690329278E+02  0.63888480478E+03  0.64004585556E+03  0.00000000000E+00 0. -1.
         22    1    3    3    0    0  0.19376069542E+02 -0.91219924527E+02  0.28794720219E+03  0.30267160083E+03  0.00000000000E+00 0. -1.
         22    1    3    3    0    0 -0.39855600312E+02  0.27211892538E+02  0.12574140218E+03  0.13468428339E+03  0.00000000000E+00 0. -1.
</event>
<event>
 7    1  0.5562528E-006  0.9030420E+02  0.7818608E-02  0.1389169E+00
          2   -1    0    0  502    0  0.00000000000E+00  0.00000000000E+00  0.49633416384E+02  0.49633416384E+02  0.00000000000E+00 0. -1.
          1   -1    0    0  501    0 -0.00000000000E+00 -0.00000000000E+00 -0.10525608704E+04  0.10525608704E+04  0.00000000000E+00 0. -1.
         25    2    1    2    0    0  0.47435019130E+02 -0.39269374641E+02 -0.22678898397E+03  0.26617731611E+03  0.12499982214E+03 0.  0.
          2    1    1    2  501    0  0.42148669004E+02 -0.69851844656E+01 -0.71872817832E+03  0.71999687320E+03  0.00000000000E+00 0. -1.
          1    1    1    2  502    0 -0.89583688135E+02  0.46254559107E+02 -0.57410291678E+02  0.11602009743E+03  0.00000000000E+00 0. -1.
         22    1    3    3    0    0 -0.18330186155E+02 -0.65368234533E+02 -0.97743833040E+02  0.11900780944E+03  0.00000000000E+00 0.  1.
         22    1    3    3    0    0  0.65765205285E+02  0.26098859892E+02 -0.12904515093E+03  0.14716950666E+03  0.00000000000E+00 0.  1.
</event>
<event>
 7    1  0.5562528E-006  0.7527461E+02  0.7818608E-02  0.1359424E+00
          2   -1    0    0  502    0  0.00000000000E+00  0.00000000000E+00  0.47313484363E+02  0.47313484363E+02  0.00000000000E+00 0. -1.
          1   -1    0    0  501    0 -0.00000000000E+00 -0.00000000000E+00 -0.10561316723E+04  0.10561316723E+04  0.00000000000E+00 0. -1.
         25    2    1    2    0    0 -0.73950671507E+02  0.77121699474E+02 -0.42760858449E+03  0.45813793924E+03  0.12499924599E+03 0.  0.
          2    1    1    2  501    0  0.88048649393E+00 -0.65456097236E+02 -0.56598952909E+03  0.56976260228E+03  0.00000000000E+00 0. -1.
          1    1    1    2  502    0  0.73070185013E+02 -0.11665602239E+02 -0.15220074364E+02  0.75544615143E+02  0.00000000000E+00 0. -1.
         22    1    3    3    0    0 -0.57821403986E+02  0.98279757698E+01 -0.34690756293E+03  0.35183058578E+03  0.00000000000E+00 0. -1.
         22    1    3    3    0    0 -0.16129267522E+02  0.67293723704E+02 -0.80701021554E+02  0.10630735346E+03  0.00000000000E+00 0. -1.
</event>
<event>
 7    1  0.5562528E-006  0.1259545E+03  0.7818608E-02  0.1283503E+00
          2   -1    0    0  502    0  0.00000000000E+00  0.00000000000E+00  0.45240539386E+03  0.45240539386E+03  0.00000000000E+00 0. -1.
          1   -1    0    0  501    0 -0.00000000000E+00 -0.00000000000E+00 -0.34957230571E+03  0.34957230571E+03  0.00000000000E+00 0. -1.
         25    2    1    2    0    0 -0.17623651915E+03  0.14216237910E+02  0.38240775779E+01  0.21657204369E+03  0.12500965736E+03 0.  0.
          2    1    1    2  501    0  0.66582349579E+02  0.38704471818E+02 -0.22577522240E+03  0.23854914895E+03  0.00000000000E+00 0. -1.
          1    1    1    2  502    0  0.10965416957E+03 -0.52920709727E+02  0.32478423297E+03  0.34685650694E+03  0.00000000000E+00 0. -1.
         22    1    3    3    0    0 -0.70339085541E+01  0.28910593257E+02  0.32793176195E+02  0.44279686957E+02  0.00000000000E+00 0.  1.
         22    1    3    3    0    0 -0.16920261060E+03 -0.14694355348E+02 -0.28969098617E+02  0.17229235673E+03  0.00000000000E+00 0.  1.
</event>
<event>
 7    1  0.5562528E-006  0.1072191E+03  0.7818608E-02  0.1268985E+00
          2   -1    0    0  502    0  0.00000000000E+00  0.00000000000E+00  0.41247303076E+04  0.41247303076E+04  0.00000000000E+00 0. -1.
          1   -1    0    0  501    0 -0.00000000000E+00 -0.00000000000E+00 -0.15751592592E+02  0.15751592592E+02  0.00000000000E+00 0. -1.
         25    2    1    2    0    0 -0.19279487858E+02 -0.84137976576E+02  0.87832345785E+03  0.89136289886E+03  0.12499929240E+03 0.  0.
          2    1    1    2  501    0  0.12078304850E+03  0.49598565325E+02  0.51320862002E+03  0.52955797619E+03  0.00000000000E+00 0. -1.
          1    1    1    2  502    0 -0.10150356065E+03  0.34539411251E+02  0.27174466371E+04  0.27195610251E+04  0.00000000000E+00 0. -1.
         22    1    3    3    0    0  0.86167285093E+01 -0.10165416788E+03  0.43438789071E+03  0.44620696705E+03  0.00000000000E+00 0. -1.
         22    1    3    3    0    0 -0.27896216367E+02  0.17516191300E+02  0.44393556715E+03  0.44515593181E+03  0.00000000000E+00 0. -1.
</event>
<event>
 7    1  0.5562528E-006  0.4517758E+02  0.7818608E-02  0.1571895E+00
          2   -1    0    0  502    0  0.00000000000E+00  0.00000000000E+00  0.76889727222E+02  0.76889727222E+02  0.00000000000E+00 0. -1.
          1   -1    0    0  501    0 -0.00000000000E+00 -0.00000000000E+00 -0.39457605777E+03  0.39457605777E+03  0.00000000000E+00 0. -1.
         25    2    1    2    0    0 -0.25005463810E+02 -0.46336403663E+02 -0.30841439800E+03  0.33692224523E+03  0.12499929164E+03 0.  0.
          2    1    1    2  501    0 -0.11781810603E+02  0.20210794366E+02 -0.61337538371E+02  0.65647398146E+02  0.00000000000E+00 0. -1.
          1    1    1    2  502    0  0.36787274413E+02  0.26125609297E+02  0.52065605825E+02  0.68896141618E+02  0.00000000000E+00 0. -1.
         22    1    3    3    0    0 -0.13791559523E+02 -0.66845763471E+02 -0.71462902614E+02  0.98820593290E+02  0.00000000000E+00 0.  1.
         22    1    3    3    0    0 -0.11213904287E+02  0.20509359808E+02 -0.23695149539E+03  0.23810165194E+03  0.00000000000E+00 0.  1.
</event>
<event>
 7    1  0.5562528E-006  0.6717220E+02  0.7818608E-02  0.1449748E+00
          2   -1    0    0  502    0  0.00000000000E+00  0.00000000000E+00  0.29413311911E+03  0.29413311911E+03  0.00000000000E+00 0. -1.
          1   -1    0    0  501    0 -0.00000000000E+00 -0.00000000000E+00 -0.24705361132E+04  0.24705361132E+04  0.00000000000E+00 0. -1.
         25    2    1    2    0    0 -0.36728611728E+02 -0.35894770124E+02 -0.20359910179E+03  0.24436496698E+03  0.12499686953E+03 0.  0.
          2    1    1    2  501    0 -0.29230702424E+02  0.21056131026E+02 -0.22422329231E+04  0.22425223023E+04  0.00000000000E+00 0. -1.
          1    1    1    2  502    0  0.65959314152E+02  0.14838639098E+02  0.26942903085E+03  0.27778196305E+03  0.00000000000E+00 0. -1.
         22    1    3    3    0    0 -0.75461508549E+02 -0.45609677650E+02 -0.99921063758E+02  0.13326252643E+03  0.00000000000E+00 0.  1.
         22    1    3    3    0    0  0.38732896820E+02  0.97149075252E+01 -0.10367803804E+03  0.11110244055E+03  0.00000000000E+00 0.  1.
</event>
<event>
 7    1  0.5562528E-006  0.1776338E+03  0.7818608E-02  0.1306424E+00
          2   -1    0    0  502    0  0.00000000000E+00  0.00000000000E+00  0.11857012920E+04  0.11857012920E+04  0.00000000000E+00 0. -1.
          1   -1    0    0  501    0 -0.00000000000E+00 -0.00000000000E+00 -0.12765855809E+04  0.12765855809E+04  0.00000000000E+00 0. -1.
         25    2    1    2    0    0  0.97677331565E+02 -0.13213382496E+03  0.15035063889E+03  0.25539788261E+03  0.12499021973E+03 0.  0.
          2    1    1    2  501    0 -0.67948091510E+02  0.16475083744E+03 -0.12170740347E+04  0.12300524328E+04  0.00000000000E+00 0. -1.
          1    1    1    2  502    0 -0.29729240055E+02 -0.32617012483E+02  0.97583910691E+03  0.97683655736E+03  0.00000000000E+00 0. -1.
         22    1    3    3    0    0  0.51399187655E+01 -0.60426544772E+02  0.12000797392E+03  0.13446077451E+03  0.00000000000E+00 0. -1.
         22    1    3    3    0    0  0.92537412800E+02 -0.71707280185E+02  0.30342664976E+02  0.12093710811E+03  0.00000000000E+00 0. -1.
</event>
<event>
 7    1  0.5562528E-006  0.1603718E+03  0.7818608E-02  0.1265884E+00
          2   -1    0    0  502    0  0.00000000000E+00  0.00000000000E+00  0.17834195518E+04  0.17834195518E+04  0.00000000000E+00 0. -1.
          1   -1    0    0  501    0 -0.00000000000E+00 -0.00000000000E+00 -0.24230048451E+03  0.24230048451E+03  0.00000000000E+00 0. -1.
         25    2    1    2    0    0  0.44912299025E+02  0.21619248279E+03  0.36267592134E+03  0.44262344493E+03  0.12500154343E+03 0.  0.
          2    1    1    2  501    0 -0.56399268261E+02 -0.14548920446E+03 -0.17115005732E+03  0.23160381732E+03  0.00000000000E+00 0. -1.
          1    1    1    2  502    0  0.11486969235E+02 -0.70703278331E+02  0.13495932032E+04  0.13514927740E+04  0.00000000000E+00 0. -1.
         22    1    3    3    0    0 -0.23497899430E+02  0.23026606060E+02  0.94005416115E+01  0.34216166455E+02  0.00000000000E+00 0.  1.
         22    1    3    3    0    0  0.68410198456E+02  0.19316587673E+03  0.35327537973E+03  0.40840727847E+03  0.00000000000E+00 0.  1.
</event>
<event>
 7    1  0.5562528E-006  0.9142176E+02  0.7818608E-02  0.1394499E+00
          2   -1    0    0  502    0  0.00000000000E+00  0.00000000000E+00  0.11911428544E+03  0.11911428544E+03  0.00000000000E+00 0. -1.
          1   -1    0    0  501    0 -0.00000000000E+00 -0.00000000000E+00 -0.15460575619E+04  0.15460575619E+04  0.00000000000E+00 0. -1.
         25    2    1    2    0    0  0.64563352420E+02  0.29942274015E+02 -0.58297394534E+03  0.60045771345E+03  0.12500351375E+03 0.  0.
          2    1    1    2  501    0  0.27725886197E+02 -0.29434813878E+02 -0.93453501212E+03  0.93540944078E+03  0.00000000000E+00 0. -1.
          1    1    1    2  502    0 -0.92289238618E+02 -0.50746013752E+00  0.90565681004E+02  0.12930469309E+03  0.00000000000E+00 0. -1.
         22    1    3    3    0    0 -0.17387337784E+02  0.51547591254E+02 -0.15765377403E+03  0.16677585600E+03  0.00000000000E+00 0.  1.
         22    1    3    3    0    0  0.81950690205E+02 -0.21605317239E+02 -0.42532017131E+03  0.43368185745E+03  0.00000000000E+00 0.  1.
</event>
<event>
 7    1  0.5562528E-006  0.4287767E+02  0.7818608E-02  0.1538955E+00
          2   -1    0    0  502    0  0.00000000000E+00  0.00000000000E+00  0.17448325209E+04  0.17448325209E+04  0.00000000000E+00 0. -1.
          1   -1    0    0  501    0 -0.00000000000E+00 -0.00000000000E+00 -0.12041527865E+02  0.12041527865E+02  0.00000000000E+00 0. -1.
         25    2    1    2    0    0 -0.36606411876E+02  0.29228199064E+02  0.72747674648E+03  0.73962300860E+03  0.12500184471E+03 0.  0.
          2    1    1    2  501    0 -0.67324888646E+01 -0.29656724301E+02  0.36678727463E+02  0.47646371855E+02  0.00000000000E+00 0. -1.
          1    1    1    2  502    0  0.43338900741E+02  0.42852523758E+00  0.96863551911E+03  0.96960466832E+03  0.00000000000E+00 0. -1.
         22    1    3    3    0    0  0.18203693754E+02  0.62849223139E+02  0.27960801529E+03  0.28716204751E+03  0.00000000000E+00 0. -1.
         22    1    3    3    0    0 -0.54810105630E+02 -0.33621024076E+02  0.44786873119E+03  0.45246096110E+03  0.00000000000E+00 0. -1.
</event>
<event>
 7    1  0.5562528E-006  0.1339259E+03  0.7818608E-02  0.1312244E+00
          2   -1    0    0  502    0  0.00000000000E+00  0.00000000000E+00  0.68794719374E+03  0.68794719374E+03  0.00000000000E+00 0. -1.
          1   -1    0    0  501    0 -0.00000000000E+00 -0.00000000000E+00 -0.78427240895E+03  0.78427240895E+03  0.00000000000E+00 0. -1.
         25    2    1    2    0    0 -0.26971015882E+02  0.13330896925E+03  0.36050691725E+02  0.18820411633E+03  0.12498967977E+03 0.  0.
          2    1    1    2  501    0  0.55499278673E+02 -0.15746392280E+01 -0.69919231128E+03  0.70139328310E+03  0.00000000000E+00 0. -1.
          1    1    1    2  502    0 -0.28528262791E+02 -0.13173433002E+03  0.56681640435E+03  0.58262220325E+03  0.00000000000E+00 0. -1.
         22    1    3    3    0    0 -0.56498899777E+02  0.28499731414E+02 -0.19160860707E+02  0.66117312027E+02  0.00000000000E+00 0. -1.
         22    1    3    3    0    0  0.29527883895E+02  0.10480923784E+03  0.55211552432E+02  0.12208680430E+03  0.00000000000E+00 0. -1.
</event>
<event>
 7    1  0.5562528E-006  0.1423144E+03  0.7818608E-02  0.1281236E+00
          2   -1    0    0  502    0  0.00000000000E+00  0.00000000000E+00  0.16424894150E+04  0.16424894150E+04  0.00000000000E+00 0. -1.
          1   -1    0    0  501    0 -0.00000000000E+00 -0.00000000000E+00 -0.13138924435E+04  0.13138924435E+04  0.00000000000E+00 0. -1.
         25    2    1    2    0    0 -0.51705877894E+02  0.59220779273E+02  0.40057194450E+03  0.42692372547E+03  0.12500154458E+03 0.  0.
          2    1    1    2  501    0  0.11792484183E+03 -0.80786360928E+02 -0.12957964067E+04  0.13036567923E+04  0.00000000000E+00 0. -1.
          1    1    1    2  502    0 -0.66218963932E+02  0.21565581655E+02  0.12238214337E+04  0.12258013408E+04  0.00000000000E+00 0. -1.
         22    1    3    3    0    0 -0.88722389024E+02  0.54625935131E+02  0.34168245199E+03  0.35721499563E+03  0.00000000000E+00 0.  1.
         22    1    3    3    0    0  0.37016511131E+02  0.45948441420E+01  0.58889492503E+02  0.69708729842E+02  0.00000000000E+00 0.  1.
</event>
<event>
 7    1  0.5562528E-006  0.7231300E+02  0.7818608E-02  0.1352988E+00
          2   -1    0    0  502    0  0.00000000000E+00  0.00000000000E+00  0.66159082026E+03  0.66159082026E+03  0.00000000000E+00 0. -1.
          1   -1    0    0  501    0 -0.00000000000E+00 -0.00000000000E+00 -0.10093987545E+04  0.10093987545E+04  0.00000000000E+00 0. -1.
         25    2    1    2    0    0  0.68856256053E+01 -0.40206881888E+02  0.15180295915E+03  0.20082928869E+03  0.12499703835E+03 0.  0.
          2    1    1    2  501    0 -0.71902014007E+02  0.85518713700E+01 -0.98084970374E+03  0.98351877229E+03  0.00000000000E+00 0. -1.
          1    1    1    2  502    0  0.65016388402E+02  0.31655010518E+02  0.48123881030E+03  0.48664151384E+03  0.00000000000E+00 0. -1.
         22    1    3    3    0    0  0.15397633357E+02  0.42978039246E+02  0.36791492725E+02  0.58632865420E+02  0.00000000000E+00 0.  1.
         22    1    3    3    0    0 -0.85120077522E+01 -0.83184921134E+02  0.11501146643E+03  0.14219642327E+03  0.00000000000E+00 0.  1.
</event>
<event>
 7    1  0.5562528E-006  0.1387849E+03  0.7818608E-02  0.1230643E+00
          2   -1    0    0  502    0  0.00000000000E+00  0.00000000000E+00  0.33077084269E+03  0.33077084269E+03  0.00000000000E+00 0. -1.
          1   -1    0    0  501    0 -0.00000000000E+00 -0.00000000000E+00 -0.68529124163E+03  0.68529124163E+03  0.00000000000E+00 0. -1.
         25    2    1    2    0    0 -0.78498226898E+02 -0.72863323109E+02 -0.85065026171E+02  0.18529613094E+03  0.12501024751E+03 0.  0.
          2    1    1    2  501    0  0.15186928733E+03 -0.19326397450E+02 -0.52633827493E+03  0.54815122888E+03  0.00000000000E+00 0. -1.
          1    1    1    2  502    0 -0.73371060433E+02  0.92189720559E+02  0.25688290215E+03  0.28261472450E+03  0.00000000000E+00 0. -1.
         22    1    3    3    0    0 -0.86608594833E+02 -0.72669779012E+02 -0.14173870570E+02  0.11394228402E+03  0.00000000000E+00 0.  1.
         22    1    3    3    0    0  0.81103679352E+01 -0.19354409690E+00 -0.70891155601E+02  0.71353846917E+02  0.00000000000E+00 0.  1.
</event>
<event>
 7    1  0.7808639E-006  0.1017537E+03  0.7818608E-02  0.1315444E+00
          2   -1    0    0  502    0  0.00000000000E+00  0.00000000000E+00  0.21900751588E+04  0.21900751588E+04  0.00000000000E+00 0. -1.
          1   -1    0    0  501    0 -0.00000000000E+00 -0.00000000000E+00 -0.24699760034E+04  0.24699760034E+04  0.00000000000E+00 0. -1.
         25    2    1    2    0    0  0.11736892957E+03  0.10638390750E+03 -0.12507437554E+04  0.12669165458E+04  0.12499836383E+03 0.  0.
          2    1    1    2  501    0 -0.55840646435E+02 -0.70959485130E+02 -0.12088840789E+04  0.12122516829E+04  0.00000000000E+00 0. -1.
          1    1    1    2  502    0 -0.61528283131E+02 -0.35424422371E+02  0.21797269898E+04  0.21808829335E+04  0.00000000000E+00 0. -1.
         22    1    3    3    0    0 -0.11787569418E+02  0.18322209045E+01 -0.39546859178E+03  0.39564846886E+03  0.00000000000E+00 0. -1.
         22    1    3    3    0    0  0.12915649898E+03  0.10455168660E+03 -0.85527516366E+03  0.87126807698E+03  0.00000000000E+00 0. -1.
</event>
<event>
 7    1  0.5562528E-006  0.5296384E+02  0.7818608E-02  0.1526671E+00
          2   -1    0    0  502    0  0.00000000000E+00  0.00000000000E+00  0.18937288988E+03  0.18937288988E+03  0.00000000000E+00 0. -1.
          1   -1    0    0  501    0 -0.00000000000E+00 -0.00000000000E+00 -0.19477854406E+03  0.19477854406E+03  0.00000000000E+00 0. -1.
         25    2    1    2    0    0 -0.27793232779E+02 -0.70982088072E+02  0.11510617409E+03  0.18623790216E+03  0.12499681704E+03 0.  0.
          2    1    1    2  501    0  0.96353330844E+01  0.51420859533E+02 -0.14957159844E+03  0.15845695787E+03  0.00000000000E+00 0. -1.
          1    1    1    2  502    0  0.18157899695E+02  0.19561228539E+02  0.29059770161E+02  0.39456573915E+02  0.00000000000E+00 0. -1.
         22    1    3    3    0    0 -0.19313412351E+02  0.32496380632E+02  0.53509927260E+02  0.65515913839E+02  0.00000000000E+00 0. -1.
         22    1    3    3    0    0 -0.84798204283E+01 -0.10347846870E+03  0.61596246835E+02  0.12072198832E+03  0.00000000000E+00 0. -1.
</event>
<event>
 7    1  0.5562528E-006  0.3068490E+02  0.7818608E-02  0.1593587E+00
          2   -1    0    0  502    0  0.00000000000E+00  0.00000000000E+00  0.19318430661E+03  0.19318430661E+03  0.00000000000E+00 0. -1.
          1   -1    0    0  501    0 -0.00000000000E+00 -0.00000000000E+00 -0.13205478626E+03  0.13205478626E+03  0.00000000000E+00 0. -1.
         25    2    1    2    0    0  0.55180108438E+01  0.77302965572E+01  0.28484619278E+02  0.12856757223E+03  0.12501216407E+03 0.  0.
          2    1    1    2  501    0 -0.23862020444E+02  0.18412677393E+02 -0.76884410660E+02  0.82581083251E+02  0.00000000000E+00 0. -1.
          1    1    1    2  502    0  0.18344009600E+02 -0.26142973950E+02  0.10952931173E+03  0.11409043739E+03  0.00000000000E+00 0. -1.
         22    1    3    3    0    0  0.16732524684E+02 -0.23231212693E+01 -0.47858787906E+02  0.50752712780E+02  0.00000000000E+00 0.  1.
         22    1    3    3    0    0 -0.11214513840E+02  0.10053417827E+02  0.76343407183E+02  0.77814859449E+02  0.00000000000E+00 0.  1.
</event>
<event>
 7    1  0.5562528E-006  0.5383962E+02  0.7818608E-02  0.1431801E+00
          2   -1    0    0  502    0  0.00000000000E+00  0.00000000000E+00  0.30487798219E+03  0.30487798219E+03  0.00000000000E+00 0. -1.
          1   -1    0    0  501    0 -0.00000000000E+00 -0.00000000000E+00 -0.12251998371E+04  0.12251998371E+04  0.00000000000E+00 0. -1.
         25    2    1    2    0    0 -0.13868236565E+02 -0.83091853233E+02 -0.42692948553E+03  0.45275718450E+03  0.12499479365E+03 0.  0.
          2    1    1    2  501    0 -0.24328738709E+02  0.45265573005E+02 -0.78203153388E+03  0.78371817614E+03  0.00000000000E+00 0. -1.
          1    1    1    2  502    0  0.38196975274E+02  0.37826280228E+02  0.28863916454E+03  0.29360245861E+03  0.00000000000E+00 0. -1.
         22    1    3    3    0    0 -0.63359185742E+02 -0.14973413201E+02 -0.15583220815E+03  0.16888536531E+03  0.00000000000E+00 0.  1.
         22    1    3    3    0    0  0.49490949177E+02 -0.68118440032E+02 -0.27109727738E+03  0.28387181918E+03  0.00000000000E+00 0.  1.
</event>
<event>
 7    1  0.5562528E-006  0.9162405E+02  0.7818608E-02  0.1399230E+00
          2   -1    0    0  502    0  0.00000000000E+00  0.00000000000E+00  0.28166777310E+04  0.28166777310E+04  0.00000000000E+00 0. -1.
          1   -1    0    0  501    0 -0.00000000000E+00 -0.00000000000E+00 -0.14174571552E+03  0.14174571552E+03  0.00000000000E+00 0. -1.
         25    2    1    2    0    0  0.12376377974E+03  0.34920957926E+02  0.37313872656E+03  0.41399801685E+03  0.12499960890E+03 0.  0.
          2    1    1    2  501    0 -0.85452373993E+02 -0.28429506363E+02 -0.10442431310E+03  0.13789409784E+03  0.00000000000E+00 0. -1.
          1    1    1    2  502    0 -0.38311405749E+02 -0.64914515630E+01  0.24062176020E+04  0.24065313318E+04  0.00000000000E+00 0. -1.
         22    1    3    3    0    0  0.46247862624E+00 -0.35984923191E+02  0.95283716827E+02  0.10185340091E+03  0.00000000000E+00 0. -1.
         22    1    3    3    0    0  0.12330130112E+03  0.70905881118E+02  0.27785500973E+03  0.31214461595E+03  0.00000000000E+00 0. -1.
</event>
<event>
 7    1  0.5562528E-006  0.6229272E+02  0.7818608E-02  0.1512029E+00
          2   -1    0    0  502    0  0.00000000000E+00  0.00000000000E+00  0.12568355491E+03  0.12568355491E+03  0.00000000000E+00 0. -1.
          1   -1    0    0  501    0 -0.00000000000E+00 -0.00000000000E+00 -0.15628322250E+04  0.15628322250E+04  0.00000000000E+00 0. -1.
         25    2    1    2    0    0 -0.55124312295E+02  0.59362591669E+02 -0.18923792457E+03  0.24082853361E+03  0.12499913363E+03 0.  0.
          2    1    1    2  501    0  0.24274115511E+02 -0.61016741600E+01 -0.13381891033E+04  0.13384231540E+04  0.00000000000E+00 0. -1.
          1    1    1    2  502    0  0.30850196784E+02 -0.53260917509E+02  0.90278357773E+02  0.10926409226E+03  0.00000000000E+00 0. -1.
         22    1    3    3    0    0 -0.43245125247E+01 -0.25726969891E+02 -0.11251534576E+03  0.11550013602E+03  0.00000000000E+00 0.  1.
         22    1    3    3    0    0 -0.50799799770E+02  0.85089561560E+02 -0.76722578811E+02  0.12532839759E+03  0.00000000000E+00 0.  1.
</event>
<event>
 7    1  0.5562528E-006  0.5945777E+02  0.7818608E-02  0.1445731E+00
          2   -1    0    0  502    0  0.00000000000E+00  0.00000000000E+00  0.12606668350E+04  0.12606668350E+04  0.00000000000E+00 0. -1.
          1   -1    0    0  501    0 -0.00000000000E+00 -0.00000000000E+00 -0.79914887486E+02  0.79914887486E+02  0.00000000000E+00 0. -1.
         25    2    1    2    0    0  0.14872148948E+02 -0.39444456467E+02  0.72079410207E+02  0.15033471054E+03  0.12501215083E+03 0.  0.
          2    1    1    2  501    0 -0.56364001627E+02  0.33430041162E+02 -0.13818506323E+02  0.66973274136E+02  0.00000000000E+00 0. -1.
          1    1    1    2  502    0  0.41491852679E+02  0.60144153053E+01  0.11224910436E+04  0.11232737378E+04  0.00000000000E+00 0. -1.
         22    1    3    3    0    0 -0.29590474871E+02  0.26370366360E+02  0.57100113306E+02  0.69508383413E+02  0.00000000000E+00 0. -1.
         22    1    3    3    0    0  0.44462623818E+02 -0.65814822828E+02  0.14979296901E+02  0.80826327123E+02  0.00000000000E+00 0. -1.
</event>
<event>
 7    1  0.5562528E-006  0.3287549E+02  0.7818608E-02  0.1591144E+00
          2   -1    0    0  502    0  0.00000000000E+00  0.00000000000E+00  0.11241216123E+04  0.11241216123E+04  0.00000000000E+00 0. -1.
          1   -1    0    0  501    0 -0.00000000000E+00 -0.00000000000E+00 -0.21768843873E+04  0.21768843873E+04  0.00000000000E+00 0. -1.
         25    2    1    2    0    0 -0.19145341192E+02  0.42941848446E+02 -0.17511986262E+03  0.22023292635E+03  0.12500011651E+03 0.  0.
          2    1    1    2  501    0  0.26397315871E+02 -0.10882291193E+02 -0.19788597833E+04  0.19790657605E+04  0.00000000000E+00 0. -1.
          1    1    1    2  502    0 -0.72519746790E+01 -0.32059557253E+02  0.11012168709E+04  0.11017073128E+04  0.00000000000E+00 0. -1.
         22    1    3    3    0    0 -0.24461759579E+02  0.78487674821E+02 -0.66247232627E+02  0.10558119440E+03  0.00000000000E+00 0. -1.
         22    1    3    3    0    0  0.53164183865E+01 -0.35545826375E+02 -0.10887262999E+03  0.11465173195E+03  0.00000000000E+00 0. -1.
</event>
<event>
 7    1  0.5562528E-006  0.7376879E+02  0.7818608E-02  0.1453844E+00
          2   -1    0    0  502    0  0.00000000000E+00  0.00000000000E+00  0.46805386237E+03  0.46805386237E+03  0.00000000000E+00 0. -1.
          1   -1    0    0  501    0 -0.00000000000E+00 -0.00000000000E+00 -0.60822913160E+03  0.60822913160E+03  0.00000000000E+00 0. -1.
         25    2    1    2    0    0 -0.23101362873E+02  0.65539836510E+02  0.13058568112E+03  0.19366615650E+03  0.12499926769E+03 0.  0.
          2    1    1    2  501    0 -0.29563117786E+02 -0.11799097718E+02 -0.57161280868E+03  0.57249838400E+03  0.00000000000E+00 0. -1.
          1    1    1    2  502    0  0.52664480660E+02 -0.53740738792E+02  0.30085185832E+03  0.31011845347E+03  0.00000000000E+00 0. -1.
         22    1    3    3    0    0  0.41823143999E+02  0.56414860751E+02  0.36936524945E+02  0.79348086068E+02  0.00000000000E+00 0. -1.
         22    1    3    3    0    0 -0.64924506872E+02  0.91249757588E+01  0.93649156177E+02  0.11431807043E+03  0.00000000000E+00 0. -1.
</event>
<event>
 7    1  0.5562528E-006  0.5613188E+02  0.7818608E-02  0.1416921E+00
          2   -1    0    0  502    0  0.00000000000E+00  0.00000000000E+00  0.60304552704E+03  0.60304552704E+03  0.00000000000E+00 0. -1.
          1   -1    0    0  501    0 -0.00000000000E+00 -0.00000000000E+00 -0.12502721376E+04  0.12502721376E+04  0.00000000000E+00 0. -1.
         25    2    1    2    0    0 -0.79022283708E+02 -0.66776449244E+01 -0.68685021259E+03  0.70261814547E+03  0.12497972451E+03 0.  0.
          2    1    1    2  501    0  0.42788711280E+02 -0.35001682174E+02 -0.55287537757E+03  0.55563222971E+03  0.00000000000E+00 0. -1.
          1    1    1    2  502    0  0.36233572428E+02  0.41679327099E+02  0.59249897964E+03  0.59506728943E+03  0.00000000000E+00 0. -1.
         22    1    3    3    0    0  0.34517171736E+01 -0.53192710347E+02 -0.24116215739E+03  0.24698292439E+03  0.00000000000E+00 0.  1.
         22    1    3    3    0    0 -0.82474000881E+02  0.46515065423E+02 -0.44568805520E+03  0.45563522107E+03  0.00000000000E+00 0.  1.
</event>
<event>
 7    1  0.5562528E-006  0.5230178E+02  0.7818608E-02  0.1514226E+00
          2   -1    0    0  502    0  0.00000000000E+00  0.00000000000E+00  0.26215729686E+03  0.26215729686E+03  0.00000000000E+00 0. -1.
          1   -1    0    0  501    0 -0.00000000000E+00 -0.00000000000E+00 -0.68365544359E+03  0.68365544359E+03  0.00000000000E+00 0. -1.
         25    2    1    2    0    0  0.71961363184E+02 -0.88575525824E+01 -0.10986423068E+03  0.18152760006E+03  0.12500090548E+03 0.  0.
          2    1    1    2  501    0 -0.46284689832E+02  0.23119423628E+02 -0.53575514905E+03  0.53824748954E+03  0.00000000000E+00 0. -1.
          1    1    1    2  502    0 -0.25676673352E+02 -0.14261871045E+02  0.22412123300E+03  0.22603765085E+03  0.00000000000E+00 0. -1.
         22    1    3    3    0    0  0.82026164265E+02 -0.54020484753E+02 -0.76049817011E+02  0.12421786934E+03  0.00000000000E+00 0.  1.
         22    1    3    3    0    0 -0.10064801081E+02  0.45162932171E+02 -0.33814413669E+02  0.57309730717E+02  0.00000000000E+00 0.  1.
</event>
<event>
 7    1  0.5562528E-006  0.6925388E+02  0.7818608E-02  0.1414344E+00
          2   -1    0    0  502    0  0.00000000000E+00  0.00000000000E+00  0.17460935611E+04  0.17460935611E+04  0.00000000000E+00 0. -1.
          1   -1    0    0  501    0 -0.00000000000E+00 -0.00000000000E+00 -0.28159062125E+03  0.28159062125E+03  0.00000000000E+00 0. -1.
         25    2    1    2    0    0  0.53665644111E+02  0.60162882700E+02  0.24961926290E+03  0.29056976789E+03  0.12498575833E+03 0.  0.
          2    1    1    2  501    0 -0.44844804497E+02  0.86144189618E+01 -0.25829712520E+03  0.26230262978E+03  0.00000000000E+00 0. -1.
          1    1    1    2  502    0 -0.88208396136E+01 -0.68777301662E+02  0.14731808021E+04  0.14748117847E+04  0.00000000000E+00 0. -1.
         22    1    3    3    0    0 -0.24217114584E+02  0.55180722052E+02  0.16399489751E+03  0.17471607578E+03  0.00000000000E+00 0. -1.
         22    1    3    3    0    0  0.77882758695E+02  0.49821606483E+01  0.85624365391E+02  0.11585369211E+03  0.00000000000E+00 0. -1.
</event>
<event>
 7    1  0.5562528E-006  0.1349960E+03  0.7818608E-02  0.1343533E+00
          2   -1    0    0  502    0  0.00000000000E+00  0.00000000000E+00  0.84191328189E+02  0.84191328189E+02  0.00000000000E+00 0. -1.
          1   -1    0    0  501    0 -0.00000000000E+00 -0.00000000000E+00 -0.18540871451E+04  0.18540871451E+04  0.00000000000E+00 0. -1.
         25    2    1    2    0    0 -0.14332634529E+03  0.45620151864E+02 -0.18248436676E+03  0.26748643076E+03  0.12499922808E+03 0.  0.
          2    1    1    2  501    0  0.13921007264E+02 -0.39402438520E+02 -0.15274719763E+04  0.15280435154E+04  0.00000000000E+00 0. -1.
          1    1    1    2  502    0  0.12940533803E+03 -0.62177133445E+01 -0.59939473868E+02  0.14274852713E+03  0.00000000000E+00 0. -1.
         22    1    3    3    0    0 -0.12405864727E+03 -0.23768523090E+01 -0.17602812875E+03  0.21536503778E+03  0.00000000000E+00 0.  1.
         22    1    3    3    0    0 -0.19267698026E+02  0.47997004173E+02 -0.64562380099E+01  0.52121392979E+02  0.00000000000E+00 0.  1.
</event>
<event>
 7    1  0.5562528E-006  0.1036565E+03  0.7818608E-02  0.1274039E+00
          2   -1    0    0  502    0  0.00000000000E+00  0.00000000000E+00  0.16039495228E+04  0.16039495228E+04  0.00000000000E+00 0. -1.
          1   -1    0    0  501    0 -0.00000000000E+00 -0.00000000000E+00 -0.55771051930E+03  0.55771051930E+03  0.00000000000E+00 0. -1.
         25    2    1    2    0    0 -0.17382912822E+03 -0.50102363964E+02  0.47938346395E+03  0.52741409679E+03  0.12502124336E+03 0.  0.
          2    1    1    2  501    0  0.73781773356E+02  0.72011877024E+02 -0.52629992644E+03  0.53630315408E+03  0.00000000000E+00 0. -1.
          1    1    1    2  502    0  0.10004735487E+03 -0.21909513060E+02  0.10931554660E+04  0.10979427912E+04  0.00000000000E+00 0. -1.
         22    1    3    3    0    0 -0.20745225007E+02  0.41312178207E+01  0.22246446880E+03  0.22346783034E+03  0.00000000000E+00 0. -1.
         22    1    3    3    0    0 -0.15308390322E+03 -0.54233581784E+02  0.25691899515E+03  0.30394626645E+03  0.00000000000E+00 0. -1.
</event>
<event>
 7    1  0.5562528E-006  0.6008385E+02  0.7818608E-02  0.1472259E+00
          2   -1    0    0  502    0  0.00000000000E+00  0.00000000000E+00  0.12569116472E+03  0.12569116472E+03  0.00000000000E+00 0. -1.
          1   -1    0    0  501    0 -0.00000000000E+00 -0.00000000000E+00 -0.35217679447E+03  0.35217679447E+03  0.00000000000E+00 0. -1.
         25    2    1    2    0    0  0.11608382433E+02  0.72481882397E+02 -0.12247347730E+03  0.18977872528E+03  0.12501133592E+03 0.  0.
          2    1    1    2  501    0 -0.30353433857E+02 -0.15772959248E+02 -0.18462167413E+03  0.18776389362E+03  0.00000000000E+00 0. -1.
          1    1    1    2  502    0  0.18745051424E+02 -0.56708923149E+02  0.80609521678E+02  0.10032534028E+03  0.00000000000E+00 0. -1.
         22    1    3    3    0    0 -0.21018046124E+02  0.95984001517E+02 -0.58910048127E+02  0.11456474406E+03  0.00000000000E+00 0.  1.
         22    1    3    3    0    0  0.32626428558E+02 -0.23502119120E+02 -0.63563429174E+02  0.75213981226E+02  0.00000000000E+00 0.  1.
</event>
<event>
 7    1  0.5562528E-006  0.7316941E+02  0.7818608E-02  0.1367737E+00
          2   -1    0    0  502    0  0.00000000000E+00  0.00000000000E+00  0.41714923665E+03  0.41714923665E+03  0.00000000000E+00 0. -1.
          1   -1    0    0  501    0 -0.00000000000E+00 -0.00000000000E+00 -0.34662369485E+03  0.34662369485E+03  0.00000000000E+00 0. -1.
         25    2    1    2    0    0 -0.78511220791E+01  0.65118133952E+02 -0.28074718174E+02  0.14392310261E+03  0.12499463260E+03 0.  0.
          2    1    1    2  501    0 -0.56555013499E+02 -0.27359968424E+02 -0.25285980021E+03  0.26054772305E+03  0.00000000000E+00 0. -1.
          1    1    1    2  502    0  0.64406135578E+02 -0.37758165528E+02  0.35146006018E+03  0.35930210584E+03  0.00000000000E+00 0. -1.
         22    1    3    3    0    0 -0.57054008725E+02  0.67734545274E+02 -0.32764607727E+02  0.94428004610E+02  0.00000000000E+00 0. -1.
         22    1    3    3    0    0  0.49202886645E+02 -0.26164113220E+01  0.46898895528E+01  0.49495098004E+02  0.00000000000E+00 0. -1.
</event>
<event>
 7    1  0.5562528E-006  0.1698591E+03  0.7818608E-02  0.1231712E+00
          2   -1    0    0  502    0  0.00000000000E+00  0.00000000000E+00  0.12882992680E+04  0.12882992680E+04  0.00000000000E+00 0. -1.
          1   -1    0    0  501    0 -0.00000000000E+00 -0.00000000000E+00 -0.19530581685E+04  0.19530581685E+04  0.00000000000E+00 0. -1.
         25    2    1    2    0    0  0.12389460538E+02  0.11529245364E+03  0.47295087392E+01  0.17056695385E+03  0.12499947557E+03 0.  0.
          2    1    1    2  501    0 -0.84168067975E+02  0.44512890333E+02 -0.18625266456E+04  0.18649587573E+04  0.00000000000E+00 0. -1.
          1    1    1    2  502    0  0.71778607437E+02 -0.15980534398E+03  0.11930382363E+04  0.12058317253E+04  0.00000000000E+00 0. -1.
         22    1    3    3    0    0 -0.18475958561E+02  0.12483294823E+03  0.29812389890E+02  0.12966651302E+03  0.00000000000E+00 0. -1.
         22    1    3    3    0    0  0.30865419099E+02 -0.95404945873E+01 -0.25082881151E+02  0.40900440828E+02  0.00000000000E+00 0. -1.
</event>
<event>
 7    1  0.5562528E-006  0.3383359E+02  0.7818608E-02  0.1562047E+00
          2   -1    0    0  502    0  0.00000000000E+00  0.00000000000E+00  0.45737450455E+03  0.45737450455E+03  0.00000000000E+00 0. -1.
          1   -1    0    0  501    0 -0.00000000000E+00 -0.00000000000E+00 -0.94170388779E+02  0.94170388779E+02  0.00000000000E+00 0. -1.
         25    2    1    2    0    0  0.25382164835E+01  0.36827491886E+00  0.19522466698E+03  0.23182803224E+03  0.12499995107E+03 0.  0.
          2    1    1    2  501    0  0.17093397713E+02  0.29198072576E+02 -0.70718315624E+02  0.78395100946E+02  0.00000000000E+00 0. -1.
          1    1    1    2  502    0 -0.19631614197E+02 -0.29566347495E+02  0.23869776442E+03  0.24132176014E+03  0.00000000000E+00 0. -1.
         22    1    3    3    0    0 -0.16094524978E+02 -0.58174609326E+02  0.70617704252E+02  0.92898757033E+02  0.00000000000E+00 0.  1.
         22    1    3    3    0    0  0.18632741462E+02  0.58542884245E+02  0.12460696272E+03  0.13892927521E+03  0.00000000000E+00 0.  1.
</event>
<event>
 7    1  0.5562528E-006  0.1084758E+03  0.7818608E-02  0.1322583E+00
          2   -1    0    0  502    0  0.00000000000E+00  0.00000000000E+00  0.28162336208E+04  0.28162336208E+04  0.00000000000E+00 0. -1.
          1   -1    0    0  501    0 -0.00000000000E+00 -0.00000000000E+00 -0.15050059443E+03  0.15050059443E+03  0.00000000000E+00 0. -1.
         25    2    1    2    0    0 -0.94812002703E+02 -0.50447237843E+02  0.21373769442E+03  0.26989469410E+03  0.12500041690E+03 0.  0.
          2    1    1    2  501    0 -0.13918863621E+02  0.60906520969E+02 -0.11321229892E+03  0.12930724530E+03  0.00000000000E+00 0. -1.
          1    1    1    2  502    0  0.10873086632E+03 -0.10459283126E+02  0.25652076309E+04  0.25675322758E+04  0.00000000000E+00 0. -1.
         22    1    3    3    0    0  0.18200844978E+02 -0.88069143775E+01 -0.44215727275E+01  0.20697410566E+02  0.00000000000E+00 0.  1.
         22    1    3    3    0    0 -0.11301284768E+03 -0.41640323466E+02  0.21815926714E+03  0.24919728353E+03  0.00000000000E+00 0.  1.
</event>
<event>
 7    1  0.5887263E-006  0.7056355E+02  0.7818608E-02  0.1446369E+00
          2   -1    0    0  502    0  0.00000000000E+00  0.00000000000E+00  0.20290840715E+04  0.20290840715E+04  0.00000000000E+00 0. -1.
          1   -1    0    0  501    0 -0.00000000000E+00 -0.00000000000E+00 -0.58095380497E+03  0.58095380497E+03  0.00000000000E+00 0. -1.
         25    2    1    2    0    0  0.37730783316E+01  0.10265686114E+03 -0.34394963466E+03  0.38010469981E+03  0.12500225746E+03 0.  0.
          2    1    1    2  501    0  0.10403781416E+02 -0.33585753986E+02 -0.21689242142E+03  0.21972383577E+03  0.00000000000E+00 0. -1.
          1    1    1    2  502    0 -0.14176859748E+02 -0.69071107152E+02  0.20089723226E+04  0.20102093409E+04  0.00000000000E+00 0. -1.
         22    1    3    3    0    0  0.11069609836E+02  0.11756285174E+03 -0.34379422606E+03  0.36350795073E+03  0.00000000000E+00 0. -1.
         22    1    3    3    0    0 -0.72965315046E+01 -0.14905990607E+02 -0.15540860311E+00  0.16596749074E+02  0.00000000000E+00 0. -1.
</event>
<event>
 7    1  0.5562528E-006  0.7610255E+02  0.7818608E-02  0.1494290E+00
          2   -1    0    0  502    0  0.00000000000E+00  0.00000000000E+00  0.18078696105E+04  0.18078696105E+04  0.00000000000E+00 0. -1.
          1   -1    0    0  501    0 -0.00000000000E+00 -0.00000000000E+00 -0.35283992929E+02  0.35283992929E+02  0.00000000000E+00 0. -1.
         25    2    1    2    0    0  0.78447867968E+02  0.51183729394E+02  0.86839831611E+03  0.88233451894E+03  0.12499890293E+03 0.  0.
          2    1    1    2  501    0 -0.68860158522E+02 -0.30133298638E+02  0.21985521835E+02  0.78314112961E+02  0.00000000000E+00 0. -1.
          1    1    1    2  502    0 -0.95877094460E+01 -0.21050430756E+02  0.88220177965E+03  0.88250497156E+03  0.00000000000E+00 0. -1.
         22    1    3    3    0    0  0.98478187378E+02  0.73172870494E+02  0.60891122163E+03  0.62114820952E+03  0.00000000000E+00 0.  1.
         22    1    3    3    0    0 -0.20030319410E+02 -0.21989141100E+02  0.25948709448E+03  0.26118630941E+03  0.00000000000E+00 0.  1.
</event>
<event>
 7    1  0.5562528E-006  0.5359310E+02  0.7818608E-02  0.1510026E+00
          2   -1    0    0  502    0  0.00000000000E+00  0.00000000000E+00  0.52194398181E+03  0.52194398181E+03  0.00000000000E+00 0. -1.
          1   -1    0    0  501    0 -0.00000000000E+00 -0.00000000000E+00 -0.80539503648E+02  0.80539503648E+02  0.00000000000E+00 0. -1.
         25    2    1    2    0    0 -0.66655874579E+02  0.13776830870E+02  0.16999043481E+03  0.22170671615E+03  0.12499725347E+03 0.  0.
          2    1    1    2  501    0  0.51709324480E+02  0.11644012275E+02 -0.40977175991E+02  0.66996762700E+02  0.00000000000E+00 0. -1.
          1    1    1    2  502    0  0.14946550099E+02 -0.25420843146E+02  0.31239121934E+03  0.31378000661E+03  0.00000000000E+00 0. -1.
         22    1    3    3    0    0  0.13967980784E+02  0.49940494539E+02  0.81887280789E+02  0.96926179318E+02  0.00000000000E+00 0.  1.
         22    1    3    3    0    0 -0.80623855363E+02 -0.36163663669E+02  0.88103154025E+02  0.12478053684E+03  0.00000000000E+00 0.  1.
</event>
<event>
 7    1  0.5562528E-006  0.1558056E+03  0.7818608E-02  0.1386136E+00
          2   -1    0    0  502    0  0.00000000000E+00  0.00000000000E+00  0.44306225010E+03  0.44306225010E+03  0.00000000000E+00 0. -1.
          1   -1    0    0  501    0 -0.00000000000E+00 -0.00000000000E+00 -0.68340938927E+03  0.68340938927E+03  0.00000000000E+00 0. -1.
         25    2    1    2    0    0  0.13603884708E+03 -0.11595896901E+03 -0.46036390890E+03  0.50942290757E+03  0.12499487882E+03 0.  0.
          2    1    1    2  501    0 -0.23759286450E+02  0.89114564552E+01 -0.18323638362E+03  0.18498510759E+03  0.00000000000E+00 0. -1.
          1    1    1    2  502    0 -0.11227956063E+03  0.10704751255E+03  0.40325315335E+03  0.43206362421E+03  0.00000000000E+00 0. -1.
         22    1    3    3    0    0  0.40675199517E+02 -0.82145451462E+02 -0.34020577933E+03  0.35233835916E+03  0.00000000000E+00 0.  1.
         22    1    3    3    0    0  0.95363647562E+02 -0.33813517547E+02 -0.12015812958E+03  0.15708454841E+03  0.00000000000E+00 0.  1.
</event>
<event>
 7    1  0.5562528E-006  0.6043366E+02  0.7818608E-02  0.1514483E+00
          2   -1    0    0  502    0  0.00000000000E+00  0.00000000000E+00  0.34341374582E+03  0.34341374582E+03  0.00000000000E+00 0. -1.
          1   -1    0    0  501    0 -0.00000000000E+00 -0.00000000000E+00 -0.34441310632E+03  0.34441310632E+03  0.00000000000E+00 0. -1.
         25    2    1    2    0    0 -0.15719559794E+02  0.33424930300E+02 -0.21953087530E+02  0.13217712118E+03  0.12499809113E+03 0.  0.
          2    1    1    2  501    0  0.31094947897E+02 -0.53611909107E+02 -0.26318307473E+03  0.27038206931E+03  0.00000000000E+00 0. -1.
          1    1    1    2  502    0 -0.15375388103E+02  0.20186978807E+02  0.28413680176E+03  0.28526766165E+03  0.00000000000E+00 0. -1.
         22    1    3    3    0    0 -0.36278345875E+02  0.71294665643E+02 -0.34765810573E+02  0.87222183608E+02  0.00000000000E+00 0. -1.
         22    1    3    3    0    0  0.20558786081E+02 -0.37869735343E+02  0.12812723043E+02  0.44954937569E+02  0.00000000000E+00 0. -1.
</event>
<event>
 7    1  0.5562528E-006  0.5462734E+02  0.7818608E-02  0.1522741E+00
          2   -1    0    0  502    0  0.00000000000E+00  0.00000000000E+00  0.99212709342E+01  0.99212709342E+01  0.00000000000E+00 0. -1.
          1   -1    0    0  501    0 -0.00000000000E+00 -0.00000000000E+00 -0.12333180420E+04  0.12333180420E+04  0.00000000000E+00 0. -1.
         25    2    1    2    0    0 -0.45773912069E+02  0.20287619072E+02 -0.83639636262E+03  0.84716645430E+03  0.12500114953E+03 0.  0.
          2    1    1    2  501    0  0.10080509091E+02  0.24574623499E+02 -0.14106259613E+03  0.14354157868E+03  0.00000000000E+00 0. -1.
          1    1    1    2  502    0  0.35693402978E+02 -0.44862242571E+02 -0.24593781231E+03  0.25253127994E+03  0.00000000000E+00 0. -1.
         22    1    3    3    0    0  0.35991070508E+02  0.71297558396E+01 -0.10768130915E+03  0.11376051563E+03  0.00000000000E+00 0.  1.
         22    1    3    3    0    0 -0.81764982577E+02  0.13157863233E+02 -0.72871505346E+03  0.73340593868E+03  0.00000000000E+00 0.  1.
</event>
<event>
 7    1  0.5562528E-006  0.4759199E+02  0.7818608E-02  0.1566259E+00
          2   -1    0    0  502    0  0.00000000000E+00  0.00000000000E+00  0.53971971262E+03  0.53971971262E+03  0.00000000000E+00 0. -1.
          1   -1    0    0  501    0 -0.00000000000E+00 -0.00000000000E+00 -0.16969860903E+04  0.16969860903E+04  0.00000000000E+00 0. -1.
         25    2    1    2    0    0 -0.67029826851E+02  0.11682268676E+02  0.35267318054E+02  0.14662524012E+03  0.12500281689E+03 0.  0.
          2    1    1    2  501    0  0.19871679510E+02 -0.11591203276E+02 -0.16399873567E+04  0.16401487036E+04  0.00000000000E+00 0. -1.
          1    1    1    2  502    0  0.47158147342E+02 -0.91065399890E-01  0.44745366102E+03  0.44993185919E+03  0.00000000000E+00 0. -1.
         22    1    3    3    0    0  0.26897304056E+02 -0.20716184051E+02 -0.12759442904E+02  0.36268838282E+02  0.00000000000E+00 0. -1.
         22    1    3    3    0    0 -0.93927130907E+02  0.32398452727E+02  0.48026760958E+02  0.11035640184E+03  0.00000000000E+00 0. -1.
</event>
<event>
 7    1  0.5562528E-006  0.1486863E+03  0.7818608E-02  0.1220745E+00
          2   -1    0    0  502    0  0.00000000000E+00  0.00000000000E+00  0.18550466898E+04  0.18550466898E+04  0.00000000000E+00 0. -1.
          1   -1    0    0  501    0 -0.00000000000E+00 -0.00000000000E+00 -0.12514611174E+03  0.12514611174E+03  0.00000000000E+00 0. -1.
         25    2    1    2    0    0  0.71365168606E+02 -0.25062067412E+03  0.40626960952E+03  0.49858141877E+03  0.12499890378E+03 0.  0.
          2    1    1    2  501    0 -0.45716835430E+02  0.11300288368E+03 -0.26081158596E+02  0.12465916571E+03  0.00000000000E+00 0. -1.
          1    1    1    2  502    0 -0.25648333176E+02  0.13761779044E+03  0.13497121272E+04  0.13569522171E+04  0.00000000000E+00 0. -1.
         22    1    3    3    0    0  0.70086177488E+02 -0.92090741510E+02  0.25233914020E+03  0.27761091230E+03  0.00000000000E+00 0. -1.
         22    1    3    3    0    0  0.12789911176E+01 -0.15852993261E+03  0.15393046931E+03  0.22097050648E+03  0.00000000000E+00 0. -1.
</event>
<event>
 7    1  0.5562528E-006  0.3171369E+03  0.7818608E-02  0.1269508E+00
          2   -1    0    0  502    0  0.00000000000E+00  0.00000000000E+00  0.44663715026E+03  0.44663715026E+03  0.00000000000E+00 0. -1.
          1   -1    0    0  501    0 -0.00000000000E+00 -0.00000000000E+00 -0.98893095271E+03  0.98893095271E+03  0.00000000000E+00 0. -1.
         25    2    1    2    0    0  0.31848531602E+03 -0.10176601154E+03 -0.21166201826E+03  0.41498794253E+03  0.12499985939E+03 0.  0.
          2    1    1    2  501    0 -0.12772384457E+02  0.32554514670E+02 -0.60379403446E+03  0.60480589140E+03  0.00000000000E+00 0. -1.
          1    1    1    2  502    0 -0.30571293157E+03  0.69211496867E+02  0.27316225026E+03  0.41577426904E+03  0.00000000000E+00 0. -1.
         22    1    3    3    0    0  0.64577076075E+02  0.27992424978E+02 -0.27617307601E+02  0.75607475091E+02  0.00000000000E+00 0. -1.
         22    1    3    3    0    0  0.25390823995E+03 -0.12975843651E+03 -0.18404471066E+03  0.33938046744E+03  0.00000000000E+00 0. -1.
</event>
<event>
 7    1  0.5562528E-006  0.4937304E+02  0.7818608E-02  0.1490737E+00
          2   -1    0    0  502    0  0.00000000000E+00  0.00000000000E+00  0.70116967766E+03  0.70116967766E+03  0.00000000000E+00 0. -1.
          1   -1    0    0  501    0 -0.00000000000E+00 -0.00000000000E+00 -0.12277695796E+04  0.12277695796E+04  0.00000000000E+00 0. -1.
         25    2    1    2    0    0  0.79412464909E+02  0.15447812915E+02  0.37082455954E+02  0.15344077330E+03  0.12499595139E+03 0.  0.
          2    1    1    2  501    0 -0.30715700921E+02 -0.19799176425E+02 -0.11683180089E+04  0.11688894009E+04  0.00000000000E+00 0. -1.
          1    1    1    2  502    0 -0.48696763988E+02  0.43513635107E+01  0.60463565099E+03  0.60660908305E+03  0.00000000000E+00 0. -1.
         22    1    3    3    0    0  0.19159007696E+02 -0.16415259877E+02  0.72403194276E+02  0.76673012684E+02  0.00000000000E+00 0.  1.
         22    1    3    3    0    0  0.60253457213E+02  0.31863072791E+02 -0.35320738322E+02  0.76767760612E+02  0.00000000000E+00 0.  1.
</event>
<event>
 7    1  0.5562528E-006  0.5969740E+02  0.7818608E-02  0.1434354E+00
          2   -1    0    0  502    0  0.00000000000E+00  0.00000000000E+00  0.50153733448E+03  0.50153733448E+03  0.00000000000E+00 0. -1.
          1   -1    0    0  501    0 -0.00000000000E+00 -0.00000000000E+00 -0.48500958510E+03  0.48500958510E+03  0.00000000000E+00 0. -1.
         25    2    1    2    0    0 -0.33024135350E+02  0.16750538010E+02  0.35178989118E+03  0.37517028359E+03  0.12500176046E+03 0.  0.
          2    1    1    2  501    0 -0.12719424232E+02 -0.58326626059E+02 -0.46439231671E+03  0.46821362953E+03  0.00000000000E+00 0. -1.
          1    1    1    2  502    0  0.45743559582E+02  0.41576088049E+02  0.12913017492E+03  0.14316300645E+03  0.00000000000E+00 0. -1.
         22    1    3    3    0    0  0.38966405700E+02  0.23311366638E+02  0.64204047397E+02  0.78638160519E+02  0.00000000000E+00 0.  1.
         22    1    3    3    0    0 -0.71990541049E+02 -0.65608286281E+01  0.28758584378E+03  0.29653212307E+03  0.00000000000E+00 0.  1.
</event>
<event>
 7    1  0.5562528E-006  0.1398040E+03  0.7818608E-02  0.1314690E+00
          2   -1    0    0  502    0  0.00000000000E+00  0.00000000000E+00  0.65961219151E+03  0.65961219151E+03  0.00000000000E+00 0. -1.
          1   -1    0    0  501    0 -0.00000000000E+00 -0.00000000000E+00 -0.12015179115E+03  0.12015179115E+03  0.00000000000E+00 0. -1.
         25    2    1    2    0    0  0.20427275038E+02  0.10351157566E+03  0.17490105524E+03  0.23947319083E+03  0.12500044056E+03 0.  0.
          2    1    1    2  501    0 -0.11817489085E+02  0.50666209088E+02 -0.65326515055E+02  0.83512103080E+02  0.00000000000E+00 0. -1.
          1    1    1    2  502    0 -0.86097859525E+01 -0.15417778475E+03  0.42988586018E+03  0.45677868876E+03  0.00000000000E+00 0. -1.
         22    1    3    3    0    0 -0.26831425498E+02 -0.86667986191E+00 -0.38827610757E+01  0.27124755516E+02  0.00000000000E+00 0.  1.
         22    1    3    3    0    0  0.47258700535E+02  0.10437825553E+03  0.17878381632E+03  0.21234843531E+03  0.00000000000E+00 0.  1.
</event>
<event>
 7    1  0.5562528E-006  0.6595224E+02  0.7818608E-02  0.1385348E+00
          2   -1    0    0  502    0  0.00000000000E+00  0.00000000000E+00  0.48580027736E+03  0.48580027736E+03  0.00000000000E+00 0. -1.
          1   -1    0    0  501    0 -0.00000000000E+00 -0.00000000000E+00 -0.14846958240E+03  0.14846958240E+03  0.00000000000E+00 0. -1.
         25    2    1    2    0    0  0.16813450238E+02 -0.50110242747E+02  0.13657687528E+03  0.19254190783E+03  0.12500165949E+03 0.  0.
          2    1    1    2  501    0  0.43468325186E+02  0.52535498610E+02 -0.10767745943E+03  0.12745159543E+03  0.00000000000E+00 0. -1.
          1    1    1    2  502    0 -0.60281775424E+02 -0.24252558634E+01  0.30843127912E+03  0.31427635650E+03  0.00000000000E+00 0. -1.
         22    1    3    3    0    0  0.70379770868E+02 -0.35148288402E+02  0.93510960791E+02  0.12220071241E+03  0.00000000000E+00 0. -1.
         22    1    3    3    0    0 -0.53566320629E+02 -0.14961954345E+02  0.43065914485E+02  0.70341195427E+02  0.00000000000E+00 0. -1.
</event>
<event>
 7    1  0.5562528E-006  0.6802998E+02  0.7818608E-02  0.1483829E+00
          2   -1    0    0  502    0  0.00000000000E+00  0.00000000000E+00  0.54456980781E+03  0.54456980781E+03  0.00000000000E+00 0. -1.
          1   -1    0    0  501    0 -0.00000000000E+00 -0.00000000000E+00 -0.27954072337E+03  0.27954072337E+03  0.00000000000E+00 0. -1.
         25    2    1    2    0    0  0.54817729429E+02  0.20420604007E+00 -0.43352027832E+01  0.13656172382E+03  0.12500114108E+03 0.  0.
          2    1    1    2  501    0 -0.64323015027E+02 -0.26365457505E+02 -0.20289307560E+03  0.21447188099E+03  0.00000000000E+00 0. -1.
          1    1    1    2  502    0  0.95052855975E+01  0.26161251465E+02  0.47225736282E+03  0.47307692637E+03  0.00000000000E+00 0. -1.
         22    1    3    3    0    0  0.65758273963E+02  0.28067026705E+02 -0.46178449405E+02  0.85113793078E+02  0.00000000000E+00 0. -1.
         22    1    3    3    0    0 -0.10940544534E+02 -0.27862820665E+02  0.41843246622E+02  0.51447930745E+02  0.00000000000E+00 0. -1.
</event>
<event>
 7    1  0.5562528E-006  0.4258808E+03  0.7818608E-02  0.1256188E+00
          2   -1    0    0  502    0  0.00000000000E+00  0.00000000000E+00  0.17813083183E+04  0.17813083183E+04  0.00000000000E+00 0. -1.
          1   -1    0    0  501    0 -0.00000000000E+00 -0.00000000000E+00 -0.15424110379E+04  0.15424110379E+04  0.00000000000E+00 0. -1.
         25    2    1    2    0    0 -0.20417380219E+03 -0.35376447634E+03 -0.54273474116E+03  0.69066847502E+03  0.12500278760E+03 0.  0.
          2    1    1    2  501    0  0.21784676847E+03  0.38009076038E+03 -0.87373690072E+03  0.97741617152E+03  0.00000000000E+00 0. -1.
          1    1    1    2  502    0 -0.13672966286E+02 -0.26326284039E+02  0.16553689223E+04  0.16556347097E+04  0.00000000000E+00 0. -1.
         22    1    3    3    0    0 -0.10870981338E+03 -0.22823634132E+03 -0.23635483570E+03  0.34608273488E+03  0.00000000000E+00 0.  1.
         22    1    3    3    0    0 -0.95463988810E+02 -0.12552813503E+03 -0.30637990545E+03  0.34458574014E+03  0.00000000000E+00 0.  1.
</event>
<event>
 7    1  0.5562528E-006  0.9264786E+02  0.7818608E-02  0.1450166E+00
          2   -1    0    0  502    0  0.00000000000E+00  0.00000000000E+00  0.14986749341E+03  0.14986749341E+03  0.00000000000E+00 0. -1.
          1   -1    0    0  501    0 -0.00000000000E+00 -0.00000000000E+00 -0.14781165708E+03  0.14781165708E+03  0.00000000000E+00 0. -1.
         25    2    1    2    0    0 -0.46880018976E+02  0.61886125648E+02 -0.43314384813E+02  0.15339000540E+03  0.12499891639E+03 0.  0.
          2    1    1    2  501    0 -0.25929387217E+02  0.23840470312E+01 -0.14889498232E+02  0.29995232276E+02  0.00000000000E+00 0. -1.
          1    1    1    2  502    0  0.72809406194E+02 -0.64270172679E+02  0.60259719370E+02  0.11429391281E+03  0.00000000000E+00 0. -1.
         22    1    3    3    0    0  0.11590597885E+02  0.24864441626E+02 -0.73076466322E+02  0.78056084624E+02  0.00000000000E+00 0. -1.
         22    1    3    3    0    0 -0.58470616862E+02  0.37021684021E+02  0.29762081509E+02  0.75333920777E+02  0.00000000000E+00 0. -1.
</event>
<event>
 7    1  0.5562528E-006  0.3311167E+02  0.7818608E-02  0.1595660E+00
          2   -1    0    0  502    0  0.00000000000E+00  0.00000000000E+00  0.67633027547E+03  0.67633027547E+03  0.00000000000E+00 0. -1.
          1   -1    0    0  501    0 -0.00000000000E+00 -0.00000000000E+00 -0.97947337490E+03  0.97947337490E+03  0.00000000000E+00 0. -1.
         25    2    1    2    0    0  0.85069148072E+01  0.15408509392E+01 -0.23581165365E+03  0.26703345238E+03  0.12499994749E+03 0.  0.
          2    1    1    2  501    0 -0.29649111138E+02  0.16173571000E+02 -0.72737094974E+03  0.72815462143E+03  0.00000000000E+00 0. -1.
          1    1    1    2  502    0  0.21142196331E+02 -0.17714421939E+02  0.66003950396E+03  0.66061557656E+03  0.00000000000E+00 0. -1.
         22    1    3    3    0    0  0.35490098402E+02 -0.38938430486E+02 -0.19946764597E+03  0.20630824084E+03  0.00000000000E+00 0.  1.
         22    1    3    3    0    0 -0.26983183595E+02  0.40479281425E+02 -0.36344007679E+02  0.60725211533E+02  0.00000000000E+00 0.  1.
</event>
<event>
 7    1  0.5562528E-006  0.6494301E+02  0.7818608E-02  0.1479551E+00
          2   -1    0    0  502    0  0.00000000000E+00  0.00000000000E+00  0.22410509802E+04  0.22410509802E+04  0.00000000000E+00 0. -1.
          1   -1    0    0  501    0 -0.00000000000E+00 -0.00000000000E+00 -0.28312694045E+03  0.28312694045E+03  0.00000000000E+00 0. -1.
         25    2    1    2    0    0 -0.31984825251E+02  0.69130691893E+02 -0.48689330980E+02  0.15426080973E+03  0.12499465933E+03 0.  0.
          2    1    1    2  501    0 -0.16017196823E+02 -0.25425491288E+02 -0.17992405057E+03  0.18241620042E+03  0.00000000000E+00 0. -1.
          1    1    1    2  502    0  0.48002022074E+02 -0.43705200604E+02  0.21865374213E+04  0.21875009105E+04  0.00000000000E+00 0. -1.
         22    1    3    3    0    0 -0.73973938034E+01  0.98626356310E+02 -0.58125091391E+02  0.11471881207E+03  0.00000000000E+00 0.  1.
         22    1    3    3    0    0 -0.24587431448E+02 -0.29495664417E+02  0.94357604104E+01  0.39541997662E+02  0.00000000000E+00 0.  1.
</event>
<event>
 7    1  0.5562528E-006  0.5394891E+02  0.7818608E-02  0.1517162E+00
          2   -1    0    0  502    0  0.00000000000E+00  0.00000000000E+00  0.12735380052E+03  0.12735380052E+03  0.00000000000E+00 0. -1.
          1   -1    0    0  501    0 -0.00000000000E+00 -0.00000000000E+00 -0.57331897911E+03  0.57331897911E+03  0.00000000000E+00 0. -1.
         25    2    1    2    0    0 -0.42025496640E+02 -0.20267822213E+02 -0.17136705009E+03  0.21718319080E+03  0.12499978209E+03 0.  0.
          2    1    1    2  501    0 -0.12211144838E+02  0.25105904192E+02 -0.37138711477E+03  0.37243497083E+03  0.00000000000E+00 0. -1.
          1    1    1    2  502    0  0.54236641478E+02 -0.48380819787E+01  0.96788986267E+02  0.11105461800E+03  0.00000000000E+00 0. -1.
         22    1    3    3    0    0  0.10599933153E+02  0.40516924931E+02 -0.21418336723E+02  0.47039610294E+02  0.00000000000E+00 0. -1.
         22    1    3    3    0    0 -0.52625429793E+02 -0.60784747144E+02 -0.14994871337E+03  0.17014358050E+03  0.00000000000E+00 0. -1.
</event>
<event>
 7    1  0.5562528E-006  0.6781768E+02  0.7818608E-02  0.1393718E+00
          2   -1    0    0  502    0  0.00000000000E+00  0.00000000000E+00  0.47368731882E+03  0.47368731882E+03  0.00000000000E+00 0. -1.
          1   -1    0    0  501    0 -0.00000000000E+00 -0.00000000000E+00 -0.15119930076E+04  0.15119930076E+04  0.00000000000E+00 0. -1.
         25    2    1    2    0    0 -0.32627576269E+02 -0.11108036106E+03  0.97115164008E+02  0.19611085970E+03  0.12499883546E+03 0.  0.
          2    1    1    2  501    0  0.37215453753E+02  0.56420257636E+02 -0.14594077523E+04  0.14609720131E+04  0.00000000000E+00 0. -1.
          1    1    1    2  502    0 -0.45878774847E+01  0.54660103419E+02  0.32398689949E+03  0.32859745368E+03  0.00000000000E+00 0. -1.
         22    1    3    3    0    0 -0.36366679174E+02 -0.24988723887E+02  0.10061696229E+03  0.10986694124E+03  0.00000000000E+00 0.  1.
         22    1    3    3    0    0  0.37391029050E+01 -0.86091637169E+02 -0.35017982851E+01  0.86243918465E+02  0.00000000000E+00 0.  1.
</event>
<event>
 7    1  0.5562528E-006  0.1652748E+03  0.7818608E-02  0.1249940E+00
          2   -1    0    0  502    0  0.00000000000E+00  0.00000000000E+00  0.36839794549E+03  0.36839794549E+03  0.00000000000E+00 0. -1.
          1   -1    0    0  501    0 -0.00000000000E+00 -0.00000000000E+00 -0.14010137618E+04  0.14010137618E+04  0.00000000000E+00 0. -1.
         25    2    1    2    0    0  0.27112364349E+02 -0.23744275174E+03 -0.74990049142E+02  0.27993243592E+03  0.12499808220E+03 0.  0.
          2    1    1    2  501    0 -0.38376802594E+02  0.15688739389E+03 -0.12118469626E+04  0.12225626750E+04  0.00000000000E+00 0. -1.
          1    1    1    2  502    0  0.11264438245E+02  0.80555357851E+02  0.25422119544E+03  0.26691659645E+03  0.00000000000E+00 0. -1.
         22    1    3    3    0    0  0.73696039787E+02 -0.10025342220E+03 -0.42181121975E+02  0.13138151314E+03  0.00000000000E+00 0. -1.
         22    1    3    3    0    0 -0.46583675438E+02 -0.13718932954E+03 -0.32808927168E+02  0.14855092278E+03  0.00000000000E+00 0. -1.
</event>
<event>
 7    1  0.5562528E-006  0.3243420E+02  0.7818608E-02  0.1652981E+00
          2   -1    0    0  502    0  0.00000000000E+00  0.00000000000E+00  0.34525263716E+03  0.34525263716E+03  0.00000000000E+00 0. -1.
          1   -1    0    0  501    0 -0.00000000000E+00 -0.00000000000E+00 -0.90808968114E+03  0.90808968114E+03  0.00000000000E+00 0. -1.
         25    2    1    2    0    0  0.26856331163E+02  0.65489990852E+00  0.16141896528E+03  0.20592525918E+03  0.12500975402E+03 0.  0.
          2    1    1    2  501    0 -0.25955987254E+02  0.19479623726E+02 -0.88490944513E+03  0.88550431682E+03  0.00000000000E+00 0. -1.
          1    1    1    2  502    0 -0.90034390868E+00 -0.20134523634E+02  0.16065343588E+03  0.16191274230E+03  0.00000000000E+00 0. -1.
         22    1    3    3    0    0  0.73920657283E+02  0.19646255707E+02  0.86912474571E+02  0.11577571927E+03  0.00000000000E+00 0.  1.
         22    1    3    3    0    0 -0.47064326121E+02 -0.18991355799E+02  0.74506490704E+02  0.90149539906E+02  0.00000000000E+00 0.  1.
</event>
<event>
 7    1  0.5562528E-006  0.5478144E+02  0.7818608E-02  0.1471267E+00
          2   -1    0    0  502    0  0.00000000000E+00  0.00000000000E+00  0.18241073169E+03  0.18241073169E+03  0.00000000000E+00 0. -1.
          1   -1    0    0  501    0 -0.00000000000E+00 -0.00000000000E+00 -0.51004196437E+03  0.51004196437E+03  0.00000000000E+00 0. -1.
         25    2    1    2    0    0  0.45859646695E+01  0.24187066507E+02 -0.17782523116E+03  0.21875154166E+03  0.12499751551E+03 0.  0.
          2    1    1    2  501    0  0.12538054798E+02 -0.57868833948E+02 -0.30667851320E+03  0.31234230456E+03  0.00000000000E+00 0. -1.
          1    1    1    2  502    0 -0.17124019468E+02  0.33681767441E+02  0.15687251167E+03  0.16135884983E+03  0.00000000000E+00 0. -1.
         22    1    3    3    0    0 -0.35864128640E+02  0.61786773515E+02 -0.11177044228E+03  0.13265169759E+03  0.00000000000E+00 0.  1.
         22    1    3    3    0    0  0.40450093309E+02 -0.37599707008E+02 -0.66054788881E+02  0.86099844076E+02  0.00000000000E+00 0.  1.
</event>
<event>
 7    1  0.5562528E-006  0.2630902E+03  0.7818608E-02  0.1166516E+00
          2   -1    0    0  502    0  0.00000000000E+00  0.00000000000E+00  0.86848003958E+03  0.86848003958E+03  0.00000000000E+00 0. -1.
          1   -1    0    0  501    0 -0.00000000000E+00 -0.00000000000E+00 -0.56493277940E+03  0.56493277940E+03  0.00000000000E+00 0. -1.
         25    2    1    2    0    0  0.14531571201E+03  0.18026380975E+03  0.36758507622E+03  0.45205724023E+03  0.12500105167E+03 0.  0.
          2    1    1    2  501    0 -0.51545637083E+02 -0.26290205400E+03 -0.47853430560E+03  0.54842458400E+03  0.00000000000E+00 0. -1.
          1    1    1    2  502    0 -0.93770074923E+02  0.82638244253E+02  0.41449648956E+03  0.43293099476E+03  0.00000000000E+00 0. -1.
         22    1    3    3    0    0  0.10180318437E+02  0.96969915811E+02  0.19208519980E+03  0.21541477999E+03  0.00000000000E+00 0. -1.
         22    1    3    3    0    0  0.13513539357E+03  0.83293893934E+02  0.17549987642E+03  0.23664246023E+03  0.00000000000E+00 0. -1.
</event>
<event>
 7    1  0.5562528E-006  0.5179084E+02  0.7818608E-02  0.1529523E+00
          2   -1    0    0  502    0  0.00000000000E+00  0.00000000000E+00  0.67066201651E+03  0.67066201651E+03  0.00000000000E+00 0. -1.
          1   -1    0    0  501    0 -0.00000000000E+00 -0.00000000000E+00 -0.13408455957E+03  0.13408455957E+03  0.00000000000E+00 0. -1.
         25    2    1    2    0    0 -0.28892385165E+02 -0.51624119913E+01  0.39797454226E+03  0.41817550861E+03  0.12500239715E+03 0.  0.
          2    1    1    2  501    0  0.44718189857E+02  0.26771417565E+02 -0.11777806230E+03  0.12879478740E+03  0.00000000000E+00 0. -1.
          1    1    1    2  502    0 -0.15825804691E+02 -0.21609005573E+02  0.25638097697E+03  0.25777628008E+03  0.00000000000E+00 0. -1.
         22    1    3    3    0    0  0.77401600034E+01 -0.55969574248E+02  0.11227988759E+03  0.12569517285E+03  0.00000000000E+00 0. -1.
         22    1    3    3    0    0 -0.36632545169E+02  0.50807162257E+02  0.28569465467E+03  0.29248033576E+03  0.00000000000E+00 0. -1.
</event>
<event>
 7    1  0.5562528E-006  0.1521515E+03  0.7818608E-02  0.1410269E+00
          2   -1    0    0  502    0  0.00000000000E+00  0.00000000000E+00  0.35906498194E+03  0.35906498194E+03  0.00000000000E+00 0. -1.
          1   -1    0    0  501    0 -0.00000000000E+00 -0.00000000000E+00 -0.11834580885E+04  0.11834580885E+04  0.00000000000E+00 0. -1.
         25    2    1    2    0    0  0.14012643879E+03  0.13259785201E+02 -0.66165777688E+02  0.19953493511E+03  0.12500015776E+03 0.  0.
          2    1    1    2  501    0 -0.15313683395E+03  0.37992239993E+01 -0.10446206206E+04  0.10557923873E+04  0.00000000000E+00 0. -1.
          1    1    1    2  502    0  0.13010395153E+02 -0.17059009201E+02  0.28639329171E+03  0.28719574808E+03  0.00000000000E+00 0. -1.
         22    1    3    3    0    0  0.87691284417E+01  0.13422582338E+02  0.31837357020E+02  0.35646607584E+02  0.00000000000E+00 0.  1.
         22    1    3    3    0    0  0.13135731035E+03 -0.16279713717E+00 -0.98003134708E+02  0.16388832752E+03  0.00000000000E+00 0.  1.
</event>
<event>
 7    1  0.5562528E-006  0.1073874E+03  0.7818608E-02  0.1289964E+00
          2   -1    0    0  502    0  0.00000000000E+00  0.00000000000E+00  0.23728792480E+03  0.23728792480E+03  0.00000000000E+00 0. -1.
          1   -1    0    0  501    0 -0.00000000000E+00 -0.00000000000E+00 -0.17915454379E+04  0.17915454379E+04  0.00000000000E+00 0. -1.
         25    2    1    2    0    0 -0.15258055895E+03 -0.27329523805E+02  0.57882277656E+02  0.20736834339E+03  0.12499416760E+03 0.  0.
          2    1    1    2  501    0  0.60940080647E+02  0.59255898956E+02 -0.16930103341E+04  0.16951427510E+04  0.00000000000E+00 0. -1.
          1    1    1    2  502    0  0.91640478308E+02 -0.31926375151E+02  0.80870543315E+02  0.12632226831E+03  0.00000000000E+00 0. -1.
         22    1    3    3    0    0  0.20724488633E+02  0.54420404955E+01  0.14064279784E+02  0.25630532568E+02  0.00000000000E+00 0. -1.
         22    1    3    3    0    0 -0.17330504759E+03 -0.32771564300E+02  0.43817997872E+02  0.18173781083E+03  0.00000000000E+00 0. -1.
</event>
<event>
 7    1  0.5562528E-006  0.1418353E+03  0.7818608E-02  0.1293091E+00
          2   -1    0    0  502    0  0.00000000000E+00  0.00000000000E+00  0.11208815387E+04  0.11208815387E+04  0.00000000000E+00 0. -1.
          1   -1    0    0  501    0 -0.00000000000E+00 -0.00000000000E+00 -0.33401960193E+03  0.33401960193E+03  0.00000000000E+00 0. -1.
         25    2    1    2    0    0 -0.11065392286E+03 -0.28208461591E+02  0.52410483782E+02  0.17723292108E+03  0.12499856621E+03 0.  0.
          2    1    1    2  501    0  0.14635728674E+03 -0.23093455946E+02 -0.25033647518E+03  0.29089880353E+03  0.00000000000E+00 0. -1.
          1    1    1    2  502    0 -0.35703363880E+02  0.51301917538E+02  0.98478792813E+03  0.98676941599E+03  0.00000000000E+00 0. -1.
         22    1    3    3    0    0 -0.38590621217E+01  0.15019205704E+02 -0.31225853307E+02  0.34864348770E+02  0.00000000000E+00 0.  1.
         22    1    3    3    0    0 -0.10679486073E+03 -0.43227667295E+02  0.83636337088E+02  0.14236857231E+03  0.00000000000E+00 0.  1.
</event>
<event>
 7    1  0.5562528E-006  0.5041789E+02  0.7818608E-02  0.1490372E+00
          2   -1    0    0  502    0  0.00000000000E+00  0.00000000000E+00  0.11945061837E+03  0.11945061837E+03  0.00000000000E+00 0. -1.
          1   -1    0    0  501    0 -0.00000000000E+00 -0.00000000000E+00 -0.16514054282E+03  0.16514054282E+03  0.00000000000E+00 0. -1.
         25    2    1    2    0    0 -0.18310324083E+01  0.21631586901E+02 -0.40407498029E+02  0.13315320344E+03  0.12500292580E+03 0.  0.
          2    1    1    2  501    0  0.20981084365E+02  0.29103325758E+02 -0.62838328485E+02  0.72359277208E+02  0.00000000000E+00 0. -1.
          1    1    1    2  502    0 -0.19150051957E+02 -0.50734912659E+02  0.57555902073E+02  0.79078680540E+02  0.00000000000E+00 0. -1.
         22    1    3    3    0    0 -0.52349611990E+02  0.19606642844E+02 -0.57101542651E+02  0.79909251606E+02  0.00000000000E+00 0. -1.
         22    1    3    3    0    0  0.50518579582E+02  0.20249440574E+01  0.16694044622E+02  0.53243951837E+02  0.00000000000E+00 0. -1.
</event>
<event>
 7    1  0.5562528E-006  0.2341450E+03  0.7818608E-02  0.1143678E+00
          2   -1    0    0  502    0  0.00000000000E+00  0.00000000000E+00  0.33789956445E+03  0.33789956445E+03  0.00000000000E+00 0. -1.
          1   -1    0    0  501    0 -0.00000000000E+00 -0.00000000000E+00 -0.58779142435E+03  0.58779142435E+03  0.00000000000E+00 0. -1.
         25    2    1    2    0    0 -0.21986482117E+03  0.60122003179E+02 -0.13588538053E+03  0.29333341252E+03  0.12499783761E+03 0.  0.
          2    1    1    2  501    0  0.92727091729E+02  0.15849770713E+03 -0.27637755473E+03  0.33181981476E+03  0.00000000000E+00 0. -1.
          1    1    1    2  502    0  0.12713772944E+03 -0.21861971031E+03  0.16237107536E+03  0.30053776152E+03  0.00000000000E+00 0. -1.
         22    1    3    3    0    0 -0.97463835638E+02  0.15473213088E+02 -0.12959568622E+03  0.16289156352E+03  0.00000000000E+00 0. -1.
         22    1    3    3    0    0 -0.12240098553E+03  0.44648790091E+02 -0.62896943046E+01  0.13044184900E+03  0.00000000000E+00 0. -1.
</event>
<event>
 7    1  0.5562528E-006  0.9269769E+02  0.7818608E-02  0.1318447E+00
          2   -1    0    0  502    0  0.00000000000E+00  0.00000000000E+00  0.13268047793E+03  0.13268047793E+03  0.00000000000E+00 0. -1.
          1   -1    0    0  501    0 -0.00000000000E+00 -0.00000000000E+00 -0.21683161588E+04  0.21683161588E+04  0.00000000000E+00 0. -1.
         25    2    1    2    0    0 -0.84585673033E+02  0.16927708274E+02 -0.38082255977E+03  0.40998965792E+03  0.12499765669E+03 0.  0.
          2    1    1    2  501    0  0.47523927027E+02 -0.83118647735E+02 -0.17592901521E+04  0.17618936042E+04  0.00000000000E+00 0. -1.
          1    1    1    2  502    0  0.37061746006E+02  0.66190939462E+02  0.10447703103E+03  0.12911337458E+03  0.00000000000E+00 0. -1.
         22    1    3    3    0    0 -0.10421265461E+03  0.83380179357E+01 -0.18101235115E+03  0.20903413882E+03  0.00000000000E+00 0. -1.
         22    1    3    3    0    0  0.19626981576E+02  0.85896903381E+01 -0.19981020862E+03  0.20095551910E+03  0.00000000000E+00 0. -1.
</event>
<event>
 7    1  0.5562528E-006  0.5635582E+02  0.7818608E-02  0.1520595E+00
          2   -1    0    0  502    0  0.00000000000E+00  0.00000000000E+00  0.88627816731E+03  0.88627816731E+03  0.00000000000E+00 0. -1.
          1   -1    0    0  501    0 -0.00000000000E+00 -0.00000000000E+00 -0.34245862821E+03  0.34245862821E+03  0.00000000000E+00 0. -1.
         25    2    1    2    0    0  0.49474492681E+02  0.52739158535E+02  0.55237123617E+03  0.57093599699E+03  0.12499914338E+03 0.  0.
          2    1    1    2  501    0 -0.25580211195E+02 -0.52743587837E+01 -0.33048285667E+03  0.33151332494E+03  0.00000000000E+00 0. -1.
          1    1    1    2  502    0 -0.23894281486E+02 -0.47464799751E+02  0.32193115960E+03  0.32628747359E+03  0.00000000000E+00 0. -1.
         22    1    3    3    0    0  0.13435015630E+02  0.77967242953E+02  0.18871172163E+03  0.20462527825E+03  0.00000000000E+00 0. -1.
         22    1    3    3    0    0  0.36039477050E+02 -0.25228084418E+02  0.36365951454E+03  0.36631071874E+03  0.00000000000E+00 0. -1.
</event>
<event>
 7    1  0.5562528E-006  0.8553169E+02  0.7818608E-02  0.1393175E+00
          2   -1    0    0  502    0  0.00000000000E+00  0.00000000000E+00  0.27246511008E+04  0.27246511008E+04  0.00000000000E+00 0. -1.
          1   -1    0    0  501    0 -0.00000000000E+00 -0.00000000000E+00 -0.40831248806E+02  0.40831248806E+02  0.00000000000E+00 0. -1.
         25    2    1    2    0    0 -0.62483245520E+02  0.48467586111E+02  0.42040247889E+03  0.44566158377E+03  0.12499096015E+03 0.  0.
          2    1    1    2  501    0 -0.23356584705E+02 -0.36912423230E+02 -0.99531096115E+01  0.44800908794E+02  0.00000000000E+00 0. -1.
          1    1    1    2  502    0  0.85839830225E+02 -0.11555162880E+02  0.22733704827E+04  0.22750198570E+04  0.00000000000E+00 0. -1.
         22    1    3    3    0    0  0.11790924919E+02  0.26061577053E+01  0.28049939855E+03  0.28075920387E+03  0.00000000000E+00 0. -1.
         22    1    3    3    0    0 -0.74274170439E+02  0.45861428405E+02  0.13990308033E+03  0.16490237990E+03  0.00000000000E+00 0. -1.
</event>
<event>
 7    1  0.5562528E-006  0.1220867E+03  0.7818608E-02  0.1260343E+00
          2   -1    0    0  502    0  0.00000000000E+00  0.00000000000E+00  0.55197619755E+03  0.55197619755E+03  0.00000000000E+00 0. -1.
          1   -1    0    0  501    0 -0.00000000000E+00 -0.00000000000E+00 -0.22923143578E+04  0.22923143578E+04  0.00000000000E+00 0. -1.
         25    2    1    2    0    0 -0.12737590852E+03  0.18667404014E+02 -0.14648236260E+03  0.23164966406E+03  0.12502555843E+03 0.  0.
          2    1    1    2  501    0  0.71379109721E+02 -0.10071002772E+03 -0.20965732933E+04  0.21002040522E+04  0.00000000000E+00 0. -1.
          1    1    1    2  502    0  0.55996798803E+02  0.82042623711E+02  0.50271749564E+03  0.51243683904E+03  0.00000000000E+00 0. -1.
         22    1    3    3    0    0 -0.24160849296E+02  0.58352135780E+02 -0.26527528915E+02  0.68501300565E+02  0.00000000000E+00 0.  1.
         22    1    3    3    0    0 -0.10321505923E+03 -0.39684731766E+02 -0.11995483369E+03  0.16314836350E+03  0.00000000000E+00 0.  1.
</event>
<event>
 7    1  0.5562528E-006  0.1282299E+03  0.7818608E-02  0.1311674E+00
          2   -1    0    0  502    0  0.00000000000E+00  0.00000000000E+00  0.24842212575E+04  0.24842212575E+04  0.00000000000E+00 0. -1.
          1   -1    0    0  501    0 -0.00000000000E+00 -0.00000000000E+00 -0.60167793145E+02  0.60167793145E+02  0.00000000000E+00 0. -1.
         25    2    1    2    0    0 -0.75631751364E+02  0.10415908218E+03  0.45911109843E+03  0.49292703303E+03  0.12499913191E+03 0.  0.
          2    1    1    2  501    0  0.11510363645E+03 -0.61270164628E+02  0.56466502685E+02  0.14209625654E+03  0.00000000000E+00 0. -1.
          1    1    1    2  502    0 -0.39471885089E+02 -0.42888917557E+02  0.19084758633E+04  0.19093657611E+04  0.00000000000E+00 0. -1.
         22    1    3    3    0    0 -0.51392428922E+02  0.55172842140E+02  0.80138907834E+02  0.11003394390E+03  0.00000000000E+00 0. -1.
         22    1    3    3    0    0 -0.24239322442E+02  0.48986240044E+02  0.37897219059E+03  0.38289308914E+03  0.00000000000E+00 0. -1.
</event>
<event>
 7    1  0.5562528E-006  0.1403091E+03  0.7818608E-02  0.1261355E+00
          2   -1    0    0  502    0  0.00000000000E+00  0.00000000000E+00  0.34759656030E+02  0.34759656030E+02  0.00000000000E+00 0. -1.
          1   -1    0    0  501    0 -0.00000000000E+00 -0.00000000000E+00 -0.14600503235E+04  0.14600503235E+04  0.00000000000E+00 0. -1.
         25    2    1    2    0    0 -0.10877340093E+03  0.85070098750E+01 -0.91497650893E+03  0.92989806490E+03  0.12499750897E+03 0.  0.
          2    1    1    2  501    0 -0.17801606507E+02  0.83704386840E+02 -0.18862801785E+03  0.20713244721E+03  0.00000000000E+00 0. -1.
          1    1    1    2  502    0  0.12657500744E+03 -0.92211396715E+02 -0.32168614069E+03  0.35777946741E+03  0.00000000000E+00 0. -1.
         22    1    3    3    0    0 -0.83912707863E+02 -0.54661766128E+01 -0.23974762853E+03  0.25406720964E+03  0.00000000000E+00 0.  1.
         22    1    3    3    0    0 -0.24860693068E+02  0.13973186488E+02 -0.67522888040E+03  0.67583085526E+03  0.00000000000E+00 0.  1.
</event>
<event>
 7    1  0.5562528E-006  0.2462553E+03  0.7818608E-02  0.1242131E+00
          2   -1    0    0  502    0  0.00000000000E+00  0.00000000000E+00  0.11724798462E+04  0.11724798462E+04  0.00000000000E+00 0. -1.
          1   -1    0    0  501    0 -0.00000000000E+00 -0.00000000000E+00 -0.16433057122E+04  0.16433057122E+04  0.00000000000E+00 0. -1.
         25    2    1    2    0    0  0.26797528002E+03  0.10598640954E+03  0.14487642664E+03  0.34590730793E+03  0.12497526546E+03 0.  0.
          2    1    1    2  501    0 -0.23850135265E+03 -0.54817957753E+02 -0.15321295695E+04  0.15515504895E+04  0.00000000000E+00 0. -1.
          1    1    1    2  502    0 -0.29473927374E+02 -0.51168451787E+02  0.91642727689E+03  0.91832776104E+03  0.00000000000E+00 0. -1.
         22    1    3    3    0    0  0.23712610312E+03  0.13327620473E+03  0.13441625982E+03  0.30341237027E+03  0.00000000000E+00 0.  1.
         22    1    3    3    0    0  0.30849176904E+02 -0.27289795192E+02  0.10460166816E+02  0.42494937665E+02  0.00000000000E+00 0.  1.
</event>
<event>
 7    1  0.5562528E-006  0.4289071E+02  0.7818608E-02  0.1533613E+00
          2   -1    0    0  502    0  0.00000000000E+00  0.00000000000E+00  0.12313907664E+03  0.12313907664E+03  0.00000000000E+00 0. -1.
          1   -1    0    0  501    0 -0.00000000000E+00 -0.00000000000E+00 -0.33182268881E+03  0.33182268881E+03  0.00000000000E+00 0. -1.
         25    2    1    2    0    0  0.13070796321E+02 -0.21216405342E+02 -0.26211837492E+00  0.12746289984E+03  0.12500296219E+03 0.  0.
          2    1    1    2  501    0  0.30786788692E+02  0.65848301409E+01 -0.25788060369E+03  0.25979528885E+03  0.00000000000E+00 0. -1.
          1    1    1    2  502    0 -0.43857585013E+02  0.14631575201E+02  0.49459109893E+02  0.67703576770E+02  0.00000000000E+00 0. -1.
         22    1    3    3    0    0 -0.17031175135E+02 -0.35524799970E+02  0.52145607500E+02  0.65354699303E+02  0.00000000000E+00 0. -1.
         22    1    3    3    0    0  0.30101971456E+02  0.14308394628E+02 -0.52407725875E+02  0.62108200536E+02  0.00000000000E+00 0. -1.
</event>
<event>
 7    1  0.5562528E-006  0.6316858E+02  0.7818608E-02  0.1481033E+00
          2   -1    0    0  502    0  0.00000000000E+00  0.00000000000E+00  0.13070389306E+04  0.13070389306E+04  0.00000000000E+00 0. -1.
          1   -1    0    0  501    0 -0.00000000000E+00 -0.00000000000E+00 -0.35183096579E+03  0.35183096579E+03  0.00000000000E+00 0. -1.
         25    2    1    2    0    0  0.51673549162E+02  0.20611422179E+02  0.13352698581E+03  0.19114822924E+03  0.12495280388E+03 0.  0.
          2    1    1    2  501    0 -0.40308325395E+02 -0.48992946666E+02 -0.31969849675E+03  0.32593281324E+03  0.00000000000E+00 0. -1.
          1    1    1    2  502    0 -0.11365223768E+02  0.28381524487E+02  0.11413794758E+04  0.11417888539E+04  0.00000000000E+00 0. -1.
         22    1    3    3    0    0  0.61336763672E+02  0.24671170161E+02  0.96317718036E+01  0.66810450103E+02  0.00000000000E+00 0.  1.
         22    1    3    3    0    0 -0.96632145099E+01 -0.40597479817E+01  0.12389521400E+03  0.12433777914E+03  0.00000000000E+00 0.  1.
</event>
<event>
 7    1  0.6393076E-006  0.8801224E+02  0.7818608E-02  0.1444602E+00
          2   -1    0    0  502    0  0.00000000000E+00  0.00000000000E+00  0.10525993907E+04  0.10525993907E+04  0.00000000000E+00 0. -1.
          1   -1    0    0  501    0 -0.00000000000E+00 -0.00000000000E+00 -0.58991638185E+03  0.58991638185E+03  0.00000000000E+00 0. -1.
         25    2    1    2    0    0  0.57286596083E+02 -0.46491953035E+02 -0.14772997359E+03  0.20710803002E+03  0.12500534074E+03 0.  0.
          2    1    1    2  501    0  0.24787088872E+02  0.14190102679E+02 -0.41009844846E+03  0.41109183428E+03  0.00000000000E+00 0. -1.
          1    1    1    2  502    0 -0.82073684954E+02  0.32301850356E+02  0.10205114309E+04  0.10243159083E+04  0.00000000000E+00 0. -1.
         22    1    3    3    0    0  0.93695163538E+02 -0.49349942666E+02 -0.90926110592E+02  0.13957706867E+03  0.00000000000E+00 0. -1.
         22    1    3    3    0    0 -0.36408567455E+02  0.28579896314E+01 -0.56803863000E+02  0.67530961348E+02  0.00000000000E+00 0. -1.
</event>
<event>
 7    1  0.5562528E-006  0.5228229E+02  0.7818608E-02  0.1472977E+00
          2   -1    0    0  502    0  0.00000000000E+00  0.00000000000E+00  0.21616838557E+04  0.21616838557E+04  0.00000000000E+00 0. -1.
          1   -1    0    0  501    0 -0.00000000000E+00 -0.00000000000E+00 -0.10527320758E+03  0.10527320758E+03  0.00000000000E+00 0. -1.
         25    2    1    2    0    0  0.86853843766E+02  0.15396300868E+02  0.22544961158E+03  0.27245645691E+03  0.12499742915E+03 0.  0.
          2    1    1    2  501    0 -0.47841057288E+02 -0.18158637234E+02 -0.73543593925E+02  0.89594436636E+02  0.00000000000E+00 0. -1.
          1    1    1    2  502    0 -0.39012786478E+02  0.27623363666E+01  0.19045046305E+04  0.19049061698E+04  0.00000000000E+00 0. -1.
         22    1    3    3    0    0  0.31274786479E+02  0.42214035940E+02  0.17238756060E+02  0.55292963478E+02  0.00000000000E+00 0.  1.
         22    1    3    3    0    0  0.55579057287E+02 -0.26817735072E+02  0.20821085552E+03  0.21716349344E+03  0.00000000000E+00 0.  1.
</event>
<event>
 7    1  0.5562528E-006  0.5933840E+02  0.7818608E-02  0.1426244E+00
          2   -1    0    0  502    0  0.00000000000E+00  0.00000000000E+00  0.27022057886E+03  0.27022057886E+03  0.00000000000E+00 0. -1.
          1   -1    0    0  501    0 -0.00000000000E+00 -0.00000000000E+00 -0.13732002645E+04  0.13732002645E+04  0.00000000000E+00 0. -1.
         25    2    1    2    0    0 -0.10059273044E+02 -0.40523832263E+02 -0.22966657781E+03  0.26479344244E+03  0.12500184095E+03 0.  0.
          2    1    1    2  501    0 -0.38065565477E+02  0.47558719543E+02 -0.11227963304E+04  0.11244476060E+04  0.00000000000E+00 0. -1.
          1    1    1    2  502    0  0.48124838521E+02 -0.70348872797E+01  0.24948322265E+03  0.25417979484E+03  0.00000000000E+00 0. -1.
         22    1    3    3    0    0  0.23773176249E+02 -0.35811494637E+02 -0.22643855857E+03  0.23048220726E+03  0.00000000000E+00 0. -1.
         22    1    3    3    0    0 -0.33832449293E+02 -0.47123376265E+01 -0.32280192369E+01  0.34311235175E+02  0.00000000000E+00 0. -1.
</event>
<event>
 7    1  0.5562528E-006  0.4381450E+03  0.7818608E-02  0.1169704E+00
          2   -1    0    0  502    0  0.00000000000E+00  0.00000000000E+00  0.11954925848E+04  0.11954925848E+04  0.00000000000E+00 0. -1.
          1   -1    0    0  501    0 -0.00000000000E+00 -0.00000000000E+00 -0.47404948302E+03  0.47404948302E+03  0.00000000000E+00 0. -1.
         25    2    1    2    0    0  0.25438446254E+03  0.39475205627E+03  0.50506871693E+02  0.48858641057E+03  0.12500038316E+03 0.  0.
          2    1    1    2  501    0 -0.18440981695E+03 -0.37634689845E+03 -0.79894813620E+02  0.42664639903E+03  0.00000000000E+00 0. -1.
          1    1    1    2  502    0 -0.69974645592E+02 -0.18405157816E+02  0.75083104370E+03  0.75430925823E+03  0.00000000000E+00 0. -1.
         22    1    3    3    0    0  0.27368607006E+02  0.54083923504E+02  0.50987200715E+02  0.79207361197E+02  0.00000000000E+00 0. -1.
         22    1    3    3    0    0  0.22701585554E+03  0.34066813276E+03 -0.48032902157E+00  0.40937904937E+03  0.00000000000E+00 0. -1.
</event>
<event>
 7    1  0.5562528E-006  0.1232909E+03  0.7818608E-02  0.1309176E+00
          2   -1    0    0  502    0  0.00000000000E+00  0.00000000000E+00  0.36318350534E+04  0.36318350534E+04  0.00000000000E+00 0. -1.
          1   -1    0    0  501    0 -0.00000000000E+00 -0.00000000000E+00 -0.48338671549E+02  0.48338671549E+02  0.00000000000E+00 0. -1.
         25    2    1    2    0    0  0.74517956298E+02 -0.11017507331E+03  0.22542617715E+03  0.29005837037E+03  0.12500169713E+03 0.  0.
          2    1    1    2  501    0 -0.10709234718E+03  0.57407640601E+02  0.21914141836E+03  0.25057407939E+03  0.00000000000E+00 0. -1.
          1    1    1    2  502    0  0.32574390878E+02  0.52767432709E+02  0.31389287863E+04  0.31395412752E+04  0.00000000000E+00 0. -1.
         22    1    3    3    0    0 -0.50026117714E+01 -0.78167353664E+01 -0.14582828288E+02  0.17285437721E+02  0.00000000000E+00 0. -1.
         22    1    3    3    0    0  0.79520568070E+02 -0.10235833794E+03  0.24000900544E+03  0.27277293265E+03  0.00000000000E+00 0. -1.
</event>
<event>
 7    1  0.5562528E-006  0.6699570E+02  0.7818608E-02  0.1479666E+00
          2   -1    0    0  502    0  0.00000000000E+00  0.00000000000E+00  0.13581581024E+04  0.13581581024E+04  0.00000000000E+00 0. -1.
          1   -1    0    0  501    0 -0.00000000000E+00 -0.00000000000E+00 -0.17184777922E+03  0.17184777922E+03  0.00000000000E+00 0. -1.
         25    2    1    2    0    0  0.66638076985E+02 -0.25842427207E+02  0.52727229586E+01  0.14408620650E+03  0.12499827578E+03 0.  0.
          2    1    1    2  501    0  0.29859675914E+00  0.29104130885E+02 -0.99479592990E+02  0.10365003143E+03  0.00000000000E+00 0. -1.
          1    1    1    2  502    0 -0.66936673744E+02 -0.32617036779E+01  0.12805171932E+04  0.12822696436E+04  0.00000000000E+00 0. -1.
         22    1    3    3    0    0  0.40267273742E+02 -0.19735262063E+02  0.64736536191E+02  0.78751209650E+02  0.00000000000E+00 0.  1.
         22    1    3    3    0    0  0.26370803243E+02 -0.61071651438E+01 -0.59463813233E+02  0.65334996854E+02  0.00000000000E+00 0.  1.
</event>
<event>
 7    1  0.5562528E-006  0.1615660E+03  0.7818608E-02  0.1202139E+00
          2   -1    0    0  502    0  0.00000000000E+00  0.00000000000E+00  0.10720348642E+04  0.10720348642E+04  0.00000000000E+00 0. -1.
          1   -1    0    0  501    0 -0.00000000000E+00 -0.00000000000E+00 -0.21744357165E+03  0.21744357165E+03  0.00000000000E+00 0. -1.
         25    2    1    2    0    0  0.20020701698E+03  0.16592438200E+03  0.41700980891E+03  0.50708562854E+03  0.12499961501E+03 0.  0.
          2    1    1    2  501    0 -0.13114678364E+03 -0.38818693155E+02 -0.13478819511E+03  0.19202663185E+03  0.00000000000E+00 0. -1.
          1    1    1    2  502    0 -0.69060233337E+02 -0.12710568885E+03  0.57236967873E+03  0.59036617544E+03  0.00000000000E+00 0. -1.
         22    1    3    3    0    0  0.20484162204E+03  0.11117331673E+03  0.32528681885E+03  0.40016385518E+03  0.00000000000E+00 0.  1.
         22    1    3    3    0    0 -0.46346050656E+01  0.54751065272E+02  0.91722990063E+02  0.10692177336E+03  0.00000000000E+00 0.  1.
</event>
<event>
 7    1  0.5562528E-006  0.9809085E+02  0.7818608E-02  0.1332420E+00
          2   -1    0    0  502    0  0.00000000000E+00  0.00000000000E+00  0.11767202322E+04  0.11767202322E+04  0.00000000000E+00 0. -1.
          1   -1    0    0  501    0 -0.00000000000E+00 -0.00000000000E+00 -0.22684557120E+03  0.22684557120E+03  0.00000000000E+00 0. -1.
         25    2    1    2    0    0  0.10751709367E+03 -0.68580230639E+02 -0.36718721883E+02  0.18230125544E+03  0.12498923847E+03 0.  0.
          2    1    1    2  501    0 -0.93195418754E+02  0.68778914117E+01 -0.97657271546E+02  0.13516521059E+03  0.00000000000E+00 0. -1.
          1    1    1    2  502    0 -0.14321674914E+02  0.61702339227E+02  0.10842506544E+04  0.10860993374E+04  0.00000000000E+00 0. -1.
         22    1    3    3    0    0  0.50520958215E+02  0.32926132274E+02 -0.25067976542E+02  0.65306208384E+02  0.00000000000E+00 0.  1.
         22    1    3    3    0    0  0.56996135453E+02 -0.10150636291E+03 -0.11650745341E+02  0.11699504705E+03  0.00000000000E+00 0.  1.
</event>
<event>
 7    1  0.5562528E-006  0.4644257E+02  0.7818608E-02  0.1540413E+00
          2   -1    0    0  502    0  0.00000000000E+00  0.00000000000E+00  0.66745463254E+03  0.66745463254E+03  0.00000000000E+00 0. -1.
          1   -1    0    0  501    0 -0.00000000000E+00 -0.00000000000E+00 -0.70791480675E+02  0.70791480675E+02  0.00000000000E+00 0. -1.
         25    2    1    2    0    0  0.69730763222E+02 -0.23603719530E+02  0.48604823172E+03  0.50723709305E+03  0.12500828011E+03 0.  0.
          2    1    1    2  501    0 -0.44202788320E+02  0.12567133635E+02 -0.50054375751E+02  0.67950422184E+02  0.00000000000E+00 0. -1.
          1    1    1    2  502    0 -0.25527974902E+02  0.11036585894E+02  0.16066929590E+03  0.16305859798E+03  0.00000000000E+00 0. -1.
         22    1    3    3    0    0  0.98842372990E+02 -0.53115139478E+01  0.25314009527E+03  0.27180495711E+03  0.00000000000E+00 0. -1.
         22    1    3    3    0    0 -0.29111609769E+02 -0.18292205582E+02  0.23290813645E+03  0.23543213594E+03  0.00000000000E+00 0. -1.
</event>
<event>
 7    1  0.5562528E-006  0.4105394E+02  0.7818608E-02  0.1562881E+00
          2   -1    0    0  502    0  0.00000000000E+00  0.00000000000E+00  0.30916002432E+03  0.30916002432E+03  0.00000000000E+00 0. -1.
          1   -1    0    0  501    0 -0.00000000000E+00 -0.00000000000E+00 -0.14902695410E+04  0.14902695410E+04  0.00000000000E+00 0. -1.
         25    2    1    2    0    0  0.20656889616E+02 -0.41104486469E+02  0.68762080646E+02  0.14990082875E+03  0.12500299528E+03 0.  0.
          2    1    1    2  501    0  0.65796812134E+01  0.40533411025E+02 -0.14484793415E+04  0.14490613004E+04  0.00000000000E+00 0. -1.
          1    1    1    2  502    0 -0.27236570829E+02  0.57107544411E+00  0.19860774417E+03  0.20046743616E+03  0.00000000000E+00 0. -1.
         22    1    3    3    0    0  0.60988337282E+02  0.91649811772E+01  0.96018541749E+01  0.62416101833E+02  0.00000000000E+00 0.  1.
         22    1    3    3    0    0 -0.40331447666E+02 -0.50269467647E+02  0.59160226472E+02  0.87484726921E+02  0.00000000000E+00 0.  1.
</event>
<event>
 7    1  0.5562528E-006  0.2097869E+03  0.7818608E-02  0.1289231E+00
          2   -1    0    0  502    0  0.00000000000E+00  0.00000000000E+00  0.45502231097E+03  0.45502231097E+03  0.00000000000E+00 0. -1.
          1   -1    0    0  501    0 -0.00000000000E+00 -0.00000000000E+00 -0.52024677824E+03  0.52024677824E+03  0.00000000000E+00 0. -1.
         25    2    1    2    0    0  0.14487192236E+03 -0.14284323484E+03 -0.74982951895E+02  0.25027661353E+03  0.12499550623E+03 0.  0.
          2    1    1    2  501    0 -0.11812903209E+03  0.17754448961E+03 -0.32426756207E+03  0.38810561169E+03  0.00000000000E+00 0. -1.
          1    1    1    2  502    0 -0.26742890269E+02 -0.34701254769E+02  0.33402604669E+03  0.33688686399E+03  0.00000000000E+00 0. -1.
         22    1    3    3    0    0  0.30050222638E+02  0.13489452322E+02 -0.42237811950E+02  0.53563177304E+02  0.00000000000E+00 0.  1.
         22    1    3    3    0    0  0.11482169972E+03 -0.15633268716E+03 -0.32745139945E+02  0.19671343623E+03  0.00000000000E+00 0.  1.
</event>
<event>
 7    1  0.5562528E-006  0.1180879E+03  0.7818608E-02  0.1300376E+00
          2   -1    0    0  502    0  0.00000000000E+00  0.00000000000E+00  0.25546065346E+04  0.25546065346E+04  0.00000000000E+00 0. -1.
          1   -1    0    0  501    0 -0.00000000000E+00 -0.00000000000E+00 -0.59552445511E+03  0.59552445511E+03  0.00000000000E+00 0. -1.
         25    2    1    2    0    0  0.10113777845E+03 -0.14974261880E+03  0.28367145725E+02  0.22154376009E+03  0.12500096224E+03 0.  0.
          2    1    1    2  501    0 -0.17046058173E+02  0.68070540594E+02 -0.49504639120E+03  0.49999509601E+03  0.00000000000E+00 0. -1.
          1    1    1    2  502    0 -0.84091720280E+02  0.81672078211E+02  0.24257613250E+04  0.24285921337E+04  0.00000000000E+00 0. -1.
         22    1    3    3    0    0  0.95298889821E+02 -0.86551853031E+02  0.69126399144E+02  0.14612173255E+03  0.00000000000E+00 0. -1.
         22    1    3    3    0    0  0.58388886324E+01 -0.63190765774E+02 -0.40759253419E+02  0.75422027544E+02  0.00000000000E+00 0. -1.
</event>
<event>
 7    1  0.5562528E-006  0.1946433E+03  0.7818608E-02  0.1373257E+00
          2   -1    0    0  502    0  0.00000000000E+00  0.00000000000E+00  0.26476629625E+04  0.26476629625E+04  0.00000000000E+00 0. -1.
          1   -1    0    0  501    0 -0.00000000000E+00 -0.00000000000E+00 -0.39250541200E+03  0.39250541200E+03  0.00000000000E+00 0. -1.
         25    2    1    2    0    0 -0.10311081774E+03 -0.18292379354E+03 -0.45719237763E+02  0.24861356173E+03  0.12500199758E+03 0.  0.
          2    1    1    2  501    0  0.21580213463E+02  0.65861515956E+01 -0.24110581823E+03  0.24215924222E+03  0.00000000000E+00 0. -1.
          1    1    1    2  502    0  0.81530604275E+02  0.17633764194E+03  0.25419826065E+04  0.25493955705E+04  0.00000000000E+00 0. -1.
         22    1    3    3    0    0 -0.21754159991E+02 -0.11179979795E+03 -0.75346277181E+02  0.13656317140E+03  0.00000000000E+00 0. -1.
         22    1    3    3    0    0 -0.81356657747E+02 -0.71123995587E+02  0.29627039418E+02  0.11205039033E+03  0.00000000000E+00 0. -1.
</event>
<event>
 7    1  0.5562528E-006  0.1124486E+03  0.7818608E-02  0.1369097E+00
          2   -1    0    0  502    0  0.00000000000E+00  0.00000000000E+00  0.16394650151E+04  0.16394650151E+04  0.00000000000E+00 0. -1.
          1   -1    0    0  501    0 -0.00000000000E+00 -0.00000000000E+00 -0.44497353580E+02  0.44497353580E+02  0.00000000000E+00 0. -1.
         25    2    1    2    0    0  0.25461648583E+02  0.81930472388E+02  0.21305779001E+03  0.26149125244E+03  0.12499262124E+03 0.  0.
          2    1    1    2  501    0  0.37657220146E+02  0.14690147499E+02  0.49956809205E+01  0.40728656871E+02  0.00000000000E+00 0. -1.
          1    1    1    2  502    0 -0.63118868728E+02 -0.96620619886E+02  0.13769141906E+04  0.13817424594E+04  0.00000000000E+00 0. -1.
         22    1    3    3    0    0 -0.17220158806E+02  0.10268009311E+03  0.14884752718E+03  0.18164614430E+03  0.00000000000E+00 0.  1.
         22    1    3    3    0    0  0.42681807388E+02 -0.20749620721E+02  0.64210262829E+02  0.79845108144E+02  0.00000000000E+00 0.  1.
</event>
<event>
 7    1  0.5562528E-006  0.8784332E+02  0.7818608E-02  0.1412014E+00
          2   -1    0    0  502    0  0.00000000000E+00  0.00000000000E+00  0.17817597860E+04  0.17817597860E+04  0.00000000000E+00 0. -1.
          1   -1    0    0  501    0 -0.00000000000E+00 -0.00000000000E+00 -0.10943235178E+03  0.10943235178E+03  0.00000000000E+00 0. -1.
         25    2    1    2    0    0 -0.43061992277E+01 -0.68042762856E+02  0.23922666628E+03  0.27839282058E+03  0.12499921505E+03 0.  0.
          2    1    1    2  501    0 -0.27922621270E+02  0.85511086181E+02 -0.67054126965E+02  0.11219658899E+03  0.00000000000E+00 0. -1.
          1    1    1    2  502    0  0.32228820498E+02 -0.17468323325E+02  0.15001548949E+04  0.15006027282E+04  0.00000000000E+00 0. -1.
         22    1    3    3    0    0  0.17400091109E+02 -0.20226696853E+02  0.22130348684E+03  0.22290606929E+03  0.00000000000E+00 0. -1.
         22    1    3    3    0    0 -0.21706290337E+02 -0.47816066004E+02  0.17923179438E+02  0.55486751296E+02  0.00000000000E+00 0. -1.
</event>
<event>
 7    1  0.5562528E-006  0.8294095E+02  0.7818608E-02  0.1467371E+00
          2   -1    0    0  502    0  0.00000000000E+00  0.00000000000E+00  0.24924635831E+04  0.24924635831E+04  0.00000000000E+00 0. -1.
          1   -1    0    0  501    0 -0.00000000000E+00 -0.00000000000E+00 -0.10609789364E+02  0.10609789364E+02  0.00000000000E+00 0. -1.
         25    2    1    2    0    0 -0.45735625271E+02  0.91577113620E+02  0.14455252858E+04  0.14545261732E+04  0.12499968558E+03 0.  0.
          2    1    1    2  501    0  0.26076333349E+02 -0.75081162587E+02  0.26192515230E+03  0.27371872706E+03  0.00000000000E+00 0. -1.
          1    1    1    2  502    0  0.19659291922E+02 -0.16495951033E+02  0.77440335564E+03  0.77482847223E+03  0.00000000000E+00 0. -1.
         22    1    3    3    0    0  0.30295445530E+02  0.16550257914E+02  0.75493182940E+03  0.75572071038E+03  0.00000000000E+00 0. -1.
         22    1    3    3    0    0 -0.76031070801E+02  0.75026855706E+02  0.69059345643E+03  0.69880546282E+03  0.00000000000E+00 0. -1.
</event>
<event>
 7    1  0.5562528E-006  0.1462874E+03  0.7818608E-02  0.1282440E+00
          2   -1    0    0  502    0  0.00000000000E+00  0.00000000000E+00  0.12391706757E+04  0.12391706757E+04  0.00000000000E+00 0. -1.
          1   -1    0    0  501    0 -0.00000000000E+00 -0.00000000000E+00 -0.30185423871E+03  0.30185423871E+03  0.00000000000E+00 0. -1.
         25    2    1    2    0    0  0.24663747459E+02 -0.15936838072E+03  0.55766172319E+03  0.59381676380E+03  0.12500068101E+03 0.  0.
          2    1    1    2  501    0  0.39683966449E+02  0.14077118874E+03 -0.26307482628E+03  0.30099785547E+03  0.00000000000E+00 0. -1.
          1    1    1    2  502    0 -0.64347713908E+02  0.18597191974E+02  0.64272954013E+03  0.64621029517E+03  0.00000000000E+00 0. -1.
         22    1    3    3    0    0  0.21006889296E+02  0.15629410011E+02  0.44584793192E+02  0.51704657809E+02  0.00000000000E+00 0.  1.
         22    1    3    3    0    0  0.36568581633E+01 -0.17499779073E+03  0.51307693000E+03  0.54211210599E+03  0.00000000000E+00 0.  1.
</event>
<event>
 7    1  0.5562528E-006  0.7562149E+02  0.7818608E-02  0.1491757E+00
          2   -1    0    0  502    0  0.00000000000E+00  0.00000000000E+00  0.11696193401E+03  0.11696193401E+03  0.00000000000E+00 0. -1.
          1   -1    0    0  501    0 -0.00000000000E+00 -0.00000000000E+00 -0.11025291160E+04  0.11025291160E+04  0.00000000000E+00 0. -1.
         25    2    1    2    0    0  0.90999662289E+02 -0.18073402786E+01 -0.56956960567E+03  0.59018500693E+03  0.12499840673E+03 0.  0.
          2    1    1    2  501    0 -0.17746985372E+02 -0.15693758634E+02 -0.50904601888E+03  0.50959699655E+03  0.00000000000E+00 0. -1.
          1    1    1    2  502    0 -0.73252676917E+02  0.17501098912E+02  0.93048442607E+02  0.11970904648E+03  0.00000000000E+00 0. -1.
         22    1    3    3    0    0  0.16672487480E+02  0.38056840399E+02 -0.38525858667E+03  0.38749254644E+03  0.00000000000E+00 0. -1.
         22    1    3    3    0    0  0.74327174809E+02 -0.39864180677E+02 -0.18431101900E+03  0.20269246049E+03  0.00000000000E+00 0. -1.
</event>
<event>
 7    1  0.5562528E-006  0.7277429E+02  0.7818608E-02  0.1454463E+00
          2   -1    0    0  502    0  0.00000000000E+00  0.00000000000E+00  0.20007434012E+04  0.20007434012E+04  0.00000000000E+00 0. -1.
          1   -1    0    0  501    0 -0.00000000000E+00 -0.00000000000E+00 -0.24855040945E+03  0.24855040945E+03  0.00000000000E+00 0. -1.
         25    2    1    2    0    0  0.69198721680E+02 -0.67242446280E+02  0.25394503861E+03  0.29903526791E+03  0.12499599657E+03 0.  0.
          2    1    1    2  501    0 -0.37536500050E+02  0.61839994072E+02 -0.22006258640E+03  0.23164782675E+03  0.00000000000E+00 0. -1.
          1    1    1    2  502    0 -0.31662221629E+02  0.54024522082E+01  0.17183105396E+04  0.17186107160E+04  0.00000000000E+00 0. -1.
         22    1    3    3    0    0  0.14100218992E+02  0.12638773899E+02  0.16903180097E+03  0.17008910759E+03  0.00000000000E+00 0. -1.
         22    1    3    3    0    0  0.55098502687E+02 -0.79881220179E+02  0.84913237638E+02  0.12894616032E+03  0.00000000000E+00 0. -1.
</event>
<event>
 7    1  0.5562528E-006  0.5874902E+02  0.7818608E-02  0.1453395E+00
          2   -1    0    0  502    0  0.00000000000E+00  0.00000000000E+00  0.14098093313E+04  0.14098093313E+04  0.00000000000E+00 0. -1.
          1   -1    0    0  501    0 -0.00000000000E+00 -0.00000000000E+00 -0.48857499594E+03  0.48857499594E+03  0.00000000000E+00 0. -1.
         25    2    1    2    0    0  0.45446659324E+02 -0.45440211429E+01  0.98012373344E+01  0.13344365746E+03  0.12500039396E+03 0.  0.
          2    1    1    2  501    0  0.16789318139E+01  0.40065352455E+02 -0.42515924567E+03  0.42704617486E+03  0.00000000000E+00 0. -1.
          1    1    1    2  502    0 -0.47125591138E+02 -0.35521331312E+02  0.13365923437E+04  0.13378944949E+04  0.00000000000E+00 0. -1.
         22    1    3    3    0    0 -0.12423349196E+02  0.26710591984E+02 -0.40896236193E+02  0.50401363714E+02  0.00000000000E+00 0. -1.
         22    1    3    3    0    0  0.57870008520E+02 -0.31254613127E+02  0.50697473528E+02  0.83042293742E+02  0.00000000000E+00 0. -1.
</event>
<event>
 7    1  0.5562528E-006  0.7843536E+02  0.7818608E-02  0.1457608E+00
          2   -1    0    0  502    0  0.00000000000E+00  0.00000000000E+00  0.12779281307E+04  0.12779281307E+04  0.00000000000E+00 0. -1.
          1   -1    0    0  501    0 -0.00000000000E+00 -0.00000000000E+00 -0.29154686272E+03  0.29154686272E+03  0.00000000000E+00 0. -1.
         25    2    1    2    0    0  0.65202562635E+02 -0.11415208146E+02  0.28080881205E+03  0.31442190430E+03  0.12500345525E+03 0.  0.
          2    1    1    2  501    0  0.13486434670E+02  0.25814045888E+02 -0.27233059302E+03  0.27388355332E+03  0.00000000000E+00 0. -1.
          1    1    1    2  502    0 -0.78688997305E+02 -0.14398837742E+02  0.97790304895E+03  0.98116953579E+03  0.00000000000E+00 0. -1.
         22    1    3    3    0    0  0.90015344053E+02 -0.39265903429E+02  0.15763308793E+03  0.18572227585E+03  0.00000000000E+00 0.  1.
         22    1    3    3    0    0 -0.24812781418E+02  0.27850695283E+02  0.12317572412E+03  0.12869962845E+03  0.00000000000E+00 0.  1.
</event>
<event>
 7    1  0.5562528E-006  0.1516111E+03  0.7818608E-02  0.1218022E+00
          2   -1    0    0  502    0  0.00000000000E+00  0.00000000000E+00  0.46628401364E+03  0.46628401364E+03  0.00000000000E+00 0. -1.
          1   -1    0    0  501    0 -0.00000000000E+00 -0.00000000000E+00 -0.18094846637E+04  0.18094846637E+04  0.00000000000E+00 0. -1.
         25    2    1    2    0    0  0.33401226589E+02  0.19534865518E+03 -0.57034360985E+03  0.61659768995E+03  0.12499655573E+03 0.  0.
          2    1    1    2  501    0 -0.11088264423E+03 -0.99796865646E+02 -0.12027790142E+04  0.12119949390E+04  0.00000000000E+00 0. -1.
          1    1    1    2  502    0  0.77481417641E+02 -0.95551789532E+02  0.42992197396E+03  0.44717604839E+03  0.00000000000E+00 0. -1.
         22    1    3    3    0    0  0.81720079661E+01  0.41261433700E+02 -0.24102394753E+02  0.48478996050E+02  0.00000000000E+00 0.  1.
         22    1    3    3    0    0  0.25229218623E+02  0.15408722148E+03 -0.54624121509E+03  0.56811869390E+03  0.00000000000E+00 0.  1.
</event>
<event>
 7    1  0.5562528E-006  0.3073006E+02  0.7818608E-02  0.1651073E+00
          2   -1    0    0  502    0  0.00000000000E+00  0.00000000000E+00  0.54418516432E+03  0.54418516432E+03  0.00000000000E+00 0. -1.
          1   -1    0    0  501    0 -0.00000000000E+00 -0.00000000000E+00 -0.76869408296E+02  0.76869408296E+02  0.00000000000E+00 0. -1.
         25    2    1    2    0    0 -0.89711391189E+01  0.37601321174E+01  0.25888871366E+02  0.12804702457E+03  0.12502474519E+03 0.  0.
          2    1    1    2  501    0 -0.16599674784E+02  0.13667280182E+02 -0.20699364517E+02  0.29846397470E+02  0.00000000000E+00 0. -1.
          1    1    1    2  502    0  0.25570813903E+02 -0.17427412300E+02  0.46212624918E+03  0.46316115058E+03  0.00000000000E+00 0. -1.
         22    1    3    3    0    0 -0.37585284791E+01 -0.54881657777E+02  0.39373993563E+02  0.67649347860E+02  0.00000000000E+00 0.  1.
         22    1    3    3    0    0 -0.52126106398E+01  0.58641789895E+02 -0.13485122197E+02  0.60397676714E+02  0.00000000000E+00 0.  1.
</event>
<event>
 7    1  0.5562528E-006  0.7479700E+02  0.7818608E-02  0.1394670E+00
          2   -1    0    0  502    0  0.00000000000E+00  0.00000000000E+00  0.60744628853E+03  0.60744628853E+03  0.00000000000E+00 0. -1.
          1   -1    0    0  501    0 -0.00000000000E+00 -0.00000000000E+00 -0.92492944616E+02  0.92492944616E+02  0.00000000000E+00 0. -1.
         25    2    1    2    0    0 -0.80930893291E+02 -0.42212963822E+02  0.24000945566E+03  0.28558852118E+03  0.12499808326E+03 0.  0.
          2    1    1    2  501    0  0.74247190306E+02 -0.66895816119E+01 -0.47340193561E+02  0.88309057842E+02  0.00000000000E+00 0. -1.
          1    1    1    2  502    0  0.66837029848E+01  0.48902545434E+02  0.32228408181E+03  0.32604165412E+03  0.00000000000E+00 0. -1.
         22    1    3    3    0    0 -0.10396773696E+02  0.40638291685E+02  0.40343984330E+02  0.58199662593E+02  0.00000000000E+00 0.  1.
         22    1    3    3    0    0 -0.70534119596E+02 -0.82851255507E+02  0.19966547133E+03  0.22738885859E+03  0.00000000000E+00 0.  1.
</event>
<event>
 7    1  0.5562528E-006  0.5212880E+02  0.7818608E-02  0.1538397E+00
          2   -1    0    0  502    0  0.00000000000E+00  0.00000000000E+00  0.63087473531E+03  0.63087473531E+03  0.00000000000E+00 0. -1.
          1   -1    0    0  501    0 -0.00000000000E+00 -0.00000000000E+00 -0.11612517162E+04  0.11612517162E+04  0.00000000000E+00 0. -1.
         25    2    1    2    0    0 -0.31837937865E+01 -0.54918772895E+02  0.45437539359E+02  0.14392839287E+03  0.12499841651E+03 0.  0.
          2    1    1    2  501    0  0.24086016606E+02  0.70815800851E+01 -0.11105934170E+04  0.11108771412E+04  0.00000000000E+00 0. -1.
          1    1    1    2  502    0 -0.20902222819E+02  0.47837192810E+02  0.53477889673E+03  0.53732091745E+03  0.00000000000E+00 0. -1.
         22    1    3    3    0    0 -0.38383048346E+02 -0.63238103950E+02 -0.13092325796E+02  0.75124730857E+02  0.00000000000E+00 0. -1.
         22    1    3    3    0    0  0.35199254560E+02  0.83193310546E+01  0.58529865155E+02  0.68803662009E+02  0.00000000000E+00 0. -1.
</event>
<event>
 7    1  0.5562528E-006  0.6530801E+02  0.7818608E-02  0.1493999E+00
          2   -1    0    0  502    0  0.00000000000E+00  0.00000000000E+00  0.11050790780E+04  0.11050790780E+04  0.00000000000E+00 0. -1.
          1   -1    0    0  501    0 -0.00000000000E+00 -0.00000000000E+00 -0.32263035497E+02  0.32263035497E+02  0.00000000000E+00 0. -1.
         25    2    1    2    0    0  0.10429540774E+02 -0.72510131926E+02  0.22013430677E+03  0.26353567375E+03  0.12500177508E+03 0.  0.
          2    1    1    2  501    0  0.21813087592E+02  0.15926582550E+02  0.10292169131E+02  0.28903210330E+02  0.00000000000E+00 0. -1.
          1    1    1    2  502    0 -0.32242628366E+02  0.56583549376E+02  0.84238956658E+03  0.84490322939E+03  0.00000000000E+00 0. -1.
         22    1    3    3    0    0 -0.10721141434E+02 -0.22994380888E+02 -0.99371823781E+01  0.27247605761E+02  0.00000000000E+00 0. -1.
         22    1    3    3    0    0  0.21150682208E+02 -0.49515751038E+02  0.23007148914E+03  0.23628806799E+03  0.00000000000E+00 0. -1.
</event>
<event>
 7    1  0.5562528E-006  0.6317892E+02  0.7818608E-02  0.1385017E+00
          2   -1    0    0  502    0  0.00000000000E+00  0.00000000000E+00  0.38430000401E+02  0.38430000401E+02  0.00000000000E+00 0. -1.
          1   -1    0    0  501    0 -0.00000000000E+00 -0.00000000000E+00 -0.17480248973E+04  0.17480248973E+04  0.00000000000E+00 0. -1.
         25    2    1    2    0    0 -0.39530963014E+02  0.15716669288E+02 -0.10644267063E+04  0.10725783541E+04  0.12494159455E+03 0.  0.
          2    1    1    2  501    0  0.75802338984E+02  0.35974385281E+02 -0.64529703550E+03  0.65072914105E+03  0.00000000000E+00 0. -1.
          1    1    1    2  502    0 -0.36271375970E+02 -0.51691054569E+02  0.12884489860E+00  0.63147402466E+02  0.00000000000E+00 0. -1.
         22    1    3    3    0    0 -0.23999712428E+02  0.70553741745E+02 -0.55796254085E+03  0.56291741282E+03  0.00000000000E+00 0. -1.
         22    1    3    3    0    0 -0.15531250586E+02 -0.54837072457E+02 -0.50646416541E+03  0.50966094131E+03  0.00000000000E+00 0. -1.
</event>
<event>
 7    1  0.5562528E-006  0.6895631E+02  0.7818608E-02  0.1432526E+00
          2   -1    0    0  502    0  0.00000000000E+00  0.00000000000E+00  0.18604623927E+04  0.18604623927E+04  0.00000000000E+00 0. -1.
          1   -1    0    0  501    0 -0.00000000000E+00 -0.00000000000E+00 -0.17325559087E+03  0.17325559087E+03  0.00000000000E+00 0. -1.
         25    2    1    2    0    0  0.55813963080E+01 -0.92361736062E+02  0.16333379872E+03  0.22553258849E+03  0.12500070556E+03 0.  0.
          2    1    1    2  501    0  0.25099410922E+02  0.31022438324E+02 -0.13863476892E+03  0.14426354793E+03  0.00000000000E+00 0. -1.
          1    1    1    2  502    0 -0.30680807230E+02  0.61339297738E+02  0.16625077720E+04  0.16639218472E+04  0.00000000000E+00 0. -1.
         22    1    3    3    0    0  0.57549189335E+02 -0.59577899217E+02  0.50389512890E+02  0.96956373063E+02  0.00000000000E+00 0. -1.
         22    1    3    3    0    0 -0.51967793027E+02 -0.32783836845E+02  0.11294428583E+03  0.12857621542E+03  0.00000000000E+00 0. -1.
</event>
<event>
 7    1  0.5562528E-006  0.6296323E+02  0.7818608E-02  0.1407609E+00
          2   -1    0    0  502    0  0.00000000000E+00  0.00000000000E+00  0.11261956809E+04  0.11261956809E+04  0.00000000000E+00 0. -1.
          1   -1    0    0  501    0 -0.00000000000E+00 -0.00000000000E+00 -0.98218476288E+02  0.98218476288E+02  0.00000000000E+00 0. -1.
         25    2    1    2    0    0 -0.68401615907E+02 -0.33650271466E+02  0.19169603980E+03  0.24121090637E+03  0.12499683136E+03 0.  0.
          2    1    1    2  501    0  0.60539665235E+02 -0.18695837013E+02 -0.58869931570E+02  0.86488462996E+02  0.00000000000E+00 0. -1.
          1    1    1    2  502    0  0.78619506726E+01  0.52346108479E+02  0.89515109640E+03  0.89671478784E+03  0.00000000000E+00 0. -1.
         22    1    3    3    0    0  0.12009180263E+02 -0.52171643465E+02  0.12188871045E+03  0.13312760242E+03  0.00000000000E+00 0.  1.
         22    1    3    3    0    0 -0.80410796170E+02  0.18521371998E+02  0.69807329354E+02  0.10808330395E+03  0.00000000000E+00 0.  1.
</event>
<event>
 7    1  0.5562528E-006  0.7018730E+02  0.7818608E-02  0.1435041E+00
          2   -1    0    0  502    0  0.00000000000E+00  0.00000000000E+00  0.20812583166E+04  0.20812583166E+04  0.00000000000E+00 0. -1.
          1   -1    0    0  501    0 -0.00000000000E+00 -0.00000000000E+00 -0.51866601601E+03  0.51866601601E+03  0.00000000000E+00 0. -1.
         25    2    1    2    0    0 -0.23612422768E+02 -0.55236106424E+02  0.63217045324E+03  0.64720466935E+03  0.12500331243E+03 0.  0.
          2    1    1    2  501    0  0.58469215743E+02  0.38963459236E+02 -0.50847607260E+03  0.51330762389E+03  0.00000000000E+00 0. -1.
          1    1    1    2  502    0 -0.34856792976E+02  0.16272647188E+02  0.14388979199E+04  0.14394120394E+04  0.00000000000E+00 0. -1.
         22    1    3    3    0    0  0.46712098488E+02 -0.43374037363E+02  0.37267829426E+03  0.37809051598E+03  0.00000000000E+00 0.  1.
         22    1    3    3    0    0 -0.70324521256E+02 -0.11862069061E+02  0.25949215898E+03  0.26911415337E+03  0.00000000000E+00 0.  1.
</event>
<event>
 7    1  0.5562528E-006  0.6098090E+02  0.7818608E-02  0.1409547E+00
          2   -1    0    0  502    0  0.00000000000E+00  0.00000000000E+00  0.14623821729E+04  0.14623821729E+04  0.00000000000E+00 0. -1.
          1   -1    0    0  501    0 -0.00000000000E+00 -0.00000000000E+00 -0.18198818133E+03  0.18198818133E+03  0.00000000000E+00 0. -1.
         25    2    1    2    0    0  0.15765083439E+02  0.10224324356E+03  0.59188119273E+03  0.61371902459E+03  0.12500190450E+03 0.  0.
          2    1    1    2  501    0 -0.32667082132E+02 -0.51133656434E+02 -0.16481375465E+03  0.17562847946E+03  0.00000000000E+00 0. -1.
          1    1    1    2  502    0  0.16901998692E+02 -0.51109587125E+02  0.85332655345E+03  0.85502285015E+03  0.00000000000E+00 0. -1.
         22    1    3    3    0    0  0.37738281612E+01  0.11044756447E+03  0.58851990403E+03  0.59880596500E+03  0.00000000000E+00 0. -1.
         22    1    3    3    0    0  0.11991255278E+02 -0.82043209079E+01  0.33612886972E+01  0.14913059592E+02  0.00000000000E+00 0. -1.
</event>
<event>
 7    1  0.5562528E-006  0.5620278E+02  0.7818608E-02  0.1537179E+00
          2   -1    0    0  502    0  0.00000000000E+00  0.00000000000E+00  0.21480454934E+02  0.21480454934E+02  0.00000000000E+00 0. -1.
          1   -1    0    0  501    0 -0.00000000000E+00 -0.00000000000E+00 -0.18964195611E+04  0.18964195611E+04  0.00000000000E+00 0. -1.
         25    2    1    2    0    0  0.13224924347E+02 -0.57284379916E+02 -0.22743532078E+03  0.26610047837E+03  0.12500496247E+03 0.  0.
          2    1    1    2  501    0  0.10165317173E+02  0.55332382465E+02 -0.15652955871E+04  0.15663062540E+04  0.00000000000E+00 0. -1.
          1    1    1    2  502    0 -0.23390241520E+02  0.19519974515E+01 -0.82208198338E+02  0.85493283750E+02  0.00000000000E+00 0. -1.
         22    1    3    3    0    0 -0.49026889899E+02  0.39977093708E+01 -0.63281843185E+02  0.80151165246E+02  0.00000000000E+00 0. -1.
         22    1    3    3    0    0  0.62251814246E+02 -0.61282089287E+02 -0.16415347759E+03  0.18594931312E+03  0.00000000000E+00 0. -1.
</event>
<event>
 7    1  0.5562528E-006  0.7420377E+02  0.7818608E-02  0.1457796E+00
          2   -1    0    0  502    0  0.00000000000E+00  0.00000000000E+00  0.12984023059E+03  0.12984023059E+03  0.00000000000E+00 0. -1.
          1   -1    0    0  501    0 -0.00000000000E+00 -0.00000000000E+00 -0.13882618018E+04  0.13882618018E+04  0.00000000000E+00 0. -1.
         25    2    1    2    0    0 -0.19755894063E+00 -0.48098443070E+02 -0.30486628390E+03  0.33298943159E+03  0.12500004494E+03 0.  0.
          2    1    1    2  501    0  0.14037993068E+02  0.75550198354E+02 -0.10658852179E+04  0.10686515781E+04  0.00000000000E+00 0. -1.
          1    1    1    2  502    0 -0.13840434127E+02 -0.27451755283E+02  0.11232993061E+03  0.11646102264E+03  0.00000000000E+00 0. -1.
         22    1    3    3    0    0 -0.42670076837E+02 -0.30596457765E+02 -0.45170974960E+02  0.69262512688E+02  0.00000000000E+00 0. -1.
         22    1    3    3    0    0  0.42472517896E+02 -0.17501985305E+02 -0.25969530894E+03  0.26372691890E+03  0.00000000000E+00 0. -1.
</event>
<event>
 7    1  0.5562528E-006  0.8495057E+02  0.7818608E-02  0.1422454E+00
          2   -1    0    0  502    0  0.00000000000E+00  0.00000000000E+00  0.44386653009E+03  0.44386653009E+03  0.00000000000E+00 0. -1.
          1   -1    0    0  501    0 -0.00000000000E+00 -0.00000000000E+00 -0.15829259370E+04  0.15829259370E+04  0.00000000000E+00 0. -1.
         25    2    1    2    0    0  0.11243346561E+02 -0.75717842010E+02  0.48746979143E+02  0.15446952486E+03  0.12499984678E+03 0.  0.
          2    1    1    2  501    0  0.23174905546E+02  0.81911168036E+02 -0.15279835342E+04  0.15303529647E+04  0.00000000000E+00 0. -1.
          1    1    1    2  502    0 -0.34418252106E+02 -0.61933260252E+01  0.34017714819E+03  0.34196997751E+03  0.00000000000E+00 0. -1.
         22    1    3    3    0    0 -0.25563278788E+02 -0.85032659078E+02 -0.46924478458E+01  0.88915990682E+02  0.00000000000E+00 0. -1.
         22    1    3    3    0    0  0.36806625348E+02  0.93148170675E+01  0.53439426989E+02  0.65553534180E+02  0.00000000000E+00 0. -1.
</event>
<event>
 7    1  0.5562528E-006  0.8012318E+02  0.7818608E-02  0.1338625E+00
          2   -1    0    0  502    0  0.00000000000E+00  0.00000000000E+00  0.16667836539E+04  0.16667836539E+04  0.00000000000E+00 0. -1.
          1   -1    0    0  501    0 -0.00000000000E+00 -0.00000000000E+00 -0.21117149334E+03  0.21117149334E+03  0.00000000000E+00 0. -1.
         25    2    1    2    0    0  0.19659183492E+01 -0.60521282338E+00  0.35375660743E+03  0.37519785609E+03  0.12500185119E+03 0.  0.
          2    1    1    2  501    0  0.71153400820E+02 -0.36836363536E+02 -0.19108833684E+03  0.20720636236E+03  0.00000000000E+00 0. -1.
          1    1    1    2  502    0 -0.73119319169E+02  0.37441576359E+02  0.12929438900E+04  0.12955509288E+04  0.00000000000E+00 0. -1.
         22    1    3    3    0    0 -0.17542713797E+02 -0.59848869173E+02  0.16434816307E+03  0.17578382363E+03  0.00000000000E+00 0. -1.
         22    1    3    3    0    0  0.19508632146E+02  0.59243656350E+02  0.18940844436E+03  0.19941403246E+03  0.00000000000E+00 0. -1.
</event>
<event>
 7    1  0.5562528E-006  0.1206976E+03  0.7818608E-02  0.1315074E+00
          2   -1    0    0  502    0  0.00000000000E+00  0.00000000000E+00  0.39820035508E+03  0.39820035508E+03  0.00000000000E+00 0. -1.
          1   -1    0    0  501    0 -0.00000000000E+00 -0.00000000000E+00 -0.22471780290E+04  0.22471780290E+04  0.00000000000E+00 0. -1.
         25    2    1    2    0    0  0.50101049397E+01 -0.15737313484E+03 -0.16033263101E+04  0.16158822779E+04  0.12501549688E+03 0.  0.
          2    1    1    2  501    0  0.60734027272E+01  0.98350754058E+02 -0.63142934293E+03  0.63907180516E+03  0.00000000000E+00 0. -1.
          1    1    1    2  502    0 -0.11083507667E+02  0.59022380782E+02  0.38577797919E+03  0.39042430099E+03  0.00000000000E+00 0. -1.
         22    1    3    3    0    0 -0.43312219319E+02 -0.15196822296E+02 -0.54908012506E+03  0.55099534979E+03  0.00000000000E+00 0. -1.
         22    1    3    3    0    0  0.48322324259E+02 -0.14217631254E+03 -0.10542461851E+04  0.10648869281E+04  0.00000000000E+00 0. -1.
</event>
<event>
 7    1  0.5562528E-006  0.3550127E+03  0.7818608E-02  0.1305750E+00
          2   -1    0    0  502    0  0.00000000000E+00  0.00000000000E+00  0.22704309937E+04  0.22704309937E+04  0.00000000000E+00 0. -1.
          1   -1    0    0  501    0 -0.00000000000E+00 -0.00000000000E+00 -0.38819114409E+03  0.38819114409E+03  0.00000000000E+00 0. -1.
         25    2    1    2    0    0  0.32549180370E+03 -0.18645709688E+03  0.10160720758E+03  0.40823893710E+03  0.12499536742E+03 0.  0.
          2    1    1    2  501    0 -0.20169544793E+02  0.93198528693E+01 -0.21885341011E+03  0.21997837464E+03  0.00000000000E+00 0. -1.
          1    1    1    2  502    0 -0.30532225891E+03  0.17713724401E+03  0.19994860522E+04  0.20304048261E+04  0.00000000000E+00 0. -1.
         22    1    3    3    0    0  0.44097064556E+02 -0.15982015862E+02  0.60684425518E+02  0.76697949346E+02  0.00000000000E+00 0. -1.
         22    1    3    3    0    0  0.28139473914E+03 -0.17047508102E+03  0.40922782067E+02  0.33154098775E+03  0.00000000000E+00 0. -1.
</event>
<event>
 7    1  0.5562528E-006  0.7041031E+02  0.7818608E-02  0.1400512E+00
          2   -1    0    0  502    0  0.00000000000E+00  0.00000000000E+00  0.28672014812E+02  0.28672014812E+02  0.00000000000E+00 0. -1.
          1   -1    0    0  501    0 -0.00000000000E+00 -0.00000000000E+00 -0.74215372951E+03  0.74215372951E+03  0.00000000000E+00 0. -1.
         25    2    1    2    0    0 -0.49114704632E+02  0.40809494998E+01 -0.19994255172E+03  0.24088974571E+03  0.12498774836E+03 0.  0.
          2    1    1    2  501    0  0.62278384479E+02  0.44210859725E+02 -0.37327538028E+03  0.38100880149E+03  0.00000000000E+00 0. -1.
          1    1    1    2  502    0 -0.13163679847E+02 -0.48291809224E+02 -0.14026378269E+03  0.14892719712E+03  0.00000000000E+00 0. -1.
         22    1    3    3    0    0 -0.36603575380E+02  0.36550159202E+02 -0.16675980190E+02  0.54349095518E+02  0.00000000000E+00 0. -1.
         22    1    3    3    0    0 -0.12511129252E+02 -0.32469209703E+02 -0.18326657153E+03  0.18654065019E+03  0.00000000000E+00 0. -1.
</event>
<event>
 7    1  0.5562528E-006  0.8576025E+02  0.7818608E-02  0.1450324E+00
          2   -1    0    0  502    0  0.00000000000E+00  0.00000000000E+00  0.62762384704E+03  0.62762384704E+03  0.00000000000E+00 0. -1.
          1   -1    0    0  501    0 -0.00000000000E+00 -0.00000000000E+00 -0.71765849256E+03  0.71765849256E+03  0.00000000000E+00 0. -1.
         25    2    1    2    0    0 -0.81228698187E+02  0.20554738750E+02 -0.54184686807E+03  0.56235560695E+03  0.12500080612E+03 0.  0.
          2    1    1    2  501    0  0.76560894416E+02 -0.48261489311E+02 -0.15283815912E+03  0.17762388575E+03  0.00000000000E+00 0. -1.
          1    1    1    2  502    0  0.46678037717E+01  0.27706750561E+02  0.60465038167E+03  0.60530284691E+03  0.00000000000E+00 0. -1.
         22    1    3    3    0    0 -0.32206077056E+02  0.14392923297E+02 -0.48800916815E+03  0.48928247039E+03  0.00000000000E+00 0.  1.
         22    1    3    3    0    0 -0.49022621131E+02  0.61618154524E+01 -0.53837699928E+02  0.73073136553E+02  0.00000000000E+00 0.  1.
</event>
<event>
 7    1  0.5562528E-006  0.1040296E+03  0.7818608E-02  0.1273423E+00
          2   -1    0    0  502    0  0.00000000000E+00  0.00000000000E+00  0.98264059283E+03  0.98264059283E+03  0.00000000000E+00 0. -1.
          1   -1    0    0  501    0 -0.00000000000E+00 -0.00000000000E+00 -0.46056579995E+03  0.46056579995E+03  0.00000000000E+00 0. -1.
         25    2    1    2    0    0  0.41437295558E+02  0.54527718602E+02  0.24838847815E+03  0.28635945708E+03  0.12495831714E+03 0.  0.
          2    1    1    2  501    0 -0.83707880608E+02  0.59425724884E+02 -0.43033567375E+03  0.44241068947E+03  0.00000000000E+00 0. -1.
          1    1    1    2  502    0  0.42270585050E+02 -0.11395344349E+03  0.70402198849E+03  0.71443624623E+03  0.00000000000E+00 0. -1.
         22    1    3    3    0    0  0.45104656217E+02  0.93170847646E+02  0.17439738950E+03  0.20280455204E+03  0.00000000000E+00 0. -1.
         22    1    3    3    0    0 -0.36673606591E+01 -0.38643129045E+02  0.73991088650E+02  0.83554905039E+02  0.00000000000E+00 0. -1.
</event>
<event>
 7    1  0.5562528E-006  0.2783606E+02  0.7818608E-02  0.1667568E+00
          2   -1    0    0  502    0  0.00000000000E+00  0.00000000000E+00  0.25498544881E+03  0.25498544881E+03  0.00000000000E+00 0. -1.
          1   -1    0    0  501    0 -0.00000000000E+00 -0.00000000000E+00 -0.10074305986E+03  0.10074305986E+03  0.00000000000E+00 0. -1.
         25    2    1    2    0    0  0.63829525339E+01 -0.77999285551E+01  0.10484483213E+03  0.16345274658E+03  0.12499112197E+03 0.  0.
          2    1    1    2  501    0 -0.45692739955E+01 -0.21162154739E+02 -0.67990444994E+02  0.71354156631E+02  0.00000000000E+00 0. -1.
          1    1    1    2  502    0 -0.18136785383E+01  0.28962083294E+02  0.11738800181E+03  0.12092160546E+03  0.00000000000E+00 0. -1.
         22    1    3    3    0    0 -0.27297851490E+02  0.28047728945E+02  0.10728815324E+03  0.11420418390E+03  0.00000000000E+00 0. -1.
         22    1    3    3    0    0  0.33680804024E+02 -0.35847657500E+02 -0.24433211103E+01  0.49248562679E+02  0.00000000000E+00 0. -1.
</event>
<event>
 7    1  0.5562528E-006  0.2242944E+03  0.7818608E-02  0.1290723E+00
          2   -1    0    0  502    0  0.00000000000E+00  0.00000000000E+00  0.36348150075E+03  0.36348150075E+03  0.00000000000E+00 0. -1.
          1   -1    0    0  501    0 -0.00000000000E+00 -0.00000000000E+00 -0.20310104913E+04  0.20310104913E+04  0.00000000000E+00 0. -1.
         25    2    1    2    0    0  0.24694771460E+03  0.52807947757E+02  0.13420698043E+03  0.31210592896E+03  0.12500697663E+03 0.  0.
          2    1    1    2  501    0 -0.21152793786E+03 -0.72256810022E+02 -0.19325699661E+04  0.19454541344E+04  0.00000000000E+00 0. -1.
          1    1    1    2  502    0 -0.35419776740E+02  0.19448862264E+02  0.13083399510E+03  0.13693192872E+03  0.00000000000E+00 0. -1.
         22    1    3    3    0    0 -0.93658436700E+01 -0.93456074119E+01  0.21601053064E+02  0.25331105365E+02  0.00000000000E+00 0. -1.
         22    1    3    3    0    0  0.25631355827E+03  0.62153555169E+02  0.11260592737E+03  0.28677482360E+03  0.00000000000E+00 0. -1.
</event>
<event>
 7    1  0.5562528E-006  0.5849246E+02  0.7818608E-02  0.1452470E+00
          2   -1    0    0  502    0  0.00000000000E+00  0.00000000000E+00  0.27628810289E+03  0.27628810289E+03  0.00000000000E+00 0. -1.
          1   -1    0    0  501    0 -0.00000000000E+00 -0.00000000000E+00 -0.50342377553E+03  0.50342377553E+03  0.00000000000E+00 0. -1.
         25    2    1    2    0    0  0.50840942462E+02  0.50359905779E+02  0.70929797160E+02  0.16055065552E+03  0.12499822127E+03 0.  0.
          2    1    1    2  501    0 -0.10915740321E+02 -0.57453417628E+02 -0.45414764369E+03  0.45789751130E+03  0.00000000000E+00 0. -1.
          1    1    1    2  502    0 -0.39925202141E+02  0.70935118489E+01  0.15608217389E+03  0.16126371161E+03  0.00000000000E+00 0. -1.
         22    1    3    3    0    0  0.14113044634E+02  0.55968089986E+02  0.98581638403E+02  0.11423635391E+03  0.00000000000E+00 0.  1.
         22    1    3    3    0    0  0.36727897827E+02 -0.56081842070E+01 -0.27651841243E+02  0.46314301604E+02  0.00000000000E+00 0.  1.
</event>
<event>
 7    1  0.5562528E-006  0.9542742E+02  0.7818608E-02  0.1441879E+00
          2   -1    0    0  502    0  0.00000000000E+00  0.00000000000E+00  0.18940596199E+04  0.18940596199E+04  0.00000000000E+00 0. -1.
          1   -1    0    0  501    0 -0.00000000000E+00 -0.00000000000E+00 -0.44731411516E+02  0.44731411516E+02  0.00000000000E+00 0. -1.
         25    2    1    2    0    0  0.41042506239E+02  0.10520218987E+03  0.58954573063E+03  0.61314020674E+03  0.12499902618E+03 0.  0.
          2    1    1    2  501    0  0.76180699048E+01 -0.25778955721E+02 -0.25467854127E+02  0.37029733201E+02  0.00000000000E+00 0. -1.
          1    1    1    2  502    0 -0.48660576144E+02 -0.79423234150E+02  0.12852503319E+04  0.12886210914E+04  0.00000000000E+00 0. -1.
         22    1    3    3    0    0  0.65902698398E+02  0.98036832872E+01  0.18116328393E+03  0.19302697559E+03  0.00000000000E+00 0.  1.
         22    1    3    3    0    0 -0.24860192158E+02  0.95398506583E+02  0.40838244670E+03  0.42011323115E+03  0.00000000000E+00 0.  1.
</event>
<event>
 7    1  0.5562528E-006  0.4949954E+02  0.7818608E-02  0.1452589E+00
          2   -1    0    0  502    0  0.00000000000E+00  0.00000000000E+00  0.14924366365E+04  0.14924366365E+04  0.00000000000E+00 0. -1.
          1   -1    0    0  501    0 -0.00000000000E+00 -0.00000000000E+00 -0.13621309723E+03  0.13621309723E+03  0.00000000000E+00 0. -1.
         25    2    1    2    0    0 -0.11039819483E+01  0.54851620959E+02 -0.26029557154E+02  0.13895920295E+03  0.12498881206E+03 0.  0.
          2    1    1    2  501    0  0.40773063887E+02 -0.25093185653E+02 -0.42533802963E+02  0.64040886155E+02  0.00000000000E+00 0. -1.
          1    1    1    2  502    0 -0.39669081939E+02 -0.29758435306E+02  0.14247868994E+04  0.14256496446E+04  0.00000000000E+00 0. -1.
         22    1    3    3    0    0 -0.25382254383E+02 -0.28144718132E+02 -0.35548683448E+02  0.51962418065E+02  0.00000000000E+00 0.  1.
         22    1    3    3    0    0  0.24278272435E+02  0.82996339091E+02  0.95191262937E+01  0.86996784885E+02  0.00000000000E+00 0.  1.
</event>
<event>
 7    1  0.5562528E-006  0.1277126E+03  0.7818608E-02  0.1233978E+00
          2   -1    0    0  502    0  0.00000000000E+00  0.00000000000E+00  0.52993986409E+03  0.52993986409E+03  0.00000000000E+00 0. -1.
          1   -1    0    0  501    0 -0.00000000000E+00 -0.00000000000E+00 -0.67558719715E+03  0.67558719715E+03  0.00000000000E+00 0. -1.
         25    2    1    2    0    0  0.42114300226E+02  0.89511498174E+02 -0.16802677799E+03  0.23161238076E+03  0.12500149683E+03 0.  0.
          2    1    1    2  501    0 -0.14948389060E+03 -0.28042339133E+02 -0.45553073290E+03  0.48024999214E+03  0.00000000000E+00 0. -1.
          1    1    1    2  502    0  0.10736959037E+03 -0.61469159041E+02  0.47791017783E+03  0.49366468835E+03  0.00000000000E+00 0. -1.
         22    1    3    3    0    0 -0.28657647529E+02  0.75831479148E+02 -0.56475345616E+02  0.98798474959E+02  0.00000000000E+00 0. -1.
         22    1    3    3    0    0  0.70771947756E+02  0.13680019026E+02 -0.11155143237E+03  0.13281390580E+03  0.00000000000E+00 0. -1.
</event>
<event>
 7    1  0.5562528E-006  0.7971757E+02  0.7818608E-02  0.1379287E+00
          2   -1    0    0  502    0  0.00000000000E+00  0.00000000000E+00  0.23839200780E+04  0.23839200780E+04  0.00000000000E+00 0. -1.
          1   -1    0    0  501    0 -0.00000000000E+00 -0.00000000000E+00 -0.64461073395E+02  0.64461073395E+02  0.00000000000E+00 0. -1.
         25    2    1    2    0    0 -0.12473713859E+03  0.31866283974E+02  0.55391943431E+03  0.58225998898E+03  0.12500056502E+03 0.  0.
          2    1    1    2  501    0  0.51960488891E+02 -0.70230370087E+01 -0.35577091096E+02  0.63363592586E+02  0.00000000000E+00 0. -1.
          1    1    1    2  502    0  0.72776649704E+02 -0.24843246965E+02  0.18011166614E+04  0.18027575698E+04  0.00000000000E+00 0. -1.
         22    1    3    3    0    0 -0.15024777620E+03  0.32931014912E+02  0.46817988226E+03  0.49279939950E+03  0.00000000000E+00 0. -1.
         22    1    3    3    0    0  0.25510637605E+02 -0.10647309382E+01  0.85739552054E+02  0.89460589476E+02  0.00000000000E+00 0. -1.
</event>
<event>
 7    1  0.5562528E-006  0.9567579E+02  0.7818608E-02  0.1367539E+00
          2   -1    0    0  502    0  0.00000000000E+00  0.00000000000E+00  0.19384356840E+04  0.19384356840E+04  0.00000000000E+00 0. -1.
          1   -1    0    0  501    0 -0.00000000000E+00 -0.00000000000E+00 -0.92885828200E+03  0.92885828200E+03  0.00000000000E+00 0. -1.
         25    2    1    2    0    0 -0.54148104634E+02 -0.10116319776E+03  0.17801859739E+02  0.17058515258E+03  0.12496550827E+03 0.  0.
          2    1    1    2  501    0  0.75671489511E+02  0.58118671932E+02 -0.84948134738E+03  0.85482308924E+03  0.00000000000E+00 0. -1.
          1    1    1    2  502    0 -0.21523384877E+02  0.43044525823E+02  0.18412568896E+04  0.18418857242E+04  0.00000000000E+00 0. -1.
         22    1    3    3    0    0  0.95181697186E+01 -0.72470496561E+02  0.54989037707E+02  0.91467823274E+02  0.00000000000E+00 0. -1.
         22    1    3    3    0    0 -0.63666274352E+02 -0.28692701194E+02 -0.37187177968E+02  0.79117329309E+02  0.00000000000E+00 0. -1.
</event>
<event>
 7    1  0.5562528E-006  0.1035799E+03  0.7818608E-02  0.1416738E+00
          2   -1    0    0  502    0  0.00000000000E+00  0.00000000000E+00  0.80327159898E+02  0.80327159898E+02  0.00000000000E+00 0. -1.
          1   -1    0    0  501    0 -0.00000000000E+00 -0.00000000000E+00 -0.80122522800E+03  0.80122522800E+03  0.00000000000E+00 0. -1.
         25    2    1    2    0    0 -0.26163295965E+02  0.94775104720E+02 -0.59020233786E+03  0.61125327069E+03  0.12499969114E+03 0.  0.
          2    1    1    2  501    0  0.28463725200E+02  0.93847773288E+01 -0.15943109380E+03  0.16222370779E+03  0.00000000000E+00 0. -1.
          1    1    1    2  502    0 -0.23004292353E+01 -0.10415988205E+03  0.28735363555E+02  0.10807540942E+03  0.00000000000E+00 0. -1.
         22    1    3    3    0    0 -0.65644268412E+02  0.14303470526E+02 -0.20370772038E+03  0.21450080323E+03  0.00000000000E+00 0.  1.
         22    1    3    3    0    0  0.39480972447E+02  0.80471634195E+02 -0.38649461748E+03  0.39675246746E+03  0.00000000000E+00 0.  1.
</event>
<event>
 7    1  0.5562528E-006  0.1082739E+03  0.7818608E-02  0.1407523E+00
          2   -1    0    0  502    0  0.00000000000E+00  0.00000000000E+00  0.23042360663E+03  0.23042360663E+03  0.00000000000E+00 0. -1.
          1   -1    0    0  501    0 -0.00000000000E+00 -0.00000000000E+00 -0.23567775073E+04  0.23567775073E+04  0.00000000000E+00 0. -1.
         25    2    1    2    0    0 -0.68550126133E+02 -0.37887255918E+02  0.20169506951E+03  0.24988057224E+03  0.12499934147E+03 0.  0.
          2    1    1    2  501    0  0.91027012515E+02  0.58948573249E+02 -0.22602762435E+04  0.22628763882E+04  0.00000000000E+00 0. -1.
          1    1    1    2  502    0 -0.22476886383E+02 -0.21061317331E+02 -0.67772726648E+02  0.74444153474E+02  0.00000000000E+00 0. -1.
         22    1    3    3    0    0 -0.78852777308E+02 -0.32906813182E+02  0.52577434479E+02  0.10032450079E+03  0.00000000000E+00 0. -1.
         22    1    3    3    0    0  0.10302651176E+02 -0.49804427358E+01  0.14911763503E+03  0.14955607145E+03  0.00000000000E+00 0. -1.
</event>
<event>
 7    1  0.5562528E-006  0.5367001E+02  0.7818608E-02  0.1528439E+00
          2   -1    0    0  502    0  0.00000000000E+00  0.00000000000E+00  0.25393812649E+04  0.25393812649E+04  0.00000000000E+00 0. -1.
          1   -1    0    0  501    0 -0.00000000000E+00 -0.00000000000E+00 -0.64117170919E+03  0.64117170919E+03  0.00000000000E+00 0. -1.
         25    2    1    2    0    0 -0.48531610228E+02 -0.54204790701E+02 -0.50154605738E+02  0.15308177633E+03  0.12500027696E+03 0.  0.
          2    1    1    2  501    0  0.25368554404E+02  0.58415598911E+01 -0.53895036022E+03  0.53957870432E+03  0.00000000000E+00 0. -1.
          1    1    1    2  502    0  0.23163055825E+02  0.48363230810E+02  0.24873145217E+04  0.24878924934E+04  0.00000000000E+00 0. -1.
         22    1    3    3    0    0 -0.24976431255E+02 -0.12397845963E+02  0.41282838068E+02  0.49817681818E+02  0.00000000000E+00 0.  1.
         22    1    3    3    0    0 -0.23555178973E+02 -0.41806944738E+02 -0.91437443806E+02  0.10326409451E+03  0.00000000000E+00 0.  1.
</event>
<event>
 7    1  0.5562528E-006  0.5170553E+02  0.7818608E-02  0.1449962E+00
          2   -1    0    0  502    0  0.00000000000E+00  0.00000000000E+00  0.40276652387E+03  0.40276652387E+03  0.00000000000E+00 0. -1.
          1   -1    0    0  501    0 -0.00000000000E+00 -0.00000000000E+00 -0.76547966452E+02  0.76547966452E+02  0.00000000000E+00 0. -1.
         25    2    1    2    0    0  0.33724165261E+02 -0.87094280632E+02  0.10027620801E+03  0.18546924104E+03  0.12498315261E+03 0.  0.
          2    1    1    2  501    0 -0.58080987658E+01  0.46364864319E+02 -0.14075242230E+02  0.48801097308E+02  0.00000000000E+00 0. -1.
          1    1    1    2  502    0 -0.27916066495E+02  0.40729416313E+02  0.24001759164E+03  0.24504415198E+03  0.00000000000E+00 0. -1.
         22    1    3    3    0    0  0.49303536022E+02 -0.50626915632E+02 -0.70814762884E+01  0.71021620350E+02  0.00000000000E+00 0.  1.
         22    1    3    3    0    0 -0.15579370761E+02 -0.36467365000E+02  0.10735768430E+03  0.11444762069E+03  0.00000000000E+00 0.  1.
</event>
<event>
 7    1  0.5562528E-006  0.3438753E+02  0.7818608E-02  0.1566173E+00
          2   -1    0    0  502    0  0.00000000000E+00  0.00000000000E+00  0.27988838544E+03  0.27988838544E+03  0.00000000000E+00 0. -1.
          1   -1    0    0  501    0 -0.00000000000E+00 -0.00000000000E+00 -0.18027921489E+03  0.18027921489E+03  0.00000000000E+00 0. -1.
         25    2    1    2    0    0 -0.31068865693E+02 -0.68968898573E+01 -0.12270485641E+03  0.17802704369E+03  0.12499721994E+03 0.  0.
          2    1    1    2  501    0  0.19105732939E+02 -0.25490833286E+02 -0.19845499022E+02  0.37532058886E+02  0.00000000000E+00 0. -1.
          1    1    1    2  502    0  0.11963132754E+02  0.32387723144E+02  0.24215952598E+03  0.24460849776E+03  0.00000000000E+00 0. -1.
         22    1    3    3    0    0 -0.11290723824E+02  0.44511388805E+02 -0.27183095442E+01  0.46001449810E+02  0.00000000000E+00 0.  1.
         22    1    3    3    0    0 -0.19778141869E+02 -0.51408278662E+02 -0.11998654686E+03  0.13202559388E+03  0.00000000000E+00 0.  1.
</event>
<event>
 7    1  0.5562528E-006  0.4749843E+02  0.7818608E-02  0.1468822E+00
          2   -1    0    0  502    0  0.00000000000E+00  0.00000000000E+00  0.12996326766E+04  0.12996326766E+04  0.00000000000E+00 0. -1.
          1   -1    0    0  501    0 -0.00000000000E+00 -0.00000000000E+00 -0.12511442900E+04  0.12511442900E+04  0.00000000000E+00 0. -1.
         25    2    1    2    0    0 -0.87482719660E+02  0.97117873741E+01  0.22434708619E+03  0.27148300461E+03  0.12499544654E+03 0.  0.
          2    1    1    2  501    0  0.41273475187E+02 -0.16225640500E+02 -0.12266577659E+04  0.12274591829E+04  0.00000000000E+00 0. -1.
          1    1    1    2  502    0  0.46209244473E+02  0.65138531259E+01  0.10507990663E+04  0.10518347790E+04  0.00000000000E+00 0. -1.
         22    1    3    3    0    0 -0.11069197025E+03 -0.22003052132E+02  0.17742233805E+03  0.21027489774E+03  0.00000000000E+00 0. -1.
         22    1    3    3    0    0  0.23209250593E+02  0.31714839506E+02  0.46924748144E+02  0.61208106868E+02  0.00000000000E+00 0. -1.
</event>
<event>
 7    1  0.5562528E-006  0.6792190E+02  0.7818608E-02  0.1422817E+00
          2   -1    0    0  502    0  0.00000000000E+00  0.00000000000E+00  0.25777207182E+04  0.25777207182E+04  0.00000000000E+00 0. -1.
          1   -1    0    0  501    0 -0.00000000000E+00 -0.00000000000E+00 -0.78505590853E+02  0.78505590853E+02  0.00000000000E+00 0. -1.
         25    2    1    2    0    0 -0.10532727882E+03 -0.30846501277E+02  0.40003927031E+03  0.43324581607E+03  0.12500070820E+03 0.  0.
          2    1    1    2  501    0  0.63294954963E+02  0.19196425725E+02 -0.43948881563E+02  0.79411952973E+02  0.00000000000E+00 0. -1.
          1    1    1    2  502    0  0.42032323855E+02  0.11650075552E+02  0.21431247386E+04  0.21435685401E+04  0.00000000000E+00 0. -1.
         22    1    3    3    0    0 -0.84316373675E+02  0.37040147042E+02  0.26668581443E+03  0.28213923332E+03  0.00000000000E+00 0. -1.
         22    1    3    3    0    0 -0.21010905143E+02 -0.67886648319E+02  0.13335345588E+03  0.15110658275E+03  0.00000000000E+00 0. -1.
</event>
<event>
 7    1  0.5562528E-006  0.9476603E+02  0.7818608E-02  0.1318024E+00
          2   -1    0    0  502    0  0.00000000000E+00  0.00000000000E+00  0.29166808868E+03  0.29166808868E+03  0.00000000000E+00 0. -1.
          1   -1    0    0  501    0 -0.00000000000E+00 -0.00000000000E+00 -0.44788987087E+03  0.44788987087E+03  0.00000000000E+00 0. -1.
         25    2    1    2    0    0  0.11161942323E+03 -0.11327498053E+02 -0.63077101639E+02  0.17941554386E+03  0.12499603503E+03 0.  0.
          2    1    1    2  501    0 -0.78093728804E+02 -0.55188323716E+02 -0.31338340272E+03  0.32764849862E+03  0.00000000000E+00 0. -1.
          1    1    1    2  502    0 -0.33525694425E+02  0.66515821769E+02  0.22023872216E+03  0.23249391707E+03  0.00000000000E+00 0. -1.
         22    1    3    3    0    0  0.86666085543E+02  0.17377732234E+02  0.17687116085E+02  0.90143385982E+02  0.00000000000E+00 0. -1.
         22    1    3    3    0    0  0.24953337686E+02 -0.28705230286E+02 -0.80764217725E+02  0.89272157878E+02  0.00000000000E+00 0. -1.
</event>
<event>
 7    1  0.5562528E-006  0.7097717E+02  0.7818608E-02  0.1375031E+00
          2   -1    0    0  502    0  0.00000000000E+00  0.00000000000E+00  0.17051363792E+04  0.17051363792E+04  0.00000000000E+00 0. -1.
          1   -1    0    0  501    0 -0.00000000000E+00 -0.00000000000E+00 -0.27238842219E+03  0.27238842219E+03  0.00000000000E+00 0. -1.
         25    2    1    2    0    0 -0.17617104133E+02  0.11519453784E+03  0.16316758737E+03  0.23628475705E+03  0.12500672358E+03 0.  0.
          2    1    1    2  501    0 -0.19953442802E+02 -0.67164841555E+02 -0.22999223817E+03  0.24042812947E+03  0.00000000000E+00 0. -1.
          1    1    1    2  502    0  0.37570546935E+02 -0.48029696282E+02  0.14995726078E+04  0.15008119149E+04  0.00000000000E+00 0. -1.
         22    1    3    3    0    0  0.37358108849E+02 -0.55241385613E+01  0.28993862548E+02  0.47610802021E+02  0.00000000000E+00 0. -1.
         22    1    3    3    0    0 -0.54975212983E+02  0.12071867640E+03  0.13417372482E+03  0.18867395503E+03  0.00000000000E+00 0. -1.
</event>
<event>
 7    1  0.5562528E-006  0.8754388E+02  0.7818608E-02  0.1375298E+00
          2   -1    0    0  502    0  0.00000000000E+00  0.00000000000E+00  0.38307493689E+02  0.38307493689E+02  0.00000000000E+00 0. -1.
          1   -1    0    0  501    0 -0.00000000000E+00 -0.00000000000E+00 -0.73391539029E+03  0.73391539029E+03  0.00000000000E+00 0. -1.
         25    2    1    2    0    0 -0.47954383289E+02  0.15493102110E+02 -0.40913494396E+03  0.43076248993E+03  0.12500104507E+03 0.  0.
          2    1    1    2  501    0 -0.48101594538E+02 -0.10943879300E+02 -0.21774091652E+03  0.22325912885E+03  0.00000000000E+00 0. -1.
          1    1    1    2  502    0  0.96055977828E+02 -0.45492228098E+01 -0.68732036124E+02  0.11820126520E+03  0.00000000000E+00 0. -1.
         22    1    3    3    0    0 -0.85015705149E+02  0.88962233060E+01 -0.35280071287E+03  0.36300847911E+03  0.00000000000E+00 0. -1.
         22    1    3    3    0    0  0.37061321860E+02  0.65968788037E+01 -0.56334231095E+02  0.67754010811E+02  0.00000000000E+00 0. -1.
</event>
<event>
 7    1  0.5562528E-006  0.9646881E+02  0.7818608E-02  0.1440612E+00
          2   -1    0    0  502    0  0.00000000000E+00  0.00000000000E+00  0.13492476261E+04  0.13492476261E+04  0.00000000000E+00 0. -1.
          1   -1    0    0  501    0 -0.00000000000E+00 -0.00000000000E+00 -0.11904598305E+03  0.11904598305E+03  0.00000000000E+00 0. -1.
         25    2    1    2    0    0  0.51624513518E+02  0.70331866294E+02  0.22896987730E+02  0.15414711892E+03  0.12500160164E+03 0.  0.
          2    1    1    2  501    0 -0.17563577647E+02  0.20299916036E+02 -0.48062812459E+02  0.55050883666E+02  0.00000000000E+00 0. -1.
          1    1    1    2  502    0 -0.34060935871E+02 -0.90631782330E+02  0.12553674678E+04  0.12590956066E+04  0.00000000000E+00 0. -1.
         22    1    3    3    0    0  0.83554528130E+02  0.23969154154E+02 -0.12247668132E+02  0.87783169779E+02  0.00000000000E+00 0.  1.
         22    1    3    3    0    0 -0.31930014611E+02  0.46362712140E+02  0.35144655862E+02  0.66363949142E+02  0.00000000000E+00 0.  1.
</event>
<event>
 7    1  0.5562528E-006  0.8658384E+02  0.7818608E-02  0.1376202E+00
          2   -1    0    0  502    0  0.00000000000E+00  0.00000000000E+00  0.23836795510E+03  0.23836795510E+03  0.00000000000E+00 0. -1.
          1   -1    0    0  501    0 -0.00000000000E+00 -0.00000000000E+00 -0.65349267188E+03  0.65349267188E+03  0.00000000000E+00 0. -1.
         25    2    1    2    0    0  0.10186424293E+03 -0.62973203002E+02 -0.44330933534E+03  0.47591016870E+03  0.12500149437E+03 0.  0.
          2    1    1    2  501    0 -0.54584198363E+02  0.48284636764E+02 -0.18408417907E+03  0.19798440808E+03  0.00000000000E+00 0. -1.
          1    1    1    2  502    0 -0.47280044564E+02  0.14688566238E+02  0.21226879763E+03  0.21796605020E+03  0.00000000000E+00 0. -1.
         22    1    3    3    0    0 -0.11167606108E+02 -0.56580676154E+02 -0.11542775147E+03  0.12903353886E+03  0.00000000000E+00 0. -1.
         22    1    3    3    0    0  0.11303184904E+03 -0.63925268484E+01 -0.32788158386E+03  0.34687662985E+03  0.00000000000E+00 0. -1.
</event>
<event>
 7    1  0.5562528E-006  0.5999993E+02  0.7818608E-02  0.1410745E+00
          2   -1    0    0  502    0  0.00000000000E+00  0.00000000000E+00  0.74774207791E+03  0.74774207791E+03  0.00000000000E+00 0. -1.
          1   -1    0    0  501    0 -0.00000000000E+00 -0.00000000000E+00 -0.14438433243E+04  0.14438433243E+04  0.00000000000E+00 0. -1.
         25    2    1    2    0    0 -0.28511469782E+02  0.10706425000E+03 -0.17588369216E+03  0.24253422642E+03  0.12494847049E+03 0.  0.
          2    1    1    2  501    0  0.26019794699E+02 -0.52918261433E+02 -0.12329005224E+04  0.12343099571E+04  0.00000000000E+00 0. -1.
          1    1    1    2  502    0  0.24916750836E+01 -0.54145988565E+02  0.71268296818E+03  0.71474121866E+03  0.00000000000E+00 0. -1.
         22    1    3    3    0    0  0.43368361262E+01  0.59253064346E+01 -0.12399169299E+03  0.12420892615E+03  0.00000000000E+00 0.  1.
         22    1    3    3    0    0 -0.32848305908E+02  0.10113894356E+03 -0.51891999171E+02  0.11832530027E+03  0.00000000000E+00 0.  1.
</event>
<event>
 7    1  0.5562528E-006  0.6472567E+02  0.7818608E-02  0.1428367E+00
          2   -1    0    0  502    0  0.00000000000E+00  0.00000000000E+00  0.19182311282E+04  0.19182311282E+04  0.00000000000E+00 0. -1.
          1   -1    0    0  501    0 -0.00000000000E+00 -0.00000000000E+00 -0.14856024776E+02  0.14856024776E+02  0.00000000000E+00 0. -1.
         25    2    1    2    0    0  0.93044473092E+02  0.43341528280E+02  0.94495241742E+03  0.95869534563E+03  0.12500372994E+03 0.  0.
          2    1    1    2  501    0 -0.37162841192E+02 -0.23319521572E+02  0.61710365386E+02  0.75716880865E+02  0.00000000000E+00 0. -1.
          1    1    1    2  502    0 -0.55881631900E+02 -0.20022006708E+02  0.89671232063E+03  0.89867492650E+03  0.00000000000E+00 0. -1.
         22    1    3    3    0    0  0.85052837719E+02  0.15258433384E+01  0.28634788572E+03  0.29871629527E+03  0.00000000000E+00 0. -1.
         22    1    3    3    0    0  0.79916353737E+01  0.41815684942E+02  0.65860453170E+03  0.65997905036E+03  0.00000000000E+00 0. -1.
</event>
<event>
 7    1  0.5562528E-006  0.2144828E+03  0.7818608E-02  0.1293744E+00
          2   -1    0    0  502    0  0.00000000000E+00  0.00000000000E+00  0.16711252831E+04  0.16711252831E+04  0.00000000000E+00 0. -1.
          1   -1    0    0  501    0 -0.00000000000E+00 -0.00000000000E+00 -0.15056309856E+04  0.15056309856E+04  0.00000000000E+00 0. -1.
         25    2    1    2    0    0  0.18858117268E+03  0.69267902164E+02  0.49545671345E+03  0.54905604840E+03  0.12499715368E+03 0.  0.
          2    1    1    2  501    0  0.28529016538E+02 -0.29560786767E+02 -0.14679409731E+04  0.14685157286E+04  0.00000000000E+00 0. -1.
          1    1    1    2  502    0 -0.21711018922E+03 -0.39707115396E+02  0.11379785571E+04  0.11591844917E+04  0.00000000000E+00 0. -1.
         22    1    3    3    0    0  0.15255220979E+03  0.76225886480E+02  0.47971788699E+03  0.50912848435E+03  0.00000000000E+00 0.  1.
         22    1    3    3    0    0  0.36028962893E+02 -0.69579843159E+01  0.15738826461E+02  0.39927564054E+02  0.00000000000E+00 0.  1.
</event>
<event>
 7    1  0.5562528E-006  0.1461990E+03  0.7818608E-02  0.1258023E+00
          2   -1    0    0  502    0  0.00000000000E+00  0.00000000000E+00  0.71145970857E+03  0.71145970857E+03  0.00000000000E+00 0. -1.
          1   -1    0    0  501    0 -0.00000000000E+00 -0.00000000000E+00 -0.11016563322E+04  0.11016563322E+04  0.00000000000E+00 0. -1.
         25    2    1    2    0    0  0.14372842167E+03 -0.14082812037E+02  0.14222508902E+03  0.23813699377E+03  0.12500026825E+03 0.  0.
          2    1    1    2  501    0 -0.12937957810E+03 -0.69559005003E+02 -0.10450756063E+04  0.10553485459E+04  0.00000000000E+00 0. -1.
          1    1    1    2  502    0 -0.14348843573E+02  0.83641817040E+02  0.51265389373E+03  0.51963050105E+03  0.00000000000E+00 0. -1.
         22    1    3    3    0    0  0.21878438084E+02 -0.21741997226E+02  0.10657416175E+03  0.11094788168E+03  0.00000000000E+00 0.  1.
         22    1    3    3    0    0  0.12184998359E+03  0.76591851893E+01  0.35650927263E+02  0.12718911208E+03  0.00000000000E+00 0.  1.
</event>
<event>
 7    1  0.5562528E-006  0.6811247E+02  0.7818608E-02  0.1470210E+00
          2   -1    0    0  502    0  0.00000000000E+00  0.00000000000E+00  0.66113137765E+03  0.66113137765E+03  0.00000000000E+00 0. -1.
          1   -1    0    0  501    0 -0.00000000000E+00 -0.00000000000E+00 -0.13041876761E+03  0.13041876761E+03  0.00000000000E+00 0. -1.
         25    2    1    2    0    0 -0.30283286116E+02  0.82119550868E+02  0.21520593198E+03  0.26381694811E+03  0.12500036359E+03 0.  0.
          2    1    1    2  501    0 -0.96006881460E+01 -0.29076202038E+02 -0.10122260036E+03  0.10575260546E+03  0.00000000000E+00 0. -1.
          1    1    1    2  502    0  0.39883974262E+02 -0.53043348830E+02  0.41672927842E+03  0.42198059168E+03  0.00000000000E+00 0. -1.
         22    1    3    3    0    0 -0.72692795440E+02  0.75739144310E+02  0.12025981406E+03  0.15963421741E+03  0.00000000000E+00 0. -1.
         22    1    3    3    0    0  0.42409509323E+02  0.63804065584E+01  0.94946117919E+02  0.10418273070E+03  0.00000000000E+00 0. -1.
</event>
<event>
 7    1  0.5562528E-006  0.6181773E+02  0.7818608E-02  0.1424984E+00
          2   -1    0    0  502    0  0.00000000000E+00  0.00000000000E+00  0.11248691635E+03  0.11248691635E+03  0.00000000000E+00 0. -1.
          1   -1    0    0  501    0 -0.00000000000E+00 -0.00000000000E+00 -0.73755184623E+03  0.73755184623E+03  0.00000000000E+00 0. -1.
         25    2    1    2    0    0  0.42552416794E+02 -0.49162621078E+02 -0.30225207481E+03  0.33347981626E+03  0.12499919857E+03 0.  0.
          2    1    1    2  501    0 -0.63341811685E+02  0.68586275627E+01 -0.41135072305E+03  0.41625550235E+03  0.00000000000E+00 0. -1.
          1    1    1    2  502    0  0.20789394891E+02  0.42303993515E+02  0.88537867971E+02  0.10030344397E+03  0.00000000000E+00 0. -1.
         22    1    3    3    0    0  0.59753180099E+02 -0.29277357391E+02 -0.59362263703E+02  0.89171096997E+02  0.00000000000E+00 0.  1.
         22    1    3    3    0    0 -0.17200763305E+02 -0.19885263687E+02 -0.24288981111E+03  0.24430871927E+03  0.00000000000E+00 0.  1.
</event>
<event>
 7    1  0.5562528E-006  0.2155052E+03  0.7818608E-02  0.1322781E+00
          2   -1    0    0  502    0  0.00000000000E+00  0.00000000000E+00  0.18693238815E+03  0.18693238815E+03  0.00000000000E+00 0. -1.
          1   -1    0    0  501    0 -0.00000000000E+00 -0.00000000000E+00 -0.19834465062E+04  0.19834465062E+04  0.00000000000E+00 0. -1.
         25    2    1    2    0    0  0.22310165747E+03  0.41378329714E+02 -0.18523227663E+03  0.31846849188E+03  0.12499867313E+03 0.  0.
          2    1    1    2  501    0 -0.21368671895E+02  0.22997600130E+02 -0.16381555310E+04  0.16384563020E+04  0.00000000000E+00 0. -1.
          1    1    1    2  502    0 -0.20173298557E+03 -0.64375929845E+02  0.26873689600E+02  0.21345410046E+03  0.00000000000E+00 0. -1.
         22    1    3    3    0    0  0.10666010183E+02  0.13299317262E+02  0.16819210627E+02  0.23948308060E+02  0.00000000000E+00 0. -1.
         22    1    3    3    0    0  0.21243564729E+03  0.28079012453E+02 -0.20205148725E+03  0.29452018382E+03  0.00000000000E+00 0. -1.
</event>
<event>
 7    1  0.5562528E-006  0.1263635E+03  0.7818608E-02  0.1339707E+00
          2   -1    0    0  502    0  0.00000000000E+00  0.00000000000E+00  0.38153961591E+04  0.38153961591E+04  0.00000000000E+00 0. -1.
          1   -1    0    0  501    0 -0.00000000000E+00 -0.00000000000E+00 -0.64868304699E+03  0.64868304699E+03  0.00000000000E+00 0. -1.
         25    2    1    2    0    0 -0.76550509705E+02  0.26546246270E+02  0.95778783670E+03  0.96930275149E+03  0.12500240073E+03 0.  0.
          2    1    1    2  501    0  0.12219355215E+03 -0.33332602396E+02 -0.63649868314E+03  0.64897835111E+03  0.00000000000E+00 0. -1.
          1    1    1    2  502    0 -0.45643042448E+02  0.67863561268E+01  0.28454239585E+04  0.28457981035E+04  0.00000000000E+00 0. -1.
         22    1    3    3    0    0  0.31519140139E+02 -0.52116769065E+01  0.32514183725E+03  0.32670756358E+03  0.00000000000E+00 0. -1.
         22    1    3    3    0    0 -0.10806964984E+03  0.31757923176E+02  0.63264599945E+03  0.64259518791E+03  0.00000000000E+00 0. -1.
</event>
<event>
 7    1  0.5562528E-006  0.1501492E+03  0.7818608E-02  0.1339235E+00
          2   -1    0    0  502    0  0.00000000000E+00  0.00000000000E+00  0.20625423191E+04  0.20625423191E+04  0.00000000000E+00 0. -1.
          1   -1    0    0  501    0 -0.00000000000E+00 -0.00000000000E+00 -0.16172766737E+03  0.16172766737E+03  0.00000000000E+00 0. -1.
         25    2    1    2    0    0 -0.88286544485E+02 -0.12031024867E+03  0.14310060584E+03  0.24160292329E+03  0.12500047712E+03 0.  0.
          2    1    1    2  501    0 -0.29027592509E+02  0.26037365939E+02 -0.10596974113E+03  0.11291648058E+03  0.00000000000E+00 0. -1.
          1    1    1    2  502    0  0.11731413699E+03  0.94272882732E+02  0.18636837870E+04  0.18697505826E+04  0.00000000000E+00 0. -1.
         22    1    3    3    0    0 -0.21656961821E+02 -0.48896887560E+02 -0.15199862049E+02  0.55596451457E+02  0.00000000000E+00 0. -1.
         22    1    3    3    0    0 -0.66629582664E+02 -0.71413361111E+02  0.15830046789E+03  0.18600647184E+03  0.00000000000E+00 0. -1.
</event>
<event>
 7    1  0.5562528E-006  0.6443598E+02  0.7818608E-02  0.1383190E+00
          2   -1    0    0  502    0  0.00000000000E+00  0.00000000000E+00  0.21665633528E+02  0.21665633528E+02  0.00000000000E+00 0. -1.
          1   -1    0    0  501    0 -0.00000000000E+00 -0.00000000000E+00 -0.13341935192E+04  0.13341935192E+04  0.00000000000E+00 0. -1.
         25    2    1    2    0    0 -0.20348085304E+02  0.13736172959E+02 -0.56816782534E+03  0.58227408409E+03  0.12500281686E+03 0.  0.
          2    1    1    2  501    0  0.29532268650E+02  0.57269895296E+02 -0.65913390893E+03  0.66227600417E+03  0.00000000000E+00 0. -1.
          1    1    1    2  502    0 -0.91841833460E+01 -0.71006068255E+02 -0.85226151445E+02  0.11130906451E+03  0.00000000000E+00 0. -1.
         22    1    3    3    0    0  0.79957789083E+01 -0.44787068547E+02 -0.38937155925E+03  0.39202043970E+03  0.00000000000E+00 0. -1.
         22    1    3    3    0    0 -0.28343864212E+02  0.58523241506E+02 -0.17879626609E+03  0.19025364439E+03  0.00000000000E+00 0. -1.
</event>
<event>
 7    1  0.5562528E-006  0.1113784E+03  0.7818608E-02  0.1362109E+00
          2   -1    0    0  502    0  0.00000000000E+00  0.00000000000E+00  0.20734385141E+04  0.20734385141E+04  0.00000000000E+00 0. -1.
          1   -1    0    0  501    0 -0.00000000000E+00 -0.00000000000E+00 -0.25552057999E+03  0.25552057999E+03  0.00000000000E+00 0. -1.
         25    2    1    2    0    0 -0.24883629302E+02  0.12239448679E+03  0.40845783245E+03  0.44504979705E+03  0.12502765920E+03 0.  0.
          2    1    1    2  501    0  0.58163941462E+02 -0.94762626587E+02 -0.22389372185E+03  0.24998279574E+03  0.00000000000E+00 0. -1.
          1    1    1    2  502    0 -0.33280312160E+02 -0.27631860205E+02  0.16333538235E+04  0.16339265013E+04  0.00000000000E+00 0. -1.
         22    1    3    3    0    0  0.27052922357E+02  0.10476814446E+03  0.17929963237E+03  0.20941963344E+03  0.00000000000E+00 0. -1.
         22    1    3    3    0    0 -0.51936551659E+02  0.17626342332E+02  0.22915820008E+03  0.23563016361E+03  0.00000000000E+00 0. -1.
</event>
<event>
 7    1  0.5562528E-006  0.7616135E+02  0.7818608E-02  0.1438202E+00
          2   -1    0    0  502    0  0.00000000000E+00  0.00000000000E+00  0.12148362851E+04  0.12148362851E+04  0.00000000000E+00 0. -1.
          1   -1    0    0  501    0 -0.00000000000E+00 -0.00000000000E+00 -0.84499854456E+02  0.84499854456E+02  0.00000000000E+00 0. -1.
         25    2    1    2    0    0 -0.40456292064E+02  0.17161926538E+02  0.31288962896E+03  0.33978820422E+03  0.12499944211E+03 0.  0.
          2    1    1    2  501    0  0.69715949884E+02 -0.35665015122E+02 -0.49022158156E+02  0.92387655897E+02  0.00000000000E+00 0. -1.
          1    1    1    2  502    0 -0.29259657819E+02  0.18503088584E+02  0.86646895986E+03  0.86716027945E+03  0.00000000000E+00 0. -1.
         22    1    3    3    0    0 -0.17729315558E+02  0.64137551706E+02  0.96658303331E+02  0.11734897431E+03  0.00000000000E+00 0. -1.
         22    1    3    3    0    0 -0.22726976506E+02 -0.46975625168E+02  0.21623132562E+03  0.22243922991E+03  0.00000000000E+00 0. -1.
</event>
<event>
 7    1  0.5562528E-006  0.1240173E+03  0.7818608E-02  0.1393386E+00
          2   -1    0    0  502    0  0.00000000000E+00  0.00000000000E+00  0.87761180882E+03  0.87761180882E+03  0.00000000000E+00 0. -1.
          1   -1    0    0  501    0 -0.00000000000E+00 -0.00000000000E+00 -0.41914344913E+03  0.41914344913E+03  0.00000000000E+00 0. -1.
         25    2    1    2    0    0 -0.51312372130E+02 -0.10314050936E+03  0.42833022441E+02  0.17529745007E+03  0.12499441581E+03 0.  0.
          2    1    1    2  501    0  0.27933612094E+02  0.12206006966E+03 -0.34149642054E+03  0.36372895477E+03  0.00000000000E+00 0. -1.
          1    1    1    2  502    0  0.23378760035E+02 -0.18919560300E+02  0.75713175779E+03  0.75772885311E+03  0.00000000000E+00 0. -1.
         22    1    3    3    0    0 -0.71614926364E+02 -0.12169356975E+03  0.43611356416E+02  0.14778353428E+03  0.00000000000E+00 0. -1.
         22    1    3    3    0    0  0.20302554234E+02  0.18553060385E+02 -0.77833397469E+00  0.27513915786E+02  0.00000000000E+00 0. -1.
</event>
<event>
 7    1  0.5562528E-006  0.5531666E+02  0.7818608E-02  0.1458782E+00
          2   -1    0    0  502    0  0.00000000000E+00  0.00000000000E+00  0.41391049453E+04  0.41391049453E+04  0.00000000000E+00 0. -1.
          1   -1    0    0  501    0 -0.00000000000E+00 -0.00000000000E+00 -0.23268292260E+02  0.23268292260E+02  0.00000000000E+00 0. -1.
         25    2    1    2    0    0  0.27022189565E+02 -0.71307177476E+02  0.13650126044E+04  0.13728435836E+04  0.12500073021E+03 0.  0.
          2    1    1    2  501    0  0.10124472133E+02  0.54083445868E+02  0.20222972787E+02  0.58621605925E+02  0.00000000000E+00 0. -1.
          1    1    1    2  502    0 -0.37146661698E+02  0.17223731608E+02  0.27306010759E+04  0.27309080481E+04  0.00000000000E+00 0. -1.
         22    1    3    3    0    0  0.49687482743E+02 -0.23374117733E+02  0.22517858525E+03  0.23177702771E+03  0.00000000000E+00 0.  1.
         22    1    3    3    0    0 -0.22665293178E+02 -0.47933059743E+02  0.11398340192E+04  0.11410665559E+04  0.00000000000E+00 0.  1.
</event>
<event>
 7    1  0.5562528E-006  0.7416007E+02  0.7818608E-02  0.1457867E+00
          2   -1    0    0  502    0  0.00000000000E+00  0.00000000000E+00  0.13084604945E+04  0.13084604945E+04  0.00000000000E+00 0. -1.
          1   -1    0    0  501    0 -0.00000000000E+00 -0.00000000000E+00 -0.49628293344E+02  0.49628293344E+02  0.00000000000E+00 0. -1.
         25    2    1    2    0    0 -0.32987564783E+02  0.53804217545E+02  0.85837074798E+02  0.16424428788E+03  0.12500043775E+03 0.  0.
          2    1    1    2  501    0  0.41847151357E+02 -0.83245754446E+02  0.20298407716E+03  0.22334631246E+03  0.00000000000E+00 0. -1.
          1    1    1    2  502    0 -0.88595865742E+01  0.29441536901E+02  0.97001104924E+03  0.97049818753E+03  0.00000000000E+00 0. -1.
         22    1    3    3    0    0 -0.24965570546E+02  0.39334484668E+02 -0.24524725150E+02  0.52649250142E+02  0.00000000000E+00 0.  1.
         22    1    3    3    0    0 -0.80219942364E+01  0.14469732877E+02  0.11036179995E+03  0.11159503774E+03  0.00000000000E+00 0.  1.
</event>
<event>
 7    1  0.5562528E-006  0.1328430E+03  0.7818608E-02  0.1307732E+00
          2   -1    0    0  502    0  0.00000000000E+00  0.00000000000E+00  0.93371588940E+03  0.93371588940E+03  0.00000000000E+00 0. -1.
          1   -1    0    0  501    0 -0.00000000000E+00 -0.00000000000E+00 -0.96147766887E+03  0.96147766887E+03  0.00000000000E+00 0. -1.
         25    2    1    2    0    0  0.10904921846E+03  0.74542395582E+02  0.27285212773E+01  0.18188260481E+03  0.12500214525E+03 0.  0.
          2    1    1    2  501    0 -0.67365090665E+02 -0.11532117297E+03 -0.86576371159E+03  0.87600447070E+03  0.00000000000E+00 0. -1.
          1    1    1    2  502    0 -0.41684127798E+02  0.40778777393E+02  0.83527341085E+03  0.83730648276E+03  0.00000000000E+00 0. -1.
         22    1    3    3    0    0  0.19880640580E+02  0.20289228988E+02 -0.55511448415E+02  0.62357145444E+02  0.00000000000E+00 0. -1.
         22    1    3    3    0    0  0.89168577883E+02  0.54253166594E+02  0.58239969692E+02  0.11952545937E+03  0.00000000000E+00 0. -1.
</event>
<event>
 7    1  0.5562528E-006  0.9235725E+02  0.7818608E-02  0.1469368E+00
          2   -1    0    0  502    0  0.00000000000E+00  0.00000000000E+00  0.21366577251E+03  0.21366577251E+03  0.00000000000E+00 0. -1.
          1   -1    0    0  501    0 -0.00000000000E+00 -0.00000000000E+00 -0.84120301668E+03  0.84120301668E+03  0.00000000000E+00 0. -1.
         25    2    1    2    0    0  0.44595126231E+02 -0.10230686834E+03 -0.44288583948E+03  0.47352670039E+03  0.12499699428E+03 0.  0.
          2    1    1    2  501    0  0.13359907749E+01  0.22679421607E+02 -0.37198067514E+03  0.37267380336E+03  0.00000000000E+00 0. -1.
          1    1    1    2  502    0 -0.45931117006E+02  0.79627446734E+02  0.18732927044E+03  0.20866828544E+03  0.00000000000E+00 0. -1.
         22    1    3    3    0    0 -0.11050577222E+02 -0.30918024978E+02 -0.31580012234E+03  0.31750237290E+03  0.00000000000E+00 0. -1.
         22    1    3    3    0    0  0.55645703453E+02 -0.71388843363E+02 -0.12708571714E+03  0.15602432749E+03  0.00000000000E+00 0. -1.
</event>
<event>
 7    1  0.5562528E-006  0.1441210E+03  0.7818608E-02  0.1300209E+00
          2   -1    0    0  502    0  0.00000000000E+00  0.00000000000E+00  0.23186785105E+04  0.23186785105E+04  0.00000000000E+00 0. -1.
          1   -1    0    0  501    0 -0.00000000000E+00 -0.00000000000E+00 -0.11596063209E+03  0.11596063209E+03  0.00000000000E+00 0. -1.
         25    2    1    2    0    0  0.91832842051E+02  0.13267387155E+03  0.64788576549E+03  0.67927774666E+03  0.12500665942E+03 0.  0.
          2    1    1    2  501    0 -0.57322553758E+02  0.54958553421E+01 -0.88654920695E+02  0.10571553603E+03  0.00000000000E+00 0. -1.
          1    1    1    2  502    0 -0.34510288293E+02 -0.13816972690E+03  0.16434870336E+04  0.16496458599E+04  0.00000000000E+00 0. -1.
         22    1    3    3    0    0 -0.52158133449E+01 -0.20781168850E+02  0.93208953611E+02  0.95639796742E+02  0.00000000000E+00 0. -1.
         22    1    3    3    0    0  0.97048655396E+02  0.15345504040E+03  0.55467681188E+03  0.58363794991E+03  0.00000000000E+00 0. -1.
</event>
<event>
 7    1  0.5562528E-006  0.1136353E+03  0.7818608E-02  0.1299950E+00
          2   -1    0    0  502    0  0.00000000000E+00  0.00000000000E+00  0.25124214098E+03  0.25124214098E+03  0.00000000000E+00 0. -1.
          1   -1    0    0  501    0 -0.00000000000E+00 -0.00000000000E+00 -0.79293452616E+03  0.79293452616E+03  0.00000000000E+00 0. -1.
         25    2    1    2    0    0  0.57815157250E+02 -0.59466264929E+02 -0.37013567599E+03  0.39937936197E+03  0.12499850823E+03 0.  0.
          2    1    1    2  501    0  0.56860972031E+02  0.46111799583E+02 -0.39048732416E+03  0.39729059709E+03  0.00000000000E+00 0. -1.
          1    1    1    2  502    0 -0.11467612928E+03  0.13354465346E+02  0.21893061498E+03  0.24750670808E+03  0.00000000000E+00 0. -1.
         22    1    3    3    0    0  0.57229900170E+02 -0.91146419578E+02 -0.20818905804E+03  0.23436214533E+03  0.00000000000E+00 0. -1.
         22    1    3    3    0    0  0.58525707962E+00  0.31680154649E+02 -0.16194661795E+03  0.16501721664E+03  0.00000000000E+00 0. -1.
</event>
<event>
 7    1  0.5562528E-006  0.2108317E+03  0.7818608E-02  0.1288200E+00
          2   -1    0    0  502    0  0.00000000000E+00  0.00000000000E+00  0.75051249280E+03  0.75051249280E+03  0.00000000000E+00 0. -1.
          1   -1    0    0  501    0 -0.00000000000E+00 -0.00000000000E+00 -0.16729387735E+04  0.16729387735E+04  0.00000000000E+00 0. -1.
         25    2    1    2    0    0 -0.21040392255E+03 -0.70260797561E+02 -0.17426450760E+03  0.30854303354E+03  0.12499717852E+03 0.  0.
          2    1    1    2  501    0  0.27778161663E+02 -0.34144885578E+02 -0.14149955862E+04  0.14156800515E+04  0.00000000000E+00 0. -1.
          1    1    1    2  502    0  0.18262576089E+03  0.10440568314E+03  0.66683381305E+03  0.69922818123E+03  0.00000000000E+00 0. -1.
         22    1    3    3    0    0 -0.13035919213E+03 -0.44362775353E+02 -0.29070599069E+02  0.14073618774E+03  0.00000000000E+00 0.  1.
         22    1    3    3    0    0 -0.80044730422E+02 -0.25898022208E+02 -0.14519390853E+03  0.16780684580E+03  0.00000000000E+00 0.  1.
</event>
<event>
 7    1  0.5562528E-006  0.9682182E+02  0.7818608E-02  0.1373995E+00
          2   -1    0    0  502    0  0.00000000000E+00  0.00000000000E+00  0.18678935538E+04  0.18678935538E+04  0.00000000000E+00 0. -1.
          1   -1    0    0  501    0 -0.00000000000E+00 -0.00000000000E+00 -0.31704126920E+02  0.31704126920E+02  0.00000000000E+00 0. -1.
         25    2    1    2    0    0  0.91905236012E+02 -0.34539674474E+02  0.62194142214E+03  0.64193013509E+03  0.12499441685E+03 0.  0.
          2    1    1    2  501    0 -0.25037969600E+02 -0.37492203394E+02  0.60611031895E+01  0.45489583521E+02  0.00000000000E+00 0. -1.
          1    1    1    2  502    0 -0.66867266412E+02  0.72031877868E+02  0.12081869016E+04  0.12121779621E+04  0.00000000000E+00 0. -1.
         22    1    3    3    0    0 -0.29772815626E+02  0.56448899415E+00  0.79291290773E+02  0.84698571361E+02  0.00000000000E+00 0.  1.
         22    1    3    3    0    0  0.12167805164E+03 -0.35104163468E+02  0.54265013137E+03  0.55723156373E+03  0.00000000000E+00 0.  1.
</event>
<event>
 7    1  0.5562528E-006  0.1081643E+03  0.7818608E-02  0.1454473E+00
          2   -1    0    0  502    0  0.00000000000E+00  0.00000000000E+00  0.35487212080E+03  0.35487212080E+03  0.00000000000E+00 0. -1.
          1   -1    0    0  501    0 -0.00000000000E+00 -0.00000000000E+00 -0.62924542309E+03  0.62924542309E+03  0.00000000000E+00 0. -1.
         25    2    1    2    0    0  0.51103052858E+02 -0.80406696512E+02 -0.30014421356E+03  0.33880818790E+03  0.12501072113E+03 0.  0.
          2    1    1    2  501    0 -0.54562684534E+02  0.10173702256E+03 -0.29864128284E+03  0.32017826927E+03  0.00000000000E+00 0. -1.
          1    1    1    2  502    0  0.34596316760E+01 -0.21330326045E+02  0.32441219411E+03  0.32513108671E+03  0.00000000000E+00 0. -1.
         22    1    3    3    0    0 -0.35328148883E+02 -0.12302323972E+01 -0.10897654020E+03  0.11456647803E+03  0.00000000000E+00 0.  1.
         22    1    3    3    0    0  0.86431201741E+02 -0.79176464115E+02 -0.19116767336E+03  0.22424170986E+03  0.00000000000E+00 0.  1.
</event>
<event>
 7    1  0.5562528E-006  0.1217731E+03  0.7818608E-02  0.1284426E+00
          2   -1    0    0  502    0  0.00000000000E+00  0.00000000000E+00  0.21386361169E+03  0.21386361169E+03  0.00000000000E+00 0. -1.
          1   -1    0    0  501    0 -0.00000000000E+00 -0.00000000000E+00 -0.63866930201E+03  0.63866930201E+03  0.00000000000E+00 0. -1.
         25    2    1    2    0    0  0.96760869622E+02 -0.63035055255E+01 -0.10473184587E+02  0.15855018662E+03  0.12500429596E+03 0.  0.
          2    1    1    2  501    0  0.21518439531E+02  0.75978633398E+02 -0.51672622195E+03  0.52272534320E+03  0.00000000000E+00 0. -1.
          1    1    1    2  502    0 -0.11827930915E+03 -0.69675127873E+02  0.10239371622E+03  0.17125738389E+03  0.00000000000E+00 0. -1.
         22    1    3    3    0    0  0.16311285145E+02 -0.54805097155E+02 -0.26889004740E+02  0.63187619619E+02  0.00000000000E+00 0.  1.
         22    1    3    3    0    0  0.80449584476E+02  0.48501591630E+02  0.16415820153E+02  0.95362566997E+02  0.00000000000E+00 0.  1.
</event>
<event>
 7    1  0.5562528E-006  0.6875836E+02  0.7818608E-02  0.1429962E+00
          2   -1    0    0  502    0  0.00000000000E+00  0.00000000000E+00  0.15635683515E+04  0.15635683515E+04  0.00000000000E+00 0. -1.
          1   -1    0    0  501    0 -0.00000000000E+00 -0.00000000000E+00 -0.10675055670E+04  0.10675055670E+04  0.00000000000E+00 0. -1.
         25    2    1    2    0    0  0.10043845686E+01 -0.30758668398E+02  0.19744882594E+03  0.23570787761E+03  0.12500024092E+03 0.  0.
          2    1    1    2  501    0 -0.23375116247E+02  0.64882944552E+02 -0.10469322583E+04  0.10492012895E+04  0.00000000000E+00 0. -1.
          1    1    1    2  502    0  0.22370731678E+02 -0.34124276154E+02  0.13455462169E+04  0.13461647513E+04  0.00000000000E+00 0. -1.
         22    1    3    3    0    0 -0.53295954582E+02  0.56965644875E-01  0.40940066849E+02  0.67205290666E+02  0.00000000000E+00 0.  1.
         22    1    3    3    0    0  0.54300339150E+02 -0.30815634043E+02  0.15650875909E+03  0.16850258694E+03  0.00000000000E+00 0.  1.
</event>
<event>
 7    1  0.5562528E-006  0.1674957E+03  0.7818608E-02  0.1288880E+00
          2   -1    0    0  502    0  0.00000000000E+00  0.00000000000E+00  0.18161743903E+04  0.18161743903E+04  0.00000000000E+00 0. -1.
          1   -1    0    0  501    0 -0.00000000000E+00 -0.00000000000E+00 -0.81122947937E+03  0.81122947937E+03  0.00000000000E+00 0. -1.
         25    2    1    2    0    0  0.17354138184E+03  0.10202842157E+03 -0.27819658294E+02  0.23858621096E+03  0.12499214637E+03 0.  0.
          2    1    1    2  501    0 -0.53392166378E+02  0.13420731265E+02 -0.67284238537E+03  0.67509089389E+03  0.00000000000E+00 0. -1.
          1    1    1    2  502    0 -0.12014921547E+03 -0.11544915284E+03  0.17056069545E+04  0.17137267648E+04  0.00000000000E+00 0. -1.
         22    1    3    3    0    0  0.16677570790E+03  0.36372287495E+02 -0.15045728108E+02  0.17135767849E+03  0.00000000000E+00 0. -1.
         22    1    3    3    0    0  0.67656739447E+01  0.65656134080E+02 -0.12773930186E+02  0.67228532474E+02  0.00000000000E+00 0. -1.
</event>
<event>
 7    1  0.5562528E-006  0.9881028E+02  0.7818608E-02  0.1388649E+00
          2   -1    0    0  502    0  0.00000000000E+00  0.00000000000E+00  0.12734075078E+04  0.12734075078E+04  0.00000000000E+00 0. -1.
          1   -1    0    0  501    0 -0.00000000000E+00 -0.00000000000E+00 -0.37708036328E+03  0.37708036328E+03  0.00000000000E+00 0. -1.
         25    2    1    2    0    0 -0.40071033362E+02  0.51507747966E+02  0.70580607992E+03  0.71975370063E+03  0.12499772521E+03 0.  0.
          2    1    1    2  501    0  0.39993211775E+02 -0.90717147455E+02 -0.36276094504E+03  0.37606457036E+03  0.00000000000E+00 0. -1.
          1    1    1    2  502    0  0.77821587348E-01  0.39209399489E+02  0.55328200962E+03  0.55466960006E+03  0.00000000000E+00 0. -1.
         22    1    3    3    0    0  0.48411588483E+01  0.71303880897E+02  0.21647652990E+03  0.22796878788E+03  0.00000000000E+00 0. -1.
         22    1    3    3    0    0 -0.44912192210E+02 -0.19796132931E+02  0.48932955002E+03  0.49178491275E+03  0.00000000000E+00 0. -1.
</event>
<event>
 7    1  0.5562528E-006  0.1416550E+03  0.7818608E-02  0.1279052E+00
          2   -1    0    0  502    0  0.00000000000E+00  0.00000000000E+00  0.45512861712E+03  0.45512861712E+03  0.00000000000E+00 0. -1.
          1   -1    0    0  501    0 -0.00000000000E+00 -0.00000000000E+00 -0.46790087349E+03  0.46790087349E+03  0.00000000000E+00 0. -1.
         25    2    1    2    0    0  0.34231119981E+02  0.89009145844E+02  0.31952466215E+02  0.16043948571E+03  0.12500188342E+03 0.  0.
          2    1    1    2  501    0  0.64721645570E+02  0.30233655435E+02 -0.38348034542E+03  0.39007709577E+03  0.00000000000E+00 0. -1.
          1    1    1    2  502    0 -0.98952765551E+02 -0.11924280128E+03  0.33875562283E+03  0.37251290913E+03  0.00000000000E+00 0. -1.
         22    1    3    3    0    0  0.15285189438E+02 -0.19624374403E+02 -0.25901265096E+02  0.35911399589E+02  0.00000000000E+00 0. -1.
         22    1    3    3    0    0  0.18945930543E+02  0.10863352025E+03  0.57853731311E+02  0.12452808612E+03  0.00000000000E+00 0. -1.
</event>
<event>
 7    1  0.5562528E-006  0.7421217E+02  0.7818608E-02  0.1355857E+00
          2   -1    0    0  502    0  0.00000000000E+00  0.00000000000E+00  0.16225908509E+04  0.16225908509E+04  0.00000000000E+00 0. -1.
          1   -1    0    0  501    0 -0.00000000000E+00 -0.00000000000E+00 -0.21872008562E+03  0.21872008562E+03  0.00000000000E+00 0. -1.
         25    2    1    2    0    0  0.65517944938E+01 -0.11780352368E+03  0.80623693082E+02  0.18985723115E+03  0.12499996852E+03 0.  0.
          2    1    1    2  501    0  0.35118928428E+02  0.63528457087E+02 -0.15524585544E+03  0.17137817721E+03  0.00000000000E+00 0. -1.
          1    1    1    2  502    0 -0.41670722922E+02  0.54275066590E+02  0.14784929277E+04  0.14800755282E+04  0.00000000000E+00 0. -1.
         22    1    3    3    0    0  0.53357638567E+02 -0.20574721547E+02  0.54132956884E+02  0.78744738117E+02  0.00000000000E+00 0. -1.
         22    1    3    3    0    0 -0.46805844073E+02 -0.97228802130E+02  0.26490736198E+02  0.11111249303E+03  0.00000000000E+00 0. -1.
</event>
<event>
 7    1  0.5562528E-006  0.8531394E+02  0.7818608E-02  0.1359707E+00
          2   -1    0    0  502    0  0.00000000000E+00  0.00000000000E+00  0.39626815245E+04  0.39626815245E+04  0.00000000000E+00 0. -1.
          1   -1    0    0  501    0 -0.00000000000E+00 -0.00000000000E+00 -0.44512679652E+03  0.44512679652E+03  0.00000000000E+00 0. -1.
         25    2    1    2    0    0 -0.11443709888E+03  0.38171088127E+02  0.35189974793E+03  0.39244434298E+03  0.12500499261E+03 0.  0.
          2    1    1    2  501    0  0.53696995749E+02  0.20901625138E+02 -0.42239831394E+03  0.42631042786E+03  0.00000000000E+00 0. -1.
          1    1    1    2  502    0  0.60740103135E+02 -0.59072713265E+02  0.35880532940E+04  0.35890535502E+04  0.00000000000E+00 0. -1.
         22    1    3    3    0    0 -0.13866341027E+03  0.41467256861E+02  0.32674909901E+03  0.35736822528E+03  0.00000000000E+00 0. -1.
         22    1    3    3    0    0  0.24226311386E+02 -0.32961687342E+01  0.25150648920E+02  0.35076117699E+02  0.00000000000E+00 0. -1.
</event>
<event>
 7    1  0.5562528E-006  0.5811388E+02  0.7818608E-02  0.1408468E+00
          2   -1    0    0  502    0  0.00000000000E+00  0.00000000000E+00  0.41754721315E+03  0.41754721315E+03  0.00000000000E+00 0. -1.
          1   -1    0    0  501    0 -0.00000000000E+00 -0.00000000000E+00 -0.12718807132E+04  0.12718807132E+04  0.00000000000E+00 0. -1.
         25    2    1    2    0    0 -0.87880245094E+01 -0.62434739043E+02  0.81739007480E+02  0.16210533595E+03  0.12498619358E+03 0.  0.
          2    1    1    2  501    0 -0.44210049116E+02  0.37718618735E+02 -0.12281118050E+04  0.12294860016E+04  0.00000000000E+00 0. -1.
          1    1    1    2  502    0  0.52998073626E+02  0.24716120308E+02  0.29203929740E+03  0.29783658882E+03  0.00000000000E+00 0. -1.
         22    1    3    3    0    0  0.18004068167E+02 -0.40755885288E+02 -0.24198562405E+02  0.50702653566E+02  0.00000000000E+00 0.  1.
         22    1    3    3    0    0 -0.26792092676E+02 -0.21678853755E+02  0.10593756988E+03  0.11140268239E+03  0.00000000000E+00 0.  1.
</event>
<event>
 7    1  0.5562528E-006  0.1151879E+03  0.7818608E-02  0.1268431E+00
          2   -1    0    0  502    0  0.00000000000E+00  0.00000000000E+00  0.14111748456E+04  0.14111748456E+04  0.00000000000E+00 0. -1.
          1   -1    0    0  501    0 -0.00000000000E+00 -0.00000000000E+00 -0.18714494623E+04  0.18714494623E+04  0.00000000000E+00 0. -1.
         25    2    1    2    0    0 -0.23817838983E+02 -0.58668038877E+02  0.12794955609E+02  0.14070740130E+03  0.12500253458E+03 0.  0.
          2    1    1    2  501    0 -0.91684096553E+02  0.32551320485E+02 -0.18035524140E+04  0.18061746516E+04  0.00000000000E+00 0. -1.
          1    1    1    2  502    0  0.11550193554E+03  0.26116718392E+02  0.13304828416E+04  0.13357422550E+04  0.00000000000E+00 0. -1.
         22    1    3    3    0    0  0.35665582393E+02 -0.30309730452E+02 -0.35719290920E+02  0.58877680588E+02  0.00000000000E+00 0.  1.
         22    1    3    3    0    0 -0.59483421376E+02 -0.28358308425E+02  0.48514246529E+02  0.81829720711E+02  0.00000000000E+00 0.  1.
</event>
<event>
 7    1  0.5562528E-006  0.7553508E+02  0.7818608E-02  0.1422728E+00
          2   -1    0    0  502    0  0.00000000000E+00  0.00000000000E+00  0.14824598934E+04  0.14824598934E+04  0.00000000000E+00 0. -1.
          1   -1    0    0  501    0 -0.00000000000E+00 -0.00000000000E+00 -0.36866839435E+03  0.36866839435E+03  0.00000000000E+00 0. -1.
         25    2    1    2    0    0  0.42956316658E+02 -0.61197747762E+01  0.58106478440E+02  0.14451111826E+03  0.12499761469E+03 0.  0.
          2    1    1    2  501    0  0.31432794482E+02  0.23502465149E+02 -0.32322174707E+03  0.32559589097E+03  0.00000000000E+00 0. -1.
          1    1    1    2  502    0 -0.74389111141E+02 -0.17382690373E+02  0.13789067677E+04  0.13810212785E+04  0.00000000000E+00 0. -1.
         22    1    3    3    0    0  0.82979147899E+02  0.12418475349E+02  0.54938884416E+02  0.10028977284E+03  0.00000000000E+00 0.  1.
         22    1    3    3    0    0 -0.40022831241E+02 -0.18538250125E+02  0.31675940238E+01  0.44221345413E+02  0.00000000000E+00 0.  1.
</event>
<event>
 7    1  0.5562528E-006  0.5355818E+03  0.7818608E-02  0.1154613E+00
          2   -1    0    0  502    0  0.00000000000E+00  0.00000000000E+00  0.15133473252E+04  0.15133473252E+04  0.00000000000E+00 0. -1.
          1   -1    0    0  501    0 -0.00000000000E+00 -0.00000000000E+00 -0.11643021385E+04  0.11643021385E+04  0.00000000000E+00 0. -1.
         25    2    1    2    0    0  0.53775265523E+03 -0.23367951829E+03 -0.17592896250E+03  0.62478782636E+03  0.12499917056E+03 0.  0.
          2    1    1    2  501    0 -0.47405082485E+03  0.20344990586E+03 -0.67570510176E+03  0.85011377667E+03  0.00000000000E+00 0. -1.
          1    1    1    2  502    0 -0.63701830381E+02  0.30229612428E+02  0.12006792510E+04  0.12027478607E+04  0.00000000000E+00 0. -1.
         22    1    3    3    0    0  0.42405249703E+03 -0.23373343112E+03 -0.16013944146E+03  0.50999654683E+03  0.00000000000E+00 0.  1.
         22    1    3    3    0    0  0.11370015820E+03  0.53912833407E-01 -0.15789521033E+02  0.11479127953E+03  0.00000000000E+00 0.  1.
</event>
<event>
 7    1  0.5562528E-006  0.5241021E+02  0.7818608E-02  0.1500738E+00
          2   -1    0    0  502    0  0.00000000000E+00  0.00000000000E+00  0.72600471280E+02  0.72600471280E+02  0.00000000000E+00 0. -1.
          1   -1    0    0  501    0 -0.00000000000E+00 -0.00000000000E+00 -0.28662422536E+03  0.28662422536E+03  0.00000000000E+00 0. -1.
         25    2    1    2    0    0  0.31152797027E+02 -0.42249336730E+02 -0.20837023356E+03  0.24859217449E+03  0.12499764705E+03 0.  0.
          2    1    1    2  501    0 -0.53229355440E+02  0.18909203456E+02 -0.35552729478E+02  0.66745178322E+02  0.00000000000E+00 0. -1.
          1    1    1    2  502    0  0.22076558414E+02  0.23340133274E+02  0.29899208952E+02  0.43887343832E+02  0.00000000000E+00 0. -1.
         22    1    3    3    0    0 -0.13707802858E+02  0.10401754734E+02  0.97423743916E+01  0.19774079486E+02  0.00000000000E+00 0. -1.
         22    1    3    3    0    0  0.44860599885E+02 -0.52651091464E+02 -0.21811260795E+03  0.22881809500E+03  0.00000000000E+00 0. -1.
</event>
<event>
 7    1  0.5562528E-006  0.8812703E+02  0.7818608E-02  0.1423847E+00
          2   -1    0    0  502    0  0.00000000000E+00  0.00000000000E+00  0.12062916539E+04  0.12062916539E+04  0.00000000000E+00 0. -1.
          1   -1    0    0  501    0 -0.00000000000E+00 -0.00000000000E+00 -0.22501658479E+03  0.22501658479E+03  0.00000000000E+00 0. -1.
         25    2    1    2    0    0  0.65775725007E+02  0.26644473450E+02  0.14803585588E+02  0.14449826974E+03  0.12499691935E+03 0.  0.
          2    1    1    2  501    0  0.22900502715E+02 -0.24248492204E+02 -0.15666485842E+03  0.16017584169E+03  0.00000000000E+00 0. -1.
          1    1    1    2  502    0 -0.88676227722E+02 -0.23959812465E+01  0.11231363419E+04  0.11266341272E+04  0.00000000000E+00 0. -1.
         22    1    3    3    0    0 -0.24220623578E+02  0.27830714421E+02  0.36518790918E+02  0.51911553260E+02  0.00000000000E+00 0. -1.
         22    1    3    3    0    0  0.89996348585E+02 -0.11862409710E+01 -0.21715205330E+02  0.92586716481E+02  0.00000000000E+00 0. -1.
</event>
<event>
 7    1  0.5562528E-006  0.1440517E+03  0.7818608E-02  0.1356524E+00
          2   -1    0    0  502    0  0.00000000000E+00  0.00000000000E+00  0.40941485159E+02  0.40941485159E+02  0.00000000000E+00 0. -1.
          1   -1    0    0  501    0 -0.00000000000E+00 -0.00000000000E+00 -0.28115783466E+04  0.28115783466E+04  0.00000000000E+00 0. -1.
         25    2    1    2    0    0 -0.11901467191E+02 -0.11948181522E+03 -0.11170416885E+04  0.11304090581E+04  0.12499982307E+03 0.  0.
          2    1    1    2  501    0 -0.26316298900E+02 -0.23156498823E+02 -0.15275786438E+04  0.15279807866E+04  0.00000000000E+00 0. -1.
          1    1    1    2  502    0  0.38217766091E+02  0.14263831404E+03 -0.12601652919E+03  0.19412998714E+03  0.00000000000E+00 0. -1.
         22    1    3    3    0    0  0.44467471129E+02 -0.10166423791E+03 -0.82634552603E+03  0.83376249715E+03  0.00000000000E+00 0.  1.
         22    1    3    3    0    0 -0.56368938320E+02 -0.17817577313E+02 -0.29069616242E+03  0.29664656094E+03  0.00000000000E+00 0.  1.
</event>
<event>
 7    1  0.5562528E-006  0.2074919E+03  0.7818608E-02  0.1242776E+00
          2   -1    0    0  502    0  0.00000000000E+00  0.00000000000E+00  0.17063433684E+04  0.17063433684E+04  0.00000000000E+00 0. -1.
          1   -1    0    0  501    0 -0.00000000000E+00 -0.00000000000E+00 -0.52728779298E+03  0.52728779298E+03  0.00000000000E+00 0. -1.
         25    2    1    2    0    0 -0.64988495001E+02  0.25983614978E+03 -0.16013363354E+03  0.33616436150E+03  0.12500147254E+03 0.  0.
          2    1    1    2  501    0 -0.11606696012E+02 -0.68651543666E+02 -0.26812156457E+03  0.27701430148E+03  0.00000000000E+00 0. -1.
          1    1    1    2  502    0  0.76595191012E+02 -0.19118460611E+03  0.16073107735E+04  0.16204524984E+04  0.00000000000E+00 0. -1.
         22    1    3    3    0    0  0.22950845540E+02  0.16337036295E+03 -0.85880572121E+02  0.18598948752E+03  0.00000000000E+00 0.  1.
         22    1    3    3    0    0 -0.87939340540E+02  0.96465786829E+02 -0.74253061417E+02  0.15017487397E+03  0.00000000000E+00 0.  1.
</event>
<event>
 7    1  0.5562528E-006  0.3630856E+02  0.7818608E-02  0.1586947E+00
          2   -1    0    0  502    0  0.00000000000E+00  0.00000000000E+00  0.72334055127E+02  0.72334055127E+02  0.00000000000E+00 0. -1.
          1   -1    0    0  501    0 -0.00000000000E+00 -0.00000000000E+00 -0.11559154350E+04  0.11559154350E+04  0.00000000000E+00 0. -1.
         25    2    1    2    0    0  0.21993940111E+02 -0.45999811839E+02 -0.19043839923E+03  0.23343923624E+03  0.12500950774E+03 0.  0.
          2    1    1    2  501    0  0.26058052726E+01  0.36083085273E+02 -0.94014511791E+03  0.94084091216E+03  0.00000000000E+00 0. -1.
          1    1    1    2  502    0 -0.24599745383E+02  0.99167265656E+01  0.47002137265E+02  0.53969341725E+02  0.00000000000E+00 0. -1.
         22    1    3    3    0    0 -0.64131380381E+01 -0.35036593204E+02 -0.19871757644E+03  0.20188453727E+03  0.00000000000E+00 0. -1.
         22    1    3    3    0    0  0.28407078149E+02 -0.10963218635E+02  0.82791772133E+01  0.31554698971E+02  0.00000000000E+00 0. -1.
</event>
<event>
 7    1  0.5562528E-006  0.7613139E+02  0.7818608E-02  0.1396708E+00
          2   -1    0    0  502    0  0.00000000000E+00  0.00000000000E+00  0.61524305662E+02  0.61524305662E+02  0.00000000000E+00 0. -1.
          1   -1    0    0  501    0 -0.00000000000E+00 -0.00000000000E+00 -0.10066964506E+04  0.10066964506E+04  0.00000000000E+00 0. -1.
         25    2    1    2    0    0 -0.88839258899E+02  0.32721083702E+02 -0.14085776923E+03  0.21078084393E+03  0.12499827910E+03 0.  0.
          2    1    1    2  501    0  0.16498241821E+02 -0.44767895188E+02 -0.77809535854E+03  0.77955676086E+03  0.00000000000E+00 0. -1.
          1    1    1    2  502    0  0.72341017078E+02  0.12046811485E+02 -0.26219017148E+02  0.77883151445E+02  0.00000000000E+00 0. -1.
         22    1    3    3    0    0 -0.11749875351E+03  0.83166966374E+01 -0.94168409352E+02  0.15080720752E+03  0.00000000000E+00 0.  1.
         22    1    3    3    0    0  0.28659494611E+02  0.24404387065E+02 -0.46689359877E+02  0.59973636417E+02  0.00000000000E+00 0.  1.
</event>
<event>
 7    1  0.5562528E-006  0.9333995E+02  0.7818608E-02  0.1332338E+00
          2   -1    0    0  502    0  0.00000000000E+00  0.00000000000E+00  0.64951187973E+03  0.64951187973E+03  0.00000000000E+00 0. -1.
          1   -1    0    0  501    0 -0.00000000000E+00 -0.00000000000E+00 -0.92871284135E+03  0.92871284135E+03  0.00000000000E+00 0. -1.
         25    2    1    2    0    0 -0.52220754534E+02 -0.81726132635E+02 -0.53917315525E+02  0.16714734944E+03  0.12499996620E+03 0.  0.
          2    1    1    2  501    0  0.65649824682E+02 -0.11298387547E+02 -0.81308490520E+03  0.81580917874E+03  0.00000000000E+00 0. -1.
          1    1    1    2  502    0 -0.13429070149E+02  0.93024520182E+02  0.58780125911E+03  0.59526819291E+03  0.00000000000E+00 0. -1.
         22    1    3    3    0    0 -0.37919078025E+02 -0.98520688697E+02  0.35149448415E+01  0.10562451144E+03  0.00000000000E+00 0.  1.
         22    1    3    3    0    0 -0.14301676508E+02  0.16794556062E+02 -0.57432260366E+02  0.61522837996E+02  0.00000000000E+00 0.  1.
</event>
<event>
 7    1  0.5562528E-006  0.7958105E+02  0.7818608E-02  0.1374250E+00
          2   -1    0    0  502    0  0.00000000000E+00  0.00000000000E+00  0.11178268114E+03  0.11178268114E+03  0.00000000000E+00 0. -1.
          1   -1    0    0  501    0 -0.00000000000E+00 -0.00000000000E+00 -0.16389945544E+04  0.16389945544E+04  0.00000000000E+00 0. -1.
         25    2    1    2    0    0 -0.52651169800E+01 -0.13098733859E+03 -0.14964606161E+03  0.23495505464E+03  0.12499811846E+03 0.  0.
          2    1    1    2  501    0 -0.80879123292E+01  0.77904738561E+02 -0.14346205257E+04  0.14367569786E+04  0.00000000000E+00 0. -1.
          1    1    1    2  502    0  0.13353029309E+02  0.53082600029E+02  0.57054714090E+02  0.79065202317E+02  0.00000000000E+00 0. -1.
         22    1    3    3    0    0 -0.33481558480E+02 -0.77745900680E+02 -0.15273068764E+03  0.17461988082E+03  0.00000000000E+00 0. -1.
         22    1    3    3    0    0  0.28216441500E+02 -0.53241437909E+02  0.30846260342E+01  0.60335173816E+02  0.00000000000E+00 0. -1.
</event>
<event>
 7    1  0.5562528E-006  0.4098397E+02  0.7818608E-02  0.1513949E+00
          2   -1    0    0  502    0  0.00000000000E+00  0.00000000000E+00  0.64776948719E+03  0.64776948719E+03  0.00000000000E+00 0. -1.
          1   -1    0    0  501    0 -0.00000000000E+00 -0.00000000000E+00 -0.35765178728E+02  0.35765178728E+02  0.00000000000E+00 0. -1.
         25    2    1    2    0    0 -0.13874152880E+02  0.23850933878E+02  0.39564801242E+03  0.41584134953E+03  0.12500127634E+03 0.  0.
          2    1    1    2  501    0  0.42219177284E+02  0.78191268848E+00 -0.55879295651E+01  0.42594545130E+02  0.00000000000E+00 0. -1.
          1    1    1    2  502    0 -0.28345024404E+02 -0.24632846566E+02  0.22194422561E+03  0.22509877125E+03  0.00000000000E+00 0. -1.
         22    1    3    3    0    0 -0.15988859915E+02  0.59410062088E+02  0.95600192370E+02  0.11368639277E+03  0.00000000000E+00 0.  1.
         22    1    3    3    0    0  0.21147070350E+01 -0.35559128210E+02  0.30004782005E+03  0.30215495677E+03  0.00000000000E+00 0.  1.
</event>
<event>
 7    1  0.5562528E-006  0.4230864E+03  0.7818608E-02  0.1216741E+00
          2   -1    0    0  502    0  0.00000000000E+00  0.00000000000E+00  0.12056905165E+04  0.12056905165E+04  0.00000000000E+00 0. -1.
          1   -1    0    0  501    0 -0.00000000000E+00 -0.00000000000E+00 -0.18511481533E+04  0.18511481533E+04  0.00000000000E+00 0. -1.
         25    2    1    2    0    0  0.19319765006E+03  0.38544995879E+03  0.84904473430E+03  0.96041612589E+03  0.12500068517E+03 0.  0.
          2    1    1    2  501    0  0.18351430994E+02 -0.40740550188E+02 -0.16591459275E+04  0.16597475037E+04  0.00000000000E+00 0. -1.
          1    1    1    2  502    0 -0.21154908105E+03 -0.34470940860E+03  0.16464355639E+03  0.43667504020E+03  0.00000000000E+00 0. -1.
         22    1    3    3    0    0  0.12934045131E+03  0.12758928278E+03  0.30583501638E+03  0.35572887804E+03  0.00000000000E+00 0. -1.
         22    1    3    3    0    0  0.63857198748E+02  0.25786067601E+03  0.54320971793E+03  0.60468724785E+03  0.00000000000E+00 0. -1.
</event>
<event>
 7    1  0.5562528E-006  0.2342103E+03  0.7818608E-02  0.1170192E+00
          2   -1    0    0  502    0  0.00000000000E+00  0.00000000000E+00  0.17157281398E+04  0.17157281398E+04  0.00000000000E+00 0. -1.
          1   -1    0    0  501    0 -0.00000000000E+00 -0.00000000000E+00 -0.23133713272E+03  0.23133713272E+03  0.00000000000E+00 0. -1.
         25    2    1    2    0    0 -0.14554175649E+03  0.12109485623E+03  0.25429390485E+02  0.22829521427E+03  0.12500273545E+03 0.  0.
          2    1    1    2  501    0  0.77317916855E+02  0.11017986568E+03 -0.82956334405E+02  0.15811203777E+03  0.00000000000E+00 0. -1.
          1    1    1    2  502    0  0.68223839631E+02 -0.23127472191E+03  0.15419179510E+04  0.15606580204E+04  0.00000000000E+00 0. -1.
         22    1    3    3    0    0  0.19972524492E+02  0.20424457632E+02  0.19295415812E+02  0.34472790364E+02  0.00000000000E+00 0.  1.
         22    1    3    3    0    0 -0.16551428098E+03  0.10067039860E+03  0.61339746730E+01  0.19382242390E+03  0.00000000000E+00 0.  1.
</event>
<event>
 7    1  0.5562528E-006  0.7427204E+02  0.7818608E-02  0.1426939E+00
          2   -1    0    0  502    0  0.00000000000E+00  0.00000000000E+00  0.50457215166E+03  0.50457215166E+03  0.00000000000E+00 0. -1.
          1   -1    0    0  501    0 -0.00000000000E+00 -0.00000000000E+00 -0.17395464939E+03  0.17395464939E+03  0.00000000000E+00 0. -1.
         25    2    1    2    0    0 -0.41700127380E+02 -0.78782061680E+01  0.50735412386E+02  0.14142026538E+03  0.12499857053E+03 0.  0.
          2    1    1    2  501    0  0.78274456041E+02 -0.46229435910E+01 -0.11563079916E+03  0.13970949786E+03  0.00000000000E+00 0. -1.
          1    1    1    2  502    0 -0.36574328662E+02  0.12501149759E+02  0.39551288905E+03  0.39739703781E+03  0.00000000000E+00 0. -1.
         22    1    3    3    0    0 -0.20145158657E+02 -0.60567099060E+02 -0.19429405366E+01  0.63859031654E+02  0.00000000000E+00 0. -1.
         22    1    3    3    0    0 -0.21554968723E+02  0.52688892892E+02  0.52678352923E+02  0.77561233729E+02  0.00000000000E+00 0. -1.
</event>
<event>
 7    1  0.5562528E-006  0.1126741E+03  0.7818608E-02  0.1434463E+00
          2   -1    0    0  502    0  0.00000000000E+00  0.00000000000E+00  0.20624518945E+04  0.20624518945E+04  0.00000000000E+00 0. -1.
          1   -1    0    0  501    0 -0.00000000000E+00 -0.00000000000E+00 -0.36471086994E+03  0.36471086994E+03  0.00000000000E+00 0. -1.
         25    2    1    2    0    0 -0.10714114988E+03  0.63663921482E+02 -0.10092916752E+03  0.20333211975E+03  0.12499973269E+03 0.  0.
          2    1    1    2  501    0  0.17901947858E+01 -0.24000593519E+02 -0.21031826816E+03  0.21169082929E+03  0.00000000000E+00 0. -1.
          1    1    1    2  502    0  0.10535095509E+03 -0.39663327962E+02  0.20089884602E+04  0.20121398154E+04  0.00000000000E+00 0. -1.
         22    1    3    3    0    0 -0.68057489306E+02  0.49265335585E+02  0.10218613015E+02  0.84636370391E+02  0.00000000000E+00 0. -1.
         22    1    3    3    0    0 -0.39083660569E+02  0.14398585897E+02 -0.11114778053E+03  0.11869574936E+03  0.00000000000E+00 0. -1.
</event>
<event>
 7    1  0.5562528E-006  0.9562290E+02  0.7818608E-02  0.1327414E+00
          2   -1    0    0  502    0  0.00000000000E+00  0.00000000000E+00  0.56105609361E+03  0.56105609361E+03  0.00000000000E+00 0. -1.
          1   -1    0    0  501    0 -0.00000000000E+00 -0.00000000000E+00 -0.45280545589E+03  0.45280545589E+03  0.00000000000E+00 0. -1.
         25    2    1    2    0    0 -0.11616652301E+03 -0.83123704428E+02 -0.13962745639E+03  0.23563767384E+03  0.12500030179E+03 0.  0.
          2    1    1    2  501    0  0.86652355426E+02  0.21970118486E+02 -0.25529291260E+03  0.27049175224E+03  0.00000000000E+00 0. -1.
          1    1    1    2  502    0  0.29514167580E+02  0.61153585942E+02  0.50317100671E+03  0.50773212343E+03  0.00000000000E+00 0. -1.
         22    1    3    3    0    0 -0.33288141521E+01  0.26525594365E+02 -0.23608775668E+01  0.26837695560E+02  0.00000000000E+00 0. -1.
         22    1    3    3    0    0 -0.11283770885E+03 -0.10964929879E+03 -0.13726657883E+03  0.20879997828E+03  0.00000000000E+00 0. -1.
</event>
<event>
 7    1  0.8020377E-006  0.5909440E+02  0.7818608E-02  0.1511857E+00
          2   -1    0    0  502    0  0.00000000000E+00  0.00000000000E+00  0.11541810581E+04  0.11541810581E+04  0.00000000000E+00 0. -1.
          1   -1    0    0  501    0 -0.00000000000E+00 -0.00000000000E+00 -0.17289625966E+04  0.17289625966E+04  0.00000000000E+00 0. -1.
         25    2    1    2    0    0  0.30823221774E+02 -0.11723189677E+02 -0.32600714399E+03  0.35070338213E+03  0.12499880050E+03 0.  0.
          2    1    1    2  501    0  0.25972668793E+02 -0.48115293136E+01 -0.13897156139E+04  0.13899666247E+04  0.00000000000E+00 0. -1.
          1    1    1    2  502    0 -0.56795890566E+02  0.16534718991E+02  0.11409412193E+04  0.11424736479E+04  0.00000000000E+00 0. -1.
         22    1    3    3    0    0  0.73291224872E+02  0.19878578567E+02 -0.20549324251E+03  0.21907586413E+03  0.00000000000E+00 0.  1.
         22    1    3    3    0    0 -0.42468003099E+02 -0.31601768244E+02 -0.12051390148E+03  0.13162751799E+03  0.00000000000E+00 0.  1.
</event>
<event>
 7    1  0.5562528E-006  0.1233998E+03  0.7818608E-02  0.1295209E+00
          2   -1    0    0  502    0  0.00000000000E+00  0.00000000000E+00  0.10350901404E+03  0.10350901404E+03  0.00000000000E+00 0. -1.
          1   -1    0    0  501    0 -0.00000000000E+00 -0.00000000000E+00 -0.38543331322E+03  0.38543331322E+03  0.00000000000E+00 0. -1.
         25    2    1    2    0    0 -0.62321429053E+02 -0.38547304125E+02 -0.20442278540E+03  0.25056662599E+03  0.12500041479E+03 0.  0.
          2    1    1    2  501    0 -0.39218455810E+02 -0.58511348605E+02 -0.67490600602E+02  0.97553300105E+02  0.00000000000E+00 0. -1.
          1    1    1    2  502    0  0.10153988486E+03  0.97058652731E+02 -0.10010913175E+02  0.14082240117E+03  0.00000000000E+00 0. -1.
         22    1    3    3    0    0  0.30019049661E+02 -0.30284053681E+02 -0.11118574389E+03  0.11908205950E+03  0.00000000000E+00 0. -1.
         22    1    3    3    0    0 -0.92340478714E+02 -0.82632504450E+01 -0.93237041505E+02  0.13148456649E+03  0.00000000000E+00 0. -1.
</event>
<event>
 7    1  0.5562528E-006  0.1211902E+03  0.7818608E-02  0.1322086E+00
          2   -1    0    0  502    0  0.00000000000E+00  0.00000000000E+00  0.51988100589E+02  0.51988100589E+02  0.00000000000E+00 0. -1.
          1   -1    0    0  501    0 -0.00000000000E+00 -0.00000000000E+00 -0.11851142504E+04  0.11851142504E+04  0.00000000000E+00 0. -1.
         25    2    1    2    0    0 -0.92539473321E+02  0.12850760234E+03 -0.64315466473E+03  0.67405525649E+03  0.12499923223E+03 0.  0.
          2    1    1    2  501    0  0.78376408538E+02 -0.74152153375E+02 -0.49502773107E+03  0.50664964008E+03  0.00000000000E+00 0. -1.
          1    1    1    2  502    0  0.14163064784E+02 -0.54355448968E+02  0.50562460265E+01  0.56397454379E+02  0.00000000000E+00 0. -1.
         22    1    3    3    0    0  0.24100660094E+01  0.77124227496E+02 -0.14412492162E+03  0.16348072644E+03  0.00000000000E+00 0.  1.
         22    1    3    3    0    0 -0.94949539331E+02  0.51383374847E+02 -0.49902974312E+03  0.51057453006E+03  0.00000000000E+00 0.  1.
</event>
<event>
 7    1  0.5562528E-006  0.1651877E+03  0.7818608E-02  0.1284475E+00
          2   -1    0    0  502    0  0.00000000000E+00  0.00000000000E+00  0.23651652086E+03  0.23651652086E+03  0.00000000000E+00 0. -1.
          1   -1    0    0  501    0 -0.00000000000E+00 -0.00000000000E+00 -0.15922388072E+04  0.15922388072E+04  0.00000000000E+00 0. -1.
         25    2    1    2    0    0 -0.11670257429E+03 -0.93153491408E+01 -0.33391642193E+03  0.37527468742E+03  0.12499859041E+03 0.  0.
          2    1    1    2  501    0 -0.52448296285E+02  0.25195385027E+02 -0.12033982761E+04  0.12048041510E+04  0.00000000000E+00 0. -1.
          1    1    1    2  502    0  0.16915087058E+03 -0.15880035886E+02  0.18159241168E+03  0.24867648971E+03  0.00000000000E+00 0. -1.
         22    1    3    3    0    0 -0.10331470038E+03  0.23137414924E+02 -0.32076537585E+03  0.33778646158E+03  0.00000000000E+00 0. -1.
         22    1    3    3    0    0 -0.13387873915E+02 -0.32452764065E+02 -0.13151046086E+02  0.37488225840E+02  0.00000000000E+00 0. -1.
</event>
<event>
 7    1  0.5562528E-006  0.8965233E+02  0.7818608E-02  0.1374439E+00
          2   -1    0    0  502    0  0.00000000000E+00  0.00000000000E+00  0.28623237904E+03  0.28623237904E+03  0.00000000000E+00 0. -1.
          1   -1    0    0  501    0 -0.00000000000E+00 -0.00000000000E+00 -0.12729391936E+04  0.12729391936E+04  0.00000000000E+00 0. -1.
         25    2    1    2    0    0 -0.32120092221E+02 -0.71464727275E+02 -0.70538901251E+02  0.16356251607E+03  0.12505219912E+03 0.  0.
          2    1    1    2  501    0 -0.12867941482E+02  0.89616198625E+02 -0.11516392422E+04  0.11551924477E+04  0.00000000000E+00 0. -1.
          1    1    1    2  502    0  0.44988033703E+02 -0.18151471350E+02  0.23547132891E+03  0.24041660888E+03  0.00000000000E+00 0. -1.
         22    1    3    3    0    0 -0.44579395380E+02 -0.20722708107E+02 -0.94160867340E+02  0.10622157061E+03  0.00000000000E+00 0.  1.
         22    1    3    3    0    0  0.12459303159E+02 -0.50742019167E+02  0.23621966089E+02  0.57340945461E+02  0.00000000000E+00 0.  1.
</event>
<event>
 7    1  0.5562528E-006  0.1717831E+03  0.7818608E-02  0.1297470E+00
          2   -1    0    0  502    0  0.00000000000E+00  0.00000000000E+00  0.11685508881E+04  0.11685508881E+04  0.00000000000E+00 0. -1.
          1   -1    0    0  501    0 -0.00000000000E+00 -0.00000000000E+00 -0.18939289913E+03  0.18939289913E+03  0.00000000000E+00 0. -1.
         25    2    1    2    0    0 -0.88216309043E+01  0.12577061455E+03 -0.23574535298E+02  0.17910305984E+03  0.12500431462E+03 0.  0.
          2    1    1    2  501    0 -0.12781242314E+02  0.47872980415E+02 -0.73408507839E+02  0.88566310932E+02  0.00000000000E+00 0. -1.
          1    1    1    2  502    0  0.21602873219E+02 -0.17364359497E+03  0.10761410321E+04  0.10902744164E+04  0.00000000000E+00 0. -1.
         22    1    3    3    0    0 -0.25870582141E+02  0.14100276672E+02  0.39843957744E+02  0.49554472969E+02  0.00000000000E+00 0.  1.
         22    1    3    3    0    0  0.17048951236E+02  0.11167033788E+03 -0.63418493042E+02  0.12954858687E+03  0.00000000000E+00 0.  1.
</event>
<event>
 7    1  0.5562528E-006  0.8548932E+02  0.7818608E-02  0.1346805E+00
          2   -1    0    0  502    0  0.00000000000E+00  0.00000000000E+00  0.30767280822E+03  0.30767280822E+03  0.00000000000E+00 0. -1.
          1   -1    0    0  501    0 -0.00000000000E+00 -0.00000000000E+00 -0.67817953637E+03  0.67817953637E+03  0.00000000000E+00 0. -1.
         25    2    1    2    0    0 -0.52124768173E+02 -0.13682172051E+03 -0.68085774835E+02  0.20420217037E+03  0.12500271593E+03 0.  0.
          2    1    1    2  501    0  0.21095174348E+02  0.60592326044E+02 -0.53298712692E+03  0.53683490369E+03  0.00000000000E+00 0. -1.
          1    1    1    2  502    0  0.31029593825E+02  0.76229394467E+02  0.23056617360E+03  0.24481527053E+03  0.00000000000E+00 0. -1.
         22    1    3    3    0    0  0.31781636143E+01  0.23848562736E+01 -0.53563160310E+02  0.53710337978E+02  0.00000000000E+00 0. -1.
         22    1    3    3    0    0 -0.55302931787E+02 -0.13920657678E+03 -0.14522614526E+02  0.15049183239E+03  0.00000000000E+00 0. -1.
</event>
<event>
 7    1  0.5562528E-006  0.8541992E+02  0.7818608E-02  0.1418306E+00
          2   -1    0    0  502    0  0.00000000000E+00  0.00000000000E+00  0.18095421419E+03  0.18095421419E+03  0.00000000000E+00 0. -1.
          1   -1    0    0  501    0 -0.00000000000E+00 -0.00000000000E+00 -0.15566638855E+03  0.15566638855E+03  0.00000000000E+00 0. -1.
         25    2    1    2    0    0 -0.55235397495E+02  0.25151168383E+02  0.99035276760E+02  0.17066487741E+03  0.12503992935E+03 0.  0.
          2    1    1    2  501    0  0.66610232817E+02 -0.59207390937E+02 -0.89896856058E+02  0.12658547700E+03  0.00000000000E+00 0. -1.
          1    1    1    2  502    0 -0.11374835321E+02  0.34056222554E+02  0.16149404945E+02  0.39370248327E+02  0.00000000000E+00 0. -1.
         22    1    3    3    0    0  0.39331574872E+02  0.72722165906E+01  0.45323894862E+02  0.60449262704E+02  0.00000000000E+00 0.  1.
         22    1    3    3    0    0 -0.94566972367E+02  0.17878951793E+02  0.53711381898E+02  0.11021561471E+03  0.00000000000E+00 0.  1.
</event>
<event>
 7    1  0.5562528E-006  0.4801053E+02  0.7818608E-02  0.1466416E+00
          2   -1    0    0  502    0  0.00000000000E+00  0.00000000000E+00  0.31629855926E+03  0.31629855926E+03  0.00000000000E+00 0. -1.
          1   -1    0    0  501    0 -0.00000000000E+00 -0.00000000000E+00 -0.61895136411E+03  0.61895136411E+03  0.00000000000E+00 0. -1.
         25    2    1    2    0    0  0.13025412462E+02 -0.24368744185E+02  0.10073035463E+03  0.16289758817E+03  0.12500209129E+03 0.  0.
          2    1    1    2  501    0 -0.48184679357E+02 -0.31375449168E+01 -0.58415647715E+03  0.58614878428E+03  0.00000000000E+00 0. -1.
          1    1    1    2  502    0  0.35159266894E+02  0.27506289102E+02  0.18077331768E+03  0.18620355092E+03  0.00000000000E+00 0. -1.
         22    1    3    3    0    0 -0.17646494882E+01  0.38275872924E+02  0.89768468846E+02  0.97603967311E+02  0.00000000000E+00 0.  1.
         22    1    3    3    0    0  0.14790061950E+02 -0.62644617109E+02  0.10961885780E+02  0.65293620861E+02  0.00000000000E+00 0.  1.
</event>
<event>
 7    1  0.5562528E-006  0.6080097E+02  0.7818608E-02  0.1429721E+00
          2   -1    0    0  502    0  0.00000000000E+00  0.00000000000E+00  0.16951387338E+04  0.16951387338E+04  0.00000000000E+00 0. -1.
          1   -1    0    0  501    0 -0.00000000000E+00 -0.00000000000E+00 -0.53867835501E+03  0.53867835501E+03  0.00000000000E+00 0. -1.
         25    2    1    2    0    0  0.60644138903E+02  0.72980691004E+02 -0.86625011309E+02  0.17927961828E+03  0.12503357990E+03 0.  0.
          2    1    1    2  501    0 -0.52829758404E+02 -0.27417896691E+02 -0.40321688339E+03  0.40758628471E+03  0.00000000000E+00 0. -1.
          1    1    1    2  502    0 -0.78143804991E+01 -0.45562794313E+02  0.16463022735E+04  0.16469511858E+04  0.00000000000E+00 0. -1.
         22    1    3    3    0    0 -0.31426333412E+02  0.12516170662E+02 -0.55190862061E+02  0.64732528259E+02  0.00000000000E+00 0. -1.
         22    1    3    3    0    0  0.92070472315E+02  0.60464520341E+02 -0.31434149248E+02  0.11454709002E+03  0.00000000000E+00 0. -1.
</event>
<event>
 7    1  0.5562528E-006  0.8393173E+02  0.7818608E-02  0.1431204E+00
          2   -1    0    0  502    0  0.00000000000E+00  0.00000000000E+00  0.77809649434E+03  0.77809649434E+03  0.00000000000E+00 0. -1.
          1   -1    0    0  501    0 -0.00000000000E+00 -0.00000000000E+00 -0.78179731747E+03  0.78179731747E+03  0.00000000000E+00 0. -1.
         25    2    1    2    0    0 -0.74280188372E+01  0.10057909892E+03  0.19558959207E+03  0.25308066859E+03  0.12499282255E+03 0.  0.
          2    1    1    2  501    0  0.26243144117E+02 -0.20194441973E+02 -0.74960722430E+03  0.75033826293E+03  0.00000000000E+00 0. -1.
          1    1    1    2  502    0 -0.18815125279E+02 -0.80384656943E+02  0.55031680910E+03  0.55647488028E+03  0.00000000000E+00 0. -1.
         22    1    3    3    0    0  0.13000324063E+02 -0.27644534110E+02  0.32245450679E+02  0.44418439655E+02  0.00000000000E+00 0. -1.
         22    1    3    3    0    0 -0.20428342900E+02  0.12822363303E+03  0.16334414139E+03  0.20866222894E+03  0.00000000000E+00 0. -1.
</event>
<event>
 7    1  0.5562528E-006  0.5680586E+02  0.7818608E-02  0.1465959E+00
          2   -1    0    0  502    0  0.00000000000E+00  0.00000000000E+00  0.23948436263E+04  0.23948436263E+04  0.00000000000E+00 0. -1.
          1   -1    0    0  501    0 -0.00000000000E+00 -0.00000000000E+00 -0.13972989235E+03  0.13972989235E+03  0.00000000000E+00 0. -1.
         25    2    1    2    0    0  0.36768171680E+02  0.83249109603E+02  0.44923379953E+03  0.47509821374E+03  0.12499997344E+03 0.  0.
          2    1    1    2  501    0 -0.47612592887E+01 -0.37552678608E+02 -0.12356033545E+03  0.12922859496E+03  0.00000000000E+00 0. -1.
          1    1    1    2  502    0 -0.32006912391E+02 -0.45696430994E+02  0.19294402699E+04  0.19302467099E+04  0.00000000000E+00 0. -1.
         22    1    3    3    0    0  0.78918436586E+02  0.36383368478E+02  0.20089585368E+03  0.21888584504E+03  0.00000000000E+00 0.  1.
         22    1    3    3    0    0 -0.42150264906E+02  0.46865741125E+02  0.24833794586E+03  0.25621236870E+03  0.00000000000E+00 0.  1.
</event>
<event>
 7    1  0.5562528E-006  0.9906482E+02  0.7818608E-02  0.1342378E+00
          2   -1    0    0  502    0  0.00000000000E+00  0.00000000000E+00  0.10734089452E+04  0.10734089452E+04  0.00000000000E+00 0. -1.
          1   -1    0    0  501    0 -0.00000000000E+00 -0.00000000000E+00 -0.68775928557E+03  0.68775928557E+03  0.00000000000E+00 0. -1.
         25    2    1    2    0    0 -0.11062169762E+03 -0.37236250167E+02 -0.56600010696E+03  0.59127171742E+03  0.12498969728E+03 0.  0.
          2    1    1    2  501    0  0.81937159733E+02 -0.12616857835E+02 -0.92471175649E+02  0.12419259870E+03  0.00000000000E+00 0. -1.
          1    1    1    2  502    0  0.28684537883E+02  0.49853108002E+02  0.10441209423E+04  0.10457039147E+04  0.00000000000E+00 0. -1.
         22    1    3    3    0    0 -0.13244859951E+03 -0.73858496910E+01 -0.40896406642E+03  0.42994044926E+03  0.00000000000E+00 0. -1.
         22    1    3    3    0    0  0.21826901898E+02 -0.29850400476E+02 -0.15703604055E+03  0.16133126816E+03  0.00000000000E+00 0. -1.
</event>
<event>
 7    1  0.5562528E-006  0.6124537E+02  0.7818608E-02  0.1421058E+00
          2   -1    0    0  502    0  0.00000000000E+00  0.00000000000E+00  0.77963218067E+02  0.77963218067E+02  0.00000000000E+00 0. -1.
          1   -1    0    0  501    0 -0.00000000000E+00 -0.00000000000E+00 -0.65508255716E+03  0.65508255716E+03  0.00000000000E+00 0. -1.
         25    2    1    2    0    0  0.23190452411E+02  0.79972823121E+01 -0.89235025889E+02  0.15551595163E+03  0.12498226978E+03 0.  0.
          2    1    1    2  501    0  0.27446756367E+02  0.40626443067E+02 -0.50327705282E+03  0.50565959321E+03  0.00000000000E+00 0. -1.
          1    1    1    2  502    0 -0.50637208778E+02 -0.48623725379E+02  0.15392739615E+02  0.71870230384E+02  0.00000000000E+00 0. -1.
         22    1    3    3    0    0 -0.11676809314E+02 -0.72854890527E+01  0.28570057736E+02  0.31712370229E+02  0.00000000000E+00 0.  1.
         22    1    3    3    0    0  0.34867261724E+02  0.15282771365E+02 -0.11780508363E+03  0.12380358141E+03  0.00000000000E+00 0.  1.
</event>
<event>
 7    1  0.5562528E-006  0.2749137E+02  0.7818608E-02  0.1642271E+00
          2   -1    0    0  502    0  0.00000000000E+00  0.00000000000E+00  0.37039859429E+02  0.37039859429E+02  0.00000000000E+00 0. -1.
          1   -1    0    0  501    0 -0.00000000000E+00 -0.00000000000E+00 -0.88736791179E+03  0.88736791179E+03  0.00000000000E+00 0. -1.
         25    2    1    2    0    0 -0.30779291809E+02 -0.34847856322E+02 -0.40597963144E+03  0.42732502557E+03  0.12500191371E+03 0.  0.
          2    1    1    2  501    0  0.71122619076E+01  0.26004475224E+02 -0.46418097625E+03  0.46496321974E+03  0.00000000000E+00 0. -1.
          1    1    1    2  502    0  0.23667029902E+02  0.88433810980E+01  0.19832555334E+02  0.32119525910E+02  0.00000000000E+00 0. -1.
         22    1    3    3    0    0 -0.55361422443E+02 -0.16676405546E+01 -0.36489385498E+03  0.36907342565E+03  0.00000000000E+00 0.  1.
         22    1    3    3    0    0  0.24582130633E+02 -0.33180215767E+02 -0.41085776464E+02  0.58251599913E+02  0.00000000000E+00 0.  1.
</event>
<event>
 7    1  0.5562528E-006  0.3620869E+03  0.7818608E-02  0.1296312E+00
          2   -1    0    0  502    0  0.00000000000E+00  0.00000000000E+00  0.58203977987E+03  0.58203977987E+03  0.00000000000E+00 0. -1.
          1   -1    0    0  501    0 -0.00000000000E+00 -0.00000000000E+00 -0.31972531362E+03  0.31972531362E+03  0.00000000000E+00 0. -1.
         25    2    1    2    0    0 -0.13435775314E+03 -0.32174355764E+03  0.48440024460E+02  0.37355249727E+03  0.12499643810E+03 0.  0.
          2    1    1    2  501    0 -0.18410150341E+02 -0.15022032106E+02 -0.62295232681E+02  0.66673016273E+02  0.00000000000E+00 0. -1.
          1    1    1    2  502    0  0.15276790348E+03  0.33676558974E+03  0.27616967447E+03  0.46153957995E+03  0.00000000000E+00 0. -1.
         22    1    3    3    0    0  0.16710263148E+01 -0.14804352633E+03  0.37128027189E+02  0.15263737556E+03  0.00000000000E+00 0.  1.
         22    1    3    3    0    0 -0.13602877945E+03 -0.17370003131E+03  0.11311997270E+02  0.22091512170E+03  0.00000000000E+00 0.  1.
</event>
<event>
 7    1  0.5562528E-006  0.7180606E+02  0.7818608E-02  0.1356656E+00
          2   -1    0    0  502    0  0.00000000000E+00  0.00000000000E+00  0.64139094136E+03  0.64139094136E+03  0.00000000000E+00 0. -1.
          1   -1    0    0  501    0 -0.00000000000E+00 -0.00000000000E+00 -0.28598799025E+03  0.28598799025E+03  0.00000000000E+00 0. -1.
         25    2    1    2    0    0  0.83317971229E+02  0.63594131935E+02 -0.21571167163E+03  0.27044629832E+03  0.12499430808E+03 0.  0.
          2    1    1    2  501    0 -0.69905655408E+02  0.68877402637E+01 -0.10398983759E+02  0.71009721075E+02  0.00000000000E+00 0. -1.
          1    1    1    2  502    0 -0.13412315820E+02 -0.70481872198E+02  0.58151360649E+03  0.58592291221E+03  0.00000000000E+00 0. -1.
         22    1    3    3    0    0 -0.12371563364E+02  0.65809915145E+02 -0.98742685813E+02  0.11930682509E+03  0.00000000000E+00 0. -1.
         22    1    3    3    0    0  0.95689534593E+02 -0.22157832098E+01 -0.11696898582E+03  0.15113947323E+03  0.00000000000E+00 0. -1.
</event>
<event>
 7    1  0.5562528E-006  0.9508725E+02  0.7818608E-02  0.1355390E+00
          2   -1    0    0  502    0  0.00000000000E+00  0.00000000000E+00  0.16851288533E+03  0.16851288533E+03  0.00000000000E+00 0. -1.
          1   -1    0    0  501    0 -0.00000000000E+00 -0.00000000000E+00 -0.32850909173E+03  0.32850909173E+03  0.00000000000E+00 0. -1.
         25    2    1    2    0    0 -0.31251408725E+02 -0.84785655379E+02  0.46143812542E+02  0.16099462550E+03  0.12499904039E+03 0.  0.
          2    1    1    2  501    0  0.50434759845E+02 -0.18194293657E+02 -0.22350527616E+03  0.22984626556E+03  0.00000000000E+00 0. -1.
          1    1    1    2  502    0 -0.19183351120E+02  0.10297994904E+03  0.17365257217E+02  0.10618108599E+03  0.00000000000E+00 0. -1.
         22    1    3    3    0    0 -0.49219371910E+01 -0.82878260547E+02  0.81851902879E+02  0.11658801629E+03  0.00000000000E+00 0. -1.
         22    1    3    3    0    0 -0.26329471534E+02 -0.19073948325E+01 -0.35708090337E+02  0.44406609214E+02  0.00000000000E+00 0. -1.
</event>
<event>
 7    1  0.5562528E-006  0.5061183E+02  0.7818608E-02  0.1490354E+00
          2   -1    0    0  502    0  0.00000000000E+00  0.00000000000E+00  0.20271920887E+04  0.20271920887E+04  0.00000000000E+00 0. -1.
          1   -1    0    0  501    0 -0.00000000000E+00 -0.00000000000E+00 -0.48061525713E+03  0.48061525713E+03  0.00000000000E+00 0. -1.
         25    2    1    2    0    0  0.46412870143E+02 -0.46822431479E+02  0.69164888232E+03  0.70594006898E+03  0.12500683970E+03 0.  0.
          2    1    1    2  501    0 -0.10764412165E+02  0.49443892845E+02 -0.47187625012E+03  0.47458167530E+03  0.00000000000E+00 0. -1.
          1    1    1    2  502    0 -0.35648457979E+02 -0.26214613669E+01  0.13268041994E+04  0.13272856016E+04  0.00000000000E+00 0. -1.
         22    1    3    3    0    0  0.38263051777E+02 -0.40420358089E+02  0.10197881844E+03  0.11617893910E+03  0.00000000000E+00 0. -1.
         22    1    3    3    0    0  0.81498183663E+01 -0.64020733894E+01  0.58967006389E+03  0.58976112989E+03  0.00000000000E+00 0. -1.
</event>
<event>
 7    1  0.5562528E-006  0.1515455E+03  0.7818608E-02  0.1325344E+00
          2   -1    0    0  502    0  0.00000000000E+00  0.00000000000E+00  0.30290119745E+03  0.30290119745E+03  0.00000000000E+00 0. -1.
          1   -1    0    0  501    0 -0.00000000000E+00 -0.00000000000E+00 -0.57970442384E+03  0.57970442384E+03  0.00000000000E+00 0. -1.
         25    2    1    2    0    0 -0.12400198325E+03 -0.97100715957E+02  0.72712662792E+02  0.21381497646E+03  0.12499868774E+03 0.  0.
          2    1    1    2  501    0  0.35803267243E+02 -0.24947539341E+02 -0.47241273972E+03  0.47442391414E+03  0.00000000000E+00 0. -1.
          1    1    1    2  502    0  0.88198716010E+02  0.12204825530E+03  0.12289685054E+03  0.19436673069E+03  0.00000000000E+00 0. -1.
         22    1    3    3    0    0 -0.11598468829E+03 -0.15721476607E+02  0.58373684222E+02  0.13079411208E+03  0.00000000000E+00 0. -1.
         22    1    3    3    0    0 -0.80172949613E+01 -0.81379239350E+02  0.14338978570E+02  0.83020864378E+02  0.00000000000E+00 0. -1.
</event>
<event>
 7    1  0.5562528E-006  0.1064855E+03  0.7818608E-02  0.1366169E+00
          2   -1    0    0  502    0  0.00000000000E+00  0.00000000000E+00  0.13142801612E+04  0.13142801612E+04  0.00000000000E+00 0. -1.
          1   -1    0    0  501    0 -0.00000000000E+00 -0.00000000000E+00 -0.21120474923E+03  0.21120474923E+03  0.00000000000E+00 0. -1.
         25    2    1    2    0    0  0.64228015600E+02  0.12816541197E+03  0.30890164933E+02  0.19269342231E+03  0.12499976760E+03 0.  0.
          2    1    1    2  501    0 -0.39738792916E+02 -0.91928727118E+02 -0.11059536687E+03  0.14920253921E+03  0.00000000000E+00 0. -1.
          1    1    1    2  502    0 -0.24489222684E+02 -0.36236684848E+02  0.11827806139E+04  0.11835889489E+04  0.00000000000E+00 0. -1.
         22    1    3    3    0    0 -0.45946771182E+00  0.21654205709E+02 -0.42765532191E+02  0.47937526835E+02  0.00000000000E+00 0.  1.
         22    1    3    3    0    0  0.64687483311E+02  0.10651120626E+03  0.73655697124E+02  0.14475589547E+03  0.00000000000E+00 0.  1.
</event>
<event>
 7    1  0.5562528E-006  0.9341734E+02  0.7818608E-02  0.1315680E+00
          2   -1    0    0  502    0  0.00000000000E+00  0.00000000000E+00  0.86876128824E+02  0.86876128824E+02  0.00000000000E+00 0. -1.
          1   -1    0    0  501    0 -0.00000000000E+00 -0.00000000000E+00 -0.83648554831E+03  0.83648554831E+03  0.00000000000E+00 0. -1.
         25    2    1    2    0    0 -0.69060755366E+02  0.32649415525E+02 -0.13759883849E+03  0.20098165107E+03  0.12499924578E+03 0.  0.
          2    1    1    2  501    0  0.37454665938E+02  0.67470053985E+02 -0.61254711484E+03  0.61738887914E+03  0.00000000000E+00 0. -1.
          1    1    1    2  502    0  0.31606089429E+02 -0.10011946951E+03  0.53653384771E+00  0.10499114692E+03  0.00000000000E+00 0. -1.
         22    1    3    3    0    0 -0.46037515425E+02  0.35603794415E+02 -0.15905742028E+03  0.16937044001E+03  0.00000000000E+00 0.  1.
         22    1    3    3    0    0 -0.23023239942E+02 -0.29543788897E+01  0.21458581790E+02  0.31611211057E+02  0.00000000000E+00 0.  1.
</event>
<event>
 7    1  0.5562528E-006  0.8733274E+02  0.7818608E-02  0.1361218E+00
          2   -1    0    0  502    0  0.00000000000E+00  0.00000000000E+00  0.60891993375E+03  0.60891993375E+03  0.00000000000E+00 0. -1.
          1   -1    0    0  501    0 -0.00000000000E+00 -0.00000000000E+00 -0.18897392389E+03  0.18897392389E+03  0.00000000000E+00 0. -1.
         25    2    1    2    0    0  0.24672631591E+02 -0.49343662061E+02  0.30221065058E+03  0.33166223189E+03  0.12500009201E+03 0.  0.
          2    1    1    2  501    0  0.29350487595E+02 -0.47198130627E+02 -0.15887628110E+03  0.16831751945E+03  0.00000000000E+00 0. -1.
          1    1    1    2  502    0 -0.54023119186E+02  0.96541792688E+02  0.27661164038E+03  0.29791410630E+03  0.00000000000E+00 0. -1.
         22    1    3    3    0    0 -0.24223166611E+02  0.31202711509E+02  0.60702256743E+02  0.72423304121E+02  0.00000000000E+00 0. -1.
         22    1    3    3    0    0  0.48895798201E+02 -0.80546373569E+02  0.24150839384E+03  0.25923892777E+03  0.00000000000E+00 0. -1.
</event>
<event>
 7    1  0.5562528E-006  0.2063297E+03  0.7818608E-02  0.1282887E+00
          2   -1    0    0  502    0  0.00000000000E+00  0.00000000000E+00  0.69252353046E+03  0.69252353046E+03  0.00000000000E+00 0. -1.
          1   -1    0    0  501    0 -0.00000000000E+00 -0.00000000000E+00 -0.15607433918E+03  0.15607433918E+03  0.00000000000E+00 0. -1.
         25    2    1    2    0    0 -0.21519169279E+03 -0.93503065937E+02  0.30579993489E+03  0.40520244360E+03  0.12500052853E+03 0.  0.
          2    1    1    2  501    0  0.16932390918E+03  0.10500846847E+03 -0.86878829191E+01  0.19943130140E+03  0.00000000000E+00 0. -1.
          1    1    1    2  502    0  0.45867783612E+02 -0.11505402530E+02  0.23933713930E+03  0.24396412464E+03  0.00000000000E+00 0. -1.
         22    1    3    3    0    0 -0.11467258058E+02 -0.33794221000E+02  0.11273286988E+03  0.11824655315E+03  0.00000000000E+00 0. -1.
         22    1    3    3    0    0 -0.20372443474E+03 -0.59708844937E+02  0.19306706501E+03  0.28695589045E+03  0.00000000000E+00 0. -1.
</event>
<event>
 7    1  0.5562528E-006  0.8255671E+02  0.7818608E-02  0.1401596E+00
          2   -1    0    0  502    0  0.00000000000E+00  0.00000000000E+00  0.22329351349E+04  0.22329351349E+04  0.00000000000E+00 0. -1.
          1   -1    0    0  501    0 -0.00000000000E+00 -0.00000000000E+00 -0.43960665986E+03  0.43960665986E+03  0.00000000000E+00 0. -1.
         25    2    1    2    0    0 -0.37473513034E+02 -0.15488153352E+02  0.54947645074E+03  0.56497245544E+03  0.12500143368E+03 0.  0.
          2    1    1    2  501    0  0.75904318840E+02  0.33222655604E+02 -0.42761406618E+03  0.43556744605E+03  0.00000000000E+00 0. -1.
          1    1    1    2  502    0 -0.38430805806E+02 -0.17734502252E+02  0.16714660905E+04  0.16720018933E+04  0.00000000000E+00 0. -1.
         22    1    3    3    0    0 -0.92642025781E+01 -0.40482263023E+02  0.54282845313E+02  0.68346663153E+02  0.00000000000E+00 0.  1.
         22    1    3    3    0    0 -0.28209310456E+02  0.24994109672E+02  0.49519360542E+03  0.49662579229E+03  0.00000000000E+00 0.  1.
</event>
<event>
 7    1  0.5562528E-006  0.8795403E+02  0.7818608E-02  0.1487875E+00
          2   -1    0    0  502    0  0.00000000000E+00  0.00000000000E+00  0.25035530372E+04  0.25035530372E+04  0.00000000000E+00 0. -1.
          1   -1    0    0  501    0 -0.00000000000E+00 -0.00000000000E+00 -0.10579724281E+03  0.10579724281E+03  0.00000000000E+00 0. -1.
         25    2    1    2    0    0 -0.77729666307E+02  0.36638658544E+02  0.53125822977E+03  0.55248941880E+03  0.12499983546E+03 0.  0.
          2    1    1    2  501    0  0.90059500922E+01  0.18890455249E+02 -0.93023717253E+02  0.95348667574E+02  0.00000000000E+00 0. -1.
          1    1    1    2  502    0  0.68723716214E+02 -0.55529113793E+02  0.19595212819E+04  0.19615121937E+04  0.00000000000E+00 0. -1.
         22    1    3    3    0    0  0.10700944674E+02 -0.35015790066E+02  0.10101237566E+03  0.10744354707E+03  0.00000000000E+00 0.  1.
         22    1    3    3    0    0 -0.88430610980E+02  0.71654448610E+02  0.43024585411E+03  0.44504587173E+03  0.00000000000E+00 0.  1.
</event>
<event>
 7    1  0.5562528E-006  0.3770126E+02  0.7818608E-02  0.1532262E+00
          2   -1    0    0  502    0  0.00000000000E+00  0.00000000000E+00  0.15986614756E+04  0.15986614756E+04  0.00000000000E+00 0. -1.
          1   -1    0    0  501    0 -0.00000000000E+00 -0.00000000000E+00 -0.62505238421E+02  0.62505238421E+02  0.00000000000E+00 0. -1.
         25    2    1    2    0    0  0.87184012725E+01  0.11581596459E+02  0.24553276776E+03  0.27590266143E+03  0.12500317854E+03 0.  0.
          2    1    1    2  501    0 -0.29861680163E+02  0.20349374953E+02 -0.40105600195E+02  0.53984036253E+02  0.00000000000E+00 0. -1.
          1    1    1    2  502    0  0.21143278891E+02 -0.31930971412E+02  0.13307290696E+04  0.13312800163E+04  0.00000000000E+00 0. -1.
         22    1    3    3    0    0  0.19774407108E+01  0.77509158635E+01 -0.14069577428E+02  0.16184559849E+02  0.00000000000E+00 0.  1.
         22    1    3    3    0    0  0.67409605618E+01  0.38306805959E+01  0.25960234518E+03  0.25971810158E+03  0.00000000000E+00 0.  1.
</event>
<event>
 7    1  0.5562528E-006  0.1226942E+03  0.7818608E-02  0.1308157E+00
          2   -1    0    0  502    0  0.00000000000E+00  0.00000000000E+00  0.62137102065E+03  0.62137102065E+03  0.00000000000E+00 0. -1.
          1   -1    0    0  501    0 -0.00000000000E+00 -0.00000000000E+00 -0.56787326577E+03  0.56787326577E+03  0.00000000000E+00 0. -1.
         25    2    1    2    0    0 -0.30101448351E+02  0.11905725409E+03 -0.30760746032E+03  0.35401727626E+03  0.12500062121E+03 0.  0.
          2    1    1    2  501    0 -0.32483482721E+02 -0.12527873507E+03 -0.21756495086E+03  0.25314905876E+03  0.00000000000E+00 0. -1.
          1    1    1    2  502    0  0.62584931072E+02  0.62214809826E+01  0.57867016605E+03  0.58207795140E+03  0.00000000000E+00 0. -1.
         22    1    3    3    0    0 -0.56066116165E+02  0.87794125964E+01 -0.14611061471E+03  0.15674437533E+03  0.00000000000E+00 0. -1.
         22    1    3    3    0    0  0.25964667814E+02  0.11027784149E+03 -0.16149684561E+03  0.19727290093E+03  0.00000000000E+00 0. -1.
</event>
<event>
 7    1  0.5562528E-006  0.1048311E+03  0.7818608E-02  0.1305967E+00
          2   -1    0    0  502    0  0.00000000000E+00  0.00000000000E+00  0.42388983926E+03  0.42388983926E+03  0.00000000000E+00 0. -1.
          1   -1    0    0  501    0 -0.00000000000E+00 -0.00000000000E+00 -0.51374490853E+03  0.51374490853E+03  0.00000000000E+00 0. -1.
         25    2    1    2    0    0  0.56676428454E+02  0.60919828287E+02  0.58532796008E+02  0.16116568398E+03  0.12499938585E+03 0.  0.
          2    1    1    2  501    0  0.23490862194E+01 -0.10734373404E+03 -0.45155263886E+03  0.46414219922E+03  0.00000000000E+00 0. -1.
          1    1    1    2  502    0 -0.59025514674E+02  0.46423905752E+02  0.30316477357E+03  0.31232686459E+03  0.00000000000E+00 0. -1.
         22    1    3    3    0    0  0.49056118710E+02  0.34129832908E+02 -0.31055000903E+02  0.67348061281E+02  0.00000000000E+00 0. -1.
         22    1    3    3    0    0  0.76203097442E+01  0.26789995378E+02  0.89587796911E+02  0.93817622696E+02  0.00000000000E+00 0. -1.
</event>
<event>
 7    1  0.5562528E-006  0.1498177E+03  0.7818608E-02  0.1219976E+00
          2   -1    0    0  502    0  0.00000000000E+00  0.00000000000E+00  0.89934068749E+03  0.89934068749E+03  0.00000000000E+00 0. -1.
          1   -1    0    0  501    0 -0.00000000000E+00 -0.00000000000E+00 -0.71508909088E+03  0.71508909088E+03  0.00000000000E+00 0. -1.
         25    2    1    2    0    0 -0.14417458983E+01  0.14596771813E+03 -0.60129909424E+02  0.20137005989E+03  0.12500256655E+03 0.  0.
          2    1    1    2  501    0  0.11631586355E+03 -0.10500318640E+03 -0.56920611853E+03  0.59038178719E+03  0.00000000000E+00 0. -1.
          1    1    1    2  502    0 -0.11487411765E+03 -0.40964531738E+02  0.81358762457E+03  0.82267793128E+03  0.00000000000E+00 0. -1.
         22    1    3    3    0    0 -0.55475292533E+01 -0.13312511726E+02  0.18689771801E+02  0.23607321306E+02  0.00000000000E+00 0. -1.
         22    1    3    3    0    0  0.41057833550E+01  0.15928022986E+03 -0.78819681225E+02  0.17776273859E+03  0.00000000000E+00 0. -1.
</event>
<event>
 7    1  0.5562528E-006  0.5440432E+02  0.7818608E-02  0.1499276E+00
          2   -1    0    0  502    0  0.00000000000E+00  0.00000000000E+00  0.10393502914E+04  0.10393502914E+04  0.00000000000E+00 0. -1.
          1   -1    0    0  501    0 -0.00000000000E+00 -0.00000000000E+00 -0.17151627006E+03  0.17151627006E+03  0.00000000000E+00 0. -1.
         25    2    1    2    0    0 -0.24924233310E+02 -0.71275977081E+01  0.27479432757E+03  0.30300064473E+03  0.12500179274E+03 0.  0.
          2    1    1    2  501    0 -0.31259492420E+02  0.38379030364E+00 -0.15478142295E+03  0.15790690945E+03  0.00000000000E+00 0. -1.
          1    1    1    2  502    0  0.56183725731E+02  0.67438074045E+01  0.74782111672E+03  0.74995900727E+03  0.00000000000E+00 0. -1.
         22    1    3    3    0    0 -0.54185156504E+02  0.28860787525E+02  0.23167437159E+03  0.23967058787E+03  0.00000000000E+00 0.  1.
         22    1    3    3    0    0  0.29260923194E+02 -0.35988385233E+02  0.43119955983E+02  0.63330056859E+02  0.00000000000E+00 0.  1.
</event>
<event>
 7    1  0.5562528E-006  0.5596258E+02  0.7818608E-02  0.1541345E+00
          2   -1    0    0  502    0  0.00000000000E+00  0.00000000000E+00  0.16051168176E+03  0.16051168176E+03  0.00000000000E+00 0. -1.
          1   -1    0    0  501    0 -0.00000000000E+00 -0.00000000000E+00 -0.21660539294E+04  0.21660539294E+04  0.00000000000E+00 0. -1.
         25    2    1    2    0    0  0.37577820020E+02 -0.40224037568E+01 -0.12453147140E+03  0.18044742973E+03  0.12499966096E+03 0.  0.
          2    1    1    2  501    0 -0.55226427776E+02 -0.10634210469E+02 -0.20121760194E+04  0.20129618421E+04  0.00000000000E+00 0. -1.
          1    1    1    2  502    0  0.17648607756E+02  0.14656614226E+02  0.13116524314E+03  0.13315633933E+03  0.00000000000E+00 0. -1.
         22    1    3    3    0    0 -0.34636260892E+02  0.32632831828E+02 -0.31320769972E+02  0.56969842138E+02  0.00000000000E+00 0. -1.
         22    1    3    3    0    0  0.72214080912E+02 -0.36655235584E+02 -0.93210701427E+02  0.12347758759E+03  0.00000000000E+00 0. -1.
</event>
<event>
 7    1  0.5562528E-006  0.6284461E+02  0.7818608E-02  0.1425563E+00
          2   -1    0    0  502    0  0.00000000000E+00  0.00000000000E+00  0.26524564887E+03  0.26524564887E+03  0.00000000000E+00 0. -1.
          1   -1    0    0  501    0 -0.00000000000E+00 -0.00000000000E+00 -0.13200659920E+04  0.13200659920E+04  0.00000000000E+00 0. -1.
         25    2    1    2    0    0  0.69176082392E+02 -0.91155954929E+01 -0.11800230906E+03  0.18553140432E+03  0.12501572937E+03 0.  0.
          2    1    1    2  501    0 -0.26763991834E+02 -0.37611277030E+02 -0.11635321715E+04  0.11644475229E+04  0.00000000000E+00 0. -1.
          1    1    1    2  502    0 -0.42412090558E+02  0.46726872523E+02  0.22671413740E+03  0.23533271370E+03  0.00000000000E+00 0. -1.
         22    1    3    3    0    0  0.77698520428E+02 -0.54228330471E+02 -0.62528377209E+02  0.11352343308E+03  0.00000000000E+00 0. -1.
         22    1    3    3    0    0 -0.85224380363E+01  0.45112734978E+02 -0.55473931847E+02  0.72007971238E+02  0.00000000000E+00 0. -1.
</event>
<event>
 7    1  0.5562528E-006  0.1212911E+03  0.7818608E-02  0.1407603E+00
          2   -1    0    0  502    0  0.00000000000E+00  0.00000000000E+00  0.98237974952E+03  0.98237974952E+03  0.00000000000E+00 0. -1.
          1   -1    0    0  501    0 -0.00000000000E+00 -0.00000000000E+00 -0.33757396552E+02  0.33757396552E+02  0.00000000000E+00 0. -1.
         25    2    1    2    0    0 -0.49142934439E+02 -0.95461907765E+02  0.65373728044E+03  0.67418454070E+03  0.12499743694E+03 0.  0.
          2    1    1    2  501    0  0.36604756788E+02  0.11991416803E+03  0.15483207644E+03  0.19922923432E+03  0.00000000000E+00 0. -1.
          1    1    1    2  502    0  0.12538177650E+02 -0.24452260263E+02  0.14005299609E+03  0.14272337105E+03  0.00000000000E+00 0. -1.
         22    1    3    3    0    0  0.23845474343E+02 -0.69820409527E+02  0.45460127455E+03  0.46054947080E+03  0.00000000000E+00 0. -1.
         22    1    3    3    0    0 -0.72988408781E+02 -0.25641498238E+02  0.19913600589E+03  0.21363506990E+03  0.00000000000E+00 0. -1.
</event>
<event>
 7    1  0.1143031E-005  0.8630972E+02  0.7818608E-02  0.1449425E+00
          2   -1    0    0  502    0  0.00000000000E+00  0.00000000000E+00  0.19416280187E+04  0.19416280187E+04  0.00000000000E+00 0. -1.
          1   -1    0    0  501    0 -0.00000000000E+00 -0.00000000000E+00 -0.27933695334E+04  0.27933695334E+04  0.00000000000E+00 0. -1.
         25    2    1    2    0    0 -0.56034676567E+02 -0.35079234647E+02 -0.12224213720E+04  0.12305726641E+04  0.12499853322E+03 0.  0.
          2    1    1    2  501    0 -0.29567312758E+01 -0.27947862150E+02 -0.15657847818E+04  0.15660369754E+04  0.00000000000E+00 0. -1.
          1    1    1    2  502    0  0.58991407843E+02  0.63027096797E+02  0.19364646391E+04  0.19383879126E+04  0.00000000000E+00 0. -1.
         22    1    3    3    0    0 -0.38967046306E+02 -0.75728058361E+02 -0.53473277040E+03  0.54147234949E+03  0.00000000000E+00 0.  1.
         22    1    3    3    0    0 -0.17067630261E+02  0.40648823714E+02 -0.68768860160E+03  0.68910031464E+03  0.00000000000E+00 0.  1.
</event>
<event>
 7    1  0.5562528E-006  0.1603442E+03  0.7818608E-02  0.1209501E+00
          2   -1    0    0  502    0  0.00000000000E+00  0.00000000000E+00  0.24113781226E+04  0.24113781226E+04  0.00000000000E+00 0. -1.
          1   -1    0    0  501    0 -0.00000000000E+00 -0.00000000000E+00 -0.15432650427E+04  0.15432650427E+04  0.00000000000E+00 0. -1.
         25    2    1    2    0    0  0.78013369690E+02  0.40737459167E+01  0.12138662641E+04  0.12227830047E+04  0.12499715282E+03 0.  0.
          2    1    1    2  501    0 -0.93974388915E+02 -0.13039380049E+03 -0.15311912320E+04  0.15396039484E+04  0.00000000000E+00 0. -1.
          1    1    1    2  502    0  0.15961019225E+02  0.12632005457E+03  0.11854380477E+04  0.11922562121E+04  0.00000000000E+00 0. -1.
         22    1    3    3    0    0  0.70867723651E+02 -0.53789764609E+02  0.75802580359E+03  0.76322912152E+03  0.00000000000E+00 0. -1.
         22    1    3    3    0    0  0.71456460399E+01  0.57863510526E+02  0.45584046055E+03  0.45955388322E+03  0.00000000000E+00 0. -1.
</event>
<event>
 7    1  0.5562528E-006  0.6949928E+02  0.7818608E-02  0.1382901E+00
          2   -1    0    0  502    0  0.00000000000E+00  0.00000000000E+00  0.54696715448E+03  0.54696715448E+03  0.00000000000E+00 0. -1.
          1   -1    0    0  501    0 -0.00000000000E+00 -0.00000000000E+00 -0.10725465096E+04  0.10725465096E+04  0.00000000000E+00 0. -1.
         25    2    1    2    0    0 -0.58880182596E+02  0.61744881115E+02 -0.39162059221E+03  0.41984657895E+03  0.12500062147E+03 0.  0.
          2    1    1    2  501    0  0.69892191801E+02 -0.43945259088E+01 -0.66336422080E+03  0.66705046268E+03  0.00000000000E+00 0. -1.
          1    1    1    2  502    0 -0.11012009205E+02 -0.57350355206E+02  0.52940545792E+03  0.53261662241E+03  0.00000000000E+00 0. -1.
         22    1    3    3    0    0 -0.77281939764E+02  0.57155761525E+02 -0.15444239661E+03  0.18191133323E+03  0.00000000000E+00 0. -1.
         22    1    3    3    0    0  0.18401757169E+02  0.45891195905E+01 -0.23717819560E+03  0.23793524572E+03  0.00000000000E+00 0. -1.
</event>
<event>
 7    1  0.5562528E-006  0.1527411E+03  0.7818608E-02  0.1316247E+00
          2   -1    0    0  502    0  0.00000000000E+00  0.00000000000E+00  0.17558834137E+04  0.17558834137E+04  0.00000000000E+00 0. -1.
          1   -1    0    0  501    0 -0.00000000000E+00 -0.00000000000E+00 -0.10503597948E+04  0.10503597948E+04  0.00000000000E+00 0. -1.
         25    2    1    2    0    0 -0.62496464256E+02  0.18273244875E+03  0.11422316138E+03  0.25684450215E+03  0.12500084726E+03 0.  0.
          2    1    1    2  501    0  0.30435676779E+02 -0.14842381050E+03 -0.97283286627E+03  0.98456068560E+03  0.00000000000E+00 0. -1.
          1    1    1    2  502    0  0.32060787476E+02 -0.34308638254E+02  0.15641333238E+04  0.15648380208E+04  0.00000000000E+00 0. -1.
         22    1    3    3    0    0 -0.42581957367E+02  0.19833898274E+03  0.11127114706E+03  0.23137165629E+03  0.00000000000E+00 0. -1.
         22    1    3    3    0    0 -0.19914506889E+02 -0.15606533982E+02  0.29520143158E+01  0.25472845858E+02  0.00000000000E+00 0. -1.
</event>
<event>
 7    1  0.5562528E-006  0.1306980E+03  0.7818608E-02  0.1328352E+00
          2   -1    0    0  502    0  0.00000000000E+00  0.00000000000E+00  0.10344237158E+04  0.10344237158E+04  0.00000000000E+00 0. -1.
          1   -1    0    0  501    0 -0.00000000000E+00 -0.00000000000E+00 -0.10177600323E+04  0.10177600323E+04  0.00000000000E+00 0. -1.
         25    2    1    2    0    0  0.11509317487E+03 -0.11983676834E+03  0.31004890825E+02  0.21022474728E+03  0.12500340463E+03 0.  0.
          2    1    1    2  501    0 -0.73630918488E+01  0.48717493744E+02 -0.92293084574E+03  0.92424507320E+03  0.00000000000E+00 0. -1.
          1    1    1    2  502    0 -0.10773008302E+03  0.71119274591E+02  0.90858963838E+03  0.91771392764E+03  0.00000000000E+00 0. -1.
         22    1    3    3    0    0  0.51136272247E+02 -0.12688900227E+03 -0.42176911292E+01  0.13687047218E+03  0.00000000000E+00 0. -1.
         22    1    3    3    0    0  0.63956902623E+02  0.70522339322E+01  0.35222581954E+02  0.73354275105E+02  0.00000000000E+00 0. -1.
</event>
<event>
 7    1  0.5562528E-006  0.9511281E+02  0.7818608E-02  0.1362556E+00
          2   -1    0    0  502    0  0.00000000000E+00  0.00000000000E+00  0.26391232119E+04  0.26391232119E+04  0.00000000000E+00 0. -1.
          1   -1    0    0  501    0 -0.00000000000E+00 -0.00000000000E+00 -0.15677583730E+03  0.15677583730E+03  0.00000000000E+00 0. -1.
         25    2    1    2    0    0 -0.69283671923E+02  0.15772218724E+02  0.12921701612E+04  0.13001452418E+04  0.12499973650E+03 0.  0.
          2    1    1    2  501    0 -0.40587102844E+02 -0.29989096659E+02 -0.14626582738E+03  0.15472669807E+03  0.00000000000E+00 0. -1.
          1    1    1    2  502    0  0.10987077477E+03  0.14216877935E+02  0.13364430407E+04  0.13410271093E+04  0.00000000000E+00 0. -1.
         22    1    3    3    0    0 -0.86478096559E+02 -0.29150400539E+02  0.68140119539E+03  0.68748512429E+03  0.00000000000E+00 0. -1.
         22    1    3    3    0    0  0.17194424636E+02  0.44922619263E+02  0.61076896585E+03  0.61266011752E+03  0.00000000000E+00 0. -1.
</event>
<event>
 7    1  0.5562528E-006  0.1141380E+03  0.7818608E-02  0.1298529E+00
          2   -1    0    0  502    0  0.00000000000E+00  0.00000000000E+00  0.35889188567E+04  0.35889188567E+04  0.00000000000E+00 0. -1.
          1   -1    0    0  501    0 -0.00000000000E+00 -0.00000000000E+00 -0.13663210420E+03  0.13663210420E+03  0.00000000000E+00 0. -1.
         25    2    1    2    0    0  0.10506549530E+03  0.89800404651E+02  0.73060490754E+03  0.75399769891E+03  0.12500451212E+03 0.  0.
          2    1    1    2  501    0 -0.11283351077E+03 -0.16361509462E+02 -0.98339707307E+02  0.15056493010E+03  0.00000000000E+00 0. -1.
          1    1    1    2  502    0  0.77680154634E+01 -0.73438895189E+02  0.28200215523E+04  0.28209883319E+04  0.00000000000E+00 0. -1.
         22    1    3    3    0    0  0.10932338389E+03  0.21712397577E+02  0.54430665181E+03  0.55560126141E+03  0.00000000000E+00 0.  1.
         22    1    3    3    0    0 -0.42578885875E+01  0.68088007074E+02  0.18629825573E+03  0.19839643750E+03  0.00000000000E+00 0.  1.
</event>
<event>
 7    1  0.5562528E-006  0.9213142E+02  0.7818608E-02  0.1451914E+00
          2   -1    0    0  502    0  0.00000000000E+00  0.00000000000E+00  0.16660302562E+04  0.16660302562E+04  0.00000000000E+00 0. -1.
          1   -1    0    0  501    0 -0.00000000000E+00 -0.00000000000E+00 -0.23904420473E+03  0.23904420473E+03  0.00000000000E+00 0. -1.
         25    2    1    2    0    0 -0.78627080982E+02 -0.32958959108E+02 -0.49809971268E+02  0.15929244725E+03  0.12499815865E+03 0.  0.
          2    1    1    2  501    0  0.94167122591E+02  0.12301490389E+02 -0.11761076369E+03  0.15116568850E+03  0.00000000000E+00 0. -1.
          1    1    1    2  502    0 -0.15540041609E+02  0.20657468719E+02  0.15944067864E+04  0.15946163252E+04  0.00000000000E+00 0. -1.
         22    1    3    3    0    0 -0.68824283001E+02 -0.51219635004E+02  0.18623058647E+02  0.87789812927E+02  0.00000000000E+00 0.  1.
         22    1    3    3    0    0 -0.98027979807E+01  0.18260675896E+02 -0.68433029914E+02  0.71502634327E+02  0.00000000000E+00 0.  1.
</event>
<event>
 7    1  0.5562528E-006  0.8858978E+02  0.7818608E-02  0.1348308E+00
          2   -1    0    0  502    0  0.00000000000E+00  0.00000000000E+00  0.25054386409E+04  0.25054386409E+04  0.00000000000E+00 0. -1.
          1   -1    0    0  501    0 -0.00000000000E+00 -0.00000000000E+00 -0.39547152187E+02  0.39547152187E+02  0.00000000000E+00 0. -1.
         25    2    1    2    0    0 -0.20933604664E+02  0.44749877313E+02  0.15779139986E+04  0.15836285628E+04  0.12500428161E+03 0.  0.
          2    1    1    2  501    0  0.81748995109E+02 -0.38632229393E+02  0.21777309096E+02  0.93003217905E+02  0.00000000000E+00 0. -1.
          1    1    1    2  502    0 -0.60815390446E+02 -0.61176479195E+01  0.86620018098E+03  0.86835401240E+03  0.00000000000E+00 0. -1.
         22    1    3    3    0    0  0.16616889314E+02  0.47019109419E+02  0.23713631383E+03  0.24232323248E+03  0.00000000000E+00 0.  1.
         22    1    3    3    0    0 -0.37550493978E+02 -0.22692321066E+01  0.13407776848E+04  0.13413053303E+04  0.00000000000E+00 0.  1.
</event>
<event>
 7    1  0.5562528E-006  0.3924351E+02  0.7818608E-02  0.1595901E+00
          2   -1    0    0  502    0  0.00000000000E+00  0.00000000000E+00  0.21953228123E+04  0.21953228123E+04  0.00000000000E+00 0. -1.
          1   -1    0    0  501    0 -0.00000000000E+00 -0.00000000000E+00 -0.23041086093E+02  0.23041086093E+02  0.00000000000E+00 0. -1.
         25    2    1    2    0    0 -0.49181638442E+02  0.29585623564E+02  0.89881582017E+03  0.90927954074E+03  0.12500104773E+03 0.  0.
          2    1    1    2  501    0  0.23199130558E+02 -0.13562558250E+01 -0.98176022992E+01  0.25227453367E+02  0.00000000000E+00 0. -1.
          1    1    1    2  502    0  0.25982507885E+02 -0.28229367739E+02  0.12832835083E+04  0.12838569043E+04  0.00000000000E+00 0. -1.
         22    1    3    3    0    0 -0.21029988091E+02  0.39479966106E+02  0.96006940788E+02  0.10591629149E+03  0.00000000000E+00 0.  1.
         22    1    3    3    0    0 -0.28151650351E+02 -0.98943425413E+01  0.80280887938E+03  0.80336324925E+03  0.00000000000E+00 0.  1.
</event>
<event>
 7    1  0.5562528E-006  0.1552842E+03  0.7818608E-02  0.1236223E+00
          2   -1    0    0  502    0  0.00000000000E+00  0.00000000000E+00  0.13566582791E+04  0.13566582791E+04  0.00000000000E+00 0. -1.
          1   -1    0    0  501    0 -0.00000000000E+00 -0.00000000000E+00 -0.15405871070E+03  0.15405871070E+03  0.00000000000E+00 0. -1.
         25    2    1    2    0    0 -0.12095579924E+03 -0.16404430536E+02  0.16125107232E+03  0.23775132978E+03  0.12499750308E+03 0.  0.
          2    1    1    2  501    0  0.15338892459E+03 -0.77599633339E+02 -0.48482811713E+02  0.17860696603E+03  0.00000000000E+00 0. -1.
          1    1    1    2  502    0 -0.32433125355E+02  0.94004063875E+02  0.10898313078E+04  0.10943586940E+04  0.00000000000E+00 0. -1.
         22    1    3    3    0    0 -0.14049241272E+03  0.11148161421E+02  0.13029187834E+03  0.19193325167E+03  0.00000000000E+00 0.  1.
         22    1    3    3    0    0  0.19536613482E+02 -0.27552591957E+02  0.30959193979E+02  0.45818078110E+02  0.00000000000E+00 0.  1.
</event>
<event>
 7    1  0.5562528E-006  0.5749399E+02  0.7818608E-02  0.1508067E+00
          2   -1    0    0  502    0  0.00000000000E+00  0.00000000000E+00  0.10223351596E+04  0.10223351596E+04  0.00000000000E+00 0. -1.
          1   -1    0    0  501    0 -0.00000000000E+00 -0.00000000000E+00 -0.17848537772E+03  0.17848537772E+03  0.00000000000E+00 0. -1.
         25    2    1    2    0    0  0.64031236701E+02 -0.54609310835E+02  0.68847026788E+03  0.70476865416E+03  0.12500148008E+03 0.  0.
          2    1    1    2  501    0 -0.39376251252E+02  0.41643642902E+02 -0.16489355773E+03  0.17456966386E+03  0.00000000000E+00 0. -1.
          1    1    1    2  502    0 -0.24654985448E+02  0.12965667934E+02  0.32027307172E+03  0.32148221929E+03  0.00000000000E+00 0. -1.
         22    1    3    3    0    0 -0.11085768367E+01  0.37103114842E+02  0.13683986023E+03  0.14178511001E+03  0.00000000000E+00 0. -1.
         22    1    3    3    0    0  0.65139813537E+02 -0.91712425677E+02  0.55163040765E+03  0.56298354414E+03  0.00000000000E+00 0. -1.
</event>
<event>
 7    1  0.5562528E-006  0.1523324E+03  0.7818608E-02  0.1295962E+00
          2   -1    0    0  502    0  0.00000000000E+00  0.00000000000E+00  0.13332967130E+04  0.13332967130E+04  0.00000000000E+00 0. -1.
          1   -1    0    0  501    0 -0.00000000000E+00 -0.00000000000E+00 -0.12218115890E+04  0.12218115890E+04  0.00000000000E+00 0. -1.
         25    2    1    2    0    0 -0.19241287949E+03 -0.41585277555E+01 -0.10755616964E+03  0.25344321577E+03  0.12500049778E+03 0.  0.
          2    1    1    2  501    0  0.14676480409E+03 -0.29411808686E+02 -0.10352899681E+04  0.10460546258E+04  0.00000000000E+00 0. -1.
          1    1    1    2  502    0  0.45648075409E+02  0.33570336442E+02  0.12543312616E+04  0.12556104604E+04  0.00000000000E+00 0. -1.
         22    1    3    3    0    0 -0.19648352245E+03 -0.92170433937E+01 -0.60288187909E+02  0.20573136388E+03  0.00000000000E+00 0.  1.
         22    1    3    3    0    0  0.40706429519E+01  0.50585156382E+01 -0.47267981730E+02  0.47711851896E+02  0.00000000000E+00 0.  1.
</event>
<event>
 7    1  0.5562528E-006  0.4869719E+02  0.7818608E-02  0.1486727E+00
          2   -1    0    0  502    0  0.00000000000E+00  0.00000000000E+00  0.39949771763E+02  0.39949771763E+02  0.00000000000E+00 0. -1.
          1   -1    0    0  501    0 -0.00000000000E+00 -0.00000000000E+00 -0.24926317280E+04  0.24926317280E+04  0.00000000000E+00 0. -1.
         25    2    1    2    0    0  0.13970672613E+02  0.21873018159E+02 -0.14389900090E+04  0.14446418121E+04  0.12499644237E+03 0.  0.
          2    1    1    2  501    0 -0.28864417233E+02  0.24872611894E+02 -0.10341012028E+04  0.10348029276E+04  0.00000000000E+00 0. -1.
          1    1    1    2  502    0  0.14893744620E+02 -0.46745630053E+02  0.20409255547E+02  0.53136760061E+02  0.00000000000E+00 0. -1.
         22    1    3    3    0    0  0.45165134403E+02 -0.38156430626E+02 -0.58699703162E+03  0.58996721747E+03  0.00000000000E+00 0. -1.
         22    1    3    3    0    0 -0.31194461790E+02  0.60029448785E+02 -0.85199297739E+03  0.85467459462E+03  0.00000000000E+00 0. -1.
</event>
<event>
 7    1  0.5562528E-006  0.4500688E+02  0.7818608E-02  0.1495756E+00
          2   -1    0    0  502    0  0.00000000000E+00  0.00000000000E+00  0.95485731540E+02  0.95485731540E+02  0.00000000000E+00 0. -1.
          1   -1    0    0  501    0 -0.00000000000E+00 -0.00000000000E+00 -0.34945223626E+03  0.34945223626E+03  0.00000000000E+00 0. -1.
         25    2    1    2    0    0  0.70108218846E+02 -0.15893420438E+02 -0.17085636194E+03  0.22357089980E+03  0.12499715059E+03 0.  0.
          2    1    1    2  501    0 -0.41386101134E+02 -0.10069882520E+02 -0.14346869873E+03  0.14965787456E+03  0.00000000000E+00 0. -1.
          1    1    1    2  502    0 -0.28722117712E+02  0.25963302957E+02  0.60358555960E+02  0.71709193441E+02  0.00000000000E+00 0. -1.
         22    1    3    3    0    0  0.55374906080E+02 -0.39991352765E+02 -0.21562111638E+02  0.71628298721E+02  0.00000000000E+00 0.  1.
         22    1    3    3    0    0  0.14733312766E+02  0.24097932327E+02 -0.14929425031E+03  0.15194260108E+03  0.00000000000E+00 0.  1.
</event>
<event>
 7    1  0.5562528E-006  0.1022335E+03  0.7818608E-02  0.1304508E+00
          2   -1    0    0  502    0  0.00000000000E+00  0.00000000000E+00  0.11484527695E+04  0.11484527695E+04  0.00000000000E+00 0. -1.
          1   -1    0    0  501    0 -0.00000000000E+00 -0.00000000000E+00 -0.24794945487E+04  0.24794945487E+04  0.00000000000E+00 0. -1.
         25    2    1    2    0    0 -0.11314675742E+03  0.12074917860E+03 -0.95266069497E+02  0.22821798674E+03  0.12500109051E+03 0.  0.
          2    1    1    2  501    0  0.22789582283E+02 -0.74635124930E+02 -0.23147157322E+04  0.23160308046E+04  0.00000000000E+00 0. -1.
          1    1    1    2  502    0  0.90357175141E+02 -0.46114053669E+02  0.10789400225E+04  0.10836985269E+04  0.00000000000E+00 0. -1.
         22    1    3    3    0    0  0.44488764838E+01  0.60008674128E+02 -0.71997394865E+02  0.93832075219E+02  0.00000000000E+00 0.  1.
         22    1    3    3    0    0 -0.11759563391E+03  0.60740504470E+02 -0.23268674633E+02  0.13438591153E+03  0.00000000000E+00 0.  1.
</event>
<event>
 7    1  0.5562528E-006  0.1963291E+03  0.7818608E-02  0.1287482E+00
          2   -1    0    0  502    0  0.00000000000E+00  0.00000000000E+00  0.29504398033E+04  0.29504398033E+04  0.00000000000E+00 0. -1.
          1   -1    0    0  501    0 -0.00000000000E+00 -0.00000000000E+00 -0.14890617961E+04  0.14890617961E+04  0.00000000000E+00 0. -1.
         25    2    1    2    0    0 -0.17483608406E+03 -0.33177220742E+02  0.49151658261E+03  0.53747801228E+03  0.12500271373E+03 0.  0.
          2    1    1    2  501    0 -0.25341831079E+02  0.40280107727E+02 -0.14615754849E+04  0.14623500243E+04  0.00000000000E+00 0. -1.
          1    1    1    2  502    0  0.20017791514E+03 -0.71028869855E+01  0.24314369094E+04  0.24396735628E+04  0.00000000000E+00 0. -1.
         22    1    3    3    0    0 -0.22482647510E+02  0.40852266334E+02  0.13357895890E+03  0.14148397564E+03  0.00000000000E+00 0. -1.
         22    1    3    3    0    0 -0.15235343655E+03 -0.74029487075E+02  0.35793762372E+03  0.39599403664E+03  0.00000000000E+00 0. -1.
</event>
<event>
 7    1  0.5562528E-006  0.6004603E+02  0.7818608E-02  0.1447402E+00
          2   -1    0    0  502    0  0.00000000000E+00  0.00000000000E+00  0.60079753593E+02  0.60079753593E+02  0.00000000000E+00 0. -1.
          1   -1    0    0  501    0 -0.00000000000E+00 -0.00000000000E+00 -0.32110183970E+03  0.32110183970E+03  0.00000000000E+00 0. -1.
         25    2    1    2    0    0  0.71748504948E+02  0.81689485934E+01 -0.18766075941E+03  0.23676123069E+03  0.12499896020E+03 0.  0.
          2    1    1    2  501    0 -0.18918727542E+02 -0.36379156319E+02 -0.73916180964E+02  0.84527883415E+02  0.00000000000E+00 0. -1.
          1    1    1    2  502    0 -0.52829777406E+02  0.28210207725E+02  0.55485426117E+00  0.59892479194E+02  0.00000000000E+00 0. -1.
         22    1    3    3    0    0 -0.10054284608E+02 -0.38174915992E+02 -0.19333224168E+02  0.43956642350E+02  0.00000000000E+00 0. -1.
         22    1    3    3    0    0  0.81802789556E+02  0.46343864586E+02 -0.16832753524E+03  0.19280458834E+03  0.00000000000E+00 0. -1.
</event>
<event>
 7    1  0.5562528E-006  0.1435059E+03  0.7818608E-02  0.1362867E+00
          2   -1    0    0  502    0  0.00000000000E+00  0.00000000000E+00  0.11343626235E+04  0.11343626235E+04  0.00000000000E+00 0. -1.
          1   -1    0    0  501    0 -0.00000000000E+00 -0.00000000000E+00 -0.51038883348E+03  0.51038883348E+03  0.00000000000E+00 0. -1.
         25    2    1    2    0    0 -0.28746504174E+02  0.17353477475E+03 -0.11817376800E+03  0.24603097949E+03  0.12500209548E+03 0.  0.
          2    1    1    2  501    0  0.29154494982E+01 -0.33232425237E+02 -0.32266946413E+03  0.32438939104E+03  0.00000000000E+00 0. -1.
          1    1    1    2  502    0  0.25831054676E+02 -0.14030234951E+03  0.10648170222E+04  0.10743310865E+04  0.00000000000E+00 0. -1.
         22    1    3    3    0    0  0.35071398678E+02  0.56196805463E+02 -0.86154299347E+02  0.10867680178E+03  0.00000000000E+00 0.  1.
         22    1    3    3    0    0 -0.63817902852E+02  0.11733796929E+03 -0.32019468650E+02  0.13735417771E+03  0.00000000000E+00 0.  1.
</event>
<event>
 7    1  0.5562528E-006  0.1570890E+03  0.7818608E-02  0.1220388E+00
          2   -1    0    0  502    0  0.00000000000E+00  0.00000000000E+00  0.24876406798E+04  0.24876406798E+04  0.00000000000E+00 0. -1.
          1   -1    0    0  501    0 -0.00000000000E+00 -0.00000000000E+00 -0.61527765987E+03  0.61527765987E+03  0.00000000000E+00 0. -1.
         25    2    1    2    0    0 -0.54313584602E+02  0.19345079702E+02  0.36731001654E+03  0.39225891837E+03  0.12500485273E+03 0.  0.
          2    1    1    2  501    0  0.98117060655E+02 -0.12655356535E+03 -0.59054127640E+03  0.61186743795E+03  0.00000000000E+00 0. -1.
          1    1    1    2  502    0 -0.43803476053E+02  0.10720848565E+03  0.20955942798E+04  0.20987919834E+04  0.00000000000E+00 0. -1.
         22    1    3    3    0    0 -0.23354850692E+02  0.72236820927E+02  0.18725111171E+03  0.20205589867E+03  0.00000000000E+00 0. -1.
         22    1    3    3    0    0 -0.30958733910E+02 -0.52891741225E+02  0.18005890483E+03  0.19020301970E+03  0.00000000000E+00 0. -1.
</event>
<event>
 7    1  0.5562528E-006  0.5961389E+02  0.7818608E-02  0.1409442E+00
          2   -1    0    0  502    0  0.00000000000E+00  0.00000000000E+00  0.21862145908E+04  0.21862145908E+04  0.00000000000E+00 0. -1.
          1   -1    0    0  501    0 -0.00000000000E+00 -0.00000000000E+00 -0.11388463262E+03  0.11388463262E+03  0.00000000000E+00 0. -1.
         25    2    1    2    0    0  0.45090637617E+02  0.40111582208E+02  0.93905428043E+02  0.16758474606E+03  0.12499725224E+03 0.  0.
          2    1    1    2  501    0  0.13302234871E+02 -0.53482102271E+02 -0.66694420664E+02  0.86518382230E+02  0.00000000000E+00 0. -1.
          1    1    1    2  502    0 -0.58392872487E+02  0.13370520063E+02  0.20451189508E+04  0.20459960951E+04  0.00000000000E+00 0. -1.
         22    1    3    3    0    0 -0.14830423807E+02 -0.22318732283E+02 -0.13215726949E+02  0.29878465820E+02  0.00000000000E+00 0.  1.
         22    1    3    3    0    0  0.59921061423E+02  0.62430314490E+02  0.10712115499E+03  0.13770628024E+03  0.00000000000E+00 0.  1.
</event>
<event>
 7    1  0.5562528E-006  0.1793214E+03  0.7818608E-02  0.1283219E+00
          2   -1    0    0  502    0  0.00000000000E+00  0.00000000000E+00  0.36070354225E+04  0.36070354225E+04  0.00000000000E+00 0. -1.
          1   -1    0    0  501    0 -0.00000000000E+00 -0.00000000000E+00 -0.18309337913E+03  0.18309337913E+03  0.00000000000E+00 0. -1.
         25    2    1    2    0    0  0.58514334170E+02 -0.19827563486E+03  0.15758565977E+03  0.28843583442E+03  0.12499934293E+03 0.  0.
          2    1    1    2  501    0 -0.84373450792E+02  0.15059642801E+03 -0.54017726797E+02  0.18087586389E+03  0.00000000000E+00 0. -1.
          1    1    1    2  502    0  0.25859116622E+02  0.47679206847E+02  0.33203741104E+04  0.33208171033E+04  0.00000000000E+00 0. -1.
         22    1    3    3    0    0 -0.26527055781E+02 -0.16739047063E+01  0.10429600528E+02  0.28552814441E+02  0.00000000000E+00 0. -1.
         22    1    3    3    0    0  0.85041389951E+02 -0.19660173015E+03  0.14715605924E+03  0.25988301998E+03  0.00000000000E+00 0. -1.
</event>
<event>
 7    1  0.5562528E-006  0.5959218E+02  0.7818608E-02  0.1471681E+00
          2   -1    0    0  502    0  0.00000000000E+00  0.00000000000E+00  0.32632493505E+04  0.32632493505E+04  0.00000000000E+00 0. -1.
          1   -1    0    0  501    0 -0.00000000000E+00 -0.00000000000E+00 -0.13252104554E+02  0.13252104554E+02  0.00000000000E+00 0. -1.
         25    2    1    2    0    0 -0.64538113918E+02  0.28276334503E+02  0.22099527225E+04  0.22146063824E+04  0.12500269744E+03 0.  0.
          2    1    1    2  501    0  0.35771421534E+02 -0.47559618992E+02  0.72789819106E+02  0.94020581378E+02  0.00000000000E+00 0. -1.
          1    1    1    2  502    0  0.28766692384E+02  0.19283284489E+02  0.96725470440E+03  0.96787449127E+03  0.00000000000E+00 0. -1.
         22    1    3    3    0    0 -0.14853978652E+02 -0.58994515878E+01  0.18155336724E+04  0.18156040207E+04  0.00000000000E+00 0.  1.
         22    1    3    3    0    0 -0.49684135266E+02  0.34175786090E+02  0.39441905002E+03  0.39900236174E+03  0.00000000000E+00 0.  1.
</event>
<event>
 7    1  0.5562528E-006  0.9682636E+02  0.7818608E-02  0.1298855E+00
          2   -1    0    0  502    0  0.00000000000E+00  0.00000000000E+00  0.21108463706E+03  0.21108463706E+03  0.00000000000E+00 0. -1.
          1   -1    0    0  501    0 -0.00000000000E+00 -0.00000000000E+00 -0.63860366271E+03  0.63860366271E+03  0.00000000000E+00 0. -1.
         25    2    1    2    0    0  0.16472424345E+02  0.87104435333E+02 -0.16153228318E+02  0.15409225866E+03  0.12499989590E+03 0.  0.
          2    1    1    2  501    0  0.77602226921E+02 -0.38864016713E+02 -0.52978678795E+03  0.53684872926E+03  0.00000000000E+00 0. -1.
          1    1    1    2  502    0 -0.94074651266E+02 -0.48240418620E+02  0.11842099062E+03  0.15874731185E+03  0.00000000000E+00 0. -1.
         22    1    3    3    0    0  0.37476536289E+02  0.23674556255E+02 -0.59684931703E+02  0.74345588023E+02  0.00000000000E+00 0.  1.
         22    1    3    3    0    0 -0.21004111944E+02  0.63429879079E+02  0.43531703384E+02  0.79746670639E+02  0.00000000000E+00 0.  1.
</event>
<event>
 7    1  0.5562528E-006  0.1254575E+03  0.7818608E-02  0.1336363E+00
          2   -1    0    0  502    0  0.00000000000E+00  0.00000000000E+00  0.18456529443E+04  0.18456529443E+04  0.00000000000E+00 0. -1.
          1   -1    0    0  501    0 -0.00000000000E+00 -0.00000000000E+00 -0.11472598215E+03  0.11472598215E+03  0.00000000000E+00 0. -1.
         25    2    1    2    0    0  0.10932797182E+03  0.17835607189E+02  0.32675842915E+03  0.36696961803E+03  0.12499966091E+03 0.  0.
          2    1    1    2  501    0 -0.12524601594E+03  0.27287553559E+02 -0.50632427763E+02  0.13782168853E+03  0.00000000000E+00 0. -1.
          1    1    1    2  502    0  0.15918044112E+02 -0.45123160748E+02  0.14548009608E+04  0.14555876199E+04  0.00000000000E+00 0. -1.
         22    1    3    3    0    0  0.13503499498E+03  0.24348511470E+00  0.25014832140E+03  0.28426869658E+03  0.00000000000E+00 0.  1.
         22    1    3    3    0    0 -0.25707023159E+02  0.17592122074E+02  0.76610107756E+02  0.82700921453E+02  0.00000000000E+00 0.  1.
</event>
<event>
 7    1  0.5562528E-006  0.1823628E+03  0.7818608E-02  0.1293889E+00
          2   -1    0    0  502    0  0.00000000000E+00  0.00000000000E+00  0.10296918084E+04  0.10296918084E+04  0.00000000000E+00 0. -1.
          1   -1    0    0  501    0 -0.00000000000E+00 -0.00000000000E+00 -0.83701778284E+03  0.83701778284E+03  0.00000000000E+00 0. -1.
         25    2    1    2    0    0  0.15387656996E+03 -0.45867543920E+01  0.37684281329E+02  0.20184673001E+03  0.12499184077E+03 0.  0.
          2    1    1    2  501    0  0.29024383241E+02  0.38547591202E+02 -0.74463957381E+03  0.74620133107E+03  0.00000000000E+00 0. -1.
          1    1    1    2  502    0 -0.18290095320E+03 -0.33960836810E+02  0.89962931807E+03  0.91866153019E+03  0.00000000000E+00 0. -1.
         22    1    3    3    0    0  0.67411439532E+01 -0.54479474010E+01  0.53192267286E+02  0.53893788619E+02  0.00000000000E+00 0. -1.
         22    1    3    3    0    0  0.14713542600E+03  0.86119300897E+00 -0.15507985957E+02  0.14795294139E+03  0.00000000000E+00 0. -1.
</event>
<event>
 7    1  0.5562528E-006  0.8459538E+02  0.7818608E-02  0.1384510E+00
          2   -1    0    0  502    0  0.00000000000E+00  0.00000000000E+00  0.29843429754E+03  0.29843429754E+03  0.00000000000E+00 0. -1.
          1   -1    0    0  501    0 -0.00000000000E+00 -0.00000000000E+00 -0.81953308359E+03  0.81953308359E+03  0.00000000000E+00 0. -1.
         25    2    1    2    0    0  0.76472112477E+02  0.77730006584E+02  0.45309109308E+02  0.17195326427E+03  0.12500028718E+03 0.  0.
          2    1    1    2  501    0 -0.35415295112E-01 -0.47354880338E+02 -0.74651457807E+03  0.74801504077E+03  0.00000000000E+00 0. -1.
          1    1    1    2  502    0 -0.76436697182E+02 -0.30375126246E+02  0.18010668272E+03  0.19799907608E+03  0.00000000000E+00 0. -1.
         22    1    3    3    0    0  0.44633388462E+02 -0.26329149165E+02  0.35239702901E+02  0.62667376855E+02  0.00000000000E+00 0.  1.
         22    1    3    3    0    0  0.31838724016E+02  0.10405915575E+03  0.10069406407E+02  0.10928588741E+03  0.00000000000E+00 0.  1.
</event>
<event>
 7    1  0.5562528E-006  0.1213448E+03  0.7818608E-02  0.1410461E+00
          2   -1    0    0  502    0  0.00000000000E+00  0.00000000000E+00  0.17779593117E+04  0.17779593117E+04  0.00000000000E+00 0. -1.
          1   -1    0    0  501    0 -0.00000000000E+00 -0.00000000000E+00 -0.54317543486E+02  0.54317543486E+02  0.00000000000E+00 0. -1.
         25    2    1    2    0    0  0.88379499303E+02  0.83713868004E+02  0.30393496147E+03  0.35045720368E+03  0.12499937287E+03 0.  0.
          2    1    1    2  501    0 -0.10479980901E+03 -0.62456813360E+02  0.89417489956E+02  0.15125918489E+03  0.00000000000E+00 0. -1.
          1    1    1    2  502    0  0.16420309709E+02 -0.21257054643E+02  0.13302893168E+04  0.13305604666E+04  0.00000000000E+00 0. -1.
         22    1    3    3    0    0  0.25429088210E+02  0.44509184105E+02  0.16867107516E+02  0.53964852569E+02  0.00000000000E+00 0.  1.
         22    1    3    3    0    0  0.62950411093E+02  0.39204683899E+02  0.28706785395E+03  0.29649235111E+03  0.00000000000E+00 0.  1.
</event>
<event>
 7    1  0.5562528E-006  0.5044846E+02  0.7818608E-02  0.1554907E+00
          2   -1    0    0  502    0  0.00000000000E+00  0.00000000000E+00  0.60304183640E+03  0.60304183640E+03  0.00000000000E+00 0. -1.
          1   -1    0    0  501    0 -0.00000000000E+00 -0.00000000000E+00 -0.19412479913E+03  0.19412479913E+03  0.00000000000E+00 0. -1.
         25    2    1    2    0    0 -0.19263003406E+02 -0.54965990356E+02 -0.42664708727E+00  0.13790385739E+03  0.12499987384E+03 0.  0.
          2    1    1    2  501    0  0.22842393101E+02  0.46981833077E+01 -0.12267027631E+03  0.12486730772E+03  0.00000000000E+00 0. -1.
          1    1    1    2  502    0 -0.35793896941E+01  0.50267807048E+02  0.53201396066E+03  0.53439547041E+03  0.00000000000E+00 0. -1.
         22    1    3    3    0    0 -0.62092437699E+02  0.67863366851E+01  0.42548000254E+01  0.62606936582E+02  0.00000000000E+00 0. -1.
         22    1    3    3    0    0  0.42829434292E+02 -0.61752327041E+02 -0.46814471127E+01  0.75296920813E+02  0.00000000000E+00 0. -1.
</event>
<event>
 7    1  0.5562528E-006  0.4786397E+02  0.7818608E-02  0.1491048E+00
          2   -1    0    0  502    0  0.00000000000E+00  0.00000000000E+00  0.37620493147E+03  0.37620493147E+03  0.00000000000E+00 0. -1.
          1   -1    0    0  501    0 -0.00000000000E+00 -0.00000000000E+00 -0.90231229330E+03  0.90231229330E+03  0.00000000000E+00 0. -1.
         25    2    1    2    0    0 -0.21470517230E+02  0.30687233794E+02 -0.13745072653E+03  0.18952432689E+03  0.12499631528E+03 0.  0.
          2    1    1    2  501    0 -0.12439749873E+02 -0.46964504609E+02 -0.73701252714E+03  0.73861212909E+03  0.00000000000E+00 0. -1.
          1    1    1    2  502    0  0.33910267103E+02  0.16277270816E+02  0.34835589183E+03  0.35038076879E+03  0.00000000000E+00 0. -1.
         22    1    3    3    0    0  0.26353964438E+02  0.34179366243E+02  0.82762540395E+00  0.43167643926E+02  0.00000000000E+00 0. -1.
         22    1    3    3    0    0 -0.47824481668E+02 -0.34921324489E+01 -0.13827835193E+03  0.14635668296E+03  0.00000000000E+00 0. -1.
</event>
<event>
 7    1  0.5562528E-006  0.3503767E+02  0.7818608E-02  0.1553072E+00
          2   -1    0    0  502    0  0.00000000000E+00  0.00000000000E+00  0.11653161045E+04  0.11653161045E+04  0.00000000000E+00 0. -1.
          1   -1    0    0  501    0 -0.00000000000E+00 -0.00000000000E+00 -0.12133494528E+02  0.12133494528E+02  0.00000000000E+00 0. -1.
         25    2    1    2    0    0 -0.31939589824E+02 -0.31349529092E+02  0.67753309559E+03  0.69041940044E+03  0.12499969004E+03 0.  0.
          2    1    1    2  501    0  0.35319223202E+02 -0.24556351467E+01  0.57658372972E+02  0.67660665422E+02  0.00000000000E+00 0. -1.
          1    1    1    2  502    0 -0.33796333788E+01  0.33805164238E+02  0.41799114142E+03  0.41936953318E+03  0.00000000000E+00 0. -1.
         22    1    3    3    0    0  0.28375827889E+02 -0.81612643881E+01  0.40516154558E+02  0.50133348432E+02  0.00000000000E+00 0.  1.
         22    1    3    3    0    0 -0.60315417712E+02 -0.23188264703E+02  0.63701694103E+03  0.64028605200E+03  0.00000000000E+00 0.  1.
</event>
<event>
 7    1  0.5562528E-006  0.3160199E+03  0.7818608E-02  0.1116794E+00
          2   -1    0    0  502    0  0.00000000000E+00  0.00000000000E+00  0.11166680963E+04  0.11166680963E+04  0.00000000000E+00 0. -1.
          1   -1    0    0  501    0 -0.00000000000E+00 -0.00000000000E+00 -0.14112870982E+04  0.14112870982E+04  0.00000000000E+00 0. -1.
         25    2    1    2    0    0  0.34335595365E+03 -0.44529867497E+02 -0.14943978659E+03  0.39728206120E+03  0.12499826532E+03 0.  0.
          2    1    1    2  501    0 -0.28827251881E+03 -0.13652920385E+03 -0.11061620015E+04  0.11512322277E+04  0.00000000000E+00 0. -1.
          1    1    1    2  502    0 -0.55083434834E+02  0.18105907134E+03  0.96098278617E+03  0.97944090553E+03  0.00000000000E+00 0. -1.
         22    1    3    3    0    0  0.22347698918E+03 -0.11176376314E+02 -0.31728420781E+02  0.22599462110E+03  0.00000000000E+00 0. -1.
         22    1    3    3    0    0  0.11987896447E+03 -0.33353491183E+02 -0.11771136581E+03  0.17128744010E+03  0.00000000000E+00 0. -1.
</event>
<event>
 7    1  0.5562528E-006  0.2105098E+03  0.7818608E-02  0.1246649E+00
          2   -1    0    0  502    0  0.00000000000E+00  0.00000000000E+00  0.86474404002E+03  0.86474404002E+03  0.00000000000E+00 0. -1.
          1   -1    0    0  501    0 -0.00000000000E+00 -0.00000000000E+00 -0.26275536595E+04  0.26275536595E+04  0.00000000000E+00 0. -1.
         25    2    1    2    0    0  0.25334048891E+03 -0.21978021452E+02  0.11029731133E+03  0.30406380783E+03  0.12499946239E+03 0.  0.
          2    1    1    2  501    0 -0.57001110324E+02 -0.33271515904E+02 -0.25144103517E+04  0.25152764335E+04  0.00000000000E+00 0. -1.
          1    1    1    2  502    0 -0.19633937859E+03  0.55249537356E+02  0.64130342084E+03  0.67295745820E+03  0.00000000000E+00 0. -1.
         22    1    3    3    0    0  0.46023173490E+02 -0.54495387030E+01  0.81975560152E+02  0.94169116128E+02  0.00000000000E+00 0.  1.
         22    1    3    3    0    0  0.20731731542E+03 -0.16528482749E+02  0.28321751176E+02  0.20989469170E+03  0.00000000000E+00 0.  1.
</event>
<event>
 7    1  0.5562528E-006  0.6841098E+02  0.7818608E-02  0.1378843E+00
          2   -1    0    0  502    0  0.00000000000E+00  0.00000000000E+00  0.27171143153E+03  0.27171143153E+03  0.00000000000E+00 0. -1.
          1   -1    0    0  501    0 -0.00000000000E+00 -0.00000000000E+00 -0.13283167133E+04  0.13283167133E+04  0.00000000000E+00 0. -1.
         25    2    1    2    0    0  0.65597142950E+02 -0.84567487159E+02 -0.43763272501E+03  0.46754954060E+03  0.12500210343E+03 0.  0.
          2    1    1    2  501    0 -0.71701033921E+01  0.65952434073E+02 -0.87078443426E+03  0.87330788665E+03  0.00000000000E+00 0. -1.
          1    1    1    2  502    0 -0.58427039558E+02  0.18615053087E+02  0.25181187755E+03  0.25917071754E+03  0.00000000000E+00 0. -1.
         22    1    3    3    0    0  0.31718887143E+02 -0.19253475925E+02 -0.35489051760E+03  0.35682497617E+03  0.00000000000E+00 0.  1.
         22    1    3    3    0    0  0.33878255807E+02 -0.65314011235E+02 -0.82742207417E+02  0.11072456443E+03  0.00000000000E+00 0.  1.
</event>
<event>
 7    1  0.5562528E-006  0.4280293E+02  0.7818608E-02  0.1489040E+00
          2   -1    0    0  502    0  0.00000000000E+00  0.00000000000E+00  0.51146327728E+03  0.51146327728E+03  0.00000000000E+00 0. -1.
          1   -1    0    0  501    0 -0.00000000000E+00 -0.00000000000E+00 -0.18911686986E+03  0.18911686986E+03  0.00000000000E+00 0. -1.
         25    2    1    2    0    0 -0.28158880467E+02 -0.27146753834E+02 -0.60981781834E+02  0.14447717319E+03  0.12500002826E+03 0.  0.
          2    1    1    2  501    0 -0.12684063323E+02  0.40725094382E+02 -0.80063319794E+02  0.90716889008E+02  0.00000000000E+00 0. -1.
          1    1    1    2  502    0  0.40842943790E+02 -0.13578340549E+02  0.46339150905E+03  0.46538608493E+03  0.00000000000E+00 0. -1.
         22    1    3    3    0    0  0.41246522319E+02 -0.42046995790E+02 -0.18441331186E+02  0.61719592953E+02  0.00000000000E+00 0.  1.
         22    1    3    3    0    0 -0.69405402786E+02  0.14900241956E+02 -0.42540450648E+02  0.82757580242E+02  0.00000000000E+00 0.  1.
</event>
<event>
 7    1  0.5562528E-006  0.5248504E+02  0.7818608E-02  0.1494357E+00
          2   -1    0    0  502    0  0.00000000000E+00  0.00000000000E+00  0.13296517540E+04  0.13296517540E+04  0.00000000000E+00 0. -1.
          1   -1    0    0  501    0 -0.00000000000E+00 -0.00000000000E+00 -0.22586954356E+04  0.22586954356E+04  0.00000000000E+00 0. -1.
         25    2    1    2    0    0 -0.45337462845E+02  0.54178890618E+02  0.61117315867E+03  0.62781341904E+03  0.12500488603E+03 0.  0.
          2    1    1    2  501    0  0.33226428987E+02 -0.44566943472E+01 -0.22493282716E+04  0.22495780785E+04  0.00000000000E+00 0. -1.
          1    1    1    2  502    0  0.12111033857E+02 -0.49722196271E+02  0.70911143134E+03  0.71095569201E+03  0.00000000000E+00 0. -1.
         22    1    3    3    0    0 -0.21554801595E+02  0.44105962805E+02  0.59567089334E+03  0.59769035345E+03  0.00000000000E+00 0.  1.
         22    1    3    3    0    0 -0.23782661249E+02  0.10072927813E+02  0.15502265325E+02  0.30123065598E+02  0.00000000000E+00 0.  1.
</event>
<event>
 7    1  0.5562528E-006  0.3334256E+02  0.7818608E-02  0.1584507E+00
          2   -1    0    0  502    0  0.00000000000E+00  0.00000000000E+00  0.33267658769E+03  0.33267658769E+03  0.00000000000E+00 0. -1.
          1   -1    0    0  501    0 -0.00000000000E+00 -0.00000000000E+00 -0.11064859263E+03  0.11064859263E+03  0.00000000000E+00 0. -1.
         25    2    1    2    0    0 -0.30699348248E+02 -0.31431811033E+02  0.58137337862E+02  0.14469059263E+03  0.12500003526E+03 0.  0.
          2    1    1    2  501    0  0.14420129273E+01  0.33315565615E+02 -0.62240504463E+02  0.70610811561E+02  0.00000000000E+00 0. -1.
          1    1    1    2  502    0  0.29257335321E+02 -0.18837545819E+01  0.22613116167E+03  0.22802377613E+03  0.00000000000E+00 0. -1.
         22    1    3    3    0    0 -0.68628967925E+02  0.16520681298E+02  0.23374319884E+02  0.74358772038E+02  0.00000000000E+00 0.  1.
         22    1    3    3    0    0  0.37929619677E+02 -0.47952492331E+02  0.34763017977E+02  0.70331820597E+02  0.00000000000E+00 0.  1.
</event>
<event>
 7    1  0.5562528E-006  0.9400768E+02  0.7818608E-02  0.1329766E+00
          2   -1    0    0  502    0  0.00000000000E+00  0.00000000000E+00  0.12605124557E+03  0.12605124557E+03  0.00000000000E+00 0. -1.
          1   -1    0    0  501    0 -0.00000000000E+00 -0.00000000000E+00 -0.85657894698E+03  0.85657894698E+03  0.00000000000E+00 0. -1.
         25    2    1    2    0    0  0.16101815731E+02  0.30624531135E+02 -0.24336011838E+03  0.27576612766E+03  0.12500271826E+03 0.  0.
          2    1    1    2  501    0  0.56328728331E+02  0.37469017935E+02 -0.57211496702E+03  0.57610102276E+03  0.00000000000E+00 0. -1.
          1    1    1    2  502    0 -0.72430544062E+02 -0.68093549070E+02  0.84947383989E+02  0.13076304212E+03  0.00000000000E+00 0. -1.
         22    1    3    3    0    0 -0.24887283296E+02 -0.23949631570E+02 -0.15416983437E+02  0.37823869454E+02  0.00000000000E+00 0.  1.
         22    1    3    3    0    0  0.40989099027E+02  0.54574162705E+02 -0.22794313494E+03  0.23794225821E+03  0.00000000000E+00 0.  1.
</event>
<event>
 7    1  0.5562528E-006  0.1417023E+03  0.7818608E-02  0.1253757E+00
          2   -1    0    0  502    0  0.00000000000E+00  0.00000000000E+00  0.51132153111E+03  0.51132153111E+03  0.00000000000E+00 0. -1.
          1   -1    0    0  501    0 -0.00000000000E+00 -0.00000000000E+00 -0.45410445770E+03  0.45410445770E+03  0.00000000000E+00 0. -1.
         25    2    1    2    0    0 -0.76051665091E+02  0.29285742205E+02 -0.16594953263E+02  0.15013805277E+03  0.12499812781E+03 0.  0.
          2    1    1    2  501    0 -0.75160280713E+02 -0.51888666069E+02 -0.35158271013E+03  0.36325184586E+03  0.00000000000E+00 0. -1.
          1    1    1    2  502    0  0.15121194580E+03  0.22602923865E+02  0.42539473680E+03  0.45203609017E+03  0.00000000000E+00 0. -1.
         22    1    3    3    0    0 -0.80651764294E+02  0.61234617213E+02 -0.41429977036E+02  0.10941128107E+03  0.00000000000E+00 0.  1.
         22    1    3    3    0    0  0.46000992036E+01 -0.31948875009E+02  0.24835023773E+02  0.40726771696E+02  0.00000000000E+00 0.  1.
</event>
<event>
 7    1  0.5562528E-006  0.7218655E+02  0.7818608E-02  0.1437186E+00
          2   -1    0    0  502    0  0.00000000000E+00  0.00000000000E+00  0.25558656178E+03  0.25558656178E+03  0.00000000000E+00 0. -1.
          1   -1    0    0  501    0 -0.00000000000E+00 -0.00000000000E+00 -0.91831375755E+03  0.91831375755E+03  0.00000000000E+00 0. -1.
         25    2    1    2    0    0 -0.94135654828E+01 -0.10775910281E+03 -0.91842658586E+01  0.16556247109E+03  0.12500376650E+03 0.  0.
          2    1    1    2  501    0  0.38745790855E+01  0.71373528660E+02 -0.82747394469E+03  0.83055542988E+03  0.00000000000E+00 0. -1.
          1    1    1    2  502    0  0.55389863973E+01  0.36385574151E+02  0.17393101478E+03  0.17778241836E+03  0.00000000000E+00 0. -1.
         22    1    3    3    0    0  0.51974722145E+02 -0.15080908745E+02 -0.43201704051E+01  0.54290601608E+02  0.00000000000E+00 0.  1.
         22    1    3    3    0    0 -0.61388287628E+02 -0.92678194067E+02 -0.48640954535E+01  0.11127186948E+03  0.00000000000E+00 0.  1.
</event>
<event>
 7    1  0.5562528E-006  0.5783818E+02  0.7818608E-02  0.1513374E+00
          2   -1    0    0  502    0  0.00000000000E+00  0.00000000000E+00  0.15371402832E+04  0.15371402832E+04  0.00000000000E+00 0. -1.
          1   -1    0    0  501    0 -0.00000000000E+00 -0.00000000000E+00 -0.36538105404E+02  0.36538105404E+02  0.00000000000E+00 0. -1.
         25    2    1    2    0    0 -0.43778343346E+02 -0.24811926018E+02  0.26444233754E+03  0.29679246905E+03  0.12499537905E+03 0.  0.
          2    1    1    2  501    0  0.59658150361E+02  0.33310930527E+01  0.23934908761E+02  0.64366691253E+02  0.00000000000E+00 0. -1.
          1    1    1    2  502    0 -0.15879807015E+02  0.21480832965E+02  0.12122249315E+04  0.12125192283E+04  0.00000000000E+00 0. -1.
         22    1    3    3    0    0 -0.35999717157E+02  0.26951875202E+02  0.22948053819E+03  0.23384546312E+03  0.00000000000E+00 0.  1.
         22    1    3    3    0    0 -0.77786261888E+01 -0.51763801219E+02  0.34961799341E+02  0.62947005928E+02  0.00000000000E+00 0.  1.
</event>
<event>
 7    1  0.5562528E-006  0.8119668E+02  0.7818608E-02  0.1416650E+00
          2   -1    0    0  502    0  0.00000000000E+00  0.00000000000E+00  0.12250367155E+04  0.12250367155E+04  0.00000000000E+00 0. -1.
          1   -1    0    0  501    0 -0.00000000000E+00 -0.00000000000E+00 -0.42255468824E+02  0.42255468824E+02  0.00000000000E+00 0. -1.
         25    2    1    2    0    0 -0.50027896485E+02  0.21030212524E+02  0.30485683678E+03  0.33392467987E+03  0.12499176226E+03 0.  0.
          2    1    1    2  501    0 -0.13749628018E+02  0.35702985143E+02 -0.11427022938E+02  0.39929090548E+02  0.00000000000E+00 0. -1.
          1    1    1    2  502    0  0.63777524503E+02 -0.56733197667E+02  0.88935143281E+03  0.89343841387E+03  0.00000000000E+00 0. -1.
         22    1    3    3    0    0  0.35030985013E+01  0.65469675214E+02  0.12655162594E+03  0.14252671363E+03  0.00000000000E+00 0. -1.
         22    1    3    3    0    0 -0.53530994987E+02 -0.44439462689E+02  0.17830521084E+03  0.19139796624E+03  0.00000000000E+00 0. -1.
</event>
<event>
 7    1  0.5562528E-006  0.7477299E+02  0.7818608E-02  0.1515636E+00
          2   -1    0    0  502    0  0.00000000000E+00  0.00000000000E+00  0.53787631525E+03  0.53787631525E+03  0.00000000000E+00 0. -1.
          1   -1    0    0  501    0 -0.00000000000E+00 -0.00000000000E+00 -0.20204243457E+04  0.20204243457E+04  0.00000000000E+00 0. -1.
         25    2    1    2    0    0  0.35098655367E+02  0.75758143293E+02 -0.12922959248E+03  0.19826890006E+03  0.12505621645E+03 0.  0.
          2    1    1    2  501    0 -0.14919107237E+02 -0.73124807444E+02 -0.18557190438E+04  0.18572191542E+04  0.00000000000E+00 0. -1.
          1    1    1    2  502    0 -0.20179548130E+02 -0.26333358487E+01  0.50240060588E+03  0.50281260665E+03  0.00000000000E+00 0. -1.
         22    1    3    3    0    0  0.42758590004E+02  0.33196416885E+01 -0.11673345702E+03  0.12436244219E+03  0.00000000000E+00 0.  1.
         22    1    3    3    0    0 -0.76599346375E+01  0.72438501604E+02 -0.12496135466E+02  0.73906457870E+02  0.00000000000E+00 0.  1.
</event>
<event>
 7    1  0.5562528E-006  0.1574266E+03  0.7818608E-02  0.1364357E+00
          2   -1    0    0  502    0  0.00000000000E+00  0.00000000000E+00  0.19718394746E+04  0.19718394746E+04  0.00000000000E+00 0. -1.
          1   -1    0    0  501    0 -0.00000000000E+00 -0.00000000000E+00 -0.26526081381E+03  0.26526081381E+03  0.00000000000E+00 0. -1.
         25    2    1    2    0    0 -0.11163457569E+03 -0.12179687142E+03  0.22748327127E+03  0.30768599074E+03  0.12500109523E+03 0.  0.
          2    1    1    2  501    0  0.12493820941E+03  0.94870237992E+02 -0.19768365778E+03  0.25236629486E+03  0.00000000000E+00 0. -1.
          1    1    1    2  502    0 -0.13303633723E+02  0.26926633432E+02  0.16767790473E+04  0.16770480029E+04  0.00000000000E+00 0. -1.
         22    1    3    3    0    0 -0.11210036242E+03 -0.42172456058E+02  0.93982221848E+02  0.15224212731E+03  0.00000000000E+00 0.  1.
         22    1    3    3    0    0  0.46578673190E+00 -0.79624415366E+02  0.13350104943E+03  0.15544386343E+03  0.00000000000E+00 0.  1.
</event>
<event>
 7    1  0.5562528E-006  0.6200576E+02  0.7818608E-02  0.1392511E+00
          2   -1    0    0  502    0  0.00000000000E+00  0.00000000000E+00  0.93330702642E+03  0.93330702642E+03  0.00000000000E+00 0. -1.
          1   -1    0    0  501    0 -0.00000000000E+00 -0.00000000000E+00 -0.21763817617E+03  0.21763817617E+03  0.00000000000E+00 0. -1.
         25    2    1    2    0    0  0.49967883560E+02 -0.64929291337E+01  0.63770553013E+02  0.14909833144E+03  0.12499872595E+03 0.  0.
          2    1    1    2  501    0 -0.36652438223E+02 -0.52601036173E+02 -0.16794645704E+03  0.17976730144E+03  0.00000000000E+00 0. -1.
          1    1    1    2  502    0 -0.13315445337E+02  0.59093965306E+02  0.81984475427E+03  0.82207956971E+03  0.00000000000E+00 0. -1.
         22    1    3    3    0    0  0.18504907524E+02  0.59145778865E+02  0.30216285886E+02  0.68946926638E+02  0.00000000000E+00 0. -1.
         22    1    3    3    0    0  0.31462976036E+02 -0.65638707999E+02  0.33554267127E+02  0.80151404799E+02  0.00000000000E+00 0. -1.
</event>
<event>
 7    1  0.5562528E-006  0.6440080E+02  0.7818608E-02  0.1390345E+00
          2   -1    0    0  502    0  0.00000000000E+00  0.00000000000E+00  0.76760818468E+03  0.76760818468E+03  0.00000000000E+00 0. -1.
          1   -1    0    0  501    0 -0.00000000000E+00 -0.00000000000E+00 -0.25393746860E+03  0.25393746860E+03  0.00000000000E+00 0. -1.
         25    2    1    2    0    0  0.20630743175E+02  0.24708624100E+01  0.73837428338E+02  0.14665851806E+03  0.12500008949E+03 0.  0.
          2    1    1    2  501    0  0.57060219542E+01  0.59069591133E+02 -0.21173249683E+03  0.21989184955E+03  0.00000000000E+00 0. -1.
          1    1    1    2  502    0 -0.26336765130E+02 -0.61540453543E+02  0.65156578457E+03  0.65499528567E+03  0.00000000000E+00 0. -1.
         22    1    3    3    0    0  0.50761626514E+02  0.39332378771E+02  0.69982626306E+01  0.64596860806E+02  0.00000000000E+00 0.  1.
         22    1    3    3    0    0 -0.30130883338E+02 -0.36861516361E+02  0.66839165707E+02  0.82061657256E+02  0.00000000000E+00 0.  1.
</event>
<event>
 7    1  0.5562528E-006  0.4680213E+02  0.7818608E-02  0.1587771E+00
          2   -1    0    0  502    0  0.00000000000E+00  0.00000000000E+00  0.40434363883E+03  0.40434363883E+03  0.00000000000E+00 0. -1.
          1   -1    0    0  501    0 -0.00000000000E+00 -0.00000000000E+00 -0.24546525302E+03  0.24546525302E+03  0.00000000000E+00 0. -1.
         25    2    1    2    0    0  0.30854120735E+02  0.16616495919E+02  0.16331418648E+03  0.20862741208E+03  0.12500315542E+03 0.  0.
          2    1    1    2  501    0 -0.46841870247E+02 -0.38283086150E+01 -0.21983947892E+03  0.22480705782E+03  0.00000000000E+00 0. -1.
          1    1    1    2  502    0  0.15987749511E+02 -0.12788187304E+02  0.21540367825E+03  0.21637442194E+03  0.00000000000E+00 0. -1.
         22    1    3    3    0    0  0.56191558011E+02  0.39835423075E+02  0.37958466011E+02  0.78646025108E+02  0.00000000000E+00 0. -1.
         22    1    3    3    0    0 -0.25337437276E+02 -0.23218927156E+02  0.12535572047E+03  0.12998138698E+03  0.00000000000E+00 0. -1.
</event>
<event>
 7    1  0.5562528E-006  0.4540436E+02  0.7818608E-02  0.1581864E+00
          2   -1    0    0  502    0  0.00000000000E+00  0.00000000000E+00  0.22544907036E+03  0.22544907036E+03  0.00000000000E+00 0. -1.
          1   -1    0    0  501    0 -0.00000000000E+00 -0.00000000000E+00 -0.62447878874E+03  0.62447878874E+03  0.00000000000E+00 0. -1.
         25    2    1    2    0    0 -0.24444362332E+02  0.39712199360E+02  0.18593302799E+02  0.13470431232E+03  0.12499982088E+03 0.  0.
          2    1    1    2  501    0 -0.14677761051E+02 -0.16229372844E+02 -0.56270767347E+03  0.56313298163E+03  0.00000000000E+00 0. -1.
          1    1    1    2  502    0  0.39122123383E+02 -0.23482826516E+02  0.14508465229E+03  0.15209056516E+03  0.00000000000E+00 0. -1.
         22    1    3    3    0    0 -0.42343421011E+02  0.68593678556E+02 -0.20231790166E+02  0.83110669436E+02  0.00000000000E+00 0.  1.
         22    1    3    3    0    0  0.17899058678E+02 -0.28881479196E+02  0.38825092965E+02  0.51593642883E+02  0.00000000000E+00 0.  1.
</event>
<event>
 7    1  0.5562528E-006  0.6128562E+02  0.7818608E-02  0.1526958E+00
          2   -1    0    0  502    0  0.00000000000E+00  0.00000000000E+00  0.27191283930E+03  0.27191283930E+03  0.00000000000E+00 0. -1.
          1   -1    0    0  501    0 -0.00000000000E+00 -0.00000000000E+00 -0.82263669477E+03  0.82263669477E+03  0.00000000000E+00 0. -1.
         25    2    1    2    0    0  0.13008473506E+02 -0.80942176120E+02  0.66957146976E+02  0.16379816452E+03  0.12500289161E+03 0.  0.
          2    1    1    2  501    0 -0.14001648518E+01  0.61061120234E+02 -0.77215723606E+03  0.77456905313E+03  0.00000000000E+00 0. -1.
          1    1    1    2  502    0 -0.11608308654E+02  0.19881055886E+02  0.15447623362E+03  0.15618231643E+03  0.00000000000E+00 0. -1.
         22    1    3    3    0    0 -0.49676894104E+02 -0.10326205132E+02  0.42679685644E+02  0.66302186140E+02  0.00000000000E+00 0. -1.
         22    1    3    3    0    0  0.62685367609E+02 -0.70615970988E+02  0.24277461332E+02  0.97495978377E+02  0.00000000000E+00 0. -1.
</event>
<event>
 7    1  0.5562528E-006  0.1011150E+03  0.7818608E-02  0.1422225E+00
          2   -1    0    0  502    0  0.00000000000E+00  0.00000000000E+00  0.84476887571E+03  0.84476887571E+03  0.00000000000E+00 0. -1.
          1   -1    0    0  501    0 -0.00000000000E+00 -0.00000000000E+00 -0.23927100144E+04  0.23927100144E+04  0.00000000000E+00 0. -1.
         25    2    1    2    0    0  0.73421909442E+02  0.59830705324E+02 -0.23060737608E+02  0.15851040932E+03  0.12499304844E+03 0.  0.
          2    1    1    2  501    0 -0.56610391474E+02 -0.83989002287E+02 -0.23005310406E+04  0.23027596396E+04  0.00000000000E+00 0. -1.
          1    1    1    2  502    0 -0.16811517967E+02  0.24158296963E+02  0.77565063956E+03  0.77620884116E+03  0.00000000000E+00 0. -1.
         22    1    3    3    0    0 -0.12294561713E+02  0.47987472508E+01 -0.51167316662E+02  0.52842014698E+02  0.00000000000E+00 0. -1.
         22    1    3    3    0    0  0.85716471154E+02  0.55031958073E+02  0.28106579054E+02  0.10566839463E+03  0.00000000000E+00 0. -1.
</event>
<event>
 7    1  0.5562528E-006  0.5841840E+02  0.7818608E-02  0.1520585E+00
          2   -1    0    0  502    0  0.00000000000E+00  0.00000000000E+00  0.11887674373E+04  0.11887674373E+04  0.00000000000E+00 0. -1.
          1   -1    0    0  501    0 -0.00000000000E+00 -0.00000000000E+00 -0.11718094024E+03  0.11718094024E+03  0.00000000000E+00 0. -1.
         25    2    1    2    0    0 -0.53692505265E+02  0.53049563686E+02  0.69943400241E+02  0.16190864251E+03  0.12500075181E+03 0.  0.
          2    1    1    2  501    0  0.28798966638E+02 -0.49145414044E+02 -0.59631783294E+02  0.82465761258E+02  0.00000000000E+00 0. -1.
          1    1    1    2  502    0  0.24893538627E+02 -0.39041496417E+01  0.10612748801E+04  0.10615739738E+04  0.00000000000E+00 0. -1.
         22    1    3    3    0    0 -0.20118395501E+02  0.58757641147E+02 -0.20390783737E+02  0.65368144322E+02  0.00000000000E+00 0.  1.
         22    1    3    3    0    0 -0.33574109764E+02 -0.57080774607E+01  0.90334183979E+02  0.96540498185E+02  0.00000000000E+00 0.  1.
</event>
<event>
 7    1  0.5562528E-006  0.1475231E+03  0.7818608E-02  0.1328072E+00
          2   -1    0    0  502    0  0.00000000000E+00  0.00000000000E+00  0.53833397953E+03  0.53833397953E+03  0.00000000000E+00 0. -1.
          1   -1    0    0  501    0 -0.00000000000E+00 -0.00000000000E+00 -0.25256344731E+03  0.25256344731E+03  0.00000000000E+00 0. -1.
         25    2    1    2    0    0 -0.17740835323E+03 -0.42705878195E+02  0.21716255864E+03  0.30997236295E+03  0.12500309231E+03 0.  0.
          2    1    1    2  501    0  0.14349261047E+03  0.15054295823E+02 -0.17875718170E+03  0.22971915700E+03  0.00000000000E+00 0. -1.
          1    1    1    2  502    0  0.33915742762E+02  0.27651582371E+02  0.24736515528E+03  0.25120590690E+03  0.00000000000E+00 0. -1.
         22    1    3    3    0    0 -0.14724618935E+03 -0.35818999190E+02  0.84002222414E+02  0.17326515620E+03  0.00000000000E+00 0. -1.
         22    1    3    3    0    0 -0.30162163877E+02 -0.68868790044E+01  0.13316033623E+03  0.13670720675E+03  0.00000000000E+00 0. -1.
</event>
<event>
 7    1  0.5562528E-006  0.9956732E+02  0.7818608E-02  0.1331303E+00
          2   -1    0    0  502    0  0.00000000000E+00  0.00000000000E+00  0.12370368170E+04  0.12370368170E+04  0.00000000000E+00 0. -1.
          1   -1    0    0  501    0 -0.00000000000E+00 -0.00000000000E+00 -0.87485269470E+02  0.87485269470E+02  0.00000000000E+00 0. -1.
         25    2    1    2    0    0  0.10117355758E+03 -0.61843749018E+02  0.29520529299E+03  0.34180952810E+03  0.12500740157E+03 0.  0.
          2    1    1    2  501    0 -0.99185367169E+02 -0.11428052874E+01 -0.24044160718E+02  0.10206451258E+03  0.00000000000E+00 0. -1.
          1    1    1    2  502    0 -0.19881904072E+01  0.62986554305E+02  0.87839041529E+03  0.88064804581E+03  0.00000000000E+00 0. -1.
         22    1    3    3    0    0  0.65887556681E+02 -0.69411536247E+02  0.83375317831E+02  0.12692744035E+03  0.00000000000E+00 0.  1.
         22    1    3    3    0    0  0.35286000895E+02  0.75677872294E+01  0.21182997516E+03  0.21488208776E+03  0.00000000000E+00 0.  1.
</event>
<event>
 7    1  0.5562528E-006  0.1140473E+03  0.7818608E-02  0.1281983E+00
          2   -1    0    0  502    0  0.00000000000E+00  0.00000000000E+00  0.13173606155E+04  0.13173606155E+04  0.00000000000E+00 0. -1.
          1   -1    0    0  501    0 -0.00000000000E+00 -0.00000000000E+00 -0.14666245026E+04  0.14666245026E+04  0.00000000000E+00 0. -1.
         25    2    1    2    0    0  0.13510916500E+02  0.49043825545E+02  0.11430865626E+03  0.17686106809E+03  0.12500210726E+03 0.  0.
          2    1    1    2  501    0  0.82525031343E+02  0.25206951106E+02 -0.14309011341E+04  0.14335005500E+04  0.00000000000E+00 0. -1.
          1    1    1    2  502    0 -0.96035947843E+02 -0.74250776650E+02  0.11673285908E+04  0.11736235001E+04  0.00000000000E+00 0. -1.
         22    1    3    3    0    0  0.24175122459E+02  0.78384236235E+02  0.30648975066E+02  0.87566458811E+02  0.00000000000E+00 0.  1.
         22    1    3    3    0    0 -0.10664205959E+02 -0.29340410690E+02  0.83659681194E+02  0.89294609275E+02  0.00000000000E+00 0.  1.
</event>
<event>
 7    1  0.5562528E-006  0.1021702E+03  0.7818608E-02  0.1407675E+00
          2   -1    0    0  502    0  0.00000000000E+00  0.00000000000E+00  0.14879370813E+04  0.14879370813E+04  0.00000000000E+00 0. -1.
          1   -1    0    0  501    0 -0.00000000000E+00 -0.00000000000E+00 -0.16220177320E+03  0.16220177320E+03  0.00000000000E+00 0. -1.
         25    2    1    2    0    0 -0.35673142702E+00  0.11837483551E+03  0.79590421417E+03  0.81431010212E+03  0.12499878132E+03 0.  0.
          2    1    1    2  501    0  0.26190682858E+02 -0.98484874580E+02 -0.13558586133E+03  0.16961352594E+03  0.00000000000E+00 0. -1.
          1    1    1    2  502    0 -0.25833951431E+02 -0.19889960929E+02  0.66541695525E+03  0.66621522643E+03  0.00000000000E+00 0. -1.
         22    1    3    3    0    0  0.40183133234E+02  0.50658775186E+02  0.14659654896E+03  0.16022341859E+03  0.00000000000E+00 0. -1.
         22    1    3    3    0    0 -0.40539864661E+02  0.67716060323E+02  0.64930766522E+03  0.65408668352E+03  0.00000000000E+00 0. -1.
</event>
<event>
 7    1  0.5562528E-006  0.4255160E+02  0.7818608E-02  0.1520532E+00
          2   -1    0    0  502    0  0.00000000000E+00  0.00000000000E+00  0.17759685664E+03  0.17759685664E+03  0.00000000000E+00 0. -1.
          1   -1    0    0  501    0 -0.00000000000E+00 -0.00000000000E+00 -0.17138313096E+03  0.17138313096E+03  0.00000000000E+00 0. -1.
         25    2    1    2    0    0  0.32090452855E+02 -0.65249902621E+01  0.10300723550E+02  0.12962663500E+03  0.12499834772E+03 0.  0.
          2    1    1    2  501    0 -0.20168136855E+02  0.39012442196E+02 -0.10438809807E+03  0.11325016296E+03  0.00000000000E+00 0. -1.
          1    1    1    2  502    0 -0.11922316000E+02 -0.32487451934E+02  0.10030110020E+03  0.10610318964E+03  0.00000000000E+00 0. -1.
         22    1    3    3    0    0 -0.12943404076E+02  0.43154761363E+02  0.36149416459E+02  0.57763703549E+02  0.00000000000E+00 0. -1.
         22    1    3    3    0    0  0.45033856931E+02 -0.49679751625E+02 -0.25848692909E+02  0.71862931451E+02  0.00000000000E+00 0. -1.
</event>
<event>
 7    1  0.5562528E-006  0.8921287E+02  0.7818608E-02  0.1410473E+00
          2   -1    0    0  502    0  0.00000000000E+00  0.00000000000E+00  0.59323776532E+03  0.59323776532E+03  0.00000000000E+00 0. -1.
          1   -1    0    0  501    0 -0.00000000000E+00 -0.00000000000E+00 -0.15369385681E+03  0.15369385681E+03  0.00000000000E+00 0. -1.
         25    2    1    2    0    0  0.66904799650E+01 -0.10837263585E+03  0.18686403391E+03  0.24966390181E+03  0.12499802388E+03 0.  0.
          2    1    1    2  501    0  0.21731966589E+02  0.85422264548E+02 -0.10536054555E+03  0.13736843237E+03  0.00000000000E+00 0. -1.
          1    1    1    2  502    0 -0.28422446554E+02  0.22950371300E+02  0.35804042015E+03  0.35989928796E+03  0.00000000000E+00 0. -1.
         22    1    3    3    0    0 -0.49121013603E+01  0.22069751775E+02  0.14374865782E+01  0.22655441969E+02  0.00000000000E+00 0.  1.
         22    1    3    3    0    0  0.11602581325E+02 -0.13044238762E+03  0.18542654733E+03  0.22700845984E+03  0.00000000000E+00 0.  1.
</event>
<event>
 7    1  0.5562528E-006  0.1153811E+03  0.7818608E-02  0.1262265E+00
          2   -1    0    0  502    0  0.00000000000E+00  0.00000000000E+00  0.22941334580E+03  0.22941334580E+03  0.00000000000E+00 0. -1.
          1   -1    0    0  501    0 -0.00000000000E+00 -0.00000000000E+00 -0.12245212316E+04  0.12245212316E+04  0.00000000000E+00 0. -1.
         25    2    1    2    0    0 -0.43348421184E+02  0.74599174558E+02  0.62630438800E+02  0.16429099156E+03  0.12499934232E+03 0.  0.
          2    1    1    2  501    0  0.11718967647E+03 -0.25877026393E+01 -0.11471614779E+04  0.11531346725E+04  0.00000000000E+00 0. -1.
          1    1    1    2  502    0 -0.73841255286E+02 -0.72011471919E+02  0.89423153325E+02  0.13650891334E+03  0.00000000000E+00 0. -1.
         22    1    3    3    0    0  0.38974287052E+02  0.46402634492E+02  0.69786311096E+01  0.60999187135E+02  0.00000000000E+00 0. -1.
         22    1    3    3    0    0 -0.82322708236E+02  0.28196540066E+02  0.55651807690E+02  0.10329180443E+03  0.00000000000E+00 0. -1.
</event>
<event>
 7    1  0.5562528E-006  0.5646159E+02  0.7818608E-02  0.1418118E+00
          2   -1    0    0  502    0  0.00000000000E+00  0.00000000000E+00  0.20409684806E+03  0.20409684806E+03  0.00000000000E+00 0. -1.
          1   -1    0    0  501    0 -0.00000000000E+00 -0.00000000000E+00 -0.76220129471E+03  0.76220129471E+03  0.00000000000E+00 0. -1.
         25    2    1    2    0    0  0.10174841764E+03  0.40171052840E+02  0.92029364157E+02  0.18989519680E+03  0.12499731166E+03 0.  0.
          2    1    1    2  501    0 -0.54448032702E+02 -0.13300730893E+02 -0.70021856820E+03  0.70245821296E+03  0.00000000000E+00 0. -1.
          1    1    1    2  502    0 -0.47300384935E+02 -0.26870321947E+02  0.50084757388E+02  0.73944733005E+02  0.00000000000E+00 0. -1.
         22    1    3    3    0    0  0.57220383702E+00 -0.29743146770E+02 -0.86253642500E+01  0.30973845507E+02  0.00000000000E+00 0.  1.
         22    1    3    3    0    0  0.10117621380E+03  0.69914199610E+02  0.10065472841E+03  0.15892135129E+03  0.00000000000E+00 0.  1.
</event>
<event>
 7    1  0.5562528E-006  0.2308730E+03  0.7818608E-02  0.1176660E+00
          2   -1    0    0  502    0  0.00000000000E+00  0.00000000000E+00  0.14175936496E+04  0.14175936496E+04  0.00000000000E+00 0. -1.
          1   -1    0    0  501    0 -0.00000000000E+00 -0.00000000000E+00 -0.39020677256E+03  0.39020677256E+03  0.00000000000E+00 0. -1.
         25    2    1    2    0    0  0.28153187030E+03 -0.18873099206E+03  0.24640895339E+03  0.43728998611E+03  0.12500231311E+03 0.  0.
          2    1    1    2  501    0 -0.16195192269E+03  0.14635288359E+03 -0.24992616744E+03  0.33182929492E+03  0.00000000000E+00 0. -1.
          1    1    1    2  502    0 -0.11957994761E+03  0.42378108471E+02  0.10309040910E+04  0.10386811411E+04  0.00000000000E+00 0. -1.
         22    1    3    3    0    0  0.10305243193E+02  0.84163511861E+01  0.43222444131E+02  0.45224027698E+02  0.00000000000E+00 0. -1.
         22    1    3    3    0    0  0.27122662711E+03 -0.19714734324E+03  0.20318650926E+03  0.39206595841E+03  0.00000000000E+00 0. -1.
</event>
<event>
 7    1  0.5562528E-006  0.1881867E+03  0.7818608E-02  0.1266818E+00
          2   -1    0    0  502    0  0.00000000000E+00  0.00000000000E+00  0.11116522062E+04  0.11116522062E+04  0.00000000000E+00 0. -1.
          1   -1    0    0  501    0 -0.00000000000E+00 -0.00000000000E+00 -0.11560983766E+04  0.11560983766E+04  0.00000000000E+00 0. -1.
         25    2    1    2    0    0  0.20121749203E+03  0.86304681877E+02  0.38279223810E+03  0.45835818339E+03  0.12500139807E+03 0.  0.
          2    1    1    2  501    0 -0.18566433905E+03 -0.27847468430E+02 -0.11090875370E+04  0.11248652777E+04  0.00000000000E+00 0. -1.
          1    1    1    2  502    0 -0.15553152984E+02 -0.58457213447E+02  0.68184912847E+03  0.68452712172E+03  0.00000000000E+00 0. -1.
         22    1    3    3    0    0  0.16324251647E+03  0.97090904732E+02  0.21906231348E+03  0.28993630362E+03  0.00000000000E+00 0. -1.
         22    1    3    3    0    0  0.37974975559E+02 -0.10786222855E+02  0.16372992462E+03  0.16842187978E+03  0.00000000000E+00 0. -1.
</event>
<event>
 7    1  0.5562528E-006  0.1304881E+03  0.7818608E-02  0.1374846E+00
          2   -1    0    0  502    0  0.00000000000E+00  0.00000000000E+00  0.26728849678E+04  0.26728849678E+04  0.00000000000E+00 0. -1.
          1   -1    0    0  501    0 -0.00000000000E+00 -0.00000000000E+00 -0.84975562353E+02  0.84975562353E+02  0.00000000000E+00 0. -1.
         25    2    1    2    0    0 -0.14949701386E+03 -0.32157761486E+02  0.55775603707E+03  0.59169199422E+03  0.12499656136E+03 0.  0.
          2    1    1    2  501    0  0.12812730069E+03  0.67248846728E+01 -0.72367858346E+01  0.12850758859E+03  0.00000000000E+00 0. -1.
          1    1    1    2  502    0  0.21369713172E+02  0.25432876813E+02  0.20373901542E+04  0.20376609473E+04  0.00000000000E+00 0. -1.
         22    1    3    3    0    0 -0.92950180022E+02 -0.77805256900E+02  0.29155236489E+03  0.31574701177E+03  0.00000000000E+00 0.  1.
         22    1    3    3    0    0 -0.56546833842E+02  0.45647495414E+02  0.26620367218E+03  0.27594498244E+03  0.00000000000E+00 0.  1.
</event>
<event>
 7    1  0.5562528E-006  0.1480773E+03  0.7818608E-02  0.1350097E+00
          2   -1    0    0  502    0  0.00000000000E+00  0.00000000000E+00  0.63707694177E+03  0.63707694177E+03  0.00000000000E+00 0. -1.
          1   -1    0    0  501    0 -0.00000000000E+00 -0.00000000000E+00 -0.18849487531E+04  0.18849487531E+04  0.00000000000E+00 0. -1.
         25    2    1    2    0    0 -0.95263726528E+02 -0.87163619631E+02  0.14131937906E+02  0.18027279212E+03  0.12500357487E+03 0.  0.
          2    1    1    2  501    0 -0.34495962042E+02  0.10342543227E+02 -0.17911640080E+04  0.17915260096E+04  0.00000000000E+00 0. -1.
          1    1    1    2  502    0  0.12975968857E+03  0.76821076404E+02  0.52916025872E+03  0.55022689317E+03  0.00000000000E+00 0. -1.
         22    1    3    3    0    0 -0.11861205932E+03 -0.68035315356E+02  0.37854986210E+02  0.14188243279E+03  0.00000000000E+00 0. -1.
         22    1    3    3    0    0  0.23348332796E+02 -0.19128304275E+02 -0.23723048304E+02  0.38390359332E+02  0.00000000000E+00 0. -1.
</event>
<event>
 7    1  0.5562528E-006  0.8109253E+02  0.7818608E-02  0.1463528E+00
          2   -1    0    0  502    0  0.00000000000E+00  0.00000000000E+00  0.58423783967E+03  0.58423783967E+03  0.00000000000E+00 0. -1.
          1   -1    0    0  501    0 -0.00000000000E+00 -0.00000000000E+00 -0.65660874113E+03  0.65660874113E+03  0.00000000000E+00 0. -1.
         25    2    1    2    0    0 -0.35269344729E+02 -0.63446776487E+02  0.64007027160E+02  0.15808469712E+03  0.12499780724E+03 0.  0.
          2    1    1    2  501    0  0.14088460509E+02  0.80168014340E+02 -0.60646397157E+03  0.61190190722E+03  0.00000000000E+00 0. -1.
          1    1    1    2  502    0  0.21180884219E+02 -0.16721237853E+02  0.47008604296E+03  0.47085997646E+03  0.00000000000E+00 0. -1.
         22    1    3    3    0    0 -0.27334289739E+00 -0.69817559391E+02  0.90088798389E+02  0.11397612869E+03  0.00000000000E+00 0.  1.
         22    1    3    3    0    0 -0.34996001831E+02  0.63707829041E+01 -0.26081771230E+02  0.44108568436E+02  0.00000000000E+00 0.  1.
</event>
<event>
 7    1  0.5562528E-006  0.1348382E+03  0.7818608E-02  0.1277881E+00
          2   -1    0    0  502    0  0.00000000000E+00  0.00000000000E+00  0.51795208425E+03  0.51795208425E+03  0.00000000000E+00 0. -1.
          1   -1    0    0  501    0 -0.00000000000E+00 -0.00000000000E+00 -0.36997710078E+03  0.36997710078E+03  0.00000000000E+00 0. -1.
         25    2    1    2    0    0  0.60558902819E+02 -0.17573964523E+03  0.48084446371E+02  0.22910357090E+03  0.12499811438E+03 0.  0.
          2    1    1    2  501    0  0.11550592633E+00  0.13015611244E+03 -0.26013990631E+03  0.29088382183E+03  0.00000000000E+00 0. -1.
          1    1    1    2  502    0 -0.60674408746E+02  0.45583532793E+02  0.36003044341E+03  0.36794179230E+03  0.00000000000E+00 0. -1.
         22    1    3    3    0    0  0.40347358689E+02 -0.12363855874E+03 -0.29624540368E+02  0.13338671580E+03  0.00000000000E+00 0. -1.
         22    1    3    3    0    0  0.20211544130E+02 -0.52101086492E+02  0.77708986740E+02  0.95716855098E+02  0.00000000000E+00 0. -1.
</event>
<event>
 7    1  0.5562528E-006  0.1826297E+03  0.7818608E-02  0.1241675E+00
          2   -1    0    0  502    0  0.00000000000E+00  0.00000000000E+00  0.12787927353E+04  0.12787927353E+04  0.00000000000E+00 0. -1.
          1   -1    0    0  501    0 -0.00000000000E+00 -0.00000000000E+00 -0.61553687266E+03  0.61553687266E+03  0.00000000000E+00 0. -1.
         25    2    1    2    0    0  0.12003215139E+03  0.68985941208E+02 -0.12661465087E+03  0.22543947840E+03  0.12499964461E+03 0.  0.
          2    1    1    2  501    0 -0.14685859153E+03 -0.14434358119E+03 -0.41399027305E+03  0.46237480632E+03  0.00000000000E+00 0. -1.
          1    1    1    2  502    0  0.26826440134E+02  0.75357639980E+02  0.12038607866E+04  0.12065153233E+04  0.00000000000E+00 0. -1.
         22    1    3    3    0    0  0.13105295892E+03  0.32791779535E+02 -0.57860420331E+02  0.14696260438E+03  0.00000000000E+00 0. -1.
         22    1    3    3    0    0 -0.11020807527E+02  0.36194161674E+02 -0.68754230541E+02  0.78476874014E+02  0.00000000000E+00 0. -1.
</event>
<event>
 7    1  0.5562528E-006  0.1306887E+03  0.7818608E-02  0.1227838E+00
          2   -1    0    0  502    0  0.00000000000E+00  0.00000000000E+00  0.36432152546E+03  0.36432152546E+03  0.00000000000E+00 0. -1.
          1   -1    0    0  501    0 -0.00000000000E+00 -0.00000000000E+00 -0.48934431269E+03  0.48934431269E+03  0.00000000000E+00 0. -1.
         25    2    1    2    0    0 -0.10631743337E+03  0.34819476770E+02 -0.11593661606E+03  0.20391984325E+03  0.12500484361E+03 0.  0.
          2    1    1    2  501    0  0.97784580602E+01 -0.13032238518E+03 -0.30080537977E+03  0.32796862475E+03  0.00000000000E+00 0. -1.
          1    1    1    2  502    0  0.96538975305E+02  0.95502908413E+02  0.29171920861E+03  0.32177737015E+03  0.00000000000E+00 0. -1.
         22    1    3    3    0    0 -0.13463959739E+03  0.28407662825E+02 -0.10417347542E+03  0.17258890310E+03  0.00000000000E+00 0. -1.
         22    1    3    3    0    0  0.28322164021E+02  0.64118139451E+01 -0.11763140648E+02  0.31330940152E+02  0.00000000000E+00 0. -1.
</event>
<event>
 7    1  0.5562528E-006  0.5946472E+02  0.7818608E-02  0.1495963E+00
          2   -1    0    0  502    0  0.00000000000E+00  0.00000000000E+00  0.45336313710E+03  0.45336313710E+03  0.00000000000E+00 0. -1.
          1   -1    0    0  501    0 -0.00000000000E+00 -0.00000000000E+00 -0.51277697920E+02  0.51277697920E+02  0.00000000000E+00 0. -1.
         25    2    1    2    0    0 -0.17126749479E+02 -0.44458653176E+02  0.30639641088E+03  0.33432494436E+03  0.12499804172E+03 0.  0.
          2    1    1    2  501    0  0.16191150901E+02 -0.24374726620E+02 -0.20175844900E+02  0.35543570202E+02  0.00000000000E+00 0. -1.
          1    1    1    2  502    0  0.93559857823E+00  0.68833379796E+02  0.11586487320E+03  0.13477232045E+03  0.00000000000E+00 0. -1.
         22    1    3    3    0    0 -0.27657309053E+02 -0.55559536230E+01  0.31194825723E+01  0.28381799384E+02  0.00000000000E+00 0. -1.
         22    1    3    3    0    0  0.10530559574E+02 -0.38902699553E+02  0.30327692831E+03  0.30594314498E+03  0.00000000000E+00 0. -1.
</event>
<event>
 7    1  0.5562528E-006  0.6256797E+02  0.7818608E-02  0.1485616E+00
          2   -1    0    0  502    0  0.00000000000E+00  0.00000000000E+00  0.63645470597E+02  0.63645470597E+02  0.00000000000E+00 0. -1.
          1   -1    0    0  501    0 -0.00000000000E+00 -0.00000000000E+00 -0.62849471100E+03  0.62849471100E+03  0.00000000000E+00 0. -1.
         25    2    1    2    0    0 -0.52531952515E+02 -0.53975787076E+02 -0.29975519475E+03  0.33338539112E+03  0.12497860059E+03 0.  0.
          2    1    1    2  501    0  0.22769312936E+02  0.56701543332E+02 -0.30378257824E+03  0.30986668338E+03  0.00000000000E+00 0. -1.
          1    1    1    2  502    0  0.29762639579E+02 -0.27257562563E+01  0.38688532588E+02  0.48888107099E+02  0.00000000000E+00 0. -1.
         22    1    3    3    0    0 -0.40120288027E+02  0.27620502464E+02 -0.18950239636E+03  0.19566217799E+03  0.00000000000E+00 0.  1.
         22    1    3    3    0    0 -0.12411664488E+02 -0.81596289540E+02 -0.11025279839E+03  0.13772321313E+03  0.00000000000E+00 0.  1.
</event>
<event>
 7    1  0.5562528E-006  0.1803465E+03  0.7818608E-02  0.1172839E+00
          2   -1    0    0  502    0  0.00000000000E+00  0.00000000000E+00  0.15286038512E+04  0.15286038512E+04  0.00000000000E+00 0. -1.
          1   -1    0    0  501    0 -0.00000000000E+00 -0.00000000000E+00 -0.11623104663E+04  0.11623104663E+04  0.00000000000E+00 0. -1.
         25    2    1    2    0    0 -0.13580055893E+02  0.25041947371E+02  0.55611675562E+03  0.57070340622E+03  0.12500005981E+03 0.  0.
          2    1    1    2  501    0 -0.92875780274E+02 -0.15707642748E+03 -0.11402552897E+04  0.11547644956E+04  0.00000000000E+00 0. -1.
          1    1    1    2  502    0  0.10645583617E+03  0.13203448011E+03  0.95043191893E+03  0.96544641566E+03  0.00000000000E+00 0. -1.
         22    1    3    3    0    0 -0.68738309027E+02  0.34628784466E+01  0.31262775297E+03  0.32011413368E+03  0.00000000000E+00 0. -1.
         22    1    3    3    0    0  0.55158253134E+02  0.21579068924E+02  0.24348900265E+03  0.25058927254E+03  0.00000000000E+00 0. -1.
</event>
<event>
 7    1  0.5562528E-006  0.1124971E+03  0.7818608E-02  0.1260443E+00
          2   -1    0    0  502    0  0.00000000000E+00  0.00000000000E+00  0.12156973084E+04  0.12156973084E+04  0.00000000000E+00 0. -1.
          1   -1    0    0  501    0 -0.00000000000E+00 -0.00000000000E+00 -0.17267509110E+04  0.17267509110E+04  0.00000000000E+00 0. -1.
         25    2    1    2    0    0  0.89136551814E+01  0.37918631634E+02 -0.10304358377E+03  0.16661441810E+03  0.12500043316E+03 0.  0.
          2    1    1    2  501    0 -0.11605446516E+03 -0.27037034619E+02 -0.15872348949E+04  0.15917016843E+04  0.00000000000E+00 0. -1.
          1    1    1    2  502    0  0.10714080998E+03 -0.10881597015E+02  0.11792248760E+04  0.11841321170E+04  0.00000000000E+00 0. -1.
         22    1    3    3    0    0  0.11428085269E+02  0.71470207293E+02 -0.17172903851E+02  0.74387500900E+02  0.00000000000E+00 0. -1.
         22    1    3    3    0    0 -0.25144300877E+01 -0.33551575659E+02 -0.85870679916E+02  0.92226917204E+02  0.00000000000E+00 0. -1.
</event>
<event>
 7    1  0.1343527E-005  0.6826143E+02  0.7818608E-02  0.1386528E+00
          2   -1    0    0  502    0  0.00000000000E+00  0.00000000000E+00  0.26906501542E+04  0.26906501542E+04  0.00000000000E+00 0. -1.
          1   -1    0    0  501    0 -0.00000000000E+00 -0.00000000000E+00 -0.11508589557E+04  0.11508589557E+04  0.00000000000E+00 0. -1.
         25    2    1    2    0    0 -0.15571892049E+01 -0.53644011816E+02 -0.31866611550E+03  0.34648597919E+03  0.12499734303E+03 0.  0.
          2    1    1    2  501    0  0.56302113206E+02  0.12786784735E+02 -0.81682795616E+03  0.81886588632E+03  0.00000000000E+00 0. -1.
          1    1    1    2  502    0 -0.54744924002E+02  0.40857227081E+02  0.26752852702E+04  0.26761572444E+04  0.00000000000E+00 0. -1.
         22    1    3    3    0    0  0.45398862693E+02 -0.17823200511E+02 -0.44472458216E+02  0.66003960109E+02  0.00000000000E+00 0. -1.
         22    1    3    3    0    0 -0.46956051898E+02 -0.35820811306E+02 -0.27419365728E+03  0.28048201908E+03  0.00000000000E+00 0. -1.
</event>
<event>
 7    1  0.5562528E-006  0.1109527E+03  0.7818608E-02  0.1277047E+00
          2   -1    0    0  502    0  0.00000000000E+00  0.00000000000E+00  0.18243500190E+04  0.18243500190E+04  0.00000000000E+00 0. -1.
          1   -1    0    0  501    0 -0.00000000000E+00 -0.00000000000E+00 -0.14801739864E+04  0.14801739864E+04  0.00000000000E+00 0. -1.
         25    2    1    2    0    0  0.15487275047E+03  0.27786467706E+02  0.31926021807E+03  0.37724237679E+03  0.12500826926E+03 0.  0.
          2    1    1    2  501    0 -0.55727050421E+02 -0.74410195634E+02 -0.14476569084E+04  0.14506387923E+04  0.00000000000E+00 0. -1.
          1    1    1    2  502    0 -0.99145700052E+02  0.46623727928E+02  0.14725727229E+04  0.14766428363E+04  0.00000000000E+00 0. -1.
         22    1    3    3    0    0 -0.14771427666E+02 -0.19817651359E+02  0.41973143859E+02  0.48710154856E+02  0.00000000000E+00 0.  1.
         22    1    3    3    0    0  0.16964417814E+03  0.47604119065E+02  0.27728707421E+03  0.32853222194E+03  0.00000000000E+00 0.  1.
</event>
<event>
 7    1  0.5562528E-006  0.3036567E+03  0.7818608E-02  0.1159244E+00
          2   -1    0    0  502    0  0.00000000000E+00  0.00000000000E+00  0.29131118525E+04  0.29131118525E+04  0.00000000000E+00 0. -1.
          1   -1    0    0  501    0 -0.00000000000E+00 -0.00000000000E+00 -0.61699715069E+03  0.61699715069E+03  0.00000000000E+00 0. -1.
         25    2    1    2    0    0 -0.92425194308E+02 -0.16652223132E+03  0.13474474872E+04  0.13665694365E+04  0.12500089598E+03 0.  0.
          2    1    1    2  501    0  0.12890498056E+03  0.27853520662E+03 -0.56623410394E+03  0.64406476056E+03  0.00000000000E+00 0. -1.
          1    1    1    2  502    0 -0.36479786247E+02 -0.11201297530E+03  0.15149013185E+04  0.15194748060E+04  0.00000000000E+00 0. -1.
         22    1    3    3    0    0 -0.12084294310E+03 -0.15522884387E+03  0.11327178478E+04  0.11496733160E+04  0.00000000000E+00 0. -1.
         22    1    3    3    0    0  0.28417748787E+02 -0.11293387455E+02  0.21472963939E+03  0.21689612048E+03  0.00000000000E+00 0. -1.
</event>
<event>
 7    1  0.5562528E-006  0.3592103E+02  0.7818608E-02  0.1610603E+00
          2   -1    0    0  502    0  0.00000000000E+00  0.00000000000E+00  0.11344380645E+04  0.11344380645E+04  0.00000000000E+00 0. -1.
          1   -1    0    0  501    0 -0.00000000000E+00 -0.00000000000E+00 -0.29955120886E+03  0.29955120886E+03  0.00000000000E+00 0. -1.
         25    2    1    2    0    0  0.21515922321E+02 -0.51229257094E+02  0.45196265499E+02  0.14405682940E+03  0.12498918347E+03 0.  0.
          2    1    1    2  501    0 -0.17159981465E+02  0.15683758771E+02 -0.24927157667E+03  0.25035327876E+03  0.00000000000E+00 0. -1.
          1    1    1    2  502    0 -0.43559408557E+01  0.35545498323E+02  0.10389621668E+04  0.10395791652E+04  0.00000000000E+00 0. -1.
         22    1    3    3    0    0 -0.27695296712E+01 -0.24206813636E+02 -0.42580268579E+02  0.49058326442E+02  0.00000000000E+00 0. -1.
         22    1    3    3    0    0  0.24285451992E+02 -0.27022443457E+02  0.87776534078E+02  0.94998502954E+02  0.00000000000E+00 0. -1.
</event>
<event>
 7    1  0.5562528E-006  0.1633406E+03  0.7818608E-02  0.1349759E+00
          2   -1    0    0  502    0  0.00000000000E+00  0.00000000000E+00  0.65459861840E+03  0.65459861840E+03  0.00000000000E+00 0. -1.
          1   -1    0    0  501    0 -0.00000000000E+00 -0.00000000000E+00 -0.21650654323E+03  0.21650654323E+03  0.00000000000E+00 0. -1.
         25    2    1    2    0    0  0.10859304312E+03 -0.12058959759E+03  0.12515407289E+03  0.24004881546E+03  0.12500236711E+03 0.  0.
          2    1    1    2  501    0 -0.25188794031E+02 -0.20918332352E+02 -0.14286009019E+03  0.14656417482E+03  0.00000000000E+00 0. -1.
          1    1    1    2  502    0 -0.83404249084E+02  0.14150792994E+03  0.45579809246E+03  0.48449217135E+03  0.00000000000E+00 0. -1.
         22    1    3    3    0    0 -0.21286778003E+02 -0.49746774583E+01 -0.55090289830E+01  0.22543818086E+02  0.00000000000E+00 0. -1.
         22    1    3    3    0    0  0.12987982112E+03 -0.11561492013E+03  0.13066310188E+03  0.21750499738E+03  0.00000000000E+00 0. -1.
</event>
<event>
 7    1  0.5562528E-006  0.8534968E+02  0.7818608E-02  0.1352218E+00
          2   -1    0    0  502    0  0.00000000000E+00  0.00000000000E+00  0.18601276645E+03  0.18601276645E+03  0.00000000000E+00 0. -1.
          1   -1    0    0  501    0 -0.00000000000E+00 -0.00000000000E+00 -0.14477819170E+04  0.14477819170E+04  0.00000000000E+00 0. -1.
         25    2    1    2    0    0 -0.97933865237E+02  0.64076876967E+02  0.94142165450E+02  0.19538900422E+03  0.12496890627E+03 0.  0.
          2    1    1    2  501    0  0.37812794887E+02 -0.76356321728E+02 -0.13722600831E+04  0.13749028442E+04  0.00000000000E+00 0. -1.
          1    1    1    2  502    0  0.60121070350E+02  0.12279444761E+02  0.16348767149E+02  0.63502834984E+02  0.00000000000E+00 0. -1.
         22    1    3    3    0    0 -0.12251190139E+02  0.46961682436E+02 -0.19272645269E+02  0.52219978291E+02  0.00000000000E+00 0.  1.
         22    1    3    3    0    0 -0.85682675098E+02  0.17115194531E+02  0.11341481072E+03  0.14316902593E+03  0.00000000000E+00 0.  1.
</event>
<event>
 7    1  0.5562528E-006  0.5361430E+02  0.7818608E-02  0.1466566E+00
          2   -1    0    0  502    0  0.00000000000E+00  0.00000000000E+00  0.71315021583E+03  0.71315021583E+03  0.00000000000E+00 0. -1.
          1   -1    0    0  501    0 -0.00000000000E+00 -0.00000000000E+00 -0.50978520524E+03  0.50978520524E+03  0.00000000000E+00 0. -1.
         25    2    1    2    0    0 -0.54072216128E+02  0.74145811748E+02  0.11044377145E+03  0.19037946471E+03  0.12500043190E+03 0.  0.
          2    1    1    2  501    0  0.24575087482E+02 -0.47230316610E+02 -0.46759641877E+03  0.47061773084E+03  0.00000000000E+00 0. -1.
          1    1    1    2  502    0  0.29497128647E+02 -0.26915495138E+02  0.56051765791E+03  0.56193822553E+03  0.00000000000E+00 0. -1.
         22    1    3    3    0    0  0.17552818081E+02  0.63463808594E+02  0.96196446184E+02  0.11657406522E+03  0.00000000000E+00 0.  1.
         22    1    3    3    0    0 -0.71625034209E+02  0.10682003154E+02  0.14247325267E+02  0.73805399491E+02  0.00000000000E+00 0.  1.
</event>
<event>
 7    1  0.5562528E-006  0.7084489E+02  0.7818608E-02  0.1406114E+00
          2   -1    0    0  502    0  0.00000000000E+00  0.00000000000E+00  0.14768128171E+03  0.14768128171E+03  0.00000000000E+00 0. -1.
          1   -1    0    0  501    0 -0.00000000000E+00 -0.00000000000E+00 -0.32444159881E+03  0.32444159881E+03  0.00000000000E+00 0. -1.
         25    2    1    2    0    0  0.10113807010E+03  0.38208956487E+01  0.62629580227E+02  0.17259739675E+03  0.12499555424E+03 0.  0.
          2    1    1    2  501    0 -0.64627507724E+02  0.26718027425E+02 -0.24195394922E+03  0.25185766077E+03  0.00000000000E+00 0. -1.
          1    1    1    2  502    0 -0.36510562374E+02 -0.30538923073E+02  0.25640519009E+01  0.47667822999E+02  0.00000000000E+00 0. -1.
         22    1    3    3    0    0  0.65627117650E+01 -0.49960952332E+02  0.31531021634E+02  0.59442167431E+02  0.00000000000E+00 0.  1.
         22    1    3    3    0    0  0.94575358333E+02  0.53781847981E+02  0.31098558594E+02  0.11315522932E+03  0.00000000000E+00 0.  1.
</event>
<event>
 7    1  0.5562528E-006  0.7828183E+02  0.7818608E-02  0.1404222E+00
          2   -1    0    0  502    0  0.00000000000E+00  0.00000000000E+00  0.24091795643E+04  0.24091795643E+04  0.00000000000E+00 0. -1.
          1   -1    0    0  501    0 -0.00000000000E+00 -0.00000000000E+00 -0.22220311193E+04  0.22220311193E+04  0.00000000000E+00 0. -1.
         25    2    1    2    0    0 -0.64563522404E+01 -0.35030536361E+02  0.10487718085E+03  0.16702012147E+03  0.12501069935E+03 0.  0.
          2    1    1    2  501    0 -0.12455350213E+02 -0.41910515964E+02 -0.21900510067E+04  0.21904873976E+04  0.00000000000E+00 0. -1.
          1    1    1    2  502    0  0.18911702453E+02  0.76941052325E+02  0.22723222709E+04  0.22737031646E+04  0.00000000000E+00 0. -1.
         22    1    3    3    0    0 -0.41242330790E+02  0.22528362246E+02  0.84599573198E+02  0.96775744584E+02  0.00000000000E+00 0. -1.
         22    1    3    3    0    0  0.34785978550E+02 -0.57558898608E+02  0.20277607650E+02  0.70244376889E+02  0.00000000000E+00 0. -1.
</event>
<event>
 7    1  0.5562528E-006  0.1402702E+03  0.7818608E-02  0.1318642E+00
          2   -1    0    0  502    0  0.00000000000E+00  0.00000000000E+00  0.14023064045E+04  0.14023064045E+04  0.00000000000E+00 0. -1.
          1   -1    0    0  501    0 -0.00000000000E+00 -0.00000000000E+00 -0.10431605224E+03  0.10431605224E+03  0.00000000000E+00 0. -1.
         25    2    1    2    0    0  0.36413137007E+02 -0.94982358943E+02  0.27070133363E+03  0.31504258732E+03  0.12500021896E+03 0.  0.
          2    1    1    2  501    0  0.34350024840E+02 -0.36395178828E+02 -0.68968626686E+02  0.85212702781E+02  0.00000000000E+00 0. -1.
          1    1    1    2  502    0 -0.70763161847E+02  0.13137753777E+03  0.10962576453E+04  0.11063671666E+04  0.00000000000E+00 0. -1.
         22    1    3    3    0    0  0.15917619369E+02 -0.12002654759E+03  0.24650590940E+03  0.27463595195E+03  0.00000000000E+00 0.  1.
         22    1    3    3    0    0  0.20495517638E+02  0.25044188648E+02  0.24195424222E+02  0.40406635365E+02  0.00000000000E+00 0.  1.
</event>
<event>
 7    1  0.5562528E-006  0.4199636E+02  0.7818608E-02  0.1516694E+00
          2   -1    0    0  502    0  0.00000000000E+00  0.00000000000E+00  0.18268551088E+04  0.18268551088E+04  0.00000000000E+00 0. -1.
          1   -1    0    0  501    0 -0.00000000000E+00 -0.00000000000E+00 -0.32326066947E+03  0.32326066947E+03  0.00000000000E+00 0. -1.
         25    2    1    2    0    0 -0.53390097765E+02 -0.63446836851E+01  0.16868380458E+03  0.21672549480E+03  0.12499982647E+03 0.  0.
          2    1    1    2  501    0  0.19032151100E+02  0.30530332405E+02 -0.29788724318E+03  0.30005188489E+03  0.00000000000E+00 0. -1.
          1    1    1    2  502    0  0.34357946665E+02 -0.24185648720E+02  0.16327978779E+04  0.16333383986E+04  0.00000000000E+00 0. -1.
         22    1    3    3    0    0 -0.20602949321E+02 -0.58207141978E+02  0.13073026151E+03  0.14457853981E+03  0.00000000000E+00 0. -1.
         22    1    3    3    0    0 -0.32787148444E+02  0.51862458293E+02  0.37953543067E+02  0.72146954992E+02  0.00000000000E+00 0. -1.
</event>
<event>
 7    1  0.5562528E-006  0.6428219E+02  0.7818608E-02  0.1430470E+00
          2   -1    0    0  502    0  0.00000000000E+00  0.00000000000E+00  0.68489427699E+03  0.68489427699E+03  0.00000000000E+00 0. -1.
          1   -1    0    0  501    0 -0.00000000000E+00 -0.00000000000E+00 -0.11386540378E+04  0.11386540378E+04  0.00000000000E+00 0. -1.
         25    2    1    2    0    0 -0.38730097946E+02 -0.60144333498E+02  0.67688459441E+02  0.15913733927E+03  0.12500241546E+03 0.  0.
          2    1    1    2  501    0  0.60313560903E+02  0.22403250427E+02 -0.10911536931E+04  0.10930489528E+04  0.00000000000E+00 0. -1.
          1    1    1    2  502    0 -0.21583462956E+02  0.37741083070E+02  0.56970547284E+03  0.57136202273E+03  0.00000000000E+00 0. -1.
         22    1    3    3    0    0 -0.60899682490E+02 -0.88872167202E+02  0.50862827212E+02  0.11913882920E+03  0.00000000000E+00 0.  1.
         22    1    3    3    0    0  0.22169584544E+02  0.28727833704E+02  0.16825632229E+02  0.39998510074E+02  0.00000000000E+00 0.  1.
</event>
<event>
 7    1  0.5562528E-006  0.5193327E+02  0.7818608E-02  0.1488757E+00
          2   -1    0    0  502    0  0.00000000000E+00  0.00000000000E+00  0.25645714457E+04  0.25645714457E+04  0.00000000000E+00 0. -1.
          1   -1    0    0  501    0 -0.00000000000E+00 -0.00000000000E+00 -0.14747686516E+03  0.14747686516E+03  0.00000000000E+00 0. -1.
         25    2    1    2    0    0  0.30511834232E+02  0.30754520089E+02  0.62956313550E+02  0.14651232256E+03  0.12500220283E+03 0.  0.
          2    1    1    2  501    0  0.21474648848E+02 -0.27922047744E+02 -0.10248060947E+03  0.10836547702E+03  0.00000000000E+00 0. -1.
          1    1    1    2  502    0 -0.51986483080E+02 -0.28324723449E+01  0.24566188765E+04  0.24571705113E+04  0.00000000000E+00 0. -1.
         22    1    3    3    0    0  0.73622824470E+00  0.39553831093E+01  0.95078963580E+02  0.95164049951E+02  0.00000000000E+00 0. -1.
         22    1    3    3    0    0  0.29775605987E+02  0.26799136979E+02 -0.32122650030E+02  0.51348272607E+02  0.00000000000E+00 0. -1.
</event>
<event>
 7    1  0.5562528E-006  0.2026495E+03  0.7818608E-02  0.1152558E+00
          2   -1    0    0  502    0  0.00000000000E+00  0.00000000000E+00  0.37514950163E+04  0.37514950163E+04  0.00000000000E+00 0. -1.
          1   -1    0    0  501    0 -0.00000000000E+00 -0.00000000000E+00 -0.13854910366E+03  0.13854910366E+03  0.00000000000E+00 0. -1.
         25    2    1    2    0    0  0.12100043661E+03  0.22531941821E+03  0.16820211645E+04  0.17059395936E+04  0.12499901341E+03 0.  0.
          2    1    1    2  501    0  0.67087353157E+02 -0.19258090047E+03 -0.36727033363E+02  0.20721243003E+03  0.00000000000E+00 0. -1.
          1    1    1    2  502    0 -0.18808778977E+03 -0.32738517746E+02  0.19676517815E+04  0.19768920963E+04  0.00000000000E+00 0. -1.
         22    1    3    3    0    0  0.15314937546E+02 -0.14878972386E+02  0.95141505162E+02  0.97508138818E+02  0.00000000000E+00 0. -1.
         22    1    3    3    0    0  0.10568549907E+03  0.24019839060E+03  0.15868796593E+04  0.16084314548E+04  0.00000000000E+00 0. -1.
</event>
<event>
 7    1  0.5562528E-006  0.7420005E+02  0.7818608E-02  0.1487727E+00
          2   -1    0    0  502    0  0.00000000000E+00  0.00000000000E+00  0.22168825616E+04  0.22168825616E+04  0.00000000000E+00 0. -1.
          1   -1    0    0  501    0 -0.00000000000E+00 -0.00000000000E+00 -0.11805231213E+03  0.11805231213E+03  0.00000000000E+00 0. -1.
         25    2    1    2    0    0 -0.12753259772E+02  0.96735123388E+02  0.88474810383E+03  0.89884582446E+03  0.12499711673E+03 0.  0.
          2    1    1    2  501    0  0.32020869000E+01 -0.73813171928E+02 -0.98579155175E+02  0.12319288756E+03  0.00000000000E+00 0. -1.
          1    1    1    2  502    0  0.95511728720E+01 -0.22921951460E+02  0.13126613008E+04  0.13128961617E+04  0.00000000000E+00 0. -1.
         22    1    3    3    0    0 -0.42539747709E+02 -0.12496171712E+02  0.20573929067E+03  0.21046244361E+03  0.00000000000E+00 0. -1.
         22    1    3    3    0    0  0.29786487937E+02  0.10923129510E+03  0.67900881315E+03  0.68838338085E+03  0.00000000000E+00 0. -1.
</event>
<event>
 7    1  0.5562528E-006  0.8610344E+02  0.7818608E-02  0.1393361E+00
          2   -1    0    0  502    0  0.00000000000E+00  0.00000000000E+00  0.12912735770E+03  0.12912735770E+03  0.00000000000E+00 0. -1.
          1   -1    0    0  501    0 -0.00000000000E+00 -0.00000000000E+00 -0.23715187246E+03  0.23715187246E+03  0.00000000000E+00 0. -1.
         25    2    1    2    0    0 -0.43526456807E+02  0.50369902527E+02  0.13008186262E+02  0.14225613516E+03  0.12504365461E+03 0.  0.
          2    1    1    2  501    0 -0.35816583400E+01  0.43178308607E+02 -0.11057748807E+03  0.11876268555E+03  0.00000000000E+00 0. -1.
          1    1    1    2  502    0  0.47108115147E+02 -0.93548211134E+02 -0.10455212956E+02  0.10526040945E+03  0.00000000000E+00 0. -1.
         22    1    3    3    0    0  0.14969403897E+02  0.53079233222E+02 -0.36030403658E+02  0.65876232741E+02  0.00000000000E+00 0.  1.
         22    1    3    3    0    0 -0.58495860705E+02 -0.27093306944E+01  0.49038589920E+02  0.76379902420E+02  0.00000000000E+00 0.  1.
</event>
<event>
 7    1  0.5562528E-006  0.3233863E+03  0.7818608E-02  0.1156943E+00
          2   -1    0    0  502    0  0.00000000000E+00  0.00000000000E+00  0.15337329686E+04  0.15337329686E+04  0.00000000000E+00 0. -1.
          1   -1    0    0  501    0 -0.00000000000E+00 -0.00000000000E+00 -0.21645442942E+04  0.21645442942E+04  0.00000000000E+00 0. -1.
         25    2    1    2    0    0  0.21012036994E+03 -0.23508577473E+03 -0.17552146188E+03  0.38190171657E+03  0.12500098476E+03 0.  0.
          2    1    1    2  501    0 -0.28880292818E+03  0.15310526287E+03 -0.18693719189E+04  0.18977354199E+04  0.00000000000E+00 0. -1.
          1    1    1    2  502    0  0.78682558243E+02  0.81980511863E+02  0.14140820551E+04  0.14186401263E+04  0.00000000000E+00 0. -1.
         22    1    3    3    0    0  0.26142334748E+02  0.84272799725E+01 -0.38651730420E+02  0.47417264559E+02  0.00000000000E+00 0.  1.
         22    1    3    3    0    0  0.18397803519E+03 -0.24351305470E+03 -0.13686973146E+03  0.33448445201E+03  0.00000000000E+00 0.  1.
</event>
<event>
 7    1  0.5562528E-006  0.5458522E+02  0.7818608E-02  0.1515941E+00
          2   -1    0    0  502    0  0.00000000000E+00  0.00000000000E+00  0.21548005672E+04  0.21548005672E+04  0.00000000000E+00 0. -1.
          1   -1    0    0  501    0 -0.00000000000E+00 -0.00000000000E+00 -0.70560201904E+02  0.70560201904E+02  0.00000000000E+00 0. -1.
         25    2    1    2    0    0 -0.21786562391E+02 -0.26492402460E+02  0.36891828573E+03  0.39102716991E+03  0.12500017747E+03 0.  0.
          2    1    1    2  501    0 -0.27777731087E+02  0.15306196880E+01 -0.55795675374E+02  0.62346632078E+02  0.00000000000E+00 0. -1.
          1    1    1    2  502    0  0.49564293478E+02  0.24961782772E+02  0.17711177549E+04  0.17719869671E+04  0.00000000000E+00 0. -1.
         22    1    3    3    0    0 -0.43072678867E+02  0.30332617241E+02  0.79879003477E+02  0.95686877523E+02  0.00000000000E+00 0. -1.
         22    1    3    3    0    0  0.21286116476E+02 -0.56825019701E+02  0.28903928225E+03  0.29534029238E+03  0.00000000000E+00 0. -1.
</event>
<event>
 7    1  0.5562528E-006  0.1264368E+03  0.7818608E-02  0.1350493E+00
          2   -1    0    0  502    0  0.00000000000E+00  0.00000000000E+00  0.35442571969E+04  0.35442571969E+04  0.00000000000E+00 0. -1.
          1   -1    0    0  501    0 -0.00000000000E+00 -0.00000000000E+00 -0.16046986086E+04  0.16046986086E+04  0.00000000000E+00 0. -1.
         25    2    1    2    0    0 -0.15448046490E+03 -0.36605176557E+02  0.40504363814E+03  0.45264680092E+03  0.12499849837E+03 0.  0.
          2    1    1    2  501    0  0.39940940059E+02 -0.13100625602E+02 -0.15793662427E+04  0.15799255153E+04  0.00000000000E+00 0. -1.
          1    1    1    2  502    0  0.11453952484E+03  0.49705802159E+02  0.31138811929E+04  0.31163834894E+04  0.00000000000E+00 0. -1.
         22    1    3    3    0    0 -0.14335500075E+03  0.19247489382E+02  0.27630928133E+03  0.31187808682E+03  0.00000000000E+00 0.  1.
         22    1    3    3    0    0 -0.11125464148E+02 -0.55852665939E+02  0.12873435681E+03  0.14076871410E+03  0.00000000000E+00 0.  1.
</event>
<event>
 7    1  0.5562528E-006  0.1290116E+03  0.7818608E-02  0.1235988E+00
          2   -1    0    0  502    0  0.00000000000E+00  0.00000000000E+00  0.10418408873E+04  0.10418408873E+04  0.00000000000E+00 0. -1.
          1   -1    0    0  501    0 -0.00000000000E+00 -0.00000000000E+00 -0.11240667997E+04  0.11240667997E+04  0.00000000000E+00 0. -1.
         25    2    1    2    0    0  0.84248757698E+02  0.27854259788E+02  0.27958317396E+03  0.31884968573E+03  0.12499863187E+03 0.  0.
          2    1    1    2  501    0 -0.24630554039E+02  0.11742412790E+03 -0.10928117247E+04  0.10993782587E+04  0.00000000000E+00 0. -1.
          1    1    1    2  502    0 -0.59618203658E+02 -0.14527838768E+03  0.73100263840E+03  0.74767974259E+03  0.00000000000E+00 0. -1.
         22    1    3    3    0    0 -0.30422819506E+02  0.22951128911E+02  0.60016350454E+02  0.71093351213E+02  0.00000000000E+00 0. -1.
         22    1    3    3    0    0  0.11467157720E+03  0.49031308768E+01  0.21956682350E+03  0.24775633452E+03  0.00000000000E+00 0. -1.
</event>
<event>
 7    1  0.5562528E-006  0.1517927E+03  0.7818608E-02  0.1358253E+00
          2   -1    0    0  502    0  0.00000000000E+00  0.00000000000E+00  0.25909976654E+04  0.25909976654E+04  0.00000000000E+00 0. -1.
          1   -1    0    0  501    0 -0.00000000000E+00 -0.00000000000E+00 -0.19491101023E+03  0.19491101023E+03  0.00000000000E+00 0. -1.
         25    2    1    2    0    0  0.11390434661E+03  0.36790464800E+02  0.14220489834E+04  0.14325415889E+04  0.12499741752E+03 0.  0.
          2    1    1    2  501    0 -0.14514775916E+03 -0.46723792760E+02 -0.15874169350E+03  0.22011340272E+03  0.00000000000E+00 0. -1.
          1    1    1    2  502    0  0.31243412551E+02  0.99333279604E+01  0.11327793652E+04  0.11332536839E+04  0.00000000000E+00 0. -1.
         22    1    3    3    0    0 -0.14326771428E+02  0.24798655779E+02  0.94097695392E+02  0.98359574959E+02  0.00000000000E+00 0.  1.
         22    1    3    3    0    0  0.12823111804E+03  0.11991809020E+02  0.13279512880E+04  0.13341820140E+04  0.00000000000E+00 0.  1.
</event>
<event>
 7    1  0.5562528E-006  0.1760565E+03  0.7818608E-02  0.1253526E+00
          2   -1    0    0  502    0  0.00000000000E+00  0.00000000000E+00  0.71341129370E+03  0.71341129370E+03  0.00000000000E+00 0. -1.
          1   -1    0    0  501    0 -0.00000000000E+00 -0.00000000000E+00 -0.18063757336E+03  0.18063757336E+03  0.00000000000E+00 0. -1.
         25    2    1    2    0    0  0.12479182972E+03  0.19157106273E+03  0.11751589124E+03  0.28584601536E+03  0.12500194785E+03 0.  0.
          2    1    1    2  501    0 -0.54711177632E+01 -0.73474908040E+02 -0.65743639957E+02  0.98745741356E+02  0.00000000000E+00 0. -1.
          1    1    1    2  502    0 -0.11932071195E+03 -0.11809615469E+03  0.48100146905E+03  0.50945711034E+03  0.00000000000E+00 0. -1.
         22    1    3    3    0    0  0.11129200103E+03  0.69858515429E+02  0.92935561872E+02  0.16094452564E+03  0.00000000000E+00 0. -1.
         22    1    3    3    0    0  0.13499828684E+02  0.12171254730E+03  0.24580329373E+02  0.12490148973E+03  0.00000000000E+00 0. -1.
</event>
<event>
 7    1  0.5562528E-006  0.1255620E+03  0.7818608E-02  0.1353721E+00
          2   -1    0    0  502    0  0.00000000000E+00  0.00000000000E+00  0.61903658560E+02  0.61903658560E+02  0.00000000000E+00 0. -1.
          1   -1    0    0  501    0 -0.00000000000E+00 -0.00000000000E+00 -0.11310135735E+04  0.11310135735E+04  0.00000000000E+00 0. -1.
         25    2    1    2    0    0  0.10660400253E+03  0.48046055199E+02 -0.20945496045E+03  0.27049699910E+03  0.12499763712E+03 0.  0.
          2    1    1    2  501    0 -0.93432886128E+02 -0.87064420009E+02 -0.87051322882E+03  0.87983134690E+03  0.00000000000E+00 0. -1.
          1    1    1    2  502    0 -0.13171116403E+02  0.39018364811E+02  0.10858274284E+02  0.42588886112E+02  0.00000000000E+00 0. -1.
         22    1    3    3    0    0  0.19463779238E+02  0.69256512519E+02 -0.50192209979E+02  0.87718647795E+02  0.00000000000E+00 0. -1.
         22    1    3    3    0    0  0.87140223293E+02 -0.21210457320E+02 -0.15926275048E+03  0.18277835130E+03  0.00000000000E+00 0. -1.
</event>
<event>
 7    1  0.5562528E-006  0.1870521E+03  0.7818608E-02  0.1359979E+00
          2   -1    0    0  502    0  0.00000000000E+00  0.00000000000E+00  0.17306569321E+04  0.17306569321E+04  0.00000000000E+00 0. -1.
          1   -1    0    0  501    0 -0.00000000000E+00 -0.00000000000E+00 -0.11915348688E+04  0.11915348688E+04  0.00000000000E+00 0. -1.
         25    2    1    2    0    0  0.99026612124E+02  0.12692563967E+03 -0.87018223036E+03  0.89373221705E+03  0.12499509529E+03 0.  0.
          2    1    1    2  501    0  0.15743592557E+02  0.20968501810E+02 -0.30391440434E+03  0.30504344599E+03  0.00000000000E+00 0. -1.
          1    1    1    2  502    0 -0.11477020468E+03 -0.14789414148E+03  0.17132186980E+04  0.17234161378E+04  0.00000000000E+00 0. -1.
         22    1    3    3    0    0  0.89887314452E+02  0.58646339696E+02 -0.28552553982E+03  0.30503107440E+03  0.00000000000E+00 0. -1.
         22    1    3    3    0    0  0.91392976718E+01  0.68279299977E+02 -0.58465669054E+03  0.58870114265E+03  0.00000000000E+00 0. -1.
</event>
<event>
 7    1  0.5562528E-006  0.1665353E+03  0.7818608E-02  0.1199793E+00
          2   -1    0    0  502    0  0.00000000000E+00  0.00000000000E+00  0.27243858653E+04  0.27243858653E+04  0.00000000000E+00 0. -1.
          1   -1    0    0  501    0 -0.00000000000E+00 -0.00000000000E+00 -0.35235355606E+03  0.35235355606E+03  0.00000000000E+00 0. -1.
         25    2    1    2    0    0  0.62482330845E+02  0.41674110083E+01  0.94435221122E+02  0.16871269722E+03  0.12499821691E+03 0.  0.
          2    1    1    2  501    0  0.60758685769E+02  0.12179320123E+03 -0.29736906255E+03  0.32703755308E+03  0.00000000000E+00 0. -1.
          1    1    1    2  502    0 -0.12324101661E+03 -0.12596061224E+03  0.25749661507E+04  0.25809891711E+04  0.00000000000E+00 0. -1.
         22    1    3    3    0    0 -0.87508034358E+01  0.32432899490E+01  0.96980123954E+02  0.97428127010E+02  0.00000000000E+00 0. -1.
         22    1    3    3    0    0  0.71233134281E+02  0.92412105934E+00 -0.25449028321E+01  0.71284570207E+02  0.00000000000E+00 0. -1.
</event>
<event>
 7    1  0.5562528E-006  0.1041121E+03  0.7818608E-02  0.1358298E+00
          2   -1    0    0  502    0  0.00000000000E+00  0.00000000000E+00  0.29462712087E+03  0.29462712087E+03  0.00000000000E+00 0. -1.
          1   -1    0    0  501    0 -0.00000000000E+00 -0.00000000000E+00 -0.20316139060E+03  0.20316139060E+03  0.00000000000E+00 0. -1.
         25    2    1    2    0    0 -0.33274815549E+02 -0.55073509808E+02 -0.86110932177E+01  0.14084433639E+03  0.12499068499E+03 0.  0.
          2    1    1    2  501    0 -0.32456615558E+02 -0.35065534618E+02 -0.10952982816E+03  0.11949814588E+03  0.00000000000E+00 0. -1.
          1    1    1    2  502    0  0.65731431107E+02  0.90139044426E+02  0.20960665166E+03  0.23744602920E+03  0.00000000000E+00 0. -1.
         22    1    3    3    0    0 -0.19457092041E+02 -0.94494050866E+02 -0.17720857088E+02  0.98090432029E+02  0.00000000000E+00 0. -1.
         22    1    3    3    0    0 -0.13817723508E+02  0.39420541058E+02  0.91097638703E+01  0.42753904360E+02  0.00000000000E+00 0. -1.
</event>
<event>
 7    1  0.5562528E-006  0.1087125E+03  0.7818608E-02  0.1316632E+00
          2   -1    0    0  502    0  0.00000000000E+00  0.00000000000E+00  0.17562826585E+03  0.17562826585E+03  0.00000000000E+00 0. -1.
          1   -1    0    0  501    0 -0.00000000000E+00 -0.00000000000E+00 -0.30896480601E+04  0.30896480601E+04  0.00000000000E+00 0. -1.
         25    2    1    2    0    0 -0.77393023631E+02 -0.13071975866E+03 -0.97188708454E+01  0.19697095637E+03  0.12500306314E+03 0.  0.
          2    1    1    2  501    0  0.86281634036E+02  0.65576217561E+02 -0.29719762883E+04  0.29739515495E+04  0.00000000000E+00 0. -1.
          1    1    1    2  502    0 -0.88886104049E+01  0.65143541096E+02  0.67675364902E+02  0.94353820040E+02  0.00000000000E+00 0. -1.
         22    1    3    3    0    0 -0.71700380503E+02 -0.12507798910E+03 -0.52509442479E+02  0.15343627169E+03  0.00000000000E+00 0. -1.
         22    1    3    3    0    0 -0.56926431282E+01 -0.56417695585E+01  0.42790571634E+02  0.43534684681E+02  0.00000000000E+00 0. -1.
</event>
<event>
 7    1  0.5562528E-006  0.2509967E+03  0.7818608E-02  0.1164378E+00
          2   -1    0    0  502    0  0.00000000000E+00  0.00000000000E+00  0.24722343355E+04  0.24722343355E+04  0.00000000000E+00 0. -1.
          1   -1    0    0  501    0 -0.00000000000E+00 -0.00000000000E+00 -0.19510985380E+04  0.19510985380E+04  0.00000000000E+00 0. -1.
         25    2    1    2    0    0 -0.10712651840E+03 -0.65138675060E+02  0.10034786160E+04  0.10189766869E+04  0.12500007108E+03 0.  0.
          2    1    1    2  501    0  0.17602588153E+03  0.18039317490E+03 -0.19320613912E+04  0.19484321975E+04  0.00000000000E+00 0. -1.
          1    1    1    2  502    0 -0.68899363127E+02 -0.11525449984E+03  0.14497185728E+04  0.14559239892E+04  0.00000000000E+00 0. -1.
         22    1    3    3    0    0  0.18443883451E+01 -0.65407768587E+01 -0.10330324328E+01  0.68739134625E+01  0.00000000000E+00 0.  1.
         22    1    3    3    0    0 -0.10897090675E+03 -0.58597898202E+02  0.10045116484E+04  0.10121027734E+04  0.00000000000E+00 0.  1.
</event>
<event>
 7    1  0.5562528E-006  0.7217294E+02  0.7818608E-02  0.1411448E+00
          2   -1    0    0  502    0  0.00000000000E+00  0.00000000000E+00  0.26785797782E+03  0.26785797782E+03  0.00000000000E+00 0. -1.
          1   -1    0    0  501    0 -0.00000000000E+00 -0.00000000000E+00 -0.16591854503E+04  0.16591854503E+04  0.00000000000E+00 0. -1.
         25    2    1    2    0    0  0.48387749766E+02  0.10078875473E+03 -0.73211504694E+02  0.18299696843E+03  0.12501287385E+03 0.  0.
          2    1    1    2  501    0 -0.16020126778E+02 -0.69793476192E+02 -0.15278756905E+04  0.15295528430E+04  0.00000000000E+00 0. -1.
          1    1    1    2  502    0 -0.32367622988E+02 -0.30995278533E+02  0.20975972275E+03  0.21449361669E+03  0.00000000000E+00 0. -1.
         22    1    3    3    0    0  0.27607655154E+02  0.70514288194E+01  0.30449732296E+02  0.41702415618E+02  0.00000000000E+00 0.  1.
         22    1    3    3    0    0  0.20780094612E+02  0.93737325906E+02 -0.10366123699E+03  0.14129455281E+03  0.00000000000E+00 0.  1.
</event>
<event>
 7    1  0.5562528E-006  0.1653833E+03  0.7818608E-02  0.1347349E+00
          2   -1    0    0  502    0  0.00000000000E+00  0.00000000000E+00  0.96611215440E+03  0.96611215440E+03  0.00000000000E+00 0. -1.
          1   -1    0    0  501    0 -0.00000000000E+00 -0.00000000000E+00 -0.66192836177E+03  0.66192836177E+03  0.00000000000E+00 0. -1.
         25    2    1    2    0    0  0.97478497474E+02  0.97346303534E+02 -0.84942434318E+02  0.20450933691E+03  0.12502196388E+03 0.  0.
          2    1    1    2  501    0  0.79196232282E+01  0.32046774066E+02 -0.50898079972E+03  0.51005016483E+03  0.00000000000E+00 0. -1.
          1    1    1    2  502    0 -0.10539812070E+03 -0.12939307760E+03  0.89810702667E+03  0.91348101443E+03  0.00000000000E+00 0. -1.
         22    1    3    3    0    0  0.76030319761E+02  0.66593245313E+02 -0.11740378771E+03  0.15491584559E+03  0.00000000000E+00 0. -1.
         22    1    3    3    0    0  0.21448177713E+02  0.30753058220E+02  0.32461353394E+02  0.49593491320E+02  0.00000000000E+00 0. -1.
</event>
<event>
 7    1  0.5562528E-006  0.1012014E+03  0.7818608E-02  0.1342095E+00
          2   -1    0    0  502    0  0.00000000000E+00  0.00000000000E+00  0.11228905956E+04  0.11228905956E+04  0.00000000000E+00 0. -1.
          1   -1    0    0  501    0 -0.00000000000E+00 -0.00000000000E+00 -0.21734860486E+04  0.21734860486E+04  0.00000000000E+00 0. -1.
         25    2    1    2    0    0 -0.23693483305E+02 -0.15496618140E+03  0.37218754590E+03  0.42275811460E+03  0.12499982244E+03 0.  0.
          2    1    1    2  501    0  0.81578718953E+01  0.10070655333E+03 -0.21459125384E+04  0.21482897811E+04  0.00000000000E+00 0. -1.
          1    1    1    2  502    0  0.15535611410E+02  0.54259628072E+02  0.72312953951E+03  0.72532874848E+03  0.00000000000E+00 0. -1.
         22    1    3    3    0    0  0.22955372877E+02 -0.80675353876E+01  0.54290083124E+01  0.24930070245E+02  0.00000000000E+00 0.  1.
         22    1    3    3    0    0 -0.46648856182E+02 -0.14689864602E+03  0.36675853758E+03  0.39782804436E+03  0.00000000000E+00 0.  1.
</event>
<event>
 7    1  0.5562528E-006  0.4070707E+02  0.7818608E-02  0.1525880E+00
          2   -1    0    0  502    0  0.00000000000E+00  0.00000000000E+00  0.46401408938E+03  0.46401408938E+03  0.00000000000E+00 0. -1.
          1   -1    0    0  501    0 -0.00000000000E+00 -0.00000000000E+00 -0.46512268683E+02  0.46512268683E+02  0.00000000000E+00 0. -1.
         25    2    1    2    0    0  0.37973587323E+02  0.68632377672E+01  0.84961410016E+02  0.15598908671E+03  0.12500022646E+03 0.  0.
          2    1    1    2  501    0 -0.24201750399E+02 -0.38940750768E+02  0.42863562170E+02  0.62764574042E+02  0.00000000000E+00 0. -1.
          1    1    1    2  502    0 -0.13771836924E+02  0.32077513001E+02  0.28967684851E+03  0.29177269731E+03  0.00000000000E+00 0. -1.
         22    1    3    3    0    0  0.11138751441E+02 -0.69168838251E+01  0.11362355527E+03  0.11437756501E+03  0.00000000000E+00 0.  1.
         22    1    3    3    0    0  0.26834835883E+02  0.13780121592E+02 -0.28662145251E+02  0.41611521702E+02  0.00000000000E+00 0.  1.
</event>
<event>
 7    1  0.5562528E-006  0.1108268E+03  0.7818608E-02  0.1292316E+00
          2   -1    0    0  502    0  0.00000000000E+00  0.00000000000E+00  0.26939400214E+04  0.26939400214E+04  0.00000000000E+00 0. -1.
          1   -1    0    0  501    0 -0.00000000000E+00 -0.00000000000E+00 -0.87191502226E+03  0.87191502226E+03  0.00000000000E+00 0. -1.
         25    2    1    2    0    0  0.34683991082E+02 -0.41635235360E+02  0.63883296453E+03  0.65319912517E+03  0.12500027398E+03 0.  0.
          2    1    1    2  501    0 -0.11034451577E+03  0.13936533991E+02 -0.86035849782E+03  0.86751765625E+03  0.00000000000E+00 0. -1.
          1    1    1    2  502    0  0.75660524686E+02  0.27698701369E+02  0.20435505324E+04  0.20451382622E+04  0.00000000000E+00 0. -1.
         22    1    3    3    0    0 -0.38355660506E+01 -0.80295325711E+02  0.33551858380E+03  0.34501416054E+03  0.00000000000E+00 0. -1.
         22    1    3    3    0    0  0.38519557133E+02  0.38660090351E+02  0.30331438073E+03  0.30818496463E+03  0.00000000000E+00 0. -1.
</event>
<event>
 7    1  0.5562528E-006  0.1209005E+03  0.7818608E-02  0.1339203E+00
          2   -1    0    0  502    0  0.00000000000E+00  0.00000000000E+00  0.32990925870E+04  0.32990925870E+04  0.00000000000E+00 0. -1.
          1   -1    0    0  501    0 -0.00000000000E+00 -0.00000000000E+00 -0.25652994520E+03  0.25652994520E+03  0.00000000000E+00 0. -1.
         25    2    1    2    0    0 -0.54539553112E+02  0.56380768969E+02  0.40168801315E+03  0.42793878222E+03  0.12499994982E+03 0.  0.
          2    1    1    2  501    0  0.65498988248E+02 -0.10356613202E+03 -0.22776415992E+03  0.25863598688E+03  0.00000000000E+00 0. -1.
          1    1    1    2  502    0 -0.10959435136E+02  0.47185363052E+02  0.28686387886E+04  0.28690477631E+04  0.00000000000E+00 0. -1.
         22    1    3    3    0    0  0.40079630508E+02  0.94801510342E+01  0.93818744180E+02  0.10246075739E+03  0.00000000000E+00 0.  1.
         22    1    3    3    0    0 -0.94619183620E+02  0.46900617935E+02  0.30786926897E+03  0.32547802483E+03  0.00000000000E+00 0.  1.
</event>
<event>
 7    1  0.5562528E-006  0.7475049E+02  0.7818608E-02  0.1424896E+00
          2   -1    0    0  502    0  0.00000000000E+00  0.00000000000E+00  0.12238553057E+04  0.12238553057E+04  0.00000000000E+00 0. -1.
          1   -1    0    0  501    0 -0.00000000000E+00 -0.00000000000E+00 -0.12329798013E+03  0.12329798013E+03  0.00000000000E+00 0. -1.
         25    2    1    2    0    0  0.49895719330E+02  0.10888991141E+02  0.35145073819E+03  0.37649953016E+03  0.12500448753E+03 0.  0.
          2    1    1    2  501    0  0.12820588987E+02  0.36840438497E+02 -0.10546917559E+03  0.11245146691E+03  0.00000000000E+00 0. -1.
          1    1    1    2  502    0 -0.62716308317E+02 -0.47729429638E+02  0.85457576298E+03  0.85820228878E+03  0.00000000000E+00 0. -1.
         22    1    3    3    0    0  0.42404196181E+01 -0.54168963457E+02  0.16811049263E+03  0.17667313178E+03  0.00000000000E+00 0. -1.
         22    1    3    3    0    0  0.45655299712E+02  0.65057954598E+02  0.18334024556E+03  0.19982639838E+03  0.00000000000E+00 0. -1.
</event>
<event>
 7    1  0.5562528E-006  0.1410557E+03  0.7818608E-02  0.1226265E+00
          2   -1    0    0  502    0  0.00000000000E+00  0.00000000000E+00  0.28504562832E+04  0.28504562832E+04  0.00000000000E+00 0. -1.
          1   -1    0    0  501    0 -0.00000000000E+00 -0.00000000000E+00 -0.25273759376E+03  0.25273759376E+03  0.00000000000E+00 0. -1.
         25    2    1    2    0    0 -0.13352137643E+02  0.57484506732E+02  0.69090362074E+03  0.70459633974E+03  0.12500176294E+03 0.  0.
          2    1    1    2  501    0  0.13142712731E+03  0.51221376765E+02 -0.22239032936E+03  0.26335181378E+03  0.00000000000E+00 0. -1.
          1    1    1    2  502    0 -0.11807498966E+03 -0.10870588350E+03  0.21292053981E+04  0.21352457235E+04  0.00000000000E+00 0. -1.
         22    1    3    3    0    0  0.15178881634E+02  0.91974187652E+02  0.48627980839E+03  0.49513402397E+03  0.00000000000E+00 0.  1.
         22    1    3    3    0    0 -0.28531019276E+02 -0.34489680920E+02  0.20462381235E+03  0.20946231577E+03  0.00000000000E+00 0.  1.
</event>
<event>
 7    1  0.5562528E-006  0.4158553E+02  0.7818608E-02  0.1541118E+00
          2   -1    0    0  502    0  0.00000000000E+00  0.00000000000E+00  0.11044480010E+04  0.11044480010E+04  0.00000000000E+00 0. -1.
          1   -1    0    0  501    0 -0.00000000000E+00 -0.00000000000E+00 -0.51810062323E+03  0.51810062323E+03  0.00000000000E+00 0. -1.
         25    2    1    2    0    0  0.18651376673E+02  0.30337774810E+02  0.85789840738E+03  0.86768830308E+03  0.12500023795E+03 0.  0.
          2    1    1    2  501    0 -0.26076717094E+02  0.16610671794E+02 -0.51039603606E+03  0.51133161766E+03  0.00000000000E+00 0. -1.
          1    1    1    2  502    0  0.74253404205E+01 -0.46948446604E+02  0.23884500643E+03  0.24352870347E+03  0.00000000000E+00 0. -1.
         22    1    3    3    0    0 -0.15445894567E+02  0.14188507602E+02  0.20129734273E+02  0.29070528183E+02  0.00000000000E+00 0.  1.
         22    1    3    3    0    0  0.34097271240E+02  0.16149267208E+02  0.83776867310E+03  0.83861777489E+03  0.00000000000E+00 0.  1.
</event>
<event>
 7    1  0.5562528E-006  0.1125836E+03  0.7818608E-02  0.1298798E+00
          2   -1    0    0  502    0  0.00000000000E+00  0.00000000000E+00  0.12655628238E+04  0.12655628238E+04  0.00000000000E+00 0. -1.
          1   -1    0    0  501    0 -0.00000000000E+00 -0.00000000000E+00 -0.94813307784E+03  0.94813307784E+03  0.00000000000E+00 0. -1.
         25    2    1    2    0    0  0.52496380912E+02  0.14948731114E+03  0.62521703200E+03  0.65698045803E+03  0.12499863572E+03 0.  0.
          2    1    1    2  501    0  0.15933470285E+02 -0.72962856697E+02 -0.92651960545E+03  0.92952462755E+03  0.00000000000E+00 0. -1.
          1    1    1    2  502    0 -0.68429851197E+02 -0.76524454441E+02  0.61873231943E+03  0.62719081608E+03  0.00000000000E+00 0. -1.
         22    1    3    3    0    0  0.97565728246E+01  0.10384970666E+03  0.54693688101E+03  0.55679431040E+03  0.00000000000E+00 0. -1.
         22    1    3    3    0    0  0.42739808088E+02  0.45637604477E+02  0.78280150993E+02  0.10018614763E+03  0.00000000000E+00 0. -1.
</event>
<event>
 7    1  0.5562528E-006  0.1629531E+03  0.7818608E-02  0.1350634E+00
          2   -1    0    0  502    0  0.00000000000E+00  0.00000000000E+00  0.10387245172E+04  0.10387245172E+04  0.00000000000E+00 0. -1.
          1   -1    0    0  501    0 -0.00000000000E+00 -0.00000000000E+00 -0.16245404457E+04  0.16245404457E+04  0.00000000000E+00 0. -1.
         25    2    1    2    0    0  0.13124703224E+03  0.29057820227E+02 -0.47471799373E+03  0.50897042303E+03  0.12499431012E+03 0.  0.
          2    1    1    2  501    0  0.23844482952E+02  0.22195463126E+02 -0.11259301009E+04  0.11264012563E+04  0.00000000000E+00 0. -1.
          1    1    1    2  502    0 -0.15509151519E+03 -0.51253283353E+02  0.10148321661E+04  0.10278932836E+04  0.00000000000E+00 0. -1.
         22    1    3    3    0    0  0.75793564835E+01 -0.17977002762E+02 -0.22956029512E+03  0.23038782166E+03  0.00000000000E+00 0. -1.
         22    1    3    3    0    0  0.12366767576E+03  0.47034822989E+02 -0.24515769861E+03  0.27858260137E+03  0.00000000000E+00 0. -1.
</event>
<event>
 7    1  0.5562528E-006  0.1329407E+03  0.7818608E-02  0.1305459E+00
          2   -1    0    0  502    0  0.00000000000E+00  0.00000000000E+00  0.63650356641E+03  0.63650356641E+03  0.00000000000E+00 0. -1.
          1   -1    0    0  501    0 -0.00000000000E+00 -0.00000000000E+00 -0.37480502772E+03  0.37480502772E+03  0.00000000000E+00 0. -1.
         25    2    1    2    0    0 -0.72545582177E+02  0.26660395815E+02 -0.16577240439E+03  0.22153477242E+03  0.12499410841E+03 0.  0.
          2    1    1    2  501    0 -0.46823299207E+02  0.36699138116E+02 -0.16848890355E+03  0.17868340355E+03  0.00000000000E+00 0. -1.
          1    1    1    2  502    0  0.11936888138E+03 -0.63359533931E+02  0.59595984662E+03  0.61109041816E+03  0.00000000000E+00 0. -1.
         22    1    3    3    0    0 -0.51317042184E+02  0.32452799136E+02 -0.18349563440E+03  0.19328029086E+03  0.00000000000E+00 0.  1.
         22    1    3    3    0    0 -0.21228539993E+02 -0.57924033208E+01  0.17723230011E+02  0.28254481565E+02  0.00000000000E+00 0.  1.
</event>
<event>
 7    1  0.5562528E-006  0.8537015E+02  0.7818608E-02  0.1329696E+00
          2   -1    0    0  502    0  0.00000000000E+00  0.00000000000E+00  0.25822584780E+04  0.25822584780E+04  0.00000000000E+00 0. -1.
          1   -1    0    0  501    0 -0.00000000000E+00 -0.00000000000E+00 -0.55752565099E+02  0.55752565099E+02  0.00000000000E+00 0. -1.
         25    2    1    2    0    0  0.92562233232E+02 -0.10402829323E+03  0.34424603943E+03  0.39181622145E+03  0.12499985169E+03 0.  0.
          2    1    1    2  501    0 -0.72554567731E+02  0.32220137309E+02  0.18971393682E+02  0.81622400878E+02  0.00000000000E+00 0. -1.
          1    1    1    2  502    0 -0.20007665501E+02  0.71808155919E+02  0.21632884798E+04  0.21645724208E+04  0.00000000000E+00 0. -1.
         22    1    3    3    0    0  0.44051083308E+02 -0.12628061499E+03  0.24760518654E+03  0.28141716377E+03  0.00000000000E+00 0.  1.
         22    1    3    3    0    0  0.48511149925E+02  0.22252321765E+02  0.96640852889E+02  0.11039905769E+03  0.00000000000E+00 0.  1.
</event>
<event>
 7    1  0.5562528E-006  0.1296340E+03  0.7818608E-02  0.1274314E+00
          2   -1    0    0  502    0  0.00000000000E+00  0.00000000000E+00  0.83487523978E+03  0.83487523978E+03  0.00000000000E+00 0. -1.
          1   -1    0    0  501    0 -0.00000000000E+00 -0.00000000000E+00 -0.15730652045E+04  0.15730652045E+04  0.00000000000E+00 0. -1.
         25    2    1    2    0    0  0.92478162015E+02  0.14585862930E+03  0.16193968259E+03  0.26772497429E+03  0.12500100347E+03 0.  0.
          2    1    1    2  501    0 -0.79116093062E+02 -0.20299622765E+02 -0.15126308674E+04  0.15148345031E+04  0.00000000000E+00 0. -1.
          1    1    1    2  502    0 -0.13362068953E+02 -0.12555900654E+03  0.61250122012E+03  0.62538096682E+03  0.00000000000E+00 0. -1.
         22    1    3    3    0    0  0.82266638049E+02  0.92365361430E+02  0.33392892738E+02  0.12811809011E+03  0.00000000000E+00 0.  1.
         22    1    3    3    0    0  0.10211523966E+02  0.53493267871E+02  0.12854678985E+03  0.13960688418E+03  0.00000000000E+00 0.  1.
</event>
<event>
 7    1  0.5562528E-006  0.7019331E+02  0.7818608E-02  0.1370414E+00
          2   -1    0    0  502    0  0.00000000000E+00  0.00000000000E+00  0.45697384517E+04  0.45697384517E+04  0.00000000000E+00 0. -1.
          1   -1    0    0  501    0 -0.00000000000E+00 -0.00000000000E+00 -0.98061658187E+01  0.98061658187E+01  0.00000000000E+00 0. -1.
         25    2    1    2    0    0  0.19626720011E+02  0.45950107683E+02  0.84070857404E+03  0.85141805749E+03  0.12500072644E+03 0.  0.
          2    1    1    2  501    0 -0.82044292343E+02 -0.31573270863E+02  0.46293609174E+03  0.47120904318E+03  0.00000000000E+00 0. -1.
          1    1    1    2  502    0  0.62417572332E+02 -0.14376836820E+02  0.32562876201E+04  0.32569175169E+04  0.00000000000E+00 0. -1.
         22    1    3    3    0    0  0.30073878162E+02  0.51175182424E+02  0.83708655499E+03  0.83918844010E+03  0.00000000000E+00 0.  1.
         22    1    3    3    0    0 -0.10447158151E+02 -0.52250747410E+01  0.36220190502E+01  0.12229617389E+02  0.00000000000E+00 0.  1.
</event>
<event>
 7    1  0.5562528E-006  0.3162395E+02  0.7818608E-02  0.1617521E+00
          2   -1    0    0  502    0  0.00000000000E+00  0.00000000000E+00  0.61579750938E+02  0.61579750938E+02  0.00000000000E+00 0. -1.
          1   -1    0    0  501    0 -0.00000000000E+00 -0.00000000000E+00 -0.42872387041E+03  0.42872387041E+03  0.00000000000E+00 0. -1.
         25    2    1    2    0    0 -0.26113325760E+00 -0.94772376377E+01 -0.66934596504E+02  0.14210960236E+03  0.12500005060E+03 0.  0.
          2    1    1    2  501    0 -0.10128325358E+02 -0.23237479662E+02 -0.31113996895E+03  0.31217085661E+03  0.00000000000E+00 0. -1.
          1    1    1    2  502    0  0.10389458616E+02  0.32714717300E+02  0.10930445988E+02  0.36023162380E+02  0.00000000000E+00 0. -1.
         22    1    3    3    0    0  0.61876031842E+02 -0.12248944546E+02 -0.36292087211E+02  0.72772216904E+02  0.00000000000E+00 0.  1.
         22    1    3    3    0    0 -0.62137165099E+02  0.27717069078E+01 -0.30642509294E+02  0.69337385454E+02  0.00000000000E+00 0.  1.
</event>
<event>
 7    1  0.5562528E-006  0.7291544E+02  0.7818608E-02  0.1458906E+00
          2   -1    0    0  502    0  0.00000000000E+00  0.00000000000E+00  0.76811362592E+02  0.76811362592E+02  0.00000000000E+00 0. -1.
          1   -1    0    0  501    0 -0.00000000000E+00 -0.00000000000E+00 -0.52157555471E+03  0.52157555471E+03  0.00000000000E+00 0. -1.
         25    2    1    2    0    0  0.28166116746E+02  0.35549413238E+02 -0.51235239369E+02  0.14249947425E+03  0.12499583790E+03 0.  0.
          2    1    1    2  501    0 -0.55233881516E+02 -0.50731806325E+02 -0.41266672629E+03  0.41942618519E+03  0.00000000000E+00 0. -1.
          1    1    1    2  502    0  0.27067764770E+02  0.15182393086E+02  0.19137773535E+02  0.36461257868E+02  0.00000000000E+00 0. -1.
         22    1    3    3    0    0  0.20472683524E+02 -0.45721335559E+02 -0.10165951852E+02  0.51116708354E+02  0.00000000000E+00 0. -1.
         22    1    3    3    0    0  0.76934332223E+01  0.81270748797E+02 -0.41069287517E+02  0.91382765891E+02  0.00000000000E+00 0. -1.
</event>
<event>
 7    1  0.5562528E-006  0.5095093E+02  0.7818608E-02  0.1486086E+00
          2   -1    0    0  502    0  0.00000000000E+00  0.00000000000E+00  0.30651706405E+04  0.30651706405E+04  0.00000000000E+00 0. -1.
          1   -1    0    0  501    0 -0.00000000000E+00 -0.00000000000E+00 -0.31304244926E+04  0.31304244926E+04  0.00000000000E+00 0. -1.
         25    2    1    2    0    0  0.25652116651E+01  0.85875894762E+02  0.35701002080E+03  0.38789184975E+03  0.12499072981E+03 0.  0.
          2    1    1    2  501    0 -0.97062081069E+01 -0.49998590132E+02 -0.31146511272E+04  0.31150675296E+04  0.00000000000E+00 0. -1.
          1    1    1    2  502    0  0.71409964419E+01 -0.35877304630E+02  0.26923872543E+04  0.26926357537E+04  0.00000000000E+00 0. -1.
         22    1    3    3    0    0 -0.44079919027E+01  0.73524136918E+01 -0.96182403754E+01  0.12884057111E+02  0.00000000000E+00 0. -1.
         22    1    3    3    0    0  0.69732035677E+01  0.78523481070E+02  0.36662826117E+03  0.37500779263E+03  0.00000000000E+00 0. -1.
</event>
<event>
 7    1  0.5562528E-006  0.2321626E+02  0.7818608E-02  0.1689698E+00
          2   -1    0    0  502    0  0.00000000000E+00  0.00000000000E+00  0.20041434426E+03  0.20041434426E+03  0.00000000000E+00 0. -1.
          1   -1    0    0  501    0 -0.00000000000E+00 -0.00000000000E+00 -0.16402760581E+04  0.16402760581E+04  0.00000000000E+00 0. -1.
         25    2    1    2    0    0  0.16599384055E+02 -0.41417044354E+02 -0.11949832186E+03  0.17859811429E+03  0.12500610540E+03 0.  0.
          2    1    1    2  501    0 -0.13695347182E+02  0.18488743744E+02 -0.14903571089E+04  0.14905347054E+04  0.00000000000E+00 0. -1.
          1    1    1    2  502    0 -0.29040368737E+01  0.22928300610E+02  0.16999371685E+03  0.17155758266E+03  0.00000000000E+00 0. -1.
         22    1    3    3    0    0 -0.41718327809E+02  0.18289924432E+02 -0.23049810573E+02  0.51051287725E+02  0.00000000000E+00 0. -1.
         22    1    3    3    0    0  0.58317711864E+02 -0.59706968786E+02 -0.96448511283E+02  0.12754682657E+03  0.00000000000E+00 0. -1.
</event>
<event>
 7    1  0.5562528E-006  0.6400574E+02  0.7818608E-02  0.1387258E+00
          2   -1    0    0  502    0  0.00000000000E+00  0.00000000000E+00  0.94667678331E+03  0.94667678331E+03  0.00000000000E+00 0. -1.
          1   -1    0    0  501    0 -0.00000000000E+00 -0.00000000000E+00 -0.32961068939E+02  0.32961068939E+02  0.00000000000E+00 0. -1.
         25    2    1    2    0    0  0.13971323538E+02  0.58724224364E+01  0.43322501427E+03  0.45115240179E+03  0.12499957372E+03 0.  0.
          2    1    1    2  501    0 -0.65518458371E+02  0.27141567630E+02  0.35504871082E+02  0.79309072314E+02  0.00000000000E+00 0. -1.
          1    1    1    2  502    0  0.51547134833E+02 -0.33013990067E+02  0.44498582903E+03  0.44917637815E+03  0.00000000000E+00 0. -1.
         22    1    3    3    0    0 -0.52132892967E+01 -0.56880062194E+02  0.25259428789E+03  0.25897180181E+03  0.00000000000E+00 0.  1.
         22    1    3    3    0    0  0.19184612835E+02  0.62752484630E+02  0.18063072638E+03  0.19218059998E+03  0.00000000000E+00 0.  1.
</event>
<event>
 7    1  0.5562528E-006  0.8213804E+02  0.7818608E-02  0.1403002E+00
          2   -1    0    0  502    0  0.00000000000E+00  0.00000000000E+00  0.22163050318E+04  0.22163050318E+04  0.00000000000E+00 0. -1.
          1   -1    0    0  501    0 -0.00000000000E+00 -0.00000000000E+00 -0.30450531246E+03  0.30450531246E+03  0.00000000000E+00 0. -1.
         25    2    1    2    0    0  0.10094475710E+03 -0.44461367928E+01  0.69006505933E+03  0.70853491775E+03  0.12498932535E+03 0.  0.
          2    1    1    2  501    0 -0.73549311647E+02  0.36376167608E+02 -0.28927144828E+03  0.30068371689E+03  0.00000000000E+00 0. -1.
          1    1    1    2  502    0 -0.27395445457E+02 -0.31930030815E+02  0.15110061083E+04  0.15115917096E+04  0.00000000000E+00 0. -1.
         22    1    3    3    0    0  0.10783118820E+03  0.35338124019E+02  0.58652492984E+03  0.59740090516E+03  0.00000000000E+00 0. -1.
         22    1    3    3    0    0 -0.68864310953E+01 -0.39784260811E+02  0.10354012948E+03  0.11113401259E+03  0.00000000000E+00 0. -1.
</event>
<event>
 7    1  0.5562528E-006  0.8452213E+02  0.7818608E-02  0.1463567E+00
          2   -1    0    0  502    0  0.00000000000E+00  0.00000000000E+00  0.14459195140E+04  0.14459195140E+04  0.00000000000E+00 0. -1.
          1   -1    0    0  501    0 -0.00000000000E+00 -0.00000000000E+00 -0.14944522725E+03  0.14944522725E+03  0.00000000000E+00 0. -1.
         25    2    1    2    0    0  0.17885757807E+02  0.70847686770E+02  0.10991252290E+03  0.18178431928E+03  0.12500192396E+03 0.  0.
          2    1    1    2  501    0 -0.21672923613E+02  0.14150242981E+02 -0.11062182036E+03  0.11360956005E+03  0.00000000000E+00 0. -1.
          1    1    1    2  502    0  0.37871658063E+01 -0.84997929750E+02  0.12971835842E+04  0.12999708619E+04  0.00000000000E+00 0. -1.
         22    1    3    3    0    0  0.14597632552E+02  0.26527711446E+02 -0.25298682727E+02  0.39456731979E+02  0.00000000000E+00 0. -1.
         22    1    3    3    0    0  0.32881252548E+01  0.44319975324E+02  0.13521120562E+03  0.14232758730E+03  0.00000000000E+00 0. -1.
</event>
<event>
 7    1  0.5562528E-006  0.1196749E+03  0.7818608E-02  0.1395801E+00
          2   -1    0    0  502    0  0.00000000000E+00  0.00000000000E+00  0.73340826535E+03  0.73340826535E+03  0.00000000000E+00 0. -1.
          1   -1    0    0  501    0 -0.00000000000E+00 -0.00000000000E+00 -0.22805698934E+03  0.22805698934E+03  0.00000000000E+00 0. -1.
         25    2    1    2    0    0  0.12051629605E+03  0.69005443976E+02 -0.62985366549E+02  0.19717469515E+03  0.12499910038E+03 0.  0.
          2    1    1    2  501    0 -0.83189118507E+01 -0.29417664815E+02 -0.90123691878E+02  0.95167658032E+02  0.00000000000E+00 0. -1.
          1    1    1    2  502    0 -0.11219738420E+03 -0.39587779161E+02  0.65846033445E+03  0.66912290151E+03  0.00000000000E+00 0. -1.
         22    1    3    3    0    0  0.45475081793E+02 -0.10467882833E+02  0.28464438250E+02  0.54660624584E+02  0.00000000000E+00 0. -1.
         22    1    3    3    0    0  0.75041214261E+02  0.79473326809E+02 -0.91449804799E+02  0.14251407057E+03  0.00000000000E+00 0. -1.
</event>
<event>
 7    1  0.5562528E-006  0.4439040E+02  0.7818608E-02  0.1532454E+00
          2   -1    0    0  502    0  0.00000000000E+00  0.00000000000E+00  0.71853333523E+03  0.71853333523E+03  0.00000000000E+00 0. -1.
          1   -1    0    0  501    0 -0.00000000000E+00 -0.00000000000E+00 -0.20754853784E+02  0.20754853784E+02  0.00000000000E+00 0. -1.
         25    2    1    2    0    0  0.59788959753E+02  0.57577743571E+01  0.33075003416E+03  0.35864802250E+03  0.12499978909E+03 0.  0.
          2    1    1    2  501    0 -0.19985728680E+02 -0.23240382524E+02  0.38327865406E+02  0.49077184081E+02  0.00000000000E+00 0. -1.
          1    1    1    2  502    0 -0.39803231073E+02  0.17482608167E+02  0.32870058188E+03  0.33156298243E+03  0.00000000000E+00 0. -1.
         22    1    3    3    0    0  0.60401498905E+02  0.46662092918E+01  0.51836438279E+02  0.79731618023E+02  0.00000000000E+00 0.  1.
         22    1    3    3    0    0 -0.61253915188E+00  0.10915650653E+01  0.27891359588E+03  0.27891640448E+03  0.00000000000E+00 0.  1.
</event>
<event>
 7    1  0.5562528E-006  0.1558301E+03  0.7818608E-02  0.1357408E+00
          2   -1    0    0  502    0  0.00000000000E+00  0.00000000000E+00  0.15507423971E+04  0.15507423971E+04  0.00000000000E+00 0. -1.
          1   -1    0    0  501    0 -0.00000000000E+00 -0.00000000000E+00 -0.20703288727E+03  0.20703288727E+03  0.00000000000E+00 0. -1.
         25    2    1    2    0    0  0.35656165208E+02 -0.14351531908E+03  0.93679948726E+03  0.95660152319E+03  0.12500074361E+03 0.  0.
          2    1    1    2  501    0 -0.23221153812E+02 -0.22254561850E+02 -0.18427527121E+03  0.18706112126E+03  0.00000000000E+00 0. -1.
          1    1    1    2  502    0 -0.12435011395E+02  0.16576988093E+03  0.59118529382E+03  0.61411263996E+03  0.00000000000E+00 0. -1.
         22    1    3    3    0    0 -0.42752379238E+02 -0.74811357763E+02  0.33895133629E+03  0.34973205966E+03  0.00000000000E+00 0. -1.
         22    1    3    3    0    0  0.78408544446E+02 -0.68703961318E+02  0.59784815098E+03  0.60686946353E+03  0.00000000000E+00 0. -1.
</event>
<event>
 7    1  0.5562528E-006  0.1180740E+03  0.7818608E-02  0.1446876E+00
          2   -1    0    0  502    0  0.00000000000E+00  0.00000000000E+00  0.51183190778E+03  0.51183190778E+03  0.00000000000E+00 0. -1.
          1   -1    0    0  501    0 -0.00000000000E+00 -0.00000000000E+00 -0.27955150985E+03  0.27955150985E+03  0.00000000000E+00 0. -1.
         25    2    1    2    0    0 -0.10728140949E+03 -0.17966117139E+02  0.18235017829E+03  0.24638782766E+03  0.12499316744E+03 0.  0.
          2    1    1    2  501    0 -0.90506049307E+01 -0.18876250080E+02 -0.23453225594E+03  0.23546465838E+03  0.00000000000E+00 0. -1.
          1    1    1    2  502    0  0.11633201442E+03  0.36842367219E+02  0.28446247558E+03  0.30953093160E+03  0.00000000000E+00 0. -1.
         22    1    3    3    0    0 -0.76256108595E+02  0.68695090374E+01  0.19846649721E+02  0.79095345992E+02  0.00000000000E+00 0.  1.
         22    1    3    3    0    0 -0.31025300892E+02 -0.24835626177E+02  0.16250352857E+03  0.16729248166E+03  0.00000000000E+00 0.  1.
</event>
<event>
 7    1  0.5562528E-006  0.8755609E+02  0.7818608E-02  0.1349432E+00
          2   -1    0    0  502    0  0.00000000000E+00  0.00000000000E+00  0.31975245529E+02  0.31975245529E+02  0.00000000000E+00 0. -1.
          1   -1    0    0  501    0 -0.00000000000E+00 -0.00000000000E+00 -0.28744066390E+04  0.28744066390E+04  0.00000000000E+00 0. -1.
         25    2    1    2    0    0 -0.82230783602E+02  0.98441056337E+02 -0.15703451349E+04  0.15805254736E+04  0.12499754585E+03 0.  0.
          2    1    1    2  501    0  0.45393543350E+01 -0.61084615374E+02 -0.12270824595E+04  0.12286103118E+04  0.00000000000E+00 0. -1.
          1    1    1    2  502    0  0.77691429267E+02 -0.37356440963E+02 -0.45003799039E+02  0.97246099103E+02  0.00000000000E+00 0. -1.
         22    1    3    3    0    0 -0.42801566701E+01  0.67295684484E+02 -0.30342718069E+03  0.31082966859E+03  0.00000000000E+00 0.  1.
         22    1    3    3    0    0 -0.77950626932E+02  0.31145371853E+02 -0.12669179542E+04  0.12696958050E+04  0.00000000000E+00 0.  1.
</event>
<event>
 7    1  0.5562528E-006  0.3660731E+02  0.7818608E-02  0.1547434E+00
          2   -1    0    0  502    0  0.00000000000E+00  0.00000000000E+00  0.91447059406E+02  0.91447059406E+02  0.00000000000E+00 0. -1.
          1   -1    0    0  501    0 -0.00000000000E+00 -0.00000000000E+00 -0.17038499568E+04  0.17038499568E+04  0.00000000000E+00 0. -1.
         25    2    1    2    0    0 -0.12224972399E+02  0.48326144831E+02 -0.84325583989E+02  0.15881174551E+03  0.12500200068E+03 0.  0.
          2    1    1    2  501    0 -0.17390346283E+02 -0.32211620283E+02 -0.15768053318E+04  0.15772301883E+04  0.00000000000E+00 0. -1.
          1    1    1    2  502    0  0.29615318683E+02 -0.16114524548E+02  0.48728018421E+02  0.59255082325E+02  0.00000000000E+00 0. -1.
         22    1    3    3    0    0  0.17707292023E+02  0.16571719295E+02 -0.10694452444E+03  0.10965993515E+03  0.00000000000E+00 0.  1.
         22    1    3    3    0    0 -0.29932264422E+02  0.31754425536E+02  0.22618940448E+02  0.49151810358E+02  0.00000000000E+00 0.  1.
</event>
<event>
 7    1  0.5562528E-006  0.1224157E+03  0.7818608E-02  0.1300873E+00
          2   -1    0    0  502    0  0.00000000000E+00  0.00000000000E+00  0.80125289493E+03  0.80125289493E+03  0.00000000000E+00 0. -1.
          1   -1    0    0  501    0 -0.00000000000E+00 -0.00000000000E+00 -0.39474849263E+04  0.39474849263E+04  0.00000000000E+00 0. -1.
         25    2    1    2    0    0 -0.57360129410E+02  0.23770846471E+02 -0.12858328051E+03  0.18977511921E+03  0.12500279299E+03 0.  0.
          2    1    1    2  501    0  0.12385310610E+03 -0.12859886679E+02 -0.37858072686E+04  0.37878544908E+04  0.00000000000E+00 0. -1.
          1    1    1    2  502    0 -0.66492976694E+02 -0.10910959792E+02  0.76815851775E+03  0.77110821120E+03  0.00000000000E+00 0. -1.
         22    1    3    3    0    0 -0.76695568638E+02 -0.85551545529E+01 -0.13098868704E+03  0.15203103976E+03  0.00000000000E+00 0. -1.
         22    1    3    3    0    0  0.19335439229E+02  0.32326001024E+02  0.24054065376E+01  0.37744079443E+02  0.00000000000E+00 0. -1.
</event>
<event>
 7    1  0.5562528E-006  0.1304553E+03  0.7818608E-02  0.1328957E+00
          2   -1    0    0  502    0  0.00000000000E+00  0.00000000000E+00  0.24902799227E+04  0.24902799227E+04  0.00000000000E+00 0. -1.
          1   -1    0    0  501    0 -0.00000000000E+00 -0.00000000000E+00 -0.44186501704E+03  0.44186501704E+03  0.00000000000E+00 0. -1.
         25    2    1    2    0    0 -0.43267788783E+02  0.79255334047E+02  0.35002579736E+03  0.38248982488E+03  0.12500759097E+03 0.  0.
          2    1    1    2  501    0 -0.40329352916E+02  0.28005721485E+02 -0.42203156728E+03  0.42487812479E+03  0.00000000000E+00 0. -1.
          1    1    1    2  502    0  0.83597141700E+02 -0.10726105553E+03  0.21204206756E+04  0.21247769901E+04  0.00000000000E+00 0. -1.
         22    1    3    3    0    0  0.42187393137E+02  0.43665360360E+02  0.11863811045E+03  0.13327205666E+03  0.00000000000E+00 0. -1.
         22    1    3    3    0    0 -0.85455181920E+02  0.35589973687E+02  0.23138768691E+03  0.24921776822E+03  0.00000000000E+00 0. -1.
</event>
<event>
 7    1  0.5562528E-006  0.6390599E+02  0.7818608E-02  0.1446573E+00
          2   -1    0    0  502    0  0.00000000000E+00  0.00000000000E+00  0.99495944907E+03  0.99495944907E+03  0.00000000000E+00 0. -1.
          1   -1    0    0  501    0 -0.00000000000E+00 -0.00000000000E+00 -0.12129255589E+03  0.12129255589E+03  0.00000000000E+00 0. -1.
         25    2    1    2    0    0 -0.33801569709E+02 -0.20327557748E+02  0.23534991779E+03  0.26938930484E+03  0.12500103215E+03 0.  0.
          2    1    1    2  501    0 -0.32740964641E+02  0.20754035498E+02 -0.99119402177E+02  0.10643005517E+03  0.00000000000E+00 0. -1.
          1    1    1    2  502    0  0.66542534350E+02 -0.42647775013E+00  0.73743637756E+03  0.74043264495E+03  0.00000000000E+00 0. -1.
         22    1    3    3    0    0 -0.52856998737E+02 -0.11617654382E+01  0.27132995493E+02  0.59425680129E+02  0.00000000000E+00 0.  1.
         22    1    3    3    0    0  0.19055429028E+02 -0.19165792310E+02  0.20821692230E+03  0.20996362471E+03  0.00000000000E+00 0.  1.
</event>
<event>
 7    1  0.5562528E-006  0.1177487E+03  0.7818608E-02  0.1311058E+00
          2   -1    0    0  502    0  0.00000000000E+00  0.00000000000E+00  0.69391910506E+03  0.69391910506E+03  0.00000000000E+00 0. -1.
          1   -1    0    0  501    0 -0.00000000000E+00 -0.00000000000E+00 -0.48819722263E+03  0.48819722263E+03  0.00000000000E+00 0. -1.
         25    2    1    2    0    0 -0.10381468326E+02 -0.83566760450E+02  0.31718725704E+02  0.15402982248E+03  0.12501172072E+03 0.  0.
          2    1    1    2  501    0  0.56570671488E+02 -0.29566224333E+02 -0.41838489663E+03  0.42322609114E+03  0.00000000000E+00 0. -1.
          1    1    1    2  502    0 -0.46189203163E+02  0.11313298478E+03  0.59238805336E+03  0.60486041406E+03  0.00000000000E+00 0. -1.
         22    1    3    3    0    0  0.26649017019E+02 -0.50933405870E+02  0.70710827494E+02  0.91128497554E+02  0.00000000000E+00 0. -1.
         22    1    3    3    0    0 -0.37030485344E+02 -0.32633354579E+02 -0.38992101790E+02  0.62901324930E+02  0.00000000000E+00 0. -1.
</event>
<event>
 7    1  0.5562528E-006  0.1443282E+03  0.7818608E-02  0.1311212E+00
          2   -1    0    0  502    0  0.00000000000E+00  0.00000000000E+00  0.23990220079E+04  0.23990220079E+04  0.00000000000E+00 0. -1.
          1   -1    0    0  501    0 -0.00000000000E+00 -0.00000000000E+00 -0.10858494121E+03  0.10858494121E+03  0.00000000000E+00 0. -1.
         25    2    1    2    0    0 -0.50242183125E+02 -0.17217323064E+03  0.59328656593E+03  0.63228397307E+03  0.12500469983E+03 0.  0.
          2    1    1    2  501    0  0.68826303615E+02  0.12360347709E+03 -0.32280733416E+02  0.14511004572E+03  0.00000000000E+00 0. -1.
          1    1    1    2  502    0 -0.18584120490E+02  0.48569753544E+02  0.17294312342E+04  0.17302129303E+04  0.00000000000E+00 0. -1.
         22    1    3    3    0    0 -0.88715000318E+02 -0.83085846045E+02  0.32451399340E+03  0.34652985587E+03  0.00000000000E+00 0. -1.
         22    1    3    3    0    0  0.38472817193E+02 -0.89087384592E+02  0.26877257252E+03  0.28575411720E+03  0.00000000000E+00 0. -1.
</event>
<event>
 7    1  0.5562528E-006  0.8164258E+02  0.7818608E-02  0.1395072E+00
          2   -1    0    0  502    0  0.00000000000E+00  0.00000000000E+00  0.20653019051E+04  0.20653019051E+04  0.00000000000E+00 0. -1.
          1   -1    0    0  501    0 -0.00000000000E+00 -0.00000000000E+00 -0.25583005155E+03  0.25583005155E+03  0.00000000000E+00 0. -1.
         25    2    1    2    0    0 -0.50511519400E+02  0.77966299772E+02  0.79189455863E+02  0.17471250066E+03  0.12499332172E+03 0.  0.
          2    1    1    2  501    0  0.44938569105E+02  0.34892891814E+01 -0.20475645551E+03  0.20965890442E+03  0.00000000000E+00 0. -1.
          1    1    1    2  502    0  0.55729502952E+01 -0.81455588953E+02  0.19350388532E+04  0.19367605516E+04  0.00000000000E+00 0. -1.
         22    1    3    3    0    0 -0.49386915600E+02 -0.23054145805E+02  0.23497971189E+02  0.59352470220E+02  0.00000000000E+00 0.  1.
         22    1    3    3    0    0 -0.11246038007E+01  0.10102044558E+03  0.55691484674E+02  0.11536003044E+03  0.00000000000E+00 0.  1.
</event>
<event>
 7    1  0.5562528E-006  0.9385372E+02  0.7818608E-02  0.1356374E+00
          2   -1    0    0  502    0  0.00000000000E+00  0.00000000000E+00  0.41625853696E+03  0.41625853696E+03  0.00000000000E+00 0. -1.
          1   -1    0    0  501    0 -0.00000000000E+00 -0.00000000000E+00 -0.89492521776E+02  0.89492521776E+02  0.00000000000E+00 0. -1.
         25    2    1    2    0    0 -0.17598196591E+02 -0.44912679335E+02  0.21125892784E+03  0.25016435998E+03  0.12500010849E+03 0.  0.
          2    1    1    2  501    0  0.45358565254E+02  0.91079774447E+02 -0.25281959078E+02  0.10484322682E+03  0.00000000000E+00 0. -1.
          1    1    1    2  502    0 -0.27760368663E+02 -0.46167095112E+02  0.14078904642E+03  0.15074347193E+03  0.00000000000E+00 0. -1.
         22    1    3    3    0    0  0.22957064789E+02  0.51734608321E+01  0.17428143467E+03  0.17586304328E+03  0.00000000000E+00 0.  1.
         22    1    3    3    0    0 -0.40555261380E+02 -0.50086140167E+02  0.36977493176E+02  0.74301316704E+02  0.00000000000E+00 0.  1.
</event>
<event>
 7    1  0.5562528E-006  0.1609628E+03  0.7818608E-02  0.1239717E+00
          2   -1    0    0  502    0  0.00000000000E+00  0.00000000000E+00  0.10011417623E+03  0.10011417623E+03  0.00000000000E+00 0. -1.
          1   -1    0    0  501    0 -0.00000000000E+00 -0.00000000000E+00 -0.11896246575E+04  0.11896246575E+04  0.00000000000E+00 0. -1.
         25    2    1    2    0    0  0.18610001652E+03  0.69812943449E+02 -0.41632975695E+03  0.47797850066E+03  0.12500366933E+03 0.  0.
          2    1    1    2  501    0 -0.10482171663E+03 -0.11413692026E+03 -0.69874022891E+03  0.71571833590E+03  0.00000000000E+00 0. -1.
          1    1    1    2  502    0 -0.81278299888E+02  0.44323976816E+02  0.25559504558E+02  0.96041997203E+02  0.00000000000E+00 0. -1.
         22    1    3    3    0    0  0.68451025819E+02 -0.12379628327E+02 -0.53373895228E+02  0.87678793474E+02  0.00000000000E+00 0. -1.
         22    1    3    3    0    0  0.11764899070E+03  0.82192571776E+02 -0.36295586173E+03  0.39029970718E+03  0.00000000000E+00 0. -1.
</event>
<event>
 7    1  0.5562528E-006  0.5185265E+02  0.7818608E-02  0.1450456E+00
          2   -1    0    0  502    0  0.00000000000E+00  0.00000000000E+00  0.35848407562E+03  0.35848407562E+03  0.00000000000E+00 0. -1.
          1   -1    0    0  501    0 -0.00000000000E+00 -0.00000000000E+00 -0.10025396289E+03  0.10025396289E+03  0.00000000000E+00 0. -1.
         25    2    1    2    0    0 -0.47242235685E+01 -0.11695261757E+02  0.53675659419E+02  0.13661686737E+03  0.12499597833E+03 0.  0.
          2    1    1    2  501    0 -0.45112436316E+02  0.26013252026E+02 -0.44025066583E+02  0.68191111437E+02  0.00000000000E+00 0. -1.
          1    1    1    2  502    0  0.49836659885E+02 -0.14317990269E+02  0.24857951989E+03  0.25393005970E+03  0.00000000000E+00 0. -1.
         22    1    3    3    0    0 -0.55042551104E+02 -0.22173533956E+02 -0.38609660135E+01  0.59466419925E+02  0.00000000000E+00 0. -1.
         22    1    3    3    0    0  0.50318327536E+02  0.10478272199E+02  0.57536625433E+02  0.77150447442E+02  0.00000000000E+00 0. -1.
</event>
<event>
 7    1  0.5562528E-006  0.8769377E+02  0.7818608E-02  0.1323056E+00
          2   -1    0    0  502    0  0.00000000000E+00  0.00000000000E+00  0.86667354120E+03  0.86667354120E+03  0.00000000000E+00 0. -1.
          1   -1    0    0  501    0 -0.00000000000E+00 -0.00000000000E+00 -0.79446938381E+03  0.79446938381E+03  0.00000000000E+00 0. -1.
         25    2    1    2    0    0  0.39005604146E+02  0.46685335308E+02  0.47607861171E+02  0.14694365284E+03  0.12499988390E+03 0.  0.
          2    1    1    2  501    0  0.27884929060E+02 -0.84741786111E+02 -0.74019195175E+03  0.74554870064E+03  0.00000000000E+00 0. -1.
          1    1    1    2  502    0 -0.66890533205E+02  0.38056450803E+02  0.76478824797E+03  0.76865057153E+03  0.00000000000E+00 0. -1.
         22    1    3    3    0    0  0.45064084833E+02  0.30754106988E+02 -0.33528026644E+02  0.64036828537E+02  0.00000000000E+00 0.  1.
         22    1    3    3    0    0 -0.60584806872E+01  0.15931228320E+02  0.81135887814E+02  0.82906824300E+02  0.00000000000E+00 0.  1.
</event>
<event>
 7    1  0.5562528E-006  0.6041636E+02  0.7818608E-02  0.1412170E+00
          2   -1    0    0  502    0  0.00000000000E+00  0.00000000000E+00  0.10319188617E+04  0.10319188617E+04  0.00000000000E+00 0. -1.
          1   -1    0    0  501    0 -0.00000000000E+00 -0.00000000000E+00 -0.24467513055E+03  0.24467513055E+03  0.00000000000E+00 0. -1.
         25    2    1    2    0    0 -0.48758645679E+02  0.13443410934E+02  0.23610765438E+02  0.13689568472E+03  0.12499931770E+03 0.  0.
          2    1    1    2  501    0  0.48064089525E+02  0.39787617002E+02 -0.18208715982E+03  0.19248102488E+03  0.00000000000E+00 0. -1.
          1    1    1    2  502    0  0.69455615349E+00 -0.53231027936E+02  0.94572012553E+03  0.94721728266E+03  0.00000000000E+00 0. -1.
         22    1    3    3    0    0  0.16776224735E+02 -0.25099750202E+02  0.48299560152E+02  0.56958640147E+02  0.00000000000E+00 0. -1.
         22    1    3    3    0    0 -0.65534870414E+02  0.38543161136E+02 -0.24688794714E+02  0.79937044572E+02  0.00000000000E+00 0. -1.
</event>
<event>
 7    1  0.5562528E-006  0.8931327E+02  0.7818608E-02  0.1415545E+00
          2   -1    0    0  502    0  0.00000000000E+00  0.00000000000E+00  0.28036375135E+03  0.28036375135E+03  0.00000000000E+00 0. -1.
          1   -1    0    0  501    0 -0.00000000000E+00 -0.00000000000E+00 -0.10561212041E+04  0.10561212041E+04  0.00000000000E+00 0. -1.
         25    2    1    2    0    0  0.16610391030E+02  0.86044226895E+02 -0.53872674047E+03  0.55993834663E+03  0.12499974822E+03 0.  0.
          2    1    1    2  501    0  0.18240851691E+02 -0.90048196148E+02 -0.50145652726E+03  0.50980393784E+03  0.00000000000E+00 0. -1.
          1    1    1    2  502    0 -0.34851242721E+02  0.40039692534E+01  0.26442581499E+03  0.26674267098E+03  0.00000000000E+00 0. -1.
         22    1    3    3    0    0  0.62270110810E+02  0.11805484721E+02 -0.27394818375E+03  0.28118418083E+03  0.00000000000E+00 0. -1.
         22    1    3    3    0    0 -0.45659719780E+02  0.74238742173E+02 -0.26477855672E+03  0.27875416580E+03  0.00000000000E+00 0. -1.
</event>
<event>
 7    1  0.5562528E-006  0.1831115E+03  0.7818608E-02  0.1237698E+00
          2   -1    0    0  502    0  0.00000000000E+00  0.00000000000E+00  0.31121319203E+03  0.31121319203E+03  0.00000000000E+00 0. -1.
          1   -1    0    0  501    0 -0.00000000000E+00 -0.00000000000E+00 -0.14011710055E+04  0.14011710055E+04  0.00000000000E+00 0. -1.
         25    2    1    2    0    0 -0.13363003100E+03 -0.11862138394E+02  0.15517033198E+02  0.18402187655E+03  0.12500230885E+03 0.  0.
          2    1    1    2  501    0 -0.78163866526E+02 -0.28123852250E+02 -0.12602670962E+04  0.12630018586E+04  0.00000000000E+00 0. -1.
          1    1    1    2  502    0  0.21179389752E+03  0.39985990644E+02  0.15479224953E+03  0.26536046237E+03  0.00000000000E+00 0. -1.
         22    1    3    3    0    0 -0.36438240213E+02  0.32236787584E+01  0.64494561560E+02  0.74146381741E+02  0.00000000000E+00 0. -1.
         22    1    3    3    0    0 -0.97191790785E+02 -0.15085817152E+02 -0.48977528361E+02  0.10987549481E+03  0.00000000000E+00 0. -1.
</event>
<event>
 7    1  0.5562528E-006  0.1045004E+03  0.7818608E-02  0.1299349E+00
          2   -1    0    0  502    0  0.00000000000E+00  0.00000000000E+00  0.55408468586E+03  0.55408468586E+03  0.00000000000E+00 0. -1.
          1   -1    0    0  501    0 -0.00000000000E+00 -0.00000000000E+00 -0.63498503951E+03  0.63498503951E+03  0.00000000000E+00 0. -1.
         25    2    1    2    0    0 -0.60476128786E+02  0.15025496911E+03 -0.97857895053E+00  0.20460232521E+03  0.12500894355E+03 0.  0.
          2    1    1    2  501    0  0.63813967812E+02 -0.48330781973E+02 -0.52336376385E+03  0.52945039077E+03  0.00000000000E+00 0. -1.
          1    1    1    2  502    0 -0.33378390262E+01 -0.10192418714E+03  0.44344198915E+03  0.45501700939E+03  0.00000000000E+00 0. -1.
         22    1    3    3    0    0 -0.10785896388E+02  0.15253900761E+03  0.11394745750E+02  0.15334381185E+03  0.00000000000E+00 0. -1.
         22    1    3    3    0    0 -0.49690232398E+02 -0.22840384914E+01 -0.12373324701E+02  0.51258513359E+02  0.00000000000E+00 0. -1.
</event>
<event>
 7    1  0.5562528E-006  0.1437465E+03  0.7818608E-02  0.1332824E+00
          2   -1    0    0  502    0  0.00000000000E+00  0.00000000000E+00  0.10352512439E+04  0.10352512439E+04  0.00000000000E+00 0. -1.
          1   -1    0    0  501    0 -0.00000000000E+00 -0.00000000000E+00 -0.26602824524E+03  0.26602824524E+03  0.00000000000E+00 0. -1.
         25    2    1    2    0    0 -0.65834346363E+02  0.13591208310E+03  0.69488873742E+03  0.72201297691E+03  0.12500450367E+03 0.  0.
          2    1    1    2  501    0  0.96926690576E+02 -0.10610552653E+03 -0.23037673308E+03  0.27152643564E+03  0.00000000000E+00 0. -1.
          1    1    1    2  502    0 -0.31092344213E+02 -0.29806556573E+02  0.30471099429E+03  0.30774007657E+03  0.00000000000E+00 0. -1.
         22    1    3    3    0    0 -0.99249670675E+02  0.12277789380E+03  0.60392775446E+03  0.62422242906E+03  0.00000000000E+00 0. -1.
         22    1    3    3    0    0  0.33415324312E+02  0.13134189299E+02  0.90960982961E+02  0.97790547849E+02  0.00000000000E+00 0. -1.
</event>
<event>
 7    1  0.5562528E-006  0.2361469E+03  0.7818608E-02  0.1209205E+00
          2   -1    0    0  502    0  0.00000000000E+00  0.00000000000E+00  0.45677638869E+03  0.45677638869E+03  0.00000000000E+00 0. -1.
          1   -1    0    0  501    0 -0.00000000000E+00 -0.00000000000E+00 -0.12319730576E+04  0.12319730576E+04  0.00000000000E+00 0. -1.
         25    2    1    2    0    0 -0.20802277575E+03  0.16417136395E+03 -0.52504540863E+02  0.29766989277E+03  0.12499970512E+03 0.  0.
          2    1    1    2  501    0  0.81303004179E+02  0.30188604604E+02 -0.10145402751E+04  0.10182403941E+04  0.00000000000E+00 0. -1.
          1    1    1    2  502    0  0.12671977157E+03 -0.19435996856E+03  0.29184814704E+03  0.37283915945E+03  0.00000000000E+00 0. -1.
         22    1    3    3    0    0 -0.15753579277E+03  0.84277724608E+02  0.18275553694E+02  0.17959470129E+03  0.00000000000E+00 0. -1.
         22    1    3    3    0    0 -0.50486982980E+02  0.79893639346E+02 -0.70780094557E+02  0.11807519148E+03  0.00000000000E+00 0. -1.
</event>
<event>
 7    1  0.5562528E-006  0.5623554E+02  0.7818608E-02  0.1427658E+00
          2   -1    0    0  502    0  0.00000000000E+00  0.00000000000E+00  0.39047099203E+04  0.39047099203E+04  0.00000000000E+00 0. -1.
          1   -1    0    0  501    0 -0.00000000000E+00 -0.00000000000E+00 -0.37560505021E+02  0.37560505021E+02  0.00000000000E+00 0. -1.
         25    2    1    2    0    0  0.26407100393E+01  0.14833581999E+02  0.44777154948E+03  0.46513620750E+03  0.12500129001E+03 0.  0.
          2    1    1    2  501    0  0.37330502222E+02 -0.46137333772E+02  0.20028413197E+01  0.59382079259E+02  0.00000000000E+00 0. -1.
          1    1    1    2  502    0 -0.39971212261E+02  0.31303751774E+02  0.34173750244E+04  0.34177521385E+04  0.00000000000E+00 0. -1.
         22    1    3    3    0    0 -0.40812464064E+02  0.15842248227E+02  0.56591411092E+02  0.71548737664E+02  0.00000000000E+00 0. -1.
         22    1    3    3    0    0  0.43453174103E+02 -0.10086662285E+01  0.39118013838E+03  0.39358746984E+03  0.00000000000E+00 0. -1.
</event>
<event>
 7    1  0.5562528E-006  0.1158745E+03  0.7818608E-02  0.1327795E+00
          2   -1    0    0  502    0  0.00000000000E+00  0.00000000000E+00  0.86383492066E+02  0.86383492066E+02  0.00000000000E+00 0. -1.
          1   -1    0    0  501    0 -0.00000000000E+00 -0.00000000000E+00 -0.20286564722E+04  0.20286564722E+04  0.00000000000E+00 0. -1.
         25    2    1    2    0    0 -0.60246409411E+02 -0.94579172843E+02 -0.13664697841E+04  0.13767495553E+04  0.12499926939E+03 0.  0.
          2    1    1    2  501    0  0.14332459567E+02  0.12637267092E+03 -0.64039545507E+03  0.65290260393E+03  0.00000000000E+00 0. -1.
          1    1    1    2  502    0  0.45913949844E+02 -0.31793498076E+02  0.64592259076E+02  0.85387805000E+02  0.00000000000E+00 0. -1.
         22    1    3    3    0    0 -0.98610355050E+02 -0.79645170559E+02 -0.10345867709E+04  0.10423229547E+04  0.00000000000E+00 0. -1.
         22    1    3    3    0    0  0.38363945638E+02 -0.14934002284E+02 -0.33188301320E+03  0.33442660062E+03  0.00000000000E+00 0. -1.
</event>
<event>
 7    1  0.5562528E-006  0.6620323E+02  0.7818608E-02  0.1497881E+00
          2   -1    0    0  502    0  0.00000000000E+00  0.00000000000E+00  0.12630878053E+04  0.12630878053E+04  0.00000000000E+00 0. -1.
          1   -1    0    0  501    0 -0.00000000000E+00 -0.00000000000E+00 -0.78869858793E+03  0.78869858793E+03  0.00000000000E+00 0. -1.
         25    2    1    2    0    0  0.41447970581E+02 -0.64465552813E+01 -0.12813079689E+03  0.18385457169E+03  0.12500204030E+03 0.  0.
          2    1    1    2  501    0 -0.66482034548E+02  0.13234969091E+02 -0.63075352049E+03  0.63438555227E+03  0.00000000000E+00 0. -1.
          1    1    1    2  502    0  0.25034063967E+02 -0.67884138099E+01  0.12332735348E+04  0.12335462693E+04  0.00000000000E+00 0. -1.
         22    1    3    3    0    0 -0.22987223552E+02 -0.49213708202E+02 -0.57858406731E+02  0.79359919047E+02  0.00000000000E+00 0.  1.
         22    1    3    3    0    0  0.64435194133E+02  0.42767152921E+02 -0.70272390160E+02  0.10449465264E+03  0.00000000000E+00 0.  1.
</event>
<event>
 7    1  0.5562528E-006  0.2965714E+03  0.7818608E-02  0.1257198E+00
          2   -1    0    0  502    0  0.00000000000E+00  0.00000000000E+00  0.79968883815E+03  0.79968883815E+03  0.00000000000E+00 0. -1.
          1   -1    0    0  501    0 -0.00000000000E+00 -0.00000000000E+00 -0.68346111497E+03  0.68346111497E+03  0.00000000000E+00 0. -1.
         25    2    1    2    0    0  0.23592795995E+03 -0.21899526417E+03  0.87973103700E+02  0.35635494608E+03  0.12501460958E+03 0.  0.
          2    1    1    2  501    0 -0.19375123230E+03  0.21893610043E+03 -0.50948308577E+03  0.58740579737E+03  0.00000000000E+00 0. -1.
          1    1    1    2  502    0 -0.42176727650E+02  0.59163733736E-01  0.53773770525E+03  0.53938920967E+03  0.00000000000E+00 0. -1.
         22    1    3    3    0    0  0.23294572177E+02 -0.18427491666E+02 -0.29004841239E+02  0.41514941374E+02  0.00000000000E+00 0.  1.
         22    1    3    3    0    0  0.21263338778E+03 -0.20056777250E+03  0.11697794494E+03  0.31484000471E+03  0.00000000000E+00 0.  1.
</event>
<event>
 7    1  0.5562528E-006  0.1758239E+03  0.7818608E-02  0.1235319E+00
          2   -1    0    0  502    0  0.00000000000E+00  0.00000000000E+00  0.57380326523E+03  0.57380326523E+03  0.00000000000E+00 0. -1.
          1   -1    0    0  501    0 -0.00000000000E+00 -0.00000000000E+00 -0.16970105945E+04  0.16970105945E+04  0.00000000000E+00 0. -1.
         25    2    1    2    0    0  0.16554070744E+03 -0.17410887405E+03 -0.13017205217E+03  0.30047781407E+03  0.12499811094E+03 0.  0.
          2    1    1    2  501    0 -0.14897402252E+03  0.87030098519E+02 -0.14725875885E+04  0.14826603465E+04  0.00000000000E+00 0. -1.
          1    1    1    2  502    0 -0.16566684920E+02  0.87078775528E+02  0.47955231137E+03  0.48767569914E+03  0.00000000000E+00 0. -1.
         22    1    3    3    0    0  0.19608651456E+02 -0.10652646203E+03 -0.36154333952E+02  0.11419072725E+03  0.00000000000E+00 0.  1.
         22    1    3    3    0    0  0.14593205599E+03 -0.67582412013E+02 -0.94017718215E+02  0.18628708682E+03  0.00000000000E+00 0.  1.
</event>
<event>
 7    1  0.5562528E-006  0.5661395E+02  0.7818608E-02  0.1490506E+00
          2   -1    0    0  502    0  0.00000000000E+00  0.00000000000E+00  0.11012177332E+02  0.11012177332E+02  0.00000000000E+00 0. -1.
          1   -1    0    0  501    0 -0.00000000000E+00 -0.00000000000E+00 -0.17307077992E+04  0.17307077992E+04  0.00000000000E+00 0. -1.
         25    2    1    2    0    0 -0.23175047603E+01  0.29796899328E+02 -0.92390884690E+03  0.93280571421E+03  0.12500286814E+03 0.  0.
          2    1    1    2  501    0 -0.12378274713E+02  0.29423446787E+02 -0.65117593240E+03  0.65195786354E+03  0.00000000000E+00 0. -1.
          1    1    1    2  502    0  0.14695779473E+02 -0.59220346115E+02 -0.14461084259E+03  0.15695639880E+03  0.00000000000E+00 0. -1.
         22    1    3    3    0    0  0.51920666186E+02 -0.19072770580E+02 -0.37231203296E+03  0.37639842726E+03  0.00000000000E+00 0.  1.
         22    1    3    3    0    0 -0.54238170946E+02  0.48869669908E+02 -0.55159681394E+03  0.55640728695E+03  0.00000000000E+00 0.  1.
</event>
<event>
 7    1  0.5562528E-006  0.6185639E+02  0.7818608E-02  0.1429773E+00
          2   -1    0    0  502    0  0.00000000000E+00  0.00000000000E+00  0.19117273848E+03  0.19117273848E+03  0.00000000000E+00 0. -1.
          1   -1    0    0  501    0 -0.00000000000E+00 -0.00000000000E+00 -0.79584400857E+03  0.79584400857E+03  0.00000000000E+00 0. -1.
         25    2    1    2    0    0 -0.81200493979E+02 -0.90563186458E+01 -0.96962401573E+02  0.17804985773E+03  0.12499802954E+03 0.  0.
          2    1    1    2  501    0  0.26372176435E+02  0.36981006830E+02 -0.65123013303E+03  0.65281220325E+03  0.00000000000E+00 0. -1.
          1    1    1    2  502    0  0.54828317544E+02 -0.27924688184E+02  0.14352126451E+03  0.15615468607E+03  0.00000000000E+00 0. -1.
         22    1    3    3    0    0  0.10451439079E+02  0.29680771136E+02 -0.67183047572E+02  0.74187213421E+02  0.00000000000E+00 0. -1.
         22    1    3    3    0    0 -0.91651933058E+02 -0.38737089782E+02 -0.29779354001E+02  0.10386264431E+03  0.00000000000E+00 0. -1.
</event>
<event>
 7    1  0.5562528E-006  0.8135842E+02  0.7818608E-02  0.1431721E+00
          2   -1    0    0  502    0  0.00000000000E+00  0.00000000000E+00  0.77709264832E+03  0.77709264832E+03  0.00000000000E+00 0. -1.
          1   -1    0    0  501    0 -0.00000000000E+00 -0.00000000000E+00 -0.93501984222E+02  0.93501984222E+02  0.00000000000E+00 0. -1.
         25    2    1    2    0    0 -0.75613507715E+02  0.81373638081E+02  0.14573793453E+03  0.22181251930E+03  0.12498870601E+03 0.  0.
          2    1    1    2  501    0  0.29628739135E+02 -0.16734184871E+02 -0.47304737702E+02  0.58272063076E+02  0.00000000000E+00 0. -1.
          1    1    1    2  502    0  0.45984768580E+02 -0.64639453210E+02  0.58515746726E+03  0.59051005017E+03  0.00000000000E+00 0. -1.
         22    1    3    3    0    0 -0.33172674409E+02  0.47785083651E+02 -0.80992139388E+01  0.58731914777E+02  0.00000000000E+00 0.  1.
         22    1    3    3    0    0 -0.42440833306E+02  0.33588554430E+02  0.15383714847E+03  0.16308060452E+03  0.00000000000E+00 0.  1.
</event>
<event>
 7    1  0.5562528E-006  0.6191998E+02  0.7818608E-02  0.1479950E+00
          2   -1    0    0  502    0  0.00000000000E+00  0.00000000000E+00  0.15904422728E+04  0.15904422728E+04  0.00000000000E+00 0. -1.
          1   -1    0    0  501    0 -0.00000000000E+00 -0.00000000000E+00 -0.12095925491E+04  0.12095925491E+04  0.00000000000E+00 0. -1.
         25    2    1    2    0    0  0.64187063417E+02 -0.67071521764E+02 -0.21867166554E+02  0.15723276602E+03  0.12500160637E+03 0.  0.
          2    1    1    2  501    0 -0.19054352400E+02  0.24993413854E+02 -0.11191967965E+04  0.11196379810E+04  0.00000000000E+00 0. -1.
          1    1    1    2  502    0 -0.45132711017E+02  0.42078107910E+02  0.15219136868E+04  0.15231640748E+04  0.00000000000E+00 0. -1.
         22    1    3    3    0    0  0.68483589566E+02  0.17744534510E+02 -0.82822325893E+01  0.71228266310E+02  0.00000000000E+00 0.  1.
         22    1    3    3    0    0 -0.42965261500E+01 -0.84816056274E+02 -0.13584933965E+02  0.86004499706E+02  0.00000000000E+00 0.  1.
</event>
<event>
 7    1  0.5562528E-006  0.1066881E+03  0.7818608E-02  0.1362181E+00
          2   -1    0    0  502    0  0.00000000000E+00  0.00000000000E+00  0.14069109111E+04  0.14069109111E+04  0.00000000000E+00 0. -1.
          1   -1    0    0  501    0 -0.00000000000E+00 -0.00000000000E+00 -0.48210332664E+02  0.48210332664E+02  0.00000000000E+00 0. -1.
         25    2    1    2    0    0 -0.11413699953E+03  0.89062588221E+02  0.54382260963E+03  0.57647699680E+03  0.12499319103E+03 0.  0.
          2    1    1    2  501    0  0.34382439842E+02 -0.29234313738E+02 -0.11258057380E+02  0.46513880995E+02  0.00000000000E+00 0. -1.
          1    1    1    2  502    0  0.79754559687E+02 -0.59828274483E+02  0.82613602613E+03  0.83213036593E+03  0.00000000000E+00 0. -1.
         22    1    3    3    0    0 -0.12920711213E+03  0.46819971769E+02  0.32093275423E+03  0.34911949289E+03  0.00000000000E+00 0. -1.
         22    1    3    3    0    0  0.15070112598E+02  0.42242616452E+02  0.22288985541E+03  0.22735750390E+03  0.00000000000E+00 0. -1.
</event>
<event>
 7    1  0.5562528E-006  0.7611367E+02  0.7818608E-02  0.1507590E+00
          2   -1    0    0  502    0  0.00000000000E+00  0.00000000000E+00  0.86318995042E+03  0.86318995042E+03  0.00000000000E+00 0. -1.
          1   -1    0    0  501    0 -0.00000000000E+00 -0.00000000000E+00 -0.29676234321E+03  0.29676234321E+03  0.00000000000E+00 0. -1.
         25    2    1    2    0    0 -0.85979695530E+02  0.30013517014E+02 -0.61989086846E+02  0.16661672250E+03  0.12500066433E+03 0.  0.
          2    1    1    2  501    0  0.11034152881E+02 -0.17996781958E+02 -0.18006524461E+03  0.18129845286E+03  0.00000000000E+00 0. -1.
          1    1    1    2  502    0  0.74945542649E+02 -0.12016735056E+02  0.80848193867E+03  0.81203711827E+03  0.00000000000E+00 0. -1.
         22    1    3    3    0    0 -0.19945226678E+02  0.46116624140E+02 -0.81640759929E+02  0.95863281663E+02  0.00000000000E+00 0.  1.
         22    1    3    3    0    0 -0.66034468852E+02 -0.16103107126E+02  0.19651673083E+02  0.70753440840E+02  0.00000000000E+00 0.  1.
</event>
<event>
 7    1  0.5562528E-006  0.7344304E+02  0.7818608E-02  0.1492331E+00
          2   -1    0    0  502    0  0.00000000000E+00  0.00000000000E+00  0.64780462621E+03  0.64780462621E+03  0.00000000000E+00 0. -1.
          1   -1    0    0  501    0 -0.00000000000E+00 -0.00000000000E+00 -0.66705872692E+03  0.66705872692E+03  0.00000000000E+00 0. -1.
         25    2    1    2    0    0  0.92044982760E+02 -0.28893331648E+02 -0.23963562273E+03  0.28697937301E+03  0.12499930156E+03 0.  0.
          2    1    1    2  501    0 -0.20535373950E+02  0.12985085487E+02 -0.40123282510E+03  0.40196777728E+03  0.00000000000E+00 0. -1.
          1    1    1    2  502    0 -0.71509608810E+02  0.15908246161E+02  0.62161434712E+03  0.62591620285E+03  0.00000000000E+00 0. -1.
         22    1    3    3    0    0 -0.24711392684E+02  0.18930079950E+02 -0.57939054668E+02  0.65771839803E+02  0.00000000000E+00 0. -1.
         22    1    3    3    0    0  0.11675637544E+03 -0.47823411598E+02 -0.18169656806E+03  0.22120753321E+03  0.00000000000E+00 0. -1.
</event>
<event>
 7    1  0.5562528E-006  0.1081385E+03  0.7818608E-02  0.1297739E+00
          2   -1    0    0  502    0  0.00000000000E+00  0.00000000000E+00  0.60540814690E+03  0.60540814690E+03  0.00000000000E+00 0. -1.
          1   -1    0    0  501    0 -0.00000000000E+00 -0.00000000000E+00 -0.41423360602E+03  0.41423360602E+03  0.00000000000E+00 0. -1.
         25    2    1    2    0    0 -0.27614733017E+02 -0.35597506205E+02  0.49893230214E+03  0.51632014002E+03  0.12499315558E+03 0.  0.
          2    1    1    2  501    0  0.10571350822E+03  0.27507426260E+02 -0.38075496440E+03  0.39611405837E+03  0.00000000000E+00 0. -1.
          1    1    1    2  502    0 -0.78098775208E+02  0.80900799456E+01  0.72997203141E+02  0.10720755453E+03  0.00000000000E+00 0. -1.
         22    1    3    3    0    0 -0.56761506143E+02  0.14709565470E+02  0.12714968434E+03  0.14001886345E+03  0.00000000000E+00 0.  1.
         22    1    3    3    0    0  0.29146773126E+02 -0.50307071675E+02  0.37178261780E+03  0.37630127656E+03  0.00000000000E+00 0.  1.
</event>
<event>
 7    1  0.5562528E-006  0.1064540E+03  0.7818608E-02  0.1372521E+00
          2   -1    0    0  502    0  0.00000000000E+00  0.00000000000E+00  0.23340876907E+04  0.23340876907E+04  0.00000000000E+00 0. -1.
          1   -1    0    0  501    0 -0.00000000000E+00 -0.00000000000E+00 -0.56125529537E+02  0.56125529537E+02  0.00000000000E+00 0. -1.
         25    2    1    2    0    0  0.35887522398E+02  0.10841113477E+03  0.58149305718E+03  0.60564032337E+03  0.12500054939E+03 0.  0.
          2    1    1    2  501    0 -0.41446076496E+02 -0.22239505970E+01 -0.32265165325E+02  0.52571514213E+02  0.00000000000E+00 0. -1.
          1    1    1    2  502    0  0.55585540987E+01 -0.10618718417E+03  0.17287342693E+04  0.17320013826E+04  0.00000000000E+00 0. -1.
         22    1    3    3    0    0 -0.31971738239E+02  0.82209009489E+02  0.40958419624E+03  0.41897461390E+03  0.00000000000E+00 0. -1.
         22    1    3    3    0    0  0.67859260637E+02  0.26202125277E+02  0.17190886094E+03  0.18666570947E+03  0.00000000000E+00 0. -1.
</event>
<event>
 7    1  0.5562528E-006  0.7095035E+02  0.7818608E-02  0.1360896E+00
          2   -1    0    0  502    0  0.00000000000E+00  0.00000000000E+00  0.53327658233E+02  0.53327658233E+02  0.00000000000E+00 0. -1.
          1   -1    0    0  501    0 -0.00000000000E+00 -0.00000000000E+00 -0.56776123048E+03  0.56776123048E+03  0.00000000000E+00 0. -1.
         25    2    1    2    0    0  0.62421314366E+02  0.37679828173E+02 -0.11820534837E+03  0.18684894081E+03  0.12499532935E+03 0.  0.
          2    1    1    2  501    0 -0.67505037904E+02  0.30729562097E+02 -0.33228188300E+03  0.34045922796E+03  0.00000000000E+00 0. -1.
          1    1    1    2  502    0  0.50837235386E+01 -0.68409390270E+02 -0.63946340873E+02  0.93780719944E+02  0.00000000000E+00 0. -1.
         22    1    3    3    0    0  0.98823043684E+02  0.18461568870E+02 -0.65557796861E+02  0.12001936601E+03  0.00000000000E+00 0. -1.
         22    1    3    3    0    0 -0.36401729318E+02  0.19218259304E+02 -0.52647551506E+02  0.66829574797E+02  0.00000000000E+00 0. -1.
</event>
<event>
 7    1  0.5562528E-006  0.1017949E+03  0.7818608E-02  0.1452554E+00
          2   -1    0    0  502    0  0.00000000000E+00  0.00000000000E+00  0.16072334111E+03  0.16072334111E+03  0.00000000000E+00 0. -1.
          1   -1    0    0  501    0 -0.00000000000E+00 -0.00000000000E+00 -0.16538616460E+04  0.16538616460E+04  0.00000000000E+00 0. -1.
         25    2    1    2    0    0 -0.16896200678E+02  0.10184247649E+03 -0.87465363779E+03  0.88955145065E+03  0.12500170256E+03 0.  0.
          2    1    1    2  501    0 -0.21964901043E+02 -0.77332115819E+01 -0.75465088277E+03  0.75501007563E+03  0.00000000000E+00 0. -1.
          1    1    1    2  502    0  0.38861101721E+02 -0.94109264913E+02  0.13616621563E+03  0.17002346087E+03  0.00000000000E+00 0. -1.
         22    1    3    3    0    0 -0.29877165387E+02  0.11917093967E+03 -0.52319816884E+03  0.53742969936E+03  0.00000000000E+00 0. -1.
         22    1    3    3    0    0  0.12980964709E+02 -0.17328463172E+02 -0.35145546895E+03  0.35212175129E+03  0.00000000000E+00 0. -1.
</event>
<event>
 7    1  0.5562528E-006  0.1403375E+03  0.7818608E-02  0.1396623E+00
          2   -1    0    0  502    0  0.00000000000E+00  0.00000000000E+00  0.25083220121E+03  0.25083220121E+03  0.00000000000E+00 0. -1.
          1   -1    0    0  501    0 -0.00000000000E+00 -0.00000000000E+00 -0.82181394512E+03  0.82181394512E+03  0.00000000000E+00 0. -1.
         25    2    1    2    0    0  0.17245302142E+02 -0.11596484902E+03 -0.34859536751E+03  0.38844424449E+03  0.12499981668E+03 0.  0.
          2    1    1    2  501    0 -0.56481960103E+01 -0.25276749675E+02 -0.43112456875E+03  0.43190185225E+03  0.00000000000E+00 0. -1.
          1    1    1    2  502    0 -0.11597106132E+02  0.14124159870E+03  0.20873819236E+03  0.25230004959E+03  0.00000000000E+00 0. -1.
         22    1    3    3    0    0  0.31383734730E+02 -0.95907546642E+02 -0.34961137371E+03  0.36388364752E+03  0.00000000000E+00 0. -1.
         22    1    3    3    0    0 -0.14138432588E+02 -0.20057302382E+02  0.10160061933E+01  0.24560596969E+02  0.00000000000E+00 0. -1.
</event>
<event>
 7    1  0.5562528E-006  0.9376167E+02  0.7818608E-02  0.1478030E+00
          2   -1    0    0  502    0  0.00000000000E+00  0.00000000000E+00  0.17820947601E+03  0.17820947601E+03  0.00000000000E+00 0. -1.
          1   -1    0    0  501    0 -0.00000000000E+00 -0.00000000000E+00 -0.10272261287E+04  0.10272261287E+04  0.00000000000E+00 0. -1.
         25    2    1    2    0    0  0.82486168579E+02  0.54243984056E+02  0.76990523354E+01  0.15946659199E+03  0.12499576290E+03 0.  0.
          2    1    1    2  501    0 -0.87381405224E+02 -0.33782428850E+02 -0.94783434604E+03  0.95245299622E+03  0.00000000000E+00 0. -1.
          1    1    1    2  502    0  0.48952366453E+01 -0.20461555207E+02  0.91118641058E+02  0.93516016444E+02  0.00000000000E+00 0. -1.
         22    1    3    3    0    0  0.10476660908E+03  0.45879069687E+02  0.38377806106E+02  0.12063907914E+03  0.00000000000E+00 0. -1.
         22    1    3    3    0    0 -0.22280440505E+02  0.83649143695E+01 -0.30678753771E+02  0.38827512854E+02  0.00000000000E+00 0. -1.
</event>
<event>
 7    1  0.5562528E-006  0.5023619E+02  0.7818608E-02  0.1540226E+00
          2   -1    0    0  502    0  0.00000000000E+00  0.00000000000E+00  0.81669554584E+03  0.81669554584E+03  0.00000000000E+00 0. -1.
          1   -1    0    0  501    0 -0.00000000000E+00 -0.00000000000E+00 -0.35191704158E+03  0.35191704158E+03  0.00000000000E+00 0. -1.
         25    2    1    2    0    0  0.58527042705E+02 -0.39779807642E+02  0.25164830905E+03  0.28975642218E+03  0.12499625965E+03 0.  0.
          2    1    1    2  501    0 -0.25522424942E+02  0.33597721279E+01 -0.33125648303E+03  0.33225523290E+03  0.00000000000E+00 0. -1.
          1    1    1    2  502    0 -0.33004617763E+02  0.36420035514E+02  0.54438667824E+03  0.54660093233E+03  0.00000000000E+00 0. -1.
         22    1    3    3    0    0  0.34315490362E+02 -0.99265381141E+01  0.24864950248E+03  0.25120243653E+03  0.00000000000E+00 0. -1.
         22    1    3    3    0    0  0.24211552344E+02 -0.29853269528E+02  0.29988065658E+01  0.38553985646E+02  0.00000000000E+00 0. -1.
</event>
<event>
 7    1  0.5562528E-006  0.1544268E+03  0.7818608E-02  0.1217603E+00
          2   -1    0    0  502    0  0.00000000000E+00  0.00000000000E+00  0.11746169212E+04  0.11746169212E+04  0.00000000000E+00 0. -1.
          1   -1    0    0  501    0 -0.00000000000E+00 -0.00000000000E+00 -0.35391482420E+03  0.35391482420E+03  0.00000000000E+00 0. -1.
         25    2    1    2    0    0  0.37793112547E+02 -0.79793245444E+02  0.64161215395E+03  0.65961123775E+03  0.12500218994E+03 0.  0.
          2    1    1    2  501    0 -0.15216161235E+03  0.39346196055E+02 -0.31935074780E+03  0.35593002056E+03  0.00000000000E+00 0. -1.
          1    1    1    2  502    0  0.11436849980E+03  0.40447049389E+02  0.49844069084E+03  0.51299048708E+03  0.00000000000E+00 0. -1.
         22    1    3    3    0    0 -0.30547512306E+02 -0.74188828312E+01  0.35138513166E+03  0.35278846506E+03  0.00000000000E+00 0. -1.
         22    1    3    3    0    0  0.68340624853E+02 -0.72374362613E+02  0.29022702229E+03  0.30682277269E+03  0.00000000000E+00 0. -1.
</event>
<event>
 7    1  0.5562528E-006  0.4046715E+02  0.7818608E-02  0.1536770E+00
          2   -1    0    0  502    0  0.00000000000E+00  0.00000000000E+00  0.13363592923E+04  0.13363592923E+04  0.00000000000E+00 0. -1.
          1   -1    0    0  501    0 -0.00000000000E+00 -0.00000000000E+00 -0.73014472744E+03  0.73014472744E+03  0.00000000000E+00 0. -1.
         25    2    1    2    0    0 -0.51534052852E+02  0.10303112497E+01  0.11268565739E+03  0.17599060052E+03  0.12497125247E+03 0.  0.
          2    1    1    2  501    0  0.20755250758E+02  0.25250179683E+02 -0.69776604555E+03  0.69853117778E+03  0.00000000000E+00 0. -1.
          1    1    1    2  502    0  0.30778802094E+02 -0.26280490932E+02  0.11912949531E+04  0.11919822415E+04  0.00000000000E+00 0. -1.
         22    1    3    3    0    0  0.29045343233E+02  0.12819048943E+02  0.83749712435E+02  0.89565475002E+02  0.00000000000E+00 0. -1.
         22    1    3    3    0    0 -0.80579396085E+02 -0.11788737693E+02  0.28935944955E+02  0.86425125515E+02  0.00000000000E+00 0. -1.
</event>
<event>
 7    1  0.5562528E-006  0.5531057E+02  0.7818608E-02  0.1541755E+00
          2   -1    0    0  502    0  0.00000000000E+00  0.00000000000E+00  0.32050947650E+04  0.32050947650E+04  0.00000000000E+00 0. -1.
          1   -1    0    0  501    0 -0.00000000000E+00 -0.00000000000E+00 -0.37419548176E+03  0.37419548176E+03  0.00000000000E+00 0. -1.
         25    2    1    2    0    0  0.70258852810E+02 -0.31173882109E+02  0.11273593942E+04  0.11368714775E+04  0.12501774022E+03 0.  0.
          2    1    1    2  501    0 -0.21460595633E+02  0.86806002558E+01 -0.36872818954E+03  0.36945417544E+03  0.00000000000E+00 0. -1.
          1    1    1    2  502    0 -0.48798257177E+02  0.22493281853E+02  0.20722680786E+04  0.20729645938E+04  0.00000000000E+00 0. -1.
         22    1    3    3    0    0  0.87388365532E+02  0.15118109079E+02  0.51989812676E+03  0.52740813974E+03  0.00000000000E+00 0. -1.
         22    1    3    3    0    0 -0.17129512722E+02 -0.46291991187E+02  0.60746126744E+03  0.60946333778E+03  0.00000000000E+00 0. -1.
</event>
<event>
 7    1  0.5562528E-006  0.6718222E+02  0.7818608E-02  0.1483209E+00
          2   -1    0    0  502    0  0.00000000000E+00  0.00000000000E+00  0.54085165224E+03  0.54085165224E+03  0.00000000000E+00 0. -1.
          1   -1    0    0  501    0 -0.00000000000E+00 -0.00000000000E+00 -0.65028533387E+02  0.65028533387E+02  0.00000000000E+00 0. -1.
         25    2    1    2    0    0  0.55747906586E+02 -0.75117171448E+02  0.10657051517E+03  0.18903017758E+03  0.12499885918E+03 0.  0.
          2    1    1    2  501    0 -0.14726313366E+02  0.24177086966E+02 -0.11474473512E+02  0.30546020721E+02  0.00000000000E+00 0. -1.
          1    1    1    2  502    0 -0.41021593220E+02  0.50940084483E+02  0.38072707720E+03  0.38630398733E+03  0.00000000000E+00 0. -1.
         22    1    3    3    0    0 -0.34766505965E+02 -0.31184343649E+02  0.65298645435E+02  0.80281294966E+02  0.00000000000E+00 0. -1.
         22    1    3    3    0    0  0.90514412551E+02 -0.43932827800E+02  0.41271869737E+02  0.10874888261E+03  0.00000000000E+00 0. -1.
</event>
<event>
 7    1  0.5562528E-006  0.8065156E+02  0.7818608E-02  0.1462688E+00
          2   -1    0    0  502    0  0.00000000000E+00  0.00000000000E+00  0.17087043490E+04  0.17087043490E+04  0.00000000000E+00 0. -1.
          1   -1    0    0  501    0 -0.00000000000E+00 -0.00000000000E+00 -0.51344914034E+03  0.51344914034E+03  0.00000000000E+00 0. -1.
         25    2    1    2    0    0 -0.63669866079E+02  0.79220068462E+02  0.92787243216E+03  0.94175501436E+03  0.12500234242E+03 0.  0.
          2    1    1    2  501    0  0.12178653110E+02 -0.24431393411E+02 -0.50431161829E+03  0.50504991924E+03  0.00000000000E+00 0. -1.
          1    1    1    2  502    0  0.51491212969E+02 -0.54788675052E+02  0.77169439478E+03  0.77534855573E+03  0.00000000000E+00 0. -1.
         22    1    3    3    0    0 -0.12625369619E+02 -0.28258843662E+01  0.59501416459E+03  0.59515480478E+03  0.00000000000E+00 0. -1.
         22    1    3    3    0    0 -0.51044496460E+02  0.82045952828E+02  0.33285826756E+03  0.34660020958E+03  0.00000000000E+00 0. -1.
</event>
<event>
 7    1  0.5562528E-006  0.6720521E+02  0.7818608E-02  0.1464170E+00
          2   -1    0    0  502    0  0.00000000000E+00  0.00000000000E+00  0.66471652758E+03  0.66471652758E+03  0.00000000000E+00 0. -1.
          1   -1    0    0  501    0 -0.00000000000E+00 -0.00000000000E+00 -0.71447952937E+03  0.71447952937E+03  0.00000000000E+00 0. -1.
         25    2    1    2    0    0 -0.97518646876E+02 -0.19720007559E+02  0.51157268484E+03  0.53593947538E+03  0.12500297679E+03 0.  0.
          2    1    1    2  501    0  0.65560256624E+02  0.14320955438E+02 -0.69880419972E+03  0.70201890755E+03  0.00000000000E+00 0. -1.
          1    1    1    2  502    0  0.31958390252E+02  0.53990521210E+01  0.13746851310E+03  0.14123767403E+03  0.00000000000E+00 0. -1.
         22    1    3    3    0    0 -0.59807615849E+02 -0.58354284830E+02  0.16258587434E+03  0.18280136762E+03  0.00000000000E+00 0.  1.
         22    1    3    3    0    0 -0.37711031026E+02  0.38634277271E+02  0.34898681050E+03  0.35313810775E+03  0.00000000000E+00 0.  1.
</event>
<event>
 7    1  0.5562528E-006  0.3797679E+02  0.7818608E-02  0.1593531E+00
          2   -1    0    0  502    0  0.00000000000E+00  0.00000000000E+00  0.18701079611E+04  0.18701079611E+04  0.00000000000E+00 0. -1.
          1   -1    0    0  501    0 -0.00000000000E+00 -0.00000000000E+00 -0.19176633356E+02  0.19176633356E+02  0.00000000000E+00 0. -1.
         25    2    1    2    0    0  0.17067646976E+02  0.21755164311E+02  0.22199528624E+03  0.25626154592E+03  0.12499392408E+03 0.  0.
          2    1    1    2  501    0  0.20245472132E+02 -0.13549369166E+02  0.80256692089E+02  0.83872529303E+02  0.00000000000E+00 0. -1.
          1    1    1    2  502    0 -0.37313119108E+02 -0.82057951449E+01  0.15486793495E+04  0.15491505193E+04  0.00000000000E+00 0. -1.
         22    1    3    3    0    0  0.55753008439E+02  0.87901907196E+00  0.19897423255E+03  0.20663957957E+03  0.00000000000E+00 0.  1.
         22    1    3    3    0    0 -0.38685361464E+02  0.20876145239E+02  0.23021053685E+02  0.49621966349E+02  0.00000000000E+00 0.  1.
</event>
<event>
 7    1  0.5562528E-006  0.5720198E+03  0.7818608E-02  0.1202402E+00
          2   -1    0    0  502    0  0.00000000000E+00  0.00000000000E+00  0.18934950190E+04  0.18934950190E+04  0.00000000000E+00 0. -1.
          1   -1    0    0  501    0 -0.00000000000E+00 -0.00000000000E+00 -0.99298634562E+03  0.99298634562E+03  0.00000000000E+00 0. -1.
         25    2    1    2    0    0 -0.54708615882E+03  0.16727735856E+03  0.51758530366E+03  0.78154008723E+03  0.12500152605E+03 0.  0.
          2    1    1    2  501    0  0.55718714904E+03 -0.13010438249E+03 -0.76559194688E+03  0.95578015178E+03  0.00000000000E+00 0. -1.
          1    1    1    2  502    0 -0.10100990222E+02 -0.37172976068E+02  0.11485153166E+04  0.11491611256E+04  0.00000000000E+00 0. -1.
         22    1    3    3    0    0 -0.27661057119E+02 -0.13547383802E+02  0.54269301561E+02  0.62400503049E+02  0.00000000000E+00 0.  1.
         22    1    3    3    0    0 -0.51942510170E+03  0.18082474236E+03  0.46331600210E+03  0.71913958418E+03  0.00000000000E+00 0.  1.
</event>
<event>
 7    1  0.5562528E-006  0.1193163E+03  0.7818608E-02  0.1255085E+00
          2   -1    0    0  502    0  0.00000000000E+00  0.00000000000E+00  0.10204682043E+04  0.10204682043E+04  0.00000000000E+00 0. -1.
          1   -1    0    0  501    0 -0.00000000000E+00 -0.00000000000E+00 -0.12407295019E+03  0.12407295019E+03  0.00000000000E+00 0. -1.
         25    2    1    2    0    0 -0.28255537543E+02  0.99696570932E+01  0.11697647619E+03  0.17380117271E+03  0.12500232873E+03 0.  0.
          2    1    1    2  501    0  0.12225888001E+03  0.63513279416E+02 -0.39382897802E+02  0.14329055462E+03  0.00000000000E+00 0. -1.
          1    1    1    2  502    0 -0.94003342464E+02 -0.73482936509E+02  0.81880167576E+03  0.82744942720E+03  0.00000000000E+00 0. -1.
         22    1    3    3    0    0 -0.18603937689E+02 -0.98627513248E+01  0.14020028096E+03  0.14177270239E+03  0.00000000000E+00 0.  1.
         22    1    3    3    0    0 -0.96515998538E+01  0.19832408418E+02 -0.23223804766E+02  0.32028470323E+02  0.00000000000E+00 0.  1.
</event>
<event>
 7    1  0.5562528E-006  0.4732207E+02  0.7818608E-02  0.1508316E+00
          2   -1    0    0  502    0  0.00000000000E+00  0.00000000000E+00  0.37419300983E+03  0.37419300983E+03  0.00000000000E+00 0. -1.
          1   -1    0    0  501    0 -0.00000000000E+00 -0.00000000000E+00 -0.11342435262E+04  0.11342435262E+04  0.00000000000E+00 0. -1.
         25    2    1    2    0    0  0.67321642738E+01  0.80750328438E+02 -0.78146281282E+03  0.79552793680E+03  0.12495852442E+03 0.  0.
          2    1    1    2  501    0 -0.20830423282E+01 -0.33722635206E+02 -0.34339503049E+03  0.34505318743E+03  0.00000000000E+00 0. -1.
          1    1    1    2  502    0 -0.46491219456E+01 -0.47027693233E+02  0.36480732690E+03  0.36785541185E+03  0.00000000000E+00 0. -1.
         22    1    3    3    0    0  0.29625714582E+02  0.94381897958E+02 -0.73761999357E+03  0.74422367642E+03  0.00000000000E+00 0. -1.
         22    1    3    3    0    0 -0.22893550308E+02 -0.13631569520E+02 -0.43842819256E+02  0.51304260385E+02  0.00000000000E+00 0. -1.
</event>
<event>
 7    1  0.5562528E-006  0.5044845E+02  0.7818608E-02  0.1526344E+00
          2   -1    0    0  502    0  0.00000000000E+00  0.00000000000E+00  0.12637049868E+02  0.12637049868E+02  0.00000000000E+00 0. -1.
          1   -1    0    0  501    0 -0.00000000000E+00 -0.00000000000E+00 -0.27678547378E+04  0.27678547378E+04  0.00000000000E+00 0. -1.
         25    2    1    2    0    0  0.28795111550E+01 -0.39659645329E+02 -0.10781510987E+04  0.10861029577E+04  0.12501465529E+03 0.  0.
          2    1    1    2  501    0  0.24469474670E+02  0.46031843675E+02 -0.16614293641E+04  0.16622470387E+04  0.00000000000E+00 0. -1.
          1    1    1    2  502    0 -0.27348985825E+02 -0.63721983456E+01 -0.15637225195E+02  0.32141791320E+02  0.00000000000E+00 0. -1.
         22    1    3    3    0    0 -0.13680173903E+02 -0.73688543069E+02 -0.93615446745E+03  0.93914979394E+03  0.00000000000E+00 0. -1.
         22    1    3    3    0    0  0.16559685058E+02  0.34028897740E+02 -0.14199663123E+03  0.14695316373E+03  0.00000000000E+00 0. -1.
</event>
<event>
 7    1  0.5562528E-006  0.7953516E+02  0.7818608E-02  0.1361780E+00
          2   -1    0    0  502    0  0.00000000000E+00  0.00000000000E+00  0.17502794101E+03  0.17502794101E+03  0.00000000000E+00 0. -1.
          1   -1    0    0  501    0 -0.00000000000E+00 -0.00000000000E+00 -0.41950672137E+03  0.41950672137E+03  0.00000000000E+00 0. -1.
         25    2    1    2    0    0  0.65609755476E+02 -0.67299267437E+02 -0.29066864141E+03  0.33007558305E+03  0.12501119956E+03 0.  0.
          2    1    1    2  501    0 -0.57220604378E+01  0.77450018300E+02 -0.87875811658E+02  0.11727491456E+03  0.00000000000E+00 0. -1.
          1    1    1    2  502    0 -0.59887695038E+02 -0.10150750863E+02  0.13406567271E+03  0.14718416477E+03  0.00000000000E+00 0. -1.
         22    1    3    3    0    0  0.10159094862E+03 -0.64440237279E+02 -0.22439531146E+03  0.25461052772E+03  0.00000000000E+00 0. -1.
         22    1    3    3    0    0 -0.35981193139E+02 -0.28590301581E+01 -0.66273329950E+02  0.75465055329E+02  0.00000000000E+00 0. -1.
</event>
<event>
 7    1  0.5562528E-006  0.8750759E+02  0.7818608E-02  0.1373238E+00
          2   -1    0    0  502    0  0.00000000000E+00  0.00000000000E+00  0.83561734045E+03  0.83561734045E+03  0.00000000000E+00 0. -1.
          1   -1    0    0  501    0 -0.00000000000E+00 -0.00000000000E+00 -0.10531846933E+03  0.10531846933E+03  0.00000000000E+00 0. -1.
         25    2    1    2    0    0 -0.11996041826E+03  0.48262267751E+02  0.42688674731E+03  0.46322521238E+03  0.12500221566E+03 0.  0.
          2    1    1    2  501    0  0.84735370684E+02 -0.12503491630E+02 -0.63976797548E+02  0.10690861038E+03  0.00000000000E+00 0. -1.
          1    1    1    2  502    0  0.35225047579E+02 -0.35758776121E+02  0.36738892136E+03  0.37080198703E+03  0.00000000000E+00 0. -1.
         22    1    3    3    0    0  0.24028487104E+02  0.21768049662E+02  0.97982746404E+02  0.10320772632E+03  0.00000000000E+00 0. -1.
         22    1    3    3    0    0 -0.14398890537E+03  0.26494218089E+02  0.32890400090E+03  0.36001748606E+03  0.00000000000E+00 0. -1.
</event>
<event>
 7    1  0.5562528E-006  0.5839653E+02  0.7818608E-02  0.1472424E+00
          2   -1    0    0  502    0  0.00000000000E+00  0.00000000000E+00  0.41257951257E+04  0.41257951257E+04  0.00000000000E+00 0. -1.
          1   -1    0    0  501    0 -0.00000000000E+00 -0.00000000000E+00 -0.81854065362E+02  0.81854065362E+02  0.00000000000E+00 0. -1.
         25    2    1    2    0    0  0.30435239773E+02 -0.57503098543E+02  0.19588446884E+03  0.24130339897E+03  0.12499478014E+03 0.  0.
          2    1    1    2  501    0  0.20372797807E+02  0.28648931398E+02 -0.53682782229E+02  0.64168943178E+02  0.00000000000E+00 0. -1.
          1    1    1    2  502    0 -0.50808037580E+02  0.28854167145E+02  0.39017393738E+04  0.39021768489E+04  0.00000000000E+00 0. -1.
         22    1    3    3    0    0  0.41010899782E+02 -0.74888719642E+02  0.61102661476E+02  0.10499404493E+03  0.00000000000E+00 0. -1.
         22    1    3    3    0    0 -0.10575660009E+02  0.17385621099E+02  0.13478180736E+03  0.13630935405E+03  0.00000000000E+00 0. -1.
</event>
<event>
 7    1  0.5562528E-006  0.1504168E+03  0.7818608E-02  0.1262862E+00
          2   -1    0    0  502    0  0.00000000000E+00  0.00000000000E+00  0.10709992024E+03  0.10709992024E+03  0.00000000000E+00 0. -1.
          1   -1    0    0  501    0 -0.00000000000E+00 -0.00000000000E+00 -0.75541829676E+03  0.75541829676E+03  0.00000000000E+00 0. -1.
         25    2    1    2    0    0  0.15815471732E+03  0.61106376310E+01 -0.10592261543E+03  0.22780565173E+03  0.12500223996E+03 0.  0.
          2    1    1    2  501    0 -0.21782188073E+02 -0.75579835939E+02 -0.44809458815E+03  0.45494563988E+03  0.00000000000E+00 0. -1.
          1    1    1    2  502    0 -0.13637252925E+03  0.69469198308E+02 -0.94301172934E+02  0.17976692539E+03  0.00000000000E+00 0. -1.
         22    1    3    3    0    0  0.11914995580E+03 -0.37043449659E+02 -0.23571787355E+02  0.12698251175E+03  0.00000000000E+00 0. -1.
         22    1    3    3    0    0  0.39004761519E+02  0.43154087290E+02 -0.82350828072E+02  0.10082313998E+03  0.00000000000E+00 0. -1.
</event>
<event>
 7    1  0.5562528E-006  0.3917887E+02  0.7818608E-02  0.1553233E+00
          2   -1    0    0  502    0  0.00000000000E+00  0.00000000000E+00  0.22594340329E+04  0.22594340329E+04  0.00000000000E+00 0. -1.
          1   -1    0    0  501    0 -0.00000000000E+00 -0.00000000000E+00 -0.72318206889E+03  0.72318206889E+03  0.00000000000E+00 0. -1.
         25    2    1    2    0    0 -0.63726904899E+02  0.26058583391E+02  0.27433108419E+03  0.30922436583E+03  0.12498798540E+03 0.  0.
          2    1    1    2  501    0  0.34212578741E+02 -0.18979851729E+02 -0.70507601425E+03  0.70616069077E+03  0.00000000000E+00 0. -1.
          1    1    1    2  502    0  0.29514326158E+02 -0.70787316618E+01  0.19669968941E+04  0.19672310452E+04  0.00000000000E+00 0. -1.
         22    1    3    3    0    0 -0.73446788152E+02 -0.14852658907E+02  0.24923257681E+03  0.26025354851E+03  0.00000000000E+00 0.  1.
         22    1    3    3    0    0  0.97198832527E+01  0.40911242298E+02  0.25098507380E+02  0.48970817326E+02  0.00000000000E+00 0.  1.
</event>
<event>
 7    1  0.5562528E-006  0.1543362E+03  0.7818608E-02  0.1276485E+00
          2   -1    0    0  502    0  0.00000000000E+00  0.00000000000E+00  0.18915392753E+04  0.18915392753E+04  0.00000000000E+00 0. -1.
          1   -1    0    0  501    0 -0.00000000000E+00 -0.00000000000E+00 -0.22395567096E+03  0.22395567096E+03  0.00000000000E+00 0. -1.
         25    2    1    2    0    0  0.17008329441E+03 -0.86985577582E+02  0.34608082425E+03  0.41459842585E+03  0.12500040022E+03 0.  0.
          2    1    1    2  501    0 -0.63925692699E+02 -0.20697567173E+02 -0.17982731575E+03  0.19197069298E+03  0.00000000000E+00 0. -1.
          1    1    1    2  502    0 -0.10615760171E+03  0.10768314475E+03  0.15013300958E+04  0.15089258275E+04  0.00000000000E+00 0. -1.
         22    1    3    3    0    0  0.98532961341E+02  0.17211964412E+02  0.12688257039E+03  0.16156788931E+03  0.00000000000E+00 0.  1.
         22    1    3    3    0    0  0.71550333068E+02 -0.10419754199E+03  0.21919825387E+03  0.25303053653E+03  0.00000000000E+00 0.  1.
</event>
<event>
 7    1  0.5562528E-006  0.2915302E+02  0.7818608E-02  0.1619391E+00
          2   -1    0    0  502    0  0.00000000000E+00  0.00000000000E+00  0.55519797109E+02  0.55519797109E+02  0.00000000000E+00 0. -1.
          1   -1    0    0  501    0 -0.00000000000E+00 -0.00000000000E+00 -0.56347606840E+03  0.56347606840E+03  0.00000000000E+00 0. -1.
         25    2    1    2    0    0 -0.11676634443E+02 -0.41506979976E+01 -0.28617300872E+03  0.31252782344E+03  0.12500030967E+03 0.  0.
          2    1    1    2  501    0  0.45946514484E+01  0.30409193019E+02 -0.25875187770E+03  0.26057314531E+03  0.00000000000E+00 0. -1.
          1    1    1    2  502    0  0.70819829949E+01 -0.26258495021E+02  0.36968615131E+02  0.45894896760E+02  0.00000000000E+00 0. -1.
         22    1    3    3    0    0  0.14557083683E+02 -0.21949750996E+02 -0.18069423447E+01  0.26400100280E+02  0.00000000000E+00 0. -1.
         22    1    3    3    0    0 -0.26233718126E+02  0.17799052998E+02 -0.28436606637E+03  0.28612772316E+03  0.00000000000E+00 0. -1.
</event>
<event>
 7    1  0.5562528E-006  0.5717578E+02  0.7818608E-02  0.1424906E+00
          2   -1    0    0  502    0  0.00000000000E+00  0.00000000000E+00  0.11862459978E+04  0.11862459978E+04  0.00000000000E+00 0. -1.
          1   -1    0    0  501    0 -0.00000000000E+00 -0.00000000000E+00 -0.76431179529E+02  0.76431179529E+02  0.00000000000E+00 0. -1.
         25    2    1    2    0    0 -0.48480023858E+02  0.17473567995E+02  0.12070061034E+03  0.18124250940E+03  0.12499828634E+03 0.  0.
          2    1    1    2  501    0  0.50344634904E+02  0.33485995593E+02 -0.25441311140E+02  0.65598433495E+02  0.00000000000E+00 0. -1.
          1    1    1    2  502    0 -0.18646110457E+01 -0.50959563588E+02  0.10145555191E+04  0.10158362344E+04  0.00000000000E+00 0. -1.
         22    1    3    3    0    0  0.92873116079E+01  0.53818268215E+02  0.92451733423E+02  0.10737775917E+03  0.00000000000E+00 0.  1.
         22    1    3    3    0    0 -0.57767335466E+02 -0.36344700220E+02  0.28248876913E+02  0.73864750238E+02  0.00000000000E+00 0.  1.
</event>
<event>
 7    1  0.5562528E-006  0.6882775E+02  0.7818608E-02  0.1469568E+00
          2   -1    0    0  502    0  0.00000000000E+00  0.00000000000E+00  0.24943854827E+04  0.24943854827E+04  0.00000000000E+00 0. -1.
          1   -1    0    0  501    0 -0.00000000000E+00 -0.00000000000E+00 -0.66336972291E+02  0.66336972291E+02  0.00000000000E+00 0. -1.
         25    2    1    2    0    0 -0.14893668384E+02  0.37330553439E+02  0.74339477329E+03  0.75490088243E+03  0.12499664700E+03 0.  0.
          2    1    1    2  501    0  0.15946296772E+02 -0.67754069150E+02 -0.40412706236E+02  0.80486552246E+02  0.00000000000E+00 0. -1.
          1    1    1    2  502    0 -0.10526283873E+01  0.30423515711E+02  0.17250664433E+04  0.17253350203E+04  0.00000000000E+00 0. -1.
         22    1    3    3    0    0 -0.53572000033E+02 -0.15382459932E+02  0.20116956638E+03  0.20874811064E+03  0.00000000000E+00 0. -1.
         22    1    3    3    0    0  0.38678331649E+02  0.52713013371E+02  0.54222520692E+03  0.54615277179E+03  0.00000000000E+00 0. -1.
</event>
<event>
 7    1  0.5562528E-006  0.5171348E+02  0.7818608E-02  0.1549004E+00
          2   -1    0    0  502    0  0.00000000000E+00  0.00000000000E+00  0.32536114569E+03  0.32536114569E+03  0.00000000000E+00 0. -1.
          1   -1    0    0  501    0 -0.00000000000E+00 -0.00000000000E+00 -0.13215854432E+04  0.13215854432E+04  0.00000000000E+00 0. -1.
         25    2    1    2    0    0 -0.41382097902E+02  0.52335141092E+02 -0.27824600190E+03  0.31224595710E+03  0.12500102053E+03 0.  0.
          2    1    1    2  501    0 -0.14949441775E+01 -0.23579474834E+02 -0.10240413637E+04  0.10243138880E+04  0.00000000000E+00 0. -1.
          1    1    1    2  502    0  0.42877042079E+02 -0.28755666258E+02  0.30606306811E+03  0.31038674382E+03  0.00000000000E+00 0. -1.
         22    1    3    3    0    0  0.28373187786E+02  0.33271998806E+02 -0.28387702812E+02  0.52133725751E+02  0.00000000000E+00 0.  1.
         22    1    3    3    0    0 -0.69755285688E+02  0.19063142285E+02 -0.24985829909E+03  0.26011223135E+03  0.00000000000E+00 0.  1.
</event>
<event>
 7    1  0.5562528E-006  0.6070241E+02  0.7818608E-02  0.1400809E+00
          2   -1    0    0  502    0  0.00000000000E+00  0.00000000000E+00  0.23308011772E+03  0.23308011772E+03  0.00000000000E+00 0. -1.
          1   -1    0    0  501    0 -0.00000000000E+00 -0.00000000000E+00 -0.15543661069E+04  0.15543661069E+04  0.00000000000E+00 0. -1.
         25    2    1    2    0    0  0.65540142520E+02  0.14450945599E+02  0.30621473303E+02  0.14514749178E+03  0.12500311849E+03 0.  0.
          2    1    1    2  501    0 -0.17708973575E+02 -0.55148958005E+02 -0.14897227629E+04  0.14908483912E+04  0.00000000000E+00 0. -1.
          1    1    1    2  502    0 -0.47831168946E+02  0.40698012406E+02  0.13781530043E+03  0.15145034160E+03  0.00000000000E+00 0. -1.
         22    1    3    3    0    0  0.99872813949E+02  0.29806572336E+02  0.24105097673E+02  0.10697694356E+03  0.00000000000E+00 0. -1.
         22    1    3    3    0    0 -0.34332671428E+02 -0.15355626738E+02  0.65163756302E+01  0.38170548218E+02  0.00000000000E+00 0. -1.
</event>
<event>
 7    1  0.5562528E-006  0.2817332E+02  0.7818608E-02  0.1620005E+00
          2   -1    0    0  502    0  0.00000000000E+00  0.00000000000E+00  0.16970582765E+02  0.16970582765E+02  0.00000000000E+00 0. -1.
          1   -1    0    0  501    0 -0.00000000000E+00 -0.00000000000E+00 -0.11592168288E+04  0.11592168288E+04  0.00000000000E+00 0. -1.
         25    2    1    2    0    0  0.82809179595E+01 -0.36187034077E+01 -0.32818037956E+03  0.35129601597E+03  0.12499944278E+03 0.  0.
          2    1    1    2  501    0 -0.17429774919E+02 -0.22888205612E+02 -0.78102764268E+03  0.78155732077E+03  0.00000000000E+00 0. -1.
          1    1    1    2  502    0  0.91488569599E+01  0.26506909020E+02 -0.33038223799E+02  0.43334074829E+02  0.00000000000E+00 0. -1.
         22    1    3    3    0    0 -0.55351651757E+02  0.10161593860E+01 -0.99300256110E+02  0.11368983594E+03  0.00000000000E+00 0. -1.
         22    1    3    3    0    0  0.63632569717E+02 -0.46348627937E+01 -0.22888012345E+03  0.23760618004E+03  0.00000000000E+00 0. -1.
</event>
<event>
 7    1  0.5562528E-006  0.1497305E+03  0.7818608E-02  0.1255345E+00
          2   -1    0    0  502    0  0.00000000000E+00  0.00000000000E+00  0.39345086291E+03  0.39345086291E+03  0.00000000000E+00 0. -1.
          1   -1    0    0  501    0 -0.00000000000E+00 -0.00000000000E+00 -0.20325523724E+03  0.20325523724E+03  0.00000000000E+00 0. -1.
         25    2    1    2    0    0 -0.35646567038E+02 -0.98404917698E+02  0.80098946182E+02  0.18164494416E+03  0.12499935595E+03 0.  0.
          2    1    1    2  501    0 -0.69792102518E+02 -0.48666690070E+02 -0.10423474816E+03  0.13455209780E+03  0.00000000000E+00 0. -1.
          1    1    1    2  502    0  0.10543866956E+03  0.14707160777E+03  0.21433142766E+03  0.28050905820E+03  0.00000000000E+00 0. -1.
         22    1    3    3    0    0 -0.11942251552E+02  0.22326036431E+02  0.48350472783E+02  0.54578727478E+02  0.00000000000E+00 0. -1.
         22    1    3    3    0    0 -0.23704315486E+02 -0.12073095413E+03  0.31748473399E+02  0.12706621668E+03  0.00000000000E+00 0. -1.
</event>
<event>
 7    1  0.5562528E-006  0.5408750E+02  0.7818608E-02  0.1468491E+00
          2   -1    0    0  502    0  0.00000000000E+00  0.00000000000E+00  0.88536075176E+03  0.88536075176E+03  0.00000000000E+00 0. -1.
          1   -1    0    0  501    0 -0.00000000000E+00 -0.00000000000E+00 -0.10229307214E+04  0.10229307214E+04  0.00000000000E+00 0. -1.
         25    2    1    2    0    0  0.15842378559E+02  0.86245340300E+02  0.29740021718E+03  0.33430663773E+03  0.12499919667E+03 0.  0.
          2    1    1    2  501    0 -0.18710944082E+02 -0.34262316116E+02 -0.10029071358E+04  0.10036666423E+04  0.00000000000E+00 0. -1.
          1    1    1    2  502    0  0.28685655226E+01 -0.51983024185E+02  0.56793694897E+03  0.57031819319E+03  0.00000000000E+00 0. -1.
         22    1    3    3    0    0 -0.75194761714E+01  0.45247287343E+01 -0.11192651680E+02  0.14222909113E+02  0.00000000000E+00 0. -1.
         22    1    3    3    0    0  0.23361854731E+02  0.81720611566E+02  0.30859286886E+03  0.32008372861E+03  0.00000000000E+00 0. -1.
</event>
<event>
 7    1  0.6606355E-006  0.7532936E+02  0.7818608E-02  0.1385947E+00
          2   -1    0    0  502    0  0.00000000000E+00  0.00000000000E+00  0.13768376500E+04  0.13768376500E+04  0.00000000000E+00 0. -1.
          1   -1    0    0  501    0 -0.00000000000E+00 -0.00000000000E+00 -0.84781210242E+03  0.84781210242E+03  0.00000000000E+00 0. -1.
         25    2    1    2    0    0  0.21425876812E+02  0.32513231071E+02 -0.70290175319E+02  0.14860216327E+03  0.12500286312E+03 0.  0.
          2    1    1    2  501    0 -0.30656582649E+02  0.42699512093E+02 -0.73635512570E+03  0.73822892488E+03  0.00000000000E+00 0. -1.
          1    1    1    2  502    0  0.92307058363E+01 -0.75212743164E+02  0.13356708486E+04  0.13378186642E+04  0.00000000000E+00 0. -1.
         22    1    3    3    0    0 -0.49229403142E+02  0.12559704360E+02 -0.62709803408E+01  0.51191849955E+02  0.00000000000E+00 0.  1.
         22    1    3    3    0    0  0.70655279955E+02  0.19953526711E+02 -0.64019194979E+02  0.97410313311E+02  0.00000000000E+00 0.  1.
</event>
<event>
 7    1  0.5562528E-006  0.9463547E+02  0.7818608E-02  0.1403938E+00
          2   -1    0    0  502    0  0.00000000000E+00  0.00000000000E+00  0.89138280268E+03  0.89138280268E+03  0.00000000000E+00 0. -1.
          1   -1    0    0  501    0 -0.00000000000E+00 -0.00000000000E+00 -0.19713122850E+03  0.19713122850E+03  0.00000000000E+00 0. -1.
         25    2    1    2    0    0  0.29749158999E+02 -0.10829841042E+03 -0.33304222898E+01  0.16807404497E+03  0.12499693884E+03 0.  0.
          2    1    1    2  501    0  0.21470056483E+02  0.29204613080E+02 -0.10565236412E+03  0.11169733566E+03  0.00000000000E+00 0. -1.
          1    1    1    2  502    0 -0.51219215482E+02  0.79093797337E+02  0.80323436058E+03  0.80874265055E+03  0.00000000000E+00 0. -1.
         22    1    3    3    0    0 -0.47024594305E+02 -0.63728793545E+02 -0.39528684395E+01  0.79298781612E+02  0.00000000000E+00 0. -1.
         22    1    3    3    0    0  0.76773753305E+02 -0.44569616872E+02  0.62244614972E+00  0.88775263355E+02  0.00000000000E+00 0. -1.
</event>
<event>
 7    1  0.5562528E-006  0.1596008E+03  0.7818608E-02  0.1268307E+00
          2   -1    0    0  502    0  0.00000000000E+00  0.00000000000E+00  0.24198770292E+04  0.24198770292E+04  0.00000000000E+00 0. -1.
          1   -1    0    0  501    0 -0.00000000000E+00 -0.00000000000E+00 -0.12041109054E+04  0.12041109054E+04  0.00000000000E+00 0. -1.
         25    2    1    2    0    0  0.48690469882E+02  0.13239165256E+03  0.56752652036E+03  0.59800469479E+03  0.12499980861E+03 0.  0.
          2    1    1    2  501    0  0.68894360128E+02 -0.13995880339E+02 -0.11840379877E+04  0.11861232119E+04  0.00000000000E+00 0. -1.
          1    1    1    2  502    0 -0.11758483001E+03 -0.11839577222E+03  0.18322775912E+04  0.18398600279E+04  0.00000000000E+00 0. -1.
         22    1    3    3    0    0 -0.23557149964E+02  0.10631090593E+03  0.38172767287E+03  0.39695461235E+03  0.00000000000E+00 0. -1.
         22    1    3    3    0    0  0.72247619846E+02  0.26080746629E+02  0.18579884749E+03  0.20105008244E+03  0.00000000000E+00 0. -1.
</event>
<event>
 7    1  0.5562528E-006  0.8418423E+02  0.7818608E-02  0.1494290E+00
          2   -1    0    0  502    0  0.00000000000E+00  0.00000000000E+00  0.15335054341E+03  0.15335054341E+03  0.00000000000E+00 0. -1.
          1   -1    0    0  501    0 -0.00000000000E+00 -0.00000000000E+00 -0.14763863126E+04  0.14763863126E+04  0.00000000000E+00 0. -1.
         25    2    1    2    0    0 -0.70341774080E+02  0.32370249081E+02 -0.29704760558E+03  0.33144920090E+03  0.12500197837E+03 0.  0.
          2    1    1    2  501    0 -0.12730968004E+02 -0.16588188739E+02 -0.11489043836E+04  0.11490946559E+04  0.00000000000E+00 0. -1.
          1    1    1    2  502    0  0.83072742083E+02 -0.15782060343E+02  0.12291621993E+03  0.14919299926E+03  0.00000000000E+00 0. -1.
         22    1    3    3    0    0  0.31861945552E+02  0.31515395889E+02 -0.88089247184E+02  0.98833795950E+02  0.00000000000E+00 0. -1.
         22    1    3    3    0    0 -0.10220371963E+03  0.85485319283E+00 -0.20895835839E+03  0.23261540495E+03  0.00000000000E+00 0. -1.
</event>
<event>
 7    1  0.5562528E-006  0.1795642E+03  0.7818608E-02  0.1222368E+00
          2   -1    0    0  502    0  0.00000000000E+00  0.00000000000E+00  0.42491461807E+02  0.42491461807E+02  0.00000000000E+00 0. -1.
          1   -1    0    0  501    0 -0.00000000000E+00 -0.00000000000E+00 -0.29727796169E+04  0.29727796169E+04  0.00000000000E+00 0. -1.
         25    2    1    2    0    0  0.19181497068E+02 -0.44909743894E+02 -0.12008377292E+04  0.12083137254E+04  0.12500396800E+03 0.  0.
          2    1    1    2  501    0 -0.18374035954E+03  0.11676856991E+03 -0.14994098060E+04  0.15151320685E+04  0.00000000000E+00 0. -1.
          1    1    1    2  502    0  0.16455886247E+03 -0.71858826020E+02 -0.23004061984E+03  0.29182528484E+03  0.00000000000E+00 0. -1.
         22    1    3    3    0    0  0.94959258855E+01  0.40473695825E+02 -0.23395160979E+03  0.23761659956E+03  0.00000000000E+00 0.  1.
         22    1    3    3    0    0  0.96855711825E+01 -0.85383439719E+02 -0.96688611946E+03  0.97069712581E+03  0.00000000000E+00 0.  1.
</event>
<event>
 7    1  0.5562528E-006  0.4264594E+02  0.7818608E-02  0.1515487E+00
          2   -1    0    0  502    0  0.00000000000E+00  0.00000000000E+00  0.21733130323E+04  0.21733130323E+04  0.00000000000E+00 0. -1.
          1   -1    0    0  501    0 -0.00000000000E+00 -0.00000000000E+00 -0.13901633341E+02  0.13901633341E+02  0.00000000000E+00 0. -1.
         25    2    1    2    0    0 -0.14014762684E+02  0.45247534992E+02  0.10190529922E+04  0.10277790313E+04  0.12496792869E+03 0.  0.
          2    1    1    2  501    0  0.34991520717E+02 -0.71644631085E+01  0.25876305289E+02  0.44105773195E+02  0.00000000000E+00 0. -1.
          1    1    1    2  502    0 -0.20976758033E+02 -0.38083071883E+02  0.11144821015E+04  0.11153298612E+04  0.00000000000E+00 0. -1.
         22    1    3    3    0    0  0.32618093954E+02  0.31175635272E+02  0.86572111481E+03  0.86689613502E+03  0.00000000000E+00 0. -1.
         22    1    3    3    0    0 -0.46632856637E+02  0.14071899719E+02  0.15333187738E+03  0.16088289624E+03  0.00000000000E+00 0. -1.
</event>
<event>
 7    1  0.5562528E-006  0.5534952E+02  0.7818608E-02  0.1562614E+00
          2   -1    0    0  502    0  0.00000000000E+00  0.00000000000E+00  0.15831445200E+04  0.15831445200E+04  0.00000000000E+00 0. -1.
          1   -1    0    0  501    0 -0.00000000000E+00 -0.00000000000E+00 -0.77578328721E+02  0.77578328721E+02  0.00000000000E+00 0. -1.
         25    2    1    2    0    0  0.73330891742E+02  0.13893926818E+02  0.37758716132E+03  0.40468357933E+03  0.12500509630E+03 0.  0.
          2    1    1    2  501    0 -0.19572174349E+02 -0.51584234804E+01 -0.61791879203E+02  0.65022424417E+02  0.00000000000E+00 0. -1.
          1    1    1    2  502    0 -0.53758717393E+02 -0.87355033373E+01  0.11897709092E+04  0.11910168450E+04  0.00000000000E+00 0. -1.
         22    1    3    3    0    0  0.10188443532E+03  0.54516996041E+01  0.19900529280E+03  0.22363645891E+03  0.00000000000E+00 0. -1.
         22    1    3    3    0    0 -0.28553543578E+02  0.84422272135E+01  0.17858186852E+03  0.18104712043E+03  0.00000000000E+00 0. -1.
</event>
<event>
 7    1  0.5562528E-006  0.1832312E+03  0.7818608E-02  0.1271356E+00
          2   -1    0    0  502    0  0.00000000000E+00  0.00000000000E+00  0.65686503478E+03  0.65686503478E+03  0.00000000000E+00 0. -1.
          1   -1    0    0  501    0 -0.00000000000E+00 -0.00000000000E+00 -0.12046026221E+04  0.12046026221E+04  0.00000000000E+00 0. -1.
         25    2    1    2    0    0 -0.85176347152E+02  0.18923505091E+03  0.45425695058E+02  0.24648257251E+03  0.12500100068E+03 0.  0.
          2    1    1    2  501    0  0.58466074958E+02 -0.10802592943E+02 -0.10873084394E+04  0.10889327896E+04  0.00000000000E+00 0. -1.
          1    1    1    2  502    0  0.26710272194E+02 -0.17843245796E+03  0.49414515698E+03  0.52605229480E+03  0.00000000000E+00 0. -1.
         22    1    3    3    0    0 -0.45970969043E+02  0.15701521415E+03 -0.18738942750E+02  0.16467621396E+03  0.00000000000E+00 0. -1.
         22    1    3    3    0    0 -0.39205378109E+02  0.32219836758E+02  0.64164637807E+02  0.81806358545E+02  0.00000000000E+00 0. -1.
</event>
<event>
 7    1  0.7894508E-006  0.1540034E+03  0.7818608E-02  0.1201591E+00
          2   -1    0    0  502    0  0.00000000000E+00  0.00000000000E+00  0.17404536189E+04  0.17404536189E+04  0.00000000000E+00 0. -1.
          1   -1    0    0  501    0 -0.00000000000E+00 -0.00000000000E+00 -0.11616665101E+04  0.11616665101E+04  0.00000000000E+00 0. -1.
         25    2    1    2    0    0 -0.86283499283E+02 -0.13881145429E+03 -0.29767931481E+03  0.36187278191E+03  0.12500189489E+03 0.  0.
          2    1    1    2  501    0  0.14427083173E+03 -0.45136792680E+01 -0.82209163641E+03  0.83466706227E+03  0.00000000000E+00 0. -1.
          1    1    1    2  502    0 -0.57987332445E+02  0.14332513356E+03  0.16985580600E+04  0.17055802848E+04  0.00000000000E+00 0. -1.
         22    1    3    3    0    0 -0.26383416667E+02 -0.65107469152E+02 -0.27421323818E+02  0.75412175505E+02  0.00000000000E+00 0. -1.
         22    1    3    3    0    0 -0.59900082617E+02 -0.73703985142E+02 -0.27025799100E+03  0.28646060640E+03  0.00000000000E+00 0. -1.
</event>
<event>
 7    1  0.5562528E-006  0.6053171E+02  0.7818608E-02  0.1467864E+00
          2   -1    0    0  502    0  0.00000000000E+00  0.00000000000E+00  0.29338159878E+03  0.29338159878E+03  0.00000000000E+00 0. -1.
          1   -1    0    0  501    0 -0.00000000000E+00 -0.00000000000E+00 -0.65916145391E+03  0.65916145391E+03  0.00000000000E+00 0. -1.
         25    2    1    2    0    0 -0.65539304233E+02  0.31820964552E+02  0.96077171262E+02  0.17367918793E+03  0.12500265316E+03 0.  0.
          2    1    1    2  501    0  0.57648917407E+01 -0.34562379123E+02 -0.61419590023E+03  0.61519460001E+03  0.00000000000E+00 0. -1.
          1    1    1    2  502    0  0.59774412492E+02  0.27414145718E+01  0.15233887383E+03  0.16366926475E+03  0.00000000000E+00 0. -1.
         22    1    3    3    0    0 -0.93018997406E+02 -0.11087583842E+02  0.59963245437E+02  0.11122526330E+03  0.00000000000E+00 0. -1.
         22    1    3    3    0    0  0.27479693173E+02  0.42908548394E+02  0.36113925824E+02  0.62453924621E+02  0.00000000000E+00 0. -1.
</event>
<event>
 7    1  0.5562528E-006  0.8338957E+02  0.7818608E-02  0.1348439E+00
          2   -1    0    0  502    0  0.00000000000E+00  0.00000000000E+00  0.10860619054E+04  0.10860619054E+04  0.00000000000E+00 0. -1.
          1   -1    0    0  501    0 -0.00000000000E+00 -0.00000000000E+00 -0.28548460572E+04  0.28548460572E+04  0.00000000000E+00 0. -1.
         25    2    1    2    0    0  0.10845477123E+03  0.96524310586E+02 -0.16758406895E+03  0.25453589087E+03  0.12499887855E+03 0.  0.
          2    1    1    2  501    0 -0.38265325837E+02 -0.52371233893E+02 -0.26417385838E+04  0.26425347163E+04  0.00000000000E+00 0. -1.
          1    1    1    2  502    0 -0.70189445398E+02 -0.44153076693E+02  0.10405385010E+04  0.10438373554E+04  0.00000000000E+00 0. -1.
         22    1    3    3    0    0  0.27227505938E+02  0.10548446246E+03 -0.10798106927E+03  0.15338911376E+03  0.00000000000E+00 0. -1.
         22    1    3    3    0    0  0.81227265297E+02 -0.89601518734E+01 -0.59602999679E+02  0.10114677711E+03  0.00000000000E+00 0. -1.
</event>
<event>
 7    1  0.5562528E-006  0.5581658E+02  0.7818608E-02  0.1427307E+00
          2   -1    0    0  502    0  0.00000000000E+00  0.00000000000E+00  0.46240134349E+02  0.46240134349E+02  0.00000000000E+00 0. -1.
          1   -1    0    0  501    0 -0.00000000000E+00 -0.00000000000E+00 -0.58661795396E+03  0.58661795396E+03  0.00000000000E+00 0. -1.
         25    2    1    2    0    0 -0.25872457677E+02 -0.30700216000E+02 -0.16691786717E+03  0.21235338103E+03  0.12498198561E+03 0.  0.
          2    1    1    2  501    0 -0.37173528244E+02  0.35335420102E+02 -0.34895702714E+03  0.35270592553E+03  0.00000000000E+00 0. -1.
          1    1    1    2  502    0  0.63045985921E+02 -0.46352041011E+01 -0.24502925301E+02  0.67798781745E+02  0.00000000000E+00 0. -1.
         22    1    3    3    0    0 -0.25734822240E+02  0.17854467656E+02  0.67368885796E+01  0.32038239008E+02  0.00000000000E+00 0.  1.
         22    1    3    3    0    0 -0.13763543693E+00 -0.48554683656E+02 -0.17365475575E+03  0.18031514202E+03  0.00000000000E+00 0.  1.
</event>
<event>
 7    1  0.5562528E-006  0.8270826E+02  0.7818608E-02  0.1376866E+00
          2   -1    0    0  502    0  0.00000000000E+00  0.00000000000E+00  0.11945595669E+04  0.11945595669E+04  0.00000000000E+00 0. -1.
          1   -1    0    0  501    0 -0.00000000000E+00 -0.00000000000E+00 -0.69736908641E+03  0.69736908641E+03  0.00000000000E+00 0. -1.
         25    2    1    2    0    0 -0.10216388034E+03  0.47222199259E+02  0.23562984686E+03  0.28950490908E+03  0.12499709237E+03 0.  0.
          2    1    1    2  501    0  0.82519903204E+02  0.43556173534E+00 -0.66717482951E+03  0.67225886180E+03  0.00000000000E+00 0. -1.
          1    1    1    2  502    0  0.19643977132E+02 -0.47657760994E+02  0.92873546311E+03  0.93016488241E+03  0.00000000000E+00 0. -1.
         22    1    3    3    0    0 -0.72290999597E+02 -0.31884252259E+02  0.80316421151E+02  0.11266464251E+03  0.00000000000E+00 0. -1.
         22    1    3    3    0    0 -0.29872880740E+02  0.79106451518E+02  0.15531342571E+03  0.17684026657E+03  0.00000000000E+00 0. -1.
</event>
<event>
 7    1  0.5562528E-006  0.7731848E+02  0.7818608E-02  0.1365877E+00
          2   -1    0    0  502    0  0.00000000000E+00  0.00000000000E+00  0.23452858851E+04  0.23452858851E+04  0.00000000000E+00 0. -1.
          1   -1    0    0  501    0 -0.00000000000E+00 -0.00000000000E+00 -0.20847714566E+02  0.20847714566E+02  0.00000000000E+00 0. -1.
         25    2    1    2    0    0 -0.43929825770E+02 -0.18998032303E+02  0.66974144731E+03  0.68298540888E+03  0.12499883068E+03 0.  0.
          2    1    1    2  501    0  0.12082776726E+02 -0.59159688349E+02  0.56399476008E+02  0.82624228365E+02  0.00000000000E+00 0. -1.
          1    1    1    2  502    0  0.31847049044E+02  0.78157720652E+02  0.15982972472E+04  0.16005239624E+04  0.00000000000E+00 0. -1.
         22    1    3    3    0    0  0.11051035172E+02  0.38369515439E+02  0.39415120988E+03  0.39616855168E+03  0.00000000000E+00 0. -1.
         22    1    3    3    0    0 -0.54980860942E+02 -0.57367547743E+02  0.27559023743E+03  0.28681685720E+03  0.00000000000E+00 0. -1.
</event>
<event>
 7    1  0.5562528E-006  0.9164836E+02  0.7818608E-02  0.1344006E+00
          2   -1    0    0  502    0  0.00000000000E+00  0.00000000000E+00  0.34751517934E+03  0.34751517934E+03  0.00000000000E+00 0. -1.
          1   -1    0    0  501    0 -0.00000000000E+00 -0.00000000000E+00 -0.19800246135E+03  0.19800246135E+03  0.00000000000E+00 0. -1.
         25    2    1    2    0    0 -0.55501354371E+02 -0.11407075804E+03  0.87870089271E+02  0.19858555833E+03  0.12499013245E+03 0.  0.
          2    1    1    2  501    0 -0.12938379527E+02  0.59923804435E+02 -0.12592589866E+03  0.14005568877E+03  0.00000000000E+00 0. -1.
          1    1    1    2  502    0  0.68439733899E+02  0.54146953609E+02  0.18756852739E+03  0.20687639360E+03  0.00000000000E+00 0. -1.
         22    1    3    3    0    0 -0.94510704245E+02 -0.62724764920E+02  0.51800833317E+02  0.12469962183E+03  0.00000000000E+00 0.  1.
         22    1    3    3    0    0  0.39009349873E+02 -0.51345993124E+02  0.36069255954E+02  0.73885936500E+02  0.00000000000E+00 0.  1.
</event>
<event>
 7    1  0.5562528E-006  0.1040494E+03  0.7818608E-02  0.1279520E+00
          2   -1    0    0  502    0  0.00000000000E+00  0.00000000000E+00  0.35483336973E+04  0.35483336973E+04  0.00000000000E+00 0. -1.
          1   -1    0    0  501    0 -0.00000000000E+00 -0.00000000000E+00 -0.44148119653E+03  0.44148119653E+03  0.00000000000E+00 0. -1.
         25    2    1    2    0    0 -0.54447296467E+02  0.10915538530E+03  0.39984607557E+02  0.17916568404E+03  0.12498866854E+03 0.  0.
          2    1    1    2  501    0 -0.41613491181E+02 -0.97046616112E+02 -0.36369855810E+03  0.37871674046E+03  0.00000000000E+00 0. -1.
          1    1    1    2  502    0  0.96060787648E+02 -0.12108769189E+02  0.34305664513E+04  0.34319324693E+04  0.00000000000E+00 0. -1.
         22    1    3    3    0    0 -0.13608227628E+02  0.88690445133E+02 -0.30846341954E+02  0.94882431087E+02  0.00000000000E+00 0.  1.
         22    1    3    3    0    0 -0.40839068840E+02  0.20464940168E+02  0.70830949511E+02  0.84283252953E+02  0.00000000000E+00 0.  1.
</event>
<event>
 7    1  0.5562528E-006  0.1949958E+03  0.7818608E-02  0.1192259E+00
          2   -1    0    0  502    0  0.00000000000E+00  0.00000000000E+00  0.25729372743E+04  0.25729372743E+04  0.00000000000E+00 0. -1.
          1   -1    0    0  501    0 -0.00000000000E+00 -0.00000000000E+00 -0.58914359985E+03  0.58914359985E+03  0.00000000000E+00 0. -1.
         25    2    1    2    0    0 -0.90131218132E+02 -0.16255791755E+03  0.46850921088E+03  0.51930194973E+03  0.12499968507E+03 0.  0.
          2    1    1    2  501    0 -0.32103085507E+02  0.19403700577E+03 -0.54460293283E+03  0.57902791138E+03  0.00000000000E+00 0. -1.
          1    1    1    2  502    0  0.12223430364E+03 -0.31479088213E+02  0.20598873964E+04  0.20637510131E+04  0.00000000000E+00 0. -1.
         22    1    3    3    0    0  0.13187360555E+02 -0.10076066377E+03  0.18042767987E+03  0.20707671406E+03  0.00000000000E+00 0. -1.
         22    1    3    3    0    0 -0.10331857869E+03 -0.61797253780E+02  0.28808153101E+03  0.31222523567E+03  0.00000000000E+00 0. -1.
</event>
<event>
 7    1  0.5562528E-006  0.4197870E+02  0.7818608E-02  0.1516507E+00
          2   -1    0    0  502    0  0.00000000000E+00  0.00000000000E+00  0.31396180114E+03  0.31396180114E+03  0.00000000000E+00 0. -1.
          1   -1    0    0  501    0 -0.00000000000E+00 -0.00000000000E+00 -0.12842167100E+03  0.12842167100E+03  0.00000000000E+00 0. -1.
         25    2    1    2    0    0 -0.77056593659E+01 -0.11265222145E+02  0.16361343337E+03  0.20635257460E+03  0.12500298817E+03 0.  0.
          2    1    1    2  501    0 -0.27125216842E+01 -0.35934871470E+02 -0.99239056787E+02  0.10557965312E+03  0.00000000000E+00 0. -1.
          1    1    1    2  502    0  0.10418181050E+02  0.47200093616E+02  0.12116575356E+03  0.13045124441E+03  0.00000000000E+00 0. -1.
         22    1    3    3    0    0  0.17864967594E+02 -0.36444074337E+02  0.16551219870E+03  0.17041600729E+03  0.00000000000E+00 0.  1.
         22    1    3    3    0    0 -0.25570626960E+02  0.25178852192E+02 -0.18987653311E+01  0.35936567318E+02  0.00000000000E+00 0.  1.
</event>
<event>
 7    1  0.5562528E-006  0.1915875E+03  0.7818608E-02  0.1347366E+00
          2   -1    0    0  502    0  0.00000000000E+00  0.00000000000E+00  0.14183669680E+04  0.14183669680E+04  0.00000000000E+00 0. -1.
          1   -1    0    0  501    0 -0.00000000000E+00 -0.00000000000E+00 -0.27496905218E+03  0.27496905218E+03  0.00000000000E+00 0. -1.
         25    2    1    2    0    0 -0.10250504210E+03  0.14021062793E+03 -0.49678613278E+01  0.21406095727E+03  0.12502443738E+03 0.  0.
          2    1    1    2  501    0  0.11902821677E+03 -0.16342185814E+03 -0.10347121716E+03  0.22711387647E+03  0.00000000000E+00 0. -1.
          1    1    1    2  502    0 -0.16523174671E+02  0.23211230216E+02  0.12518369943E+04  0.12521611865E+04  0.00000000000E+00 0. -1.
         22    1    3    3    0    0 -0.96374741086E+02  0.45156714110E+02  0.33139588506E+02  0.11146951097E+03  0.00000000000E+00 0.  1.
         22    1    3    3    0    0 -0.61303010132E+01  0.95053913816E+02 -0.38107449833E+02  0.10259144631E+03  0.00000000000E+00 0.  1.
</event>
<event>
 7    1  0.5562528E-006  0.5490726E+02  0.7818608E-02  0.1431133E+00
          2   -1    0    0  502    0  0.00000000000E+00  0.00000000000E+00  0.58729612143E+03  0.58729612143E+03  0.00000000000E+00 0. -1.
          1   -1    0    0  501    0 -0.00000000000E+00 -0.00000000000E+00 -0.75558018609E+03  0.75558018609E+03  0.00000000000E+00 0. -1.
         25    2    1    2    0    0 -0.46551802336E+02  0.91156746891E+02  0.19871810651E+03  0.25610667869E+03  0.12500048883E+03 0.  0.
          2    1    1    2  501    0  0.20883755406E+02 -0.46139104774E+02 -0.72413136936E+03  0.72590026059E+03  0.00000000000E+00 0. -1.
          1    1    1    2  502    0  0.25668046930E+02 -0.45017642118E+02  0.35712919819E+03  0.36086936825E+03  0.00000000000E+00 0. -1.
         22    1    3    3    0    0 -0.71810956686E+02  0.10654918061E+03  0.17980908374E+03  0.22099965608E+03  0.00000000000E+00 0. -1.
         22    1    3    3    0    0  0.25259154349E+02 -0.15392433723E+02  0.18909022771E+02  0.35107022610E+02  0.00000000000E+00 0. -1.
</event>
<event>
 7    1  0.5656893E-006  0.1128437E+03  0.7818608E-02  0.1423173E+00
          2   -1    0    0  502    0  0.00000000000E+00  0.00000000000E+00  0.17500047210E+04  0.17500047210E+04  0.00000000000E+00 0. -1.
          1   -1    0    0  501    0 -0.00000000000E+00 -0.00000000000E+00 -0.78124205323E+03  0.78124205323E+03  0.00000000000E+00 0. -1.
         25    2    1    2    0    0 -0.53160523469E+02 -0.12117525924E+03 -0.36995423576E+03  0.41231060041E+03  0.12499763978E+03 0.  0.
          2    1    1    2  501    0 -0.63508029775E+01  0.25400183611E+02 -0.38782918668E+03  0.38871194999E+03  0.00000000000E+00 0. -1.
          1    1    1    2  502    0  0.59511326447E+02  0.95775075626E+02  0.17265460902E+04  0.17302242238E+04  0.00000000000E+00 0. -1.
         22    1    3    3    0    0 -0.86314909626E+02 -0.48604120942E+02 -0.16605357607E+03  0.19335566793E+03  0.00000000000E+00 0. -1.
         22    1    3    3    0    0  0.33154386157E+02 -0.72571138295E+02 -0.20390065970E+03  0.21895493249E+03  0.00000000000E+00 0. -1.
</event>
<event>
 7    1  0.5562528E-006  0.4284232E+02  0.7818608E-02  0.1537030E+00
          2   -1    0    0  502    0  0.00000000000E+00  0.00000000000E+00  0.46866167109E+03  0.46866167109E+03  0.00000000000E+00 0. -1.
          1   -1    0    0  501    0 -0.00000000000E+00 -0.00000000000E+00 -0.51681355030E+03  0.51681355030E+03  0.00000000000E+00 0. -1.
         25    2    1    2    0    0 -0.13204823695E+02  0.45571807554E+01  0.10436325428E+03  0.16343732145E+03  0.12499973573E+03 0.  0.
          2    1    1    2  501    0 -0.24454967366E+02  0.18759053557E+02 -0.48532037296E+03  0.48629806902E+03  0.00000000000E+00 0. -1.
          1    1    1    2  502    0  0.37659791061E+02 -0.23316234313E+02  0.33280523948E+03  0.33573983092E+03  0.00000000000E+00 0. -1.
         22    1    3    3    0    0  0.20381152720E+01  0.17425526786E+02  0.12987367546E+03  0.13105332684E+03  0.00000000000E+00 0. -1.
         22    1    3    3    0    0 -0.15242938967E+02 -0.12868346030E+02 -0.25510421185E+02  0.32383994610E+02  0.00000000000E+00 0. -1.
</event>
<event>
 7    1  0.5562528E-006  0.1151981E+03  0.7818608E-02  0.1329318E+00
          2   -1    0    0  502    0  0.00000000000E+00  0.00000000000E+00  0.21365983554E+03  0.21365983554E+03  0.00000000000E+00 0. -1.
          1   -1    0    0  501    0 -0.00000000000E+00 -0.00000000000E+00 -0.29783764371E+03  0.29783764371E+03  0.00000000000E+00 0. -1.
         25    2    1    2    0    0  0.12317701549E+03  0.78821890265E+02 -0.17117414811E+02  0.19314347399E+03  0.12500371245E+03 0.  0.
          2    1    1    2  501    0 -0.55025684479E+02  0.66496355230E+01 -0.16346208130E+03  0.17260328974E+03  0.00000000000E+00 0. -1.
          1    1    1    2  502    0 -0.68151331009E+02 -0.85471525788E+02  0.96401687939E+02  0.14575071553E+03  0.00000000000E+00 0. -1.
         22    1    3    3    0    0  0.10954988620E+02  0.57076504938E+02  0.34644356229E+02  0.67660702111E+02  0.00000000000E+00 0. -1.
         22    1    3    3    0    0  0.11222202687E+03  0.21745385327E+02 -0.51761771040E+02  0.12548277188E+03  0.00000000000E+00 0. -1.
</event>
<event>
 7    1  0.5562528E-006  0.1202837E+03  0.7818608E-02  0.1306576E+00
          2   -1    0    0  502    0  0.00000000000E+00  0.00000000000E+00  0.10501322093E+04  0.10501322093E+04  0.00000000000E+00 0. -1.
          1   -1    0    0  501    0 -0.00000000000E+00 -0.00000000000E+00 -0.84385578056E+03  0.84385578056E+03  0.00000000000E+00 0. -1.
         25    2    1    2    0    0  0.75138585060E+02  0.62173347576E+02  0.74990518476E+03  0.76648084928E+03  0.12499509622E+03 0.  0.
          2    1    1    2  501    0 -0.36779809326E+02 -0.11475274499E+03 -0.82752157856E+03  0.83624931081E+03  0.00000000000E+00 0. -1.
          1    1    1    2  502    0 -0.38358775733E+02  0.52579397411E+02  0.28389282257E+03  0.29125782979E+03  0.00000000000E+00 0. -1.
         22    1    3    3    0    0  0.27222604960E+02  0.63688279237E+02  0.66797012313E+03  0.67155145189E+03  0.00000000000E+00 0. -1.
         22    1    3    3    0    0  0.47915980100E+02 -0.15149316615E+01  0.81935061624E+02  0.94929397397E+02  0.00000000000E+00 0. -1.
</event>
<event>
 7    1  0.5562528E-006  0.6732019E+02  0.7818608E-02  0.1501023E+00
          2   -1    0    0  502    0  0.00000000000E+00  0.00000000000E+00  0.43237963431E+03  0.43237963431E+03  0.00000000000E+00 0. -1.
          1   -1    0    0  501    0 -0.00000000000E+00 -0.00000000000E+00 -0.98165407452E+03  0.98165407452E+03  0.00000000000E+00 0. -1.
         25    2    1    2    0    0  0.21805443360E+02  0.87849359560E+02  0.25139122666E+03  0.29498434966E+03  0.12500092146E+03 0.  0.
          2    1    1    2  501    0 -0.85905410961E+01 -0.66671566519E+02 -0.95769344862E+03  0.96004980949E+03  0.00000000000E+00 0. -1.
          1    1    1    2  502    0 -0.13214902264E+02 -0.21177793041E+02  0.15702778174E+03  0.15899954968E+03  0.00000000000E+00 0. -1.
         22    1    3    3    0    0 -0.16832445095E+02 -0.11948547691E+02  0.13619289673E+03  0.13774833618E+03  0.00000000000E+00 0. -1.
         22    1    3    3    0    0  0.38637888455E+02  0.99797907251E+02  0.11519832993E+03  0.15723601348E+03  0.00000000000E+00 0. -1.
</event>
<event>
 7    1  0.5562528E-006  0.1115311E+03  0.7818608E-02  0.1377837E+00
          2   -1    0    0  502    0  0.00000000000E+00  0.00000000000E+00  0.73733189618E+03  0.73733189618E+03  0.00000000000E+00 0. -1.
          1   -1    0    0  501    0 -0.00000000000E+00 -0.00000000000E+00 -0.96794208671E+03  0.96794208671E+03  0.00000000000E+00 0. -1.
         25    2    1    2    0    0 -0.69012582958E+02 -0.78210106926E+02 -0.33872356774E+03  0.37581815890E+03  0.12500430307E+03 0.  0.
          2    1    1    2  501    0  0.10012367159E+03  0.56524097120E+02 -0.60475077737E+03  0.61558364655E+03  0.00000000000E+00 0. -1.
          1    1    1    2  502    0 -0.31111088635E+02  0.21686009805E+02  0.71286415457E+03  0.71387217744E+03  0.00000000000E+00 0. -1.
         22    1    3    3    0    0 -0.74482044961E+02 -0.85865624574E+02 -0.34582737874E+03  0.36402892246E+03  0.00000000000E+00 0.  1.
         22    1    3    3    0    0  0.54694620022E+01  0.76555176483E+01  0.71038109996E+01  0.11789236437E+02  0.00000000000E+00 0.  1.
</event>
<event>
 7    1  0.5562528E-006  0.4441507E+02  0.7818608E-02  0.1557235E+00
          2   -1    0    0  502    0  0.00000000000E+00  0.00000000000E+00  0.20175855922E+04  0.20175855922E+04  0.00000000000E+00 0. -1.
          1   -1    0    0  501    0 -0.00000000000E+00 -0.00000000000E+00 -0.87699756066E+02  0.87699756066E+02  0.00000000000E+00 0. -1.
         25    2    1    2    0    0 -0.28749984506E+00 -0.69111116186E+02  0.75723204103E+03  0.77058570928E+03  0.12500216936E+03 0.  0.
          2    1    1    2  501    0  0.11540184698E+01  0.26072848132E+02 -0.78541488169E+02  0.82764065464E+02  0.00000000000E+00 0. -1.
          1    1    1    2  502    0 -0.86651862477E+00  0.43038268053E+02  0.12511952833E+04  0.12519355735E+04  0.00000000000E+00 0. -1.
         22    1    3    3    0    0  0.11416137134E+02 -0.38420418779E+02  0.71927058046E+03  0.72038644121E+03  0.00000000000E+00 0. -1.
         22    1    3    3    0    0 -0.11703636979E+02 -0.30690697407E+02  0.37961460571E+02  0.50199268068E+02  0.00000000000E+00 0. -1.
</event>
<event>
 7    1  0.5562528E-006  0.6635759E+02  0.7818608E-02  0.1396237E+00
          2   -1    0    0  502    0  0.00000000000E+00  0.00000000000E+00  0.50512716395E+03  0.50512716395E+03  0.00000000000E+00 0. -1.
          1   -1    0    0  501    0 -0.00000000000E+00 -0.00000000000E+00 -0.13712267584E+04  0.13712267584E+04  0.00000000000E+00 0. -1.
         25    2    1    2    0    0  0.73796253587E+02 -0.90399483633E+02 -0.65179574634E+03  0.67385367298E+03  0.12499249562E+03 0.  0.
          2    1    1    2  501    0 -0.20663135513E+02  0.50910310524E+02 -0.70511109005E+03  0.70724852364E+03  0.00000000000E+00 0. -1.
          1    1    1    2  502    0 -0.53133118074E+02  0.39489173109E+02  0.49080724197E+03  0.49525172569E+03  0.00000000000E+00 0. -1.
         22    1    3    3    0    0  0.22158315696E+02  0.25812229429E+02 -0.25290289114E+03  0.25518059191E+03  0.00000000000E+00 0. -1.
         22    1    3    3    0    0  0.51637937891E+02 -0.11621171306E+03 -0.39889285520E+03  0.41867308107E+03  0.00000000000E+00 0. -1.
</event>
<event>
 7    1  0.5562528E-006  0.1017335E+03  0.7818608E-02  0.1323550E+00
          2   -1    0    0  502    0  0.00000000000E+00  0.00000000000E+00  0.56264008166E+03  0.56264008166E+03  0.00000000000E+00 0. -1.
          1   -1    0    0  501    0 -0.00000000000E+00 -0.00000000000E+00 -0.10653312905E+03  0.10653312905E+03  0.00000000000E+00 0. -1.
         25    2    1    2    0    0  0.61108593528E+02 -0.10901991492E+03  0.13253444913E+03  0.22092982267E+03  0.12500001715E+03 0.  0.
          2    1    1    2  501    0  0.26893904753E+02  0.60323277977E+02 -0.35755930882E+02  0.75104371191E+02  0.00000000000E+00 0. -1.
          1    1    1    2  502    0 -0.88002498282E+02  0.48696636948E+02  0.35932843436E+03  0.37313901685E+03  0.00000000000E+00 0. -1.
         22    1    3    3    0    0  0.22104770142E+01 -0.38498324978E+02  0.12258931361E+03  0.12851127206E+03  0.00000000000E+00 0.  1.
         22    1    3    3    0    0  0.58898116514E+02 -0.70521589947E+02  0.99451355169E+01  0.92418550616E+02  0.00000000000E+00 0.  1.
</event>
<event>
 7    1  0.5562528E-006  0.7985608E+02  0.7818608E-02  0.1383217E+00
          2   -1    0    0  502    0  0.00000000000E+00  0.00000000000E+00  0.70178027135E+02  0.70178027135E+02  0.00000000000E+00 0. -1.
          1   -1    0    0  501    0 -0.00000000000E+00 -0.00000000000E+00 -0.55022276388E+03  0.55022276388E+03  0.00000000000E+00 0. -1.
         25    2    1    2    0    0 -0.68629987863E+02 -0.96762792927E+02 -0.16154245526E+03  0.23620625801E+03  0.12499727254E+03 0.  0.
          2    1    1    2  501    0  0.40586223510E+02  0.30375313175E+02 -0.30706915704E+03  0.31122559084E+03  0.00000000000E+00 0. -1.
          1    1    1    2  502    0  0.28043764353E+02  0.66387479752E+02 -0.11433124451E+02  0.72968942171E+02  0.00000000000E+00 0. -1.
         22    1    3    3    0    0 -0.50465283003E+01  0.21554503620E+02 -0.70615316067E+02  0.74003965687E+02  0.00000000000E+00 0.  1.
         22    1    3    3    0    0 -0.63583459563E+02 -0.11831729655E+03 -0.90927139191E+02  0.16220229232E+03  0.00000000000E+00 0.  1.
</event>
<event>
 7    1  0.5562528E-006  0.4927473E+02  0.7818608E-02  0.1521725E+00
          2   -1    0    0  502    0  0.00000000000E+00  0.00000000000E+00  0.12370478499E+04  0.12370478499E+04  0.00000000000E+00 0. -1.
          1   -1    0    0  501    0 -0.00000000000E+00 -0.00000000000E+00 -0.18475089369E+02  0.18475089369E+02  0.00000000000E+00 0. -1.
         25    2    1    2    0    0  0.45579436831E+02 -0.31296309538E+02  0.83582389259E+03  0.84692636289E+03  0.12500296274E+03 0.  0.
          2    1    1    2  501    0 -0.49358731157E+02  0.18909276272E+01  0.37346865939E+02  0.61924537497E+02  0.00000000000E+00 0. -1.
          1    1    1    2  502    0  0.37792943266E+01  0.29405381911E+02  0.34540200201E+03  0.34667203889E+03  0.00000000000E+00 0. -1.
         22    1    3    3    0    0  0.76006856957E+02  0.11138789794E+02  0.35152868447E+03  0.35982430566E+03  0.00000000000E+00 0. -1.
         22    1    3    3    0    0 -0.30427420126E+02 -0.42435099332E+02  0.48429520812E+03  0.48710205723E+03  0.00000000000E+00 0. -1.
</event>
<event>
 7    1  0.5562528E-006  0.1401118E+03  0.7818608E-02  0.1273816E+00
          2   -1    0    0  502    0  0.00000000000E+00  0.00000000000E+00  0.15639263942E+04  0.15639263942E+04  0.00000000000E+00 0. -1.
          1   -1    0    0  501    0 -0.00000000000E+00 -0.00000000000E+00 -0.20535752518E+04  0.20535752518E+04  0.00000000000E+00 0. -1.
         25    2    1    2    0    0  0.62545124983E+02  0.45883853853E+02  0.36300261519E+02  0.15152864215E+03  0.12500399875E+03 0.  0.
          2    1    1    2  501    0  0.75767798436E+02 -0.50071929764E+01 -0.19916982308E+04  0.19931451713E+04  0.00000000000E+00 0. -1.
          1    1    1    2  502    0 -0.13831292342E+03 -0.40876660876E+02  0.14657491116E+04  0.14728278326E+04  0.00000000000E+00 0. -1.
         22    1    3    3    0    0  0.48638786074E+01  0.78846316797E+02  0.31073885031E+02  0.84888075243E+02  0.00000000000E+00 0.  1.
         22    1    3    3    0    0  0.57681246375E+02 -0.32962462945E+02  0.52263764889E+01  0.66640566909E+02  0.00000000000E+00 0.  1.
</event>
<event>
 7    1  0.5562528E-006  0.9377239E+02  0.7818608E-02  0.1483096E+00
          2   -1    0    0  502    0  0.00000000000E+00  0.00000000000E+00  0.15768379848E+04  0.15768379848E+04  0.00000000000E+00 0. -1.
          1   -1    0    0  501    0 -0.00000000000E+00 -0.00000000000E+00 -0.17050337035E+03  0.17050337035E+03  0.00000000000E+00 0. -1.
         25    2    1    2    0    0  0.65151952422E+02 -0.79038088514E+02  0.10687077733E+03  0.19374793648E+03  0.12500041401E+03 0.  0.
          2    1    1    2  501    0  0.66959566695E+01  0.19161433566E+02 -0.12471042499E+03  0.12635144033E+03  0.00000000000E+00 0. -1.
          1    1    1    2  502    0 -0.71847909091E+02  0.59876654948E+02  0.14241742621E+04  0.14272419783E+04  0.00000000000E+00 0. -1.
         22    1    3    3    0    0  0.23862309603E+02  0.28536308294E+02  0.91264301326E+00  0.37209724910E+02  0.00000000000E+00 0.  1.
         22    1    3    3    0    0  0.41289642819E+02 -0.10757439681E+03  0.10595813432E+03  0.15653821157E+03  0.00000000000E+00 0.  1.
</event>
<event>
 7    1  0.5562528E-006  0.1974354E+03  0.7818608E-02  0.1318340E+00
          2   -1    0    0  502    0  0.00000000000E+00  0.00000000000E+00  0.57590530713E+03  0.57590530713E+03  0.00000000000E+00 0. -1.
          1   -1    0    0  501    0 -0.00000000000E+00 -0.00000000000E+00 -0.10097014620E+04  0.10097014620E+04  0.00000000000E+00 0. -1.
         25    2    1    2    0    0 -0.78690475581E+01  0.18061085731E+03 -0.57759550691E+03  0.61799373984E+03  0.12496995314E+03 0.  0.
          2    1    1    2  501    0  0.31897429867E+02  0.15923988013E+02 -0.39343853061E+03  0.39505049904E+03  0.00000000000E+00 0. -1.
          1    1    1    2  502    0 -0.24028382309E+02 -0.19653484532E+03  0.53723788261E+03  0.57256253029E+03  0.00000000000E+00 0. -1.
         22    1    3    3    0    0 -0.49947899055E+02  0.49951434619E+02 -0.30140852915E+03  0.30957558024E+03  0.00000000000E+00 0. -1.
         22    1    3    3    0    0  0.42078851497E+02  0.13065942269E+03 -0.27618697777E+03  0.30841815960E+03  0.00000000000E+00 0. -1.
</event>
<event>
 7    1  0.5562528E-006  0.7689306E+02  0.7818608E-02  0.1366135E+00
          2   -1    0    0  502    0  0.00000000000E+00  0.00000000000E+00  0.16401734353E+04  0.16401734353E+04  0.00000000000E+00 0. -1.
          1   -1    0    0  501    0 -0.00000000000E+00 -0.00000000000E+00 -0.41116980134E+03  0.41116980134E+03  0.00000000000E+00 0. -1.
         25    2    1    2    0    0 -0.70760573358E+02  0.61726477466E+02 -0.17672396387E+02  0.15733153416E+03  0.12499472503E+03 0.  0.
          2    1    1    2  501    0 -0.61696649928E+01 -0.60269709179E+02 -0.31988021705E+03  0.32556697601E+03  0.00000000000E+00 0. -1.
          1    1    1    2  502    0  0.76930238351E+02 -0.14567682869E+01  0.15665562474E+04  0.15684447265E+04  0.00000000000E+00 0. -1.
         22    1    3    3    0    0 -0.98209698899E+02  0.31356712362E+02  0.15996870489E+02  0.10432779224E+03  0.00000000000E+00 0.  1.
         22    1    3    3    0    0  0.27449125541E+02  0.30369765104E+02 -0.33669266877E+02  0.53003741920E+02  0.00000000000E+00 0.  1.
</event>
<event>
 7    1  0.5562528E-006  0.1125901E+03  0.7818608E-02  0.1332513E+00
          2   -1    0    0  502    0  0.00000000000E+00  0.00000000000E+00  0.15214433216E+03  0.15214433216E+03  0.00000000000E+00 0. -1.
          1   -1    0    0  501    0 -0.00000000000E+00 -0.00000000000E+00 -0.42643235361E+03  0.42643235361E+03  0.00000000000E+00 0. -1.
         25    2    1    2    0    0 -0.64851093703E+02  0.53395302477E+02 -0.10745737296E+03  0.18501404390E+03  0.12500554690E+03 0.  0.
          2    1    1    2  501    0  0.61673932731E+02 -0.10844426200E+03 -0.25824811641E+03  0.28680293159E+03  0.00000000000E+00 0. -1.
          1    1    1    2  502    0  0.31771609714E+01  0.55048959522E+02  0.91417467930E+02  0.10675971028E+03  0.00000000000E+00 0. -1.
         22    1    3    3    0    0 -0.48433931147E+02  0.34077027452E+02  0.14071102874E+02  0.60869412864E+02  0.00000000000E+00 0. -1.
         22    1    3    3    0    0 -0.16417162555E+02  0.19318275024E+02 -0.12152847584E+03  0.12414463104E+03  0.00000000000E+00 0. -1.
</event>
<event>
 7    1  0.5562528E-006  0.1056567E+03  0.7818608E-02  0.1325882E+00
          2   -1    0    0  502    0  0.00000000000E+00  0.00000000000E+00  0.81944641739E+03  0.81944641739E+03  0.00000000000E+00 0. -1.
          1   -1    0    0  501    0 -0.00000000000E+00 -0.00000000000E+00 -0.79195067645E+03  0.79195067645E+03  0.00000000000E+00 0. -1.
         25    2    1    2    0    0 -0.11218868704E+03  0.11922733856E+03 -0.34362765991E+03  0.40063171705E+03  0.12499737712E+03 0.  0.
          2    1    1    2  501    0  0.28763666693E+02 -0.55254187300E+02 -0.41398710104E+03  0.41864745737E+03  0.00000000000E+00 0. -1.
          1    1    1    2  502    0  0.83425020343E+02 -0.63973151264E+02  0.78511050189E+03  0.79211791942E+03  0.00000000000E+00 0. -1.
         22    1    3    3    0    0 -0.73168290501E+02 -0.71305194518E+01 -0.11411000444E+03  0.13574069454E+03  0.00000000000E+00 0. -1.
         22    1    3    3    0    0 -0.39020396535E+02  0.12635785802E+03 -0.22951765548E+03  0.26489102250E+03  0.00000000000E+00 0. -1.
</event>
<event>
 7    1  0.5562528E-006  0.6134376E+02  0.7818608E-02  0.1488152E+00
          2   -1    0    0  502    0  0.00000000000E+00  0.00000000000E+00  0.18287848229E+03  0.18287848229E+03  0.00000000000E+00 0. -1.
          1   -1    0    0  501    0 -0.00000000000E+00 -0.00000000000E+00 -0.19074786185E+04  0.19074786185E+04  0.00000000000E+00 0. -1.
         25    2    1    2    0    0  0.27134002918E+02  0.82873483630E+02  0.17473405055E+02  0.15341047514E+03  0.12500074238E+03 0.  0.
          2    1    1    2  501    0 -0.30416711228E+02 -0.53106364392E+02 -0.18366871802E+04  0.18377065218E+04  0.00000000000E+00 0. -1.
          1    1    1    2  502    0  0.32827083103E+01 -0.29767119238E+02  0.94613638894E+02  0.99240103922E+02  0.00000000000E+00 0. -1.
         22    1    3    3    0    0 -0.12586627144E+02 -0.22100164254E+02 -0.22809673647E+02  0.34163162248E+02  0.00000000000E+00 0. -1.
         22    1    3    3    0    0  0.39720630061E+02  0.10497364788E+03  0.40283078703E+02  0.11924731289E+03  0.00000000000E+00 0. -1.
</event>
<event>
 7    1  0.5562528E-006  0.6378067E+02  0.7818608E-02  0.1437910E+00
          2   -1    0    0  502    0  0.00000000000E+00  0.00000000000E+00  0.10371319909E+04  0.10371319909E+04  0.00000000000E+00 0. -1.
          1   -1    0    0  501    0 -0.00000000000E+00 -0.00000000000E+00 -0.17876141106E+03  0.17876141106E+03  0.00000000000E+00 0. -1.
         25    2    1    2    0    0 -0.68544050564E+02  0.71844160927E+02 -0.14621363763E+02  0.16030736725E+03  0.12499918955E+03 0.  0.
          2    1    1    2  501    0  0.14417543264E+02 -0.38840211695E+02 -0.85495288511E+02  0.95004589131E+02  0.00000000000E+00 0. -1.
          1    1    1    2  502    0  0.54126507300E+02 -0.33003949232E+02  0.95848723211E+03  0.96058144557E+03  0.00000000000E+00 0. -1.
         22    1    3    3    0    0 -0.98224558844E+01  0.91046734337E+02  0.13252357130E+02  0.92528987039E+02  0.00000000000E+00 0. -1.
         22    1    3    3    0    0 -0.58721594679E+02 -0.19202573409E+02 -0.27873720893E+02  0.67778380208E+02  0.00000000000E+00 0. -1.
</event>
<event>
 7    1  0.5562528E-006  0.6348003E+02  0.7818608E-02  0.1482478E+00
          2   -1    0    0  502    0  0.00000000000E+00  0.00000000000E+00  0.48972200808E+03  0.48972200808E+03  0.00000000000E+00 0. -1.
          1   -1    0    0  501    0 -0.00000000000E+00 -0.00000000000E+00 -0.14222515591E+03  0.14222515591E+03  0.00000000000E+00 0. -1.
         25    2    1    2    0    0  0.56191974085E+01  0.87100973397E+02 -0.45354794222E+01  0.15252357105E+03  0.12499885682E+03 0.  0.
          2    1    1    2  501    0  0.13083939291E+02 -0.27123404629E+02 -0.57602265157E+02  0.64999149973E+02  0.00000000000E+00 0. -1.
          1    1    1    2  502    0 -0.18703136699E+02 -0.59977568768E+02  0.40963459675E+03  0.41442444297E+03  0.00000000000E+00 0. -1.
         22    1    3    3    0    0  0.59311218007E+02  0.77748937955E+02  0.50631377192E+00  0.97790461131E+02  0.00000000000E+00 0. -1.
         22    1    3    3    0    0 -0.53692020598E+02  0.93520354422E+01 -0.50417931942E+01  0.54733109920E+02  0.00000000000E+00 0. -1.
</event>
<event>
 7    1  0.5562528E-006  0.3382456E+02  0.7818608E-02  0.1582224E+00
          2   -1    0    0  502    0  0.00000000000E+00  0.00000000000E+00  0.93822474925E+02  0.93822474925E+02  0.00000000000E+00 0. -1.
          1   -1    0    0  501    0 -0.00000000000E+00 -0.00000000000E+00 -0.11899314888E+04  0.11899314888E+04  0.00000000000E+00 0. -1.
         25    2    1    2    0    0  0.70505670399E+01 -0.41863442967E+02 -0.49435151832E+03  0.51167171008E+03  0.12498902706E+03 0.  0.
          2    1    1    2  501    0  0.19955546631E+02  0.21465408821E+02 -0.68323082867E+03  0.68385916157E+03  0.00000000000E+00 0. -1.
          1    1    1    2  502    0 -0.27006113671E+02  0.20398034146E+02  0.81473333093E+02  0.88223092090E+02  0.00000000000E+00 0. -1.
         22    1    3    3    0    0  0.15743835129E+02  0.18439881527E+02 -0.15102490072E+02  0.28565412332E+02  0.00000000000E+00 0. -1.
         22    1    3    3    0    0 -0.86932680887E+01 -0.60303324495E+02 -0.47924902824E+03  0.48310629775E+03  0.00000000000E+00 0. -1.
</event>
<event>
 7    1  0.5562528E-006  0.1248530E+03  0.7818608E-02  0.1346558E+00
          2   -1    0    0  502    0  0.00000000000E+00  0.00000000000E+00  0.47783969406E+03  0.47783969406E+03  0.00000000000E+00 0. -1.
          1   -1    0    0  501    0 -0.00000000000E+00 -0.00000000000E+00 -0.33282617601E+03  0.33282617601E+03  0.00000000000E+00 0. -1.
         25    2    1    2    0    0  0.86318799617E+02 -0.10302920165E+03 -0.13380761350E+03  0.22715245139E+03  0.12501122822E+03 0.  0.
          2    1    1    2  501    0 -0.41897811139E+02 -0.13517766753E+02 -0.13987252400E+03  0.14663723799E+03  0.00000000000E+00 0. -1.
          1    1    1    2  502    0 -0.44420988478E+02  0.11654696840E+03  0.41869365554E+03  0.43687618069E+03  0.00000000000E+00 0. -1.
         22    1    3    3    0    0  0.92466741975E+02 -0.63733672203E+02 -0.30378889063E+02  0.11633983086E+03  0.00000000000E+00 0.  1.
         22    1    3    3    0    0 -0.61479423572E+01 -0.39295529446E+02 -0.10342872444E+03  0.11081262053E+03  0.00000000000E+00 0.  1.
</event>
<event>
 7    1  0.5562528E-006  0.7919236E+02  0.7818608E-02  0.1375635E+00
          2   -1    0    0  502    0  0.00000000000E+00  0.00000000000E+00  0.45778473168E+02  0.45778473168E+02  0.00000000000E+00 0. -1.
          1   -1    0    0  501    0 -0.00000000000E+00 -0.00000000000E+00 -0.70375386536E+03  0.70375386536E+03  0.00000000000E+00 0. -1.
         25    2    1    2    0    0  0.64741135458E+02 -0.78271899965E+00 -0.31367826755E+03  0.34381811085E+03  0.12499924219E+03 0.  0.
          2    1    1    2  501    0  0.63102974472E+00  0.54378800784E+02 -0.30959372386E+03  0.31433378123E+03  0.00000000000E+00 0. -1.
          1    1    1    2  502    0 -0.65372165202E+02 -0.53596081785E+02 -0.34703400787E+02  0.91380446443E+02  0.00000000000E+00 0. -1.
         22    1    3    3    0    0  0.50087660996E+02 -0.69871062175E+01 -0.28213627588E+02  0.57910294586E+02  0.00000000000E+00 0.  1.
         22    1    3    3    0    0  0.14653474462E+02  0.62043872178E+01 -0.28546463996E+03  0.28590781626E+03  0.00000000000E+00 0.  1.
</event>
<event>
 7    1  0.5562528E-006  0.1483082E+03  0.7818608E-02  0.1410372E+00
          2   -1    0    0  502    0  0.00000000000E+00  0.00000000000E+00  0.84655801653E+03  0.84655801653E+03  0.00000000000E+00 0. -1.
          1   -1    0    0  501    0 -0.00000000000E+00 -0.00000000000E+00 -0.11070457453E+04  0.11070457453E+04  0.00000000000E+00 0. -1.
         25    2    1    2    0    0 -0.13185526641E+03 -0.91577446299E+02 -0.46982297670E+03  0.51198734912E+03  0.12500070507E+03 0.  0.
          2    1    1    2  501    0  0.20957080352E+02 -0.66682431819E+01 -0.60929272578E+03  0.60968950325E+03  0.00000000000E+00 0. -1.
          1    1    1    2  502    0  0.11089818606E+03  0.98245689481E+02  0.81862797376E+03  0.83192690941E+03  0.00000000000E+00 0. -1.
         22    1    3    3    0    0 -0.43031240235E+02  0.30307080905E+02 -0.12424024969E+03  0.13492904221E+03  0.00000000000E+00 0.  1.
         22    1    3    3    0    0 -0.88824026174E+02 -0.12188452720E+03 -0.34558272701E+03  0.37705830691E+03  0.00000000000E+00 0.  1.
</event>
<event>
 7    1  0.5562528E-006  0.7205431E+02  0.7818608E-02  0.1354281E+00
          2   -1    0    0  502    0  0.00000000000E+00  0.00000000000E+00  0.10964609993E+03  0.10964609993E+03  0.00000000000E+00 0. -1.
          1   -1    0    0  501    0 -0.00000000000E+00 -0.00000000000E+00 -0.23573362267E+03  0.23573362267E+03  0.00000000000E+00 0. -1.
         25    2    1    2    0    0 -0.32092273805E+02 -0.11229226846E+02 -0.24429859329E+02  0.13182403584E+03  0.12499899530E+03 0.  0.
          2    1    1    2  501    0  0.24578559317E+02  0.82256049303E+02 -0.11228752528E+03  0.14134585795E+03  0.00000000000E+00 0. -1.
          1    1    1    2  502    0  0.75137144872E+01 -0.71026822457E+02  0.10629861863E+02  0.72209828811E+02  0.00000000000E+00 0. -1.
         22    1    3    3    0    0 -0.72807720368E+02 -0.12836255399E+02  0.14647032658E+02  0.75367560419E+02  0.00000000000E+00 0. -1.
         22    1    3    3    0    0  0.40715446563E+02  0.16070285532E+01 -0.39076891987E+02  0.56456475421E+02  0.00000000000E+00 0. -1.
</event>
<event>
 7    1  0.5562528E-006  0.8363634E+02  0.7818608E-02  0.1440497E+00
          2   -1    0    0  502    0  0.00000000000E+00  0.00000000000E+00  0.48381850649E+02  0.48381850649E+02  0.00000000000E+00 0. -1.
          1   -1    0    0  501    0 -0.00000000000E+00 -0.00000000000E+00 -0.12162325370E+04  0.12162325370E+04  0.00000000000E+00 0. -1.
         25    2    1    2    0    0  0.38528718746E+02  0.10579492836E+03 -0.20741998343E+03  0.26706656039E+03  0.12499787646E+03 0.  0.
          2    1    1    2  501    0 -0.24290498957E+02 -0.78271039823E+02 -0.96297404267E+03  0.96645506407E+03  0.00000000000E+00 0. -1.
          1    1    1    2  502    0 -0.14238219789E+02 -0.27523888537E+02  0.25433397838E+01  0.31092763149E+02  0.00000000000E+00 0. -1.
         22    1    3    3    0    0  0.48399862241E-01  0.12009942250E+03 -0.11655839735E+03  0.16736108753E+03  0.00000000000E+00 0.  1.
         22    1    3    3    0    0  0.38480318884E+02 -0.14304494137E+02 -0.90861586078E+02  0.99705472861E+02  0.00000000000E+00 0.  1.
</event>
<event>
 7    1  0.5562528E-006  0.9308174E+02  0.7818608E-02  0.1448843E+00
          2   -1    0    0  502    0  0.00000000000E+00  0.00000000000E+00  0.11908017155E+04  0.11908017155E+04  0.00000000000E+00 0. -1.
          1   -1    0    0  501    0 -0.00000000000E+00 -0.00000000000E+00 -0.90286685317E+03  0.90286685317E+03  0.00000000000E+00 0. -1.
         25    2    1    2    0    0  0.40525671512E+02  0.60042472008E+02  0.61667948931E+03  0.63337640274E+03  0.12499858602E+03 0.  0.
          2    1    1    2  501    0 -0.36187986684E+02 -0.85851937594E+02 -0.89178768850E+03  0.89664118070E+03  0.00000000000E+00 0. -1.
          1    1    1    2  502    0 -0.43376848281E+01  0.25809465586E+02  0.56304306157E+03  0.56365098528E+03  0.00000000000E+00 0. -1.
         22    1    3    3    0    0 -0.38395641907E+02  0.10102545970E+01  0.27824429563E+03  0.28088277623E+03  0.00000000000E+00 0. -1.
         22    1    3    3    0    0  0.78921313419E+02  0.59032217411E+02  0.33843519368E+03  0.35249362650E+03  0.00000000000E+00 0. -1.
</event>
<event>
 7    1  0.5562528E-006  0.1374653E+03  0.7818608E-02  0.1276801E+00
          2   -1    0    0  502    0  0.00000000000E+00  0.00000000000E+00  0.10450663121E+04  0.10450663121E+04  0.00000000000E+00 0. -1.
          1   -1    0    0  501    0 -0.00000000000E+00 -0.00000000000E+00 -0.11057402386E+04  0.11057402386E+04  0.00000000000E+00 0. -1.
         25    2    1    2    0    0 -0.25957809104E+02  0.18723428323E+03  0.37879168145E+02  0.22975280157E+03  0.12498413411E+03 0.  0.
          2    1    1    2  501    0  0.51859204667E+02 -0.54473776458E+02 -0.10033686456E+04  0.10061835858E+04  0.00000000000E+00 0. -1.
          1    1    1    2  502    0 -0.25901395562E+02 -0.13276050677E+03  0.90481555100E+03  0.91487016335E+03  0.00000000000E+00 0. -1.
         22    1    3    3    0    0  0.26757532558E+02  0.15831640558E+03  0.50500572346E+02  0.16831624292E+03  0.00000000000E+00 0.  1.
         22    1    3    3    0    0 -0.52715341662E+02  0.28917877653E+02 -0.12621404201E+02  0.61436558649E+02  0.00000000000E+00 0.  1.
</event>
<event>
 7    1  0.5562528E-006  0.1085412E+03  0.7818608E-02  0.1361910E+00
          2   -1    0    0  502    0  0.00000000000E+00  0.00000000000E+00  0.17620827278E+04  0.17620827278E+04  0.00000000000E+00 0. -1.
          1   -1    0    0  501    0 -0.00000000000E+00 -0.00000000000E+00 -0.28182315801E+03  0.28182315801E+03  0.00000000000E+00 0. -1.
         25    2    1    2    0    0 -0.71819526626E+02  0.12086247246E+03  0.15441618052E+02  0.18874569420E+03  0.12498284625E+03 0.  0.
          2    1    1    2  501    0  0.71317329583E+02 -0.76404243877E+02 -0.18085676123E+03  0.20888498764E+03  0.00000000000E+00 0. -1.
          1    1    1    2  502    0  0.50219704305E+00 -0.44458228588E+02  0.16456747130E+04  0.16462752040E+04  0.00000000000E+00 0. -1.
         22    1    3    3    0    0 -0.99639841561E+02  0.12386492104E+03  0.55408327886E+01  0.15906387874E+03  0.00000000000E+00 0. -1.
         22    1    3    3    0    0  0.27820314935E+02 -0.30024485770E+01  0.99007852636E+01  0.29681815466E+02  0.00000000000E+00 0. -1.
</event>
<event>
 7    1  0.5562528E-006  0.6389783E+02  0.7818608E-02  0.1403282E+00
          2   -1    0    0  502    0  0.00000000000E+00  0.00000000000E+00  0.15413291968E+04  0.15413291968E+04  0.00000000000E+00 0. -1.
          1   -1    0    0  501    0 -0.00000000000E+00 -0.00000000000E+00 -0.10606103208E+03  0.10606103208E+03  0.00000000000E+00 0. -1.
         25    2    1    2    0    0 -0.51931033868E+02  0.46943173709E+02  0.17319125176E+03  0.22476861926E+03  0.12500091473E+03 0.  0.
          2    1    1    2  501    0  0.51072758169E+02  0.17420868923E+02 -0.70337871972E+02  0.88652859709E+02  0.00000000000E+00 0. -1.
          1    1    1    2  502    0  0.85827569870E+00 -0.64364042633E+02  0.13324147849E+04  0.13339687499E+04  0.00000000000E+00 0. -1.
         22    1    3    3    0    0 -0.22900159588E+02  0.99490736924E+01 -0.16109845462E+02  0.29714112763E+02  0.00000000000E+00 0. -1.
         22    1    3    3    0    0 -0.29030874280E+02  0.36994100017E+02  0.18930109722E+03  0.19505450650E+03  0.00000000000E+00 0. -1.
</event>
<event>
 7    1  0.5562528E-006  0.1383812E+03  0.7818608E-02  0.1368368E+00
          2   -1    0    0  502    0  0.00000000000E+00  0.00000000000E+00  0.33615692037E+03  0.33615692037E+03  0.00000000000E+00 0. -1.
          1   -1    0    0  501    0 -0.00000000000E+00 -0.00000000000E+00 -0.80674914959E+03  0.80674914959E+03  0.00000000000E+00 0. -1.
         25    2    1    2    0    0  0.11761371532E+03  0.68963065782E+02  0.36644718604E+02  0.18856418581E+03  0.12499890517E+03 0.  0.
          2    1    1    2  501    0 -0.99532025436E+02 -0.96622754414E+02 -0.72293694242E+03  0.73612526344E+03  0.00000000000E+00 0. -1.
          1    1    1    2  502    0 -0.18081689889E+02  0.27659688633E+02  0.21569999460E+03  0.21821662071E+03  0.00000000000E+00 0. -1.
         22    1    3    3    0    0  0.13489866639E+03  0.25969456564E+02  0.36825198467E+02  0.14222572943E+03  0.00000000000E+00 0. -1.
         22    1    3    3    0    0 -0.17284951069E+02  0.42993609218E+02 -0.18047986327E+00  0.46338456383E+02  0.00000000000E+00 0. -1.
</event>
<event>
 7    1  0.5562528E-006  0.7204738E+02  0.7818608E-02  0.1361971E+00
          2   -1    0    0  502    0  0.00000000000E+00  0.00000000000E+00  0.14271469989E+03  0.14271469989E+03  0.00000000000E+00 0. -1.
          1   -1    0    0  501    0 -0.00000000000E+00 -0.00000000000E+00 -0.14646776741E+04  0.14646776741E+04  0.00000000000E+00 0. -1.
         25    2    1    2    0    0  0.78662995492E+01  0.12909003470E+03 -0.81678356382E+02  0.19753942644E+03  0.12499742146E+03 0.  0.
          2    1    1    2  501    0 -0.28321406382E+02 -0.65343703443E+02 -0.13107337689E+04  0.13126670997E+04  0.00000000000E+00 0. -1.
          1    1    1    2  502    0  0.20455106833E+02 -0.63746331255E+02  0.70449151057E+02  0.97185847882E+02  0.00000000000E+00 0. -1.
         22    1    3    3    0    0  0.45482894212E+02  0.10475114098E+03 -0.97362295630E+02  0.15006968985E+03  0.00000000000E+00 0.  1.
         22    1    3    3    0    0 -0.37616594663E+02  0.24338893721E+02  0.15683939248E+02  0.47469736590E+02  0.00000000000E+00 0.  1.
</event>
<event>
 7    1  0.5562528E-006  0.1440648E+03  0.7818608E-02  0.1393952E+00
          2   -1    0    0  502    0  0.00000000000E+00  0.00000000000E+00  0.16606968085E+04  0.16606968085E+04  0.00000000000E+00 0. -1.
          1   -1    0    0  501    0 -0.00000000000E+00 -0.00000000000E+00 -0.13871345876E+04  0.13871345876E+04  0.00000000000E+00 0. -1.
         25    2    1    2    0    0 -0.11486221782E+03 -0.85835965354E+02 -0.24969456326E+03  0.31389981936E+03  0.12499831857E+03 0.  0.
          2    1    1    2  501    0  0.16685932234E+02 -0.19642482291E+02 -0.11019989750E+04  0.11023003168E+04  0.00000000000E+00 0. -1.
          1    1    1    2  502    0  0.98176285589E+02  0.10547844765E+03  0.16252557592E+04  0.16316312600E+04  0.00000000000E+00 0. -1.
         22    1    3    3    0    0 -0.46164250559E+02 -0.10264060272E+03 -0.19232148311E+03  0.22283129094E+03  0.00000000000E+00 0.  1.
         22    1    3    3    0    0 -0.68697967264E+02  0.16804637370E+02 -0.57373080147E+02  0.91068528422E+02  0.00000000000E+00 0.  1.
</event>
<event>
 7    1  0.5562528E-006  0.6000477E+02  0.7818608E-02  0.1467238E+00
          2   -1    0    0  502    0  0.00000000000E+00  0.00000000000E+00  0.71986186334E+03  0.71986186334E+03  0.00000000000E+00 0. -1.
          1   -1    0    0  501    0 -0.00000000000E+00 -0.00000000000E+00 -0.11685125503E+04  0.11685125503E+04  0.00000000000E+00 0. -1.
         25    2    1    2    0    0  0.74822803681E+01 -0.70883184183E+02  0.22924381877E+03  0.27066225046E+03  0.12499966024E+03 0.  0.
          2    1    1    2  501    0  0.24220358990E+02  0.54893041962E+02 -0.11463469374E+04  0.11479160130E+04  0.00000000000E+00 0. -1.
          1    1    1    2  502    0 -0.31702639358E+02  0.15990142221E+02  0.46845243171E+03  0.46979615023E+03  0.00000000000E+00 0. -1.
         22    1    3    3    0    0 -0.24066214169E+02  0.24611829729E+02  0.10679837379E+03  0.11220881192E+03  0.00000000000E+00 0. -1.
         22    1    3    3    0    0  0.31548494537E+02 -0.95495013912E+02  0.12244544498E+03  0.15845343854E+03  0.00000000000E+00 0. -1.
</event>
<event>
 7    1  0.5562528E-006  0.1423974E+03  0.7818608E-02  0.1292751E+00
          2   -1    0    0  502    0  0.00000000000E+00  0.00000000000E+00  0.69214915516E+03  0.69214915516E+03  0.00000000000E+00 0. -1.
          1   -1    0    0  501    0 -0.00000000000E+00 -0.00000000000E+00 -0.62894123716E+03  0.62894123716E+03  0.00000000000E+00 0. -1.
         25    2    1    2    0    0  0.45252525637E+02  0.87824067342E+02  0.79779489979E+02  0.17818476665E+03  0.12499674461E+03 0.  0.
          2    1    1    2  501    0 -0.13449600891E+02  0.60988365885E+02 -0.56771517512E+03  0.57114008142E+03  0.00000000000E+00 0. -1.
          1    1    1    2  502    0 -0.31802924746E+02 -0.14881243323E+03  0.55114360314E+03  0.57176554425E+03  0.00000000000E+00 0. -1.
         22    1    3    3    0    0  0.64192410103E+02 -0.24697180037E+01  0.16547881839E+02  0.66336998841E+02  0.00000000000E+00 0.  1.
         22    1    3    3    0    0 -0.18939884466E+02  0.90293785346E+02  0.63231608139E+02  0.11184776781E+03  0.00000000000E+00 0.  1.
</event>
<event>
 7    1  0.5562528E-006  0.3244389E+03  0.7818608E-02  0.1174284E+00
          2   -1    0    0  502    0  0.00000000000E+00  0.00000000000E+00  0.70821751322E+03  0.70821751322E+03  0.00000000000E+00 0. -1.
          1   -1    0    0  501    0 -0.00000000000E+00 -0.00000000000E+00 -0.10635228660E+04  0.10635228660E+04  0.00000000000E+00 0. -1.
         25    2    1    2    0    0  0.15436069399E+03  0.20983813434E+03  0.55274821750E+01  0.28898920326E+03  0.12499976028E+03 0.  0.
          2    1    1    2  501    0 -0.24351824342E+03 -0.23537438763E+03 -0.88648656030E+03  0.94897874519E+03  0.00000000000E+00 0. -1.
          1    1    1    2  502    0  0.89157549426E+02  0.25536253294E+02  0.52565372536E+03  0.53377243076E+03  0.00000000000E+00 0. -1.
         22    1    3    3    0    0  0.21326750780E+02  0.71090221901E+02 -0.49299659426E+02  0.89101663106E+02  0.00000000000E+00 0.  1.
         22    1    3    3    0    0  0.13303394321E+03  0.13874791244E+03  0.54827141601E+02  0.19988754015E+03  0.00000000000E+00 0.  1.
</event>
<event>
 7    1  0.5562528E-006  0.5216291E+02  0.7818608E-02  0.1557371E+00
          2   -1    0    0  502    0  0.00000000000E+00  0.00000000000E+00  0.93110628624E+02  0.93110628624E+02  0.00000000000E+00 0. -1.
          1   -1    0    0  501    0 -0.00000000000E+00 -0.00000000000E+00 -0.98869426407E+03  0.98869426407E+03  0.00000000000E+00 0. -1.
         25    2    1    2    0    0  0.41156240043E+02 -0.12936850530E+02 -0.19504105108E+03  0.23564343429E+03  0.12500247327E+03 0.  0.
          2    1    1    2  501    0  0.11201000888E+02  0.19170296004E+02 -0.76362352947E+03  0.76394623989E+03  0.00000000000E+00 0. -1.
          1    1    1    2  502    0 -0.52357240930E+02 -0.62334454745E+01  0.63080945104E+02  0.82215218516E+02  0.00000000000E+00 0. -1.
         22    1    3    3    0    0 -0.32956819660E+02 -0.14538126124E+02 -0.11684824785E+02  0.37868776103E+02  0.00000000000E+00 0.  1.
         22    1    3    3    0    0  0.74113059703E+02  0.16012755945E+01 -0.18335622629E+03  0.19777465819E+03  0.00000000000E+00 0.  1.
</event>
<event>
 7    1  0.5562528E-006  0.1127912E+03  0.7818608E-02  0.1259272E+00
          2   -1    0    0  502    0  0.00000000000E+00  0.00000000000E+00  0.67494335662E+03  0.67494335662E+03  0.00000000000E+00 0. -1.
          1   -1    0    0  501    0 -0.00000000000E+00 -0.00000000000E+00 -0.10163672874E+04  0.10163672874E+04  0.00000000000E+00 0. -1.
         25    2    1    2    0    0 -0.10106941764E+03  0.16679633552E+03 -0.48729388240E+03  0.53955487576E+03  0.12501236503E+03 0.  0.
          2    1    1    2  501    0  0.93813189445E+02 -0.54817294009E+02 -0.49212018017E+03  0.50397234246E+03  0.00000000000E+00 0. -1.
          1    1    1    2  502    0  0.72562281978E+01 -0.11197904152E+03  0.63799013174E+03  0.64778342584E+03  0.00000000000E+00 0. -1.
         22    1    3    3    0    0 -0.70714080467E+02  0.18360174261E+03 -0.40573388593E+03  0.45092135374E+03  0.00000000000E+00 0.  1.
         22    1    3    3    0    0 -0.30355337176E+02 -0.16805407087E+02 -0.81559996469E+02  0.88633522025E+02  0.00000000000E+00 0.  1.
</event>
<event>
 7    1  0.5562528E-006  0.1578647E+03  0.7818608E-02  0.1359127E+00
          2   -1    0    0  502    0  0.00000000000E+00  0.00000000000E+00  0.28278186945E+04  0.28278186945E+04  0.00000000000E+00 0. -1.
          1   -1    0    0  501    0 -0.00000000000E+00 -0.00000000000E+00 -0.21764903936E+03  0.21764903936E+03  0.00000000000E+00 0. -1.
         25    2    1    2    0    0 -0.56690715722E+02  0.17070591333E+03  0.89785891376E+03  0.92419108791E+03  0.12499676741E+03 0.  0.
          2    1    1    2  501    0 -0.51683292798E+01 -0.30862642750E+02 -0.20021598406E+03  0.20264662499E+03  0.00000000000E+00 0. -1.
          1    1    1    2  502    0  0.61859045002E+02 -0.13984327058E+03  0.19125267255E+04  0.19186300210E+04  0.00000000000E+00 0. -1.
         22    1    3    3    0    0 -0.76659387588E+02  0.10823216363E+03  0.76047707060E+03  0.77195611136E+03  0.00000000000E+00 0.  1.
         22    1    3    3    0    0  0.19968671865E+02  0.62473749696E+02  0.13738184316E+03  0.15223497655E+03  0.00000000000E+00 0.  1.
</event>
<event>
 7    1  0.5562528E-006  0.1242639E+03  0.7818608E-02  0.1354587E+00
          2   -1    0    0  502    0  0.00000000000E+00  0.00000000000E+00  0.30293711646E+03  0.30293711646E+03  0.00000000000E+00 0. -1.
          1   -1    0    0  501    0 -0.00000000000E+00 -0.00000000000E+00 -0.10023655246E+03  0.10023655246E+03  0.00000000000E+00 0. -1.
         25    2    1    2    0    0  0.60665726426E+02  0.75994490273E+02  0.53158018104E+02  0.16706265404E+03  0.12501464943E+03 0.  0.
          2    1    1    2  501    0  0.29534866715E+02  0.28878618271E+02  0.17441654506E+02  0.44838535402E+02  0.00000000000E+00 0. -1.
          1    1    1    2  502    0 -0.90200593141E+02 -0.10487310854E+03  0.13210089139E+03  0.19127247948E+03  0.00000000000E+00 0. -1.
         22    1    3    3    0    0 -0.23457044313E+02  0.34560665865E+02  0.59924929885E+02  0.73045669103E+02  0.00000000000E+00 0. -1.
         22    1    3    3    0    0  0.84122770739E+02  0.41433824408E+02 -0.67669117807E+01  0.94016984938E+02  0.00000000000E+00 0. -1.
</event>
<event>
 7    1  0.5562528E-006  0.5742175E+02  0.7818608E-02  0.1496282E+00
          2   -1    0    0  502    0  0.00000000000E+00  0.00000000000E+00  0.93584639241E+03  0.93584639241E+03  0.00000000000E+00 0. -1.
          1   -1    0    0  501    0 -0.00000000000E+00 -0.00000000000E+00 -0.16172331466E+04  0.16172331466E+04  0.00000000000E+00 0. -1.
         25    2    1    2    0    0 -0.37936640102E+02  0.54426240209E+01 -0.10086916343E+03  0.16513097556E+03  0.12499936056E+03 0.  0.
          2    1    1    2  501    0 -0.15980298471E+02 -0.25668809445E+02 -0.14831614690E+04  0.14834696495E+04  0.00000000000E+00 0. -1.
          1    1    1    2  502    0  0.53916938574E+02  0.20226185424E+02  0.90264387827E+03  0.90447891397E+03  0.00000000000E+00 0. -1.
         22    1    3    3    0    0 -0.72583375813E+01  0.54286435637E+02 -0.91580973102E+02  0.10670883372E+03  0.00000000000E+00 0. -1.
         22    1    3    3    0    0 -0.30678302521E+02 -0.48843811616E+02 -0.92881903268E+01  0.58422141849E+02  0.00000000000E+00 0. -1.
</event>
<event>
 7    1  0.5562528E-006  0.1147421E+03  0.7818608E-02  0.1376909E+00
          2   -1    0    0  502    0  0.00000000000E+00  0.00000000000E+00  0.15133050013E+03  0.15133050013E+03  0.00000000000E+00 0. -1.
          1   -1    0    0  501    0 -0.00000000000E+00 -0.00000000000E+00 -0.17590547187E+04  0.17590547187E+04  0.00000000000E+00 0. -1.
         25    2    1    2    0    0 -0.43173088173E+02  0.12438016465E+03  0.76138957928E+02  0.19686556015E+03  0.12499826782E+03 0.  0.
          2    1    1    2  501    0  0.65010767305E+02 -0.94334385116E+02 -0.16699201411E+04  0.16738454689E+04  0.00000000000E+00 0. -1.
          1    1    1    2  502    0 -0.21837679132E+02 -0.30045779535E+02 -0.13943035381E+02  0.39674189763E+02  0.00000000000E+00 0. -1.
         22    1    3    3    0    0  0.38381893530E+02  0.24941720679E+02 -0.29820146306E+01  0.45871032173E+02  0.00000000000E+00 0. -1.
         22    1    3    3    0    0 -0.81554981702E+02  0.99438443972E+02  0.79120972559E+02  0.15099452798E+03  0.00000000000E+00 0. -1.
</event>
<event>
 7    1  0.5562528E-006  0.1200017E+03  0.7818608E-02  0.1260402E+00
          2   -1    0    0  502    0  0.00000000000E+00  0.00000000000E+00  0.20958771457E+04  0.20958771457E+04  0.00000000000E+00 0. -1.
          1   -1    0    0  501    0 -0.00000000000E+00 -0.00000000000E+00 -0.11166642986E+04  0.11166642986E+04  0.00000000000E+00 0. -1.
         25    2    1    2    0    0  0.14838668394E+03  0.15153556494E+03  0.49382774450E+03  0.55179009664E+03  0.12499933638E+03 0.  0.
          2    1    1    2  501    0 -0.58030228282E+02 -0.82662558418E+02 -0.10832796758E+04  0.10879776937E+04  0.00000000000E+00 0. -1.
          1    1    1    2  502    0 -0.90356455653E+02 -0.68873006526E+02  0.15686647783E+04  0.15727736540E+04  0.00000000000E+00 0. -1.
         22    1    3    3    0    0  0.84927645923E+02  0.15336158556E+03  0.41547744021E+03  0.45094787315E+03  0.00000000000E+00 0. -1.
         22    1    3    3    0    0  0.63459038012E+02 -0.18260206210E+01  0.78350304289E+02  0.10084222349E+03  0.00000000000E+00 0. -1.
</event>
<event>
 7    1  0.5562528E-006  0.2440253E+03  0.7818608E-02  0.1325029E+00
          2   -1    0    0  502    0  0.00000000000E+00  0.00000000000E+00  0.19272422767E+04  0.19272422767E+04  0.00000000000E+00 0. -1.
          1   -1    0    0  501    0 -0.00000000000E+00 -0.00000000000E+00 -0.20707162287E+04  0.20707162287E+04  0.00000000000E+00 0. -1.
         25    2    1    2    0    0 -0.26270668867E+03  0.62219719247E+00 -0.51783265099E+03  0.59396245949E+03  0.12500222981E+03 0.  0.
          2    1    1    2  501    0  0.19703140454E+02  0.18716445127E+02 -0.15068318111E+04  0.15070768481E+04  0.00000000000E+00 0. -1.
          1    1    1    2  502    0  0.24300354822E+03 -0.19338642320E+02  0.18811905101E+04  0.18969191977E+04  0.00000000000E+00 0. -1.
         22    1    3    3    0    0 -0.24633374320E+03 -0.37701672859E+02 -0.44757562149E+03  0.51227499073E+03  0.00000000000E+00 0.  1.
         22    1    3    3    0    0 -0.16372945471E+02  0.38323870051E+02 -0.70257029494E+02  0.81687468760E+02  0.00000000000E+00 0.  1.
</event>
<event>
 7    1  0.5562528E-006  0.1795461E+03  0.7818608E-02  0.1376711E+00
          2   -1    0    0  502    0  0.00000000000E+00  0.00000000000E+00  0.10185469542E+04  0.10185469542E+04  0.00000000000E+00 0. -1.
          1   -1    0    0  501    0 -0.00000000000E+00 -0.00000000000E+00 -0.63215696429E+03  0.63215696429E+03  0.00000000000E+00 0. -1.
         25    2    1    2    0    0 -0.39525371823E+02 -0.17514135980E+03  0.46508130381E+03  0.51396610461E+03  0.12499514632E+03 0.  0.
          2    1    1    2  501    0  0.16043809861E+02  0.17886959700E+03 -0.59416693481E+03  0.62071417173E+03  0.00000000000E+00 0. -1.
          1    1    1    2  502    0  0.23481561962E+02 -0.37282371996E+01  0.51547562093E+03  0.51602364217E+03  0.00000000000E+00 0. -1.
         22    1    3    3    0    0 -0.32089341354E+01 -0.99325821010E+02  0.38587002692E+03  0.39846153347E+03  0.00000000000E+00 0. -1.
         22    1    3    3    0    0 -0.36316437688E+02 -0.75815538789E+02  0.79211276886E+02  0.11550457114E+03  0.00000000000E+00 0. -1.
</event>
<event>
 7    1  0.6881542E-006  0.9242505E+02  0.7818608E-02  0.1341633E+00
          2   -1    0    0  502    0  0.00000000000E+00  0.00000000000E+00  0.12055261758E+04  0.12055261758E+04  0.00000000000E+00 0. -1.
          1   -1    0    0  501    0 -0.00000000000E+00 -0.00000000000E+00 -0.88237425178E+03  0.88237425178E+03  0.00000000000E+00 0. -1.
         25    2    1    2    0    0 -0.12013994862E+03 -0.37852010762E+00 -0.10339175634E+03  0.20186081748E+03  0.12499673525E+03 0.  0.
          2    1    1    2  501    0  0.78903462047E+02  0.46739026098E+02 -0.72602900575E+03  0.73179806646E+03  0.00000000000E+00 0. -1.
          1    1    1    2  502    0  0.41236486569E+02 -0.46360505990E+02  0.11525726861E+04  0.11542415436E+04  0.00000000000E+00 0. -1.
         22    1    3    3    0    0 -0.96130303024E+02 -0.30182712365E+02 -0.12288437562E+03  0.15891067005E+03  0.00000000000E+00 0. -1.
         22    1    3    3    0    0 -0.24009645593E+02  0.29804192258E+02  0.19492619280E+02  0.42950147427E+02  0.00000000000E+00 0. -1.
</event>
<event>
 7    1  0.5562528E-006  0.8497149E+02  0.7818608E-02  0.1456574E+00
          2   -1    0    0  502    0  0.00000000000E+00  0.00000000000E+00  0.51678142857E+02  0.51678142857E+02  0.00000000000E+00 0. -1.
          1   -1    0    0  501    0 -0.00000000000E+00 -0.00000000000E+00 -0.49789532354E+03  0.49789532354E+03  0.00000000000E+00 0. -1.
         25    2    1    2    0    0  0.10081126649E+03 -0.32900109113E+02 -0.12321947463E+03  0.20506710442E+03  0.12499659898E+03 0.  0.
          2    1    1    2  501    0 -0.73893920030E+02  0.35936123748E+02 -0.29199852503E+03  0.30333950456E+03  0.00000000000E+00 0. -1.
          1    1    1    2  502    0 -0.26917346462E+02 -0.30360146351E+01 -0.30999181013E+02  0.41166857408E+02  0.00000000000E+00 0. -1.
         22    1    3    3    0    0  0.10337647693E+03 -0.47911964057E+02 -0.40447853420E+02  0.12090608392E+03  0.00000000000E+00 0. -1.
         22    1    3    3    0    0 -0.25652104397E+01  0.15011854945E+02 -0.82771621215E+02  0.84161020502E+02  0.00000000000E+00 0. -1.
</event>
<event>
 7    1  0.5562528E-006  0.3303293E+03  0.7818608E-02  0.1158965E+00
          2   -1    0    0  502    0  0.00000000000E+00  0.00000000000E+00  0.28579528348E+04  0.28579528348E+04  0.00000000000E+00 0. -1.
          1   -1    0    0  501    0 -0.00000000000E+00 -0.00000000000E+00 -0.41521723903E+03  0.41521723903E+03  0.00000000000E+00 0. -1.
         25    2    1    2    0    0  0.11306136670E+03 -0.37535609998E+03 -0.36233126482E+02  0.41305289963E+03  0.12499913602E+03 0.  0.
          2    1    1    2  501    0 -0.12316547149E+03  0.26718243062E+03 -0.75180607904E+02  0.30365820984E+03  0.00000000000E+00 0. -1.
          1    1    1    2  502    0  0.10104104790E+02  0.10817366937E+03  0.25541493302E+04  0.25564589644E+04  0.00000000000E+00 0. -1.
         22    1    3    3    0    0  0.11413440415E+03 -0.16330770406E+03 -0.23500023994E+02  0.20061983836E+03  0.00000000000E+00 0.  1.
         22    1    3    3    0    0 -0.10730374484E+01 -0.21204839592E+03 -0.12733102488E+02  0.21243306127E+03  0.00000000000E+00 0.  1.
</event>
<event>
 7    1  0.5562528E-006  0.7930626E+02  0.7818608E-02  0.1432919E+00
          2   -1    0    0  502    0  0.00000000000E+00  0.00000000000E+00  0.64864806132E+03  0.64864806132E+03  0.00000000000E+00 0. -1.
          1   -1    0    0  501    0 -0.00000000000E+00 -0.00000000000E+00 -0.34267849124E+04  0.34267849124E+04  0.00000000000E+00 0. -1.
         25    2    1    2    0    0 -0.65107928617E+02  0.22108214706E+02 -0.22082349205E+03  0.26289899506E+03  0.12500020574E+03 0.  0.
          2    1    1    2  501    0  0.79144094317E+02  0.95102594472E+01 -0.31839477348E+04  0.31849454329E+04  0.00000000000E+00 0. -1.
          1    1    1    2  502    0 -0.14036165700E+02 -0.31618474153E+02  0.62663437577E+03  0.62758854575E+03  0.00000000000E+00 0. -1.
         22    1    3    3    0    0 -0.42044396725E+02 -0.20766377453E+02 -0.11901931140E+02  0.48380054706E+02  0.00000000000E+00 0.  1.
         22    1    3    3    0    0 -0.23063531892E+02  0.42874592159E+02 -0.20892156091E+03  0.21451894035E+03  0.00000000000E+00 0.  1.
</event>
<event>
 7    1  0.5562528E-006  0.9018240E+02  0.7818608E-02  0.1475712E+00
          2   -1    0    0  502    0  0.00000000000E+00  0.00000000000E+00  0.26433147034E+03  0.26433147034E+03  0.00000000000E+00 0. -1.
          1   -1    0    0  501    0 -0.00000000000E+00 -0.00000000000E+00 -0.10482897394E+03  0.10482897394E+03  0.00000000000E+00 0. -1.
         25    2    1    2    0    0 -0.17541376428E+02  0.91252554537E+02  0.79055408646E+01  0.15595662314E+03  0.12500096851E+03 0.  0.
          2    1    1    2  501    0 -0.45831003412E+01 -0.89020986506E+02  0.37072820577E+02  0.96540845619E+02  0.00000000000E+00 0. -1.
          1    1    1    2  502    0  0.22124476769E+02 -0.22315680313E+01  0.11452413496E+03  0.11666297552E+03  0.00000000000E+00 0. -1.
         22    1    3    3    0    0 -0.21900460177E+02  0.11673403223E+03  0.29378488754E+02  0.12235015341E+03  0.00000000000E+00 0.  1.
         22    1    3    3    0    0  0.43590837493E+01 -0.25481477697E+02 -0.21472947889E+02  0.33606469731E+02  0.00000000000E+00 0.  1.
</event>
<event>
 7    1  0.5562528E-006  0.7190948E+02  0.7818608E-02  0.1354528E+00
          2   -1    0    0  502    0  0.00000000000E+00  0.00000000000E+00  0.13754967795E+04  0.13754967795E+04  0.00000000000E+00 0. -1.
          1   -1    0    0  501    0 -0.00000000000E+00 -0.00000000000E+00 -0.24242375326E+02  0.24242375326E+02  0.00000000000E+00 0. -1.
         25    2    1    2    0    0  0.10320047332E+02 -0.21674634010E+02  0.48111106729E+03  0.49766229744E+03  0.12499444024E+03 0.  0.
          2    1    1    2  501    0  0.70316520692E+02 -0.12490865912E+02  0.80587747692E+02  0.10767924541E+03  0.00000000000E+00 0. -1.
          1    1    1    2  502    0 -0.80636568024E+02  0.34165499922E+02  0.78955558919E+03  0.79439761197E+03  0.00000000000E+00 0. -1.
         22    1    3    3    0    0  0.52651365561E+02 -0.28405118344E+02  0.41212548539E+03  0.41644499367E+03  0.00000000000E+00 0.  1.
         22    1    3    3    0    0 -0.42331318228E+02  0.67304843337E+01  0.68985581895E+02  0.81217303770E+02  0.00000000000E+00 0.  1.
</event>
<event>
 7    1  0.5562528E-006  0.1114141E+03  0.7818608E-02  0.1310223E+00
          2   -1    0    0  502    0  0.00000000000E+00  0.00000000000E+00  0.18711565954E+04  0.18711565954E+04  0.00000000000E+00 0. -1.
          1   -1    0    0  501    0 -0.00000000000E+00 -0.00000000000E+00 -0.45268677253E+03  0.45268677253E+03  0.00000000000E+00 0. -1.
         25    2    1    2    0    0  0.35380688713E+02  0.16585532863E+03  0.51207540647E+03  0.55372045172E+03  0.12500133426E+03 0.  0.
          2    1    1    2  501    0  0.43957948290E+01 -0.67831033477E+02 -0.42708176203E+03  0.43245716965E+03  0.00000000000E+00 0. -1.
          1    1    1    2  502    0 -0.39776483542E+02 -0.98024295152E+02  0.13334761784E+04  0.13376657465E+04  0.00000000000E+00 0. -1.
         22    1    3    3    0    0  0.20786602722E+02  0.16017584439E+03  0.29702773837E+03  0.33810332938E+03  0.00000000000E+00 0. -1.
         22    1    3    3    0    0  0.14594085991E+02  0.56794842428E+01  0.21504766811E+03  0.21561712234E+03  0.00000000000E+00 0. -1.
</event>
<event>
 7    1  0.5562528E-006  0.1388832E+03  0.7818608E-02  0.1312096E+00
          2   -1    0    0  502    0  0.00000000000E+00  0.00000000000E+00  0.14584196708E+04  0.14584196708E+04  0.00000000000E+00 0. -1.
          1   -1    0    0  501    0 -0.00000000000E+00 -0.00000000000E+00 -0.39088304304E+03  0.39088304304E+03  0.00000000000E+00 0. -1.
         25    2    1    2    0    0  0.15068640702E+03  0.10440684156E+03  0.11359106485E+03  0.24926834445E+03  0.12499838281E+03 0.  0.
          2    1    1    2  501    0 -0.98211528887E+02 -0.93424242380E+02 -0.30823117547E+03  0.33671954354E+03  0.00000000000E+00 0. -1.
          1    1    1    2  502    0 -0.52474878133E+02 -0.10982599184E+02  0.12621767384E+04  0.12633148258E+04  0.00000000000E+00 0. -1.
         22    1    3    3    0    0 -0.35676458052E+01  0.20317450142E+01  0.54899512282E+02  0.55052815852E+02  0.00000000000E+00 0.  1.
         22    1    3    3    0    0  0.15425405283E+03  0.10237509655E+03  0.58691552570E+02  0.19421552860E+03  0.00000000000E+00 0.  1.
</event>
<event>
 7    1  0.5562528E-006  0.1641525E+03  0.7818608E-02  0.1242652E+00
          2   -1    0    0  502    0  0.00000000000E+00  0.00000000000E+00  0.24192135236E+04  0.24192135236E+04  0.00000000000E+00 0. -1.
          1   -1    0    0  501    0 -0.00000000000E+00 -0.00000000000E+00 -0.39993136588E+03  0.39993136588E+03  0.00000000000E+00 0. -1.
         25    2    1    2    0    0  0.57680588016E+02  0.11953275596E+03  0.79951174132E+01  0.18249185665E+03  0.12499690340E+03 0.  0.
          2    1    1    2  501    0  0.82531695827E+02 -0.30879028398E+02 -0.30344678788E+03  0.31598251263E+03  0.00000000000E+00 0. -1.
          1    1    1    2  502    0 -0.14021228384E+03 -0.88653727562E+02  0.23147338282E+04  0.23206705202E+04  0.00000000000E+00 0. -1.
         22    1    3    3    0    0  0.22134550399E+02  0.13599619158E+03  0.24564419345E+02  0.13995825500E+03  0.00000000000E+00 0. -1.
         22    1    3    3    0    0  0.35546037616E+02 -0.16463435617E+02 -0.16569301932E+02  0.42533601647E+02  0.00000000000E+00 0. -1.
</event>
<event>
 7    1  0.5562528E-006  0.5801438E+02  0.7818608E-02  0.1465475E+00
          2   -1    0    0  502    0  0.00000000000E+00  0.00000000000E+00  0.27445038815E+04  0.27445038815E+04  0.00000000000E+00 0. -1.
          1   -1    0    0  501    0 -0.00000000000E+00 -0.00000000000E+00 -0.15513189240E+03  0.15513189240E+03  0.00000000000E+00 0. -1.
         25    2    1    2    0    0  0.20660913641E+02  0.73799928442E+02  0.34146506833E+03  0.37161392013E+03  0.12500083980E+03 0.  0.
          2    1    1    2  501    0 -0.39846980378E+02 -0.41936249610E+02 -0.13393275621E+03  0.14589178888E+03  0.00000000000E+00 0. -1.
          1    1    1    2  502    0  0.19186066737E+02 -0.31863678832E+02  0.23818396770E+04  0.23821300649E+04  0.00000000000E+00 0. -1.
         22    1    3    3    0    0  0.66497500694E+02  0.54473713206E+02  0.27794197753E+03  0.29093134225E+03  0.00000000000E+00 0. -1.
         22    1    3    3    0    0 -0.45836587053E+02  0.19326215237E+02  0.63523090806E+02  0.80682577882E+02  0.00000000000E+00 0. -1.
</event>
<event>
 7    1  0.5562528E-006  0.8574062E+02  0.7818608E-02  0.1441426E+00
          2   -1    0    0  502    0  0.00000000000E+00  0.00000000000E+00  0.21187101486E+03  0.21187101486E+03  0.00000000000E+00 0. -1.
          1   -1    0    0  501    0 -0.00000000000E+00 -0.00000000000E+00 -0.14183357778E+03  0.14183357778E+03  0.00000000000E+00 0. -1.
         25    2    1    2    0    0  0.12391029105E+02  0.68659209383E+02  0.69490483414E+02  0.15912823309E+03  0.12500097058E+03 0.  0.
          2    1    1    2  501    0 -0.40384355586E+02 -0.79500519702E+02 -0.72935215079E+02  0.11519884725E+03  0.00000000000E+00 0. -1.
          1    1    1    2  502    0  0.27993326481E+02  0.10841310319E+02  0.73482168742E+02  0.79377512306E+02  0.00000000000E+00 0. -1.
         22    1    3    3    0    0 -0.23256559067E+02  0.61968860661E+02 -0.14395856514E+02  0.67736606912E+02  0.00000000000E+00 0.  1.
         22    1    3    3    0    0  0.35647588172E+02  0.66903487224E+01  0.83886339927E+02  0.91391626175E+02  0.00000000000E+00 0.  1.
</event>
<event>
 7    1  0.5562528E-006  0.7297193E+02  0.7818608E-02  0.1499377E+00
          2   -1    0    0  502    0  0.00000000000E+00  0.00000000000E+00  0.44394353254E+03  0.44394353254E+03  0.00000000000E+00 0. -1.
          1   -1    0    0  501    0 -0.00000000000E+00 -0.00000000000E+00 -0.12546158510E+03  0.12546158510E+03  0.00000000000E+00 0. -1.
         25    2    1    2    0    0 -0.36202441862E+02  0.58803105481E+02  0.21656833666E+03  0.25941512672E+03  0.12500376602E+03 0.  0.
          2    1    1    2  501    0  0.16649455613E+02 -0.71458370708E+02 -0.90310873689E+02  0.11635960220E+03  0.00000000000E+00 0. -1.
          1    1    1    2  502    0  0.19552986249E+02  0.12655265228E+02  0.19222448447E+03  0.19363038872E+03  0.00000000000E+00 0. -1.
         22    1    3    3    0    0  0.14110081635E+02  0.72616028117E+02  0.18297177080E+03  0.19735969916E+03  0.00000000000E+00 0. -1.
         22    1    3    3    0    0 -0.50312523496E+02 -0.13812922636E+02  0.33596565853E+02  0.62055427558E+02  0.00000000000E+00 0. -1.
</event>
<event>
 7    1  0.5562528E-006  0.2324807E+03  0.7818608E-02  0.1133762E+00
          2   -1    0    0  502    0  0.00000000000E+00  0.00000000000E+00  0.39300358363E+03  0.39300358363E+03  0.00000000000E+00 0. -1.
          1   -1    0    0  501    0 -0.00000000000E+00 -0.00000000000E+00 -0.32591115116E+04  0.32591115116E+04  0.00000000000E+00 0. -1.
         25    2    1    2    0    0  0.17489600112E+03  0.50284402656E+00  0.14649539191E+03  0.26014402504E+03  0.12500059940E+03 0.  0.
          2    1    1    2  501    0 -0.12119871066E+03 -0.20196661838E+03 -0.31392166427E+04  0.31480407831E+04  0.00000000000E+00 0. -1.
          1    1    1    2  502    0 -0.53697290459E+02  0.20146377435E+03  0.12661332288E+03  0.24393028699E+03  0.00000000000E+00 0. -1.
         22    1    3    3    0    0  0.49070100875E+02  0.11541167414E+01 -0.18665438565E+02  0.52512906815E+02  0.00000000000E+00 0.  1.
         22    1    3    3    0    0  0.12582590025E+03 -0.65127271485E+00  0.16516083048E+03  0.20763111822E+03  0.00000000000E+00 0.  1.
</event>
<event>
 7    1  0.5562528E-006  0.9881078E+02  0.7818608E-02  0.1381391E+00
          2   -1    0    0  502    0  0.00000000000E+00  0.00000000000E+00  0.15322836244E+03  0.15322836244E+03  0.00000000000E+00 0. -1.
          1   -1    0    0  501    0 -0.00000000000E+00 -0.00000000000E+00 -0.65698553219E+03  0.65698553219E+03  0.00000000000E+00 0. -1.
         25    2    1    2    0    0  0.20471442012E+02 -0.57527749072E+02  0.54885079182E+02  0.14955336560E+03  0.12500126157E+03 0.  0.
          2    1    1    2  501    0 -0.49387459712E+02  0.87409532224E+02 -0.59622049792E+03  0.60461428170E+03  0.00000000000E+00 0. -1.
          1    1    1    2  502    0  0.28916017701E+02 -0.29881783153E+02  0.37578248981E+02  0.56046247337E+02  0.00000000000E+00 0. -1.
         22    1    3    3    0    0  0.55484846263E+02  0.15720244033E+02  0.18282679502E+02  0.60497525627E+02  0.00000000000E+00 0. -1.
         22    1    3    3    0    0 -0.35013404251E+02 -0.73247993105E+02  0.36602399680E+02  0.89055839974E+02  0.00000000000E+00 0. -1.
</event>
<event>
 7    1  0.5562528E-006  0.7795821E+02  0.7818608E-02  0.1475401E+00
          2   -1    0    0  502    0  0.00000000000E+00  0.00000000000E+00  0.13718033021E+04  0.13718033021E+04  0.00000000000E+00 0. -1.
          1   -1    0    0  501    0 -0.00000000000E+00 -0.00000000000E+00 -0.15635614485E+03  0.15635614485E+03  0.00000000000E+00 0. -1.
         25    2    1    2    0    0  0.81442782308E+02 -0.27658318479E+02 -0.29608493222E+02  0.15459603978E+03  0.12500145308E+03 0.  0.
          2    1    1    2  501    0 -0.35672970846E+01  0.25532468971E+02 -0.60459149189E+02  0.65726260360E+02  0.00000000000E+00 0. -1.
          1    1    1    2  502    0 -0.77875485223E+02  0.21258495075E+01  0.13055147996E+04  0.13078371468E+04  0.00000000000E+00 0. -1.
         22    1    3    3    0    0 -0.60590464016E+01  0.40096497754E+02 -0.23431038676E+01  0.40619346513E+02  0.00000000000E+00 0.  1.
         22    1    3    3    0    0  0.87501828710E+02 -0.67754816233E+02 -0.27265389354E+02  0.11397669326E+03  0.00000000000E+00 0.  1.
</event>
<event>
 7    1  0.5562528E-006  0.7085378E+02  0.7818608E-02  0.1363329E+00
          2   -1    0    0  502    0  0.00000000000E+00  0.00000000000E+00  0.22798564392E+04  0.22798564392E+04  0.00000000000E+00 0. -1.
          1   -1    0    0  501    0 -0.00000000000E+00 -0.00000000000E+00 -0.31233773154E+03  0.31233773154E+03  0.00000000000E+00 0. -1.
         25    2    1    2    0    0  0.19685560616E+02  0.98431273566E+01 -0.10373327100E+03  0.16391798298E+03  0.12499642066E+03 0.  0.
          2    1    1    2  501    0 -0.72776710579E+02 -0.51212642444E+02 -0.16688414338E+03  0.18912826774E+03  0.00000000000E+00 0. -1.
          1    1    1    2  502    0  0.53091149964E+02  0.41369515087E+02  0.22381361220E+04  0.22391479200E+04  0.00000000000E+00 0. -1.
         22    1    3    3    0    0  0.99021969418E+01 -0.83011144542E+01 -0.12993698748E+03  0.13057787990E+03  0.00000000000E+00 0.  1.
         22    1    3    3    0    0  0.97833636739E+01  0.18144241811E+02  0.26203716480E+02  0.33340103075E+02  0.00000000000E+00 0.  1.
</event>
<event>
 7    1  0.5562528E-006  0.1564533E+03  0.7818608E-02  0.1288631E+00
          2   -1    0    0  502    0  0.00000000000E+00  0.00000000000E+00  0.14490149448E+04  0.14490149448E+04  0.00000000000E+00 0. -1.
          1   -1    0    0  501    0 -0.00000000000E+00 -0.00000000000E+00 -0.24538463130E+03  0.24538463130E+03  0.00000000000E+00 0. -1.
         25    2    1    2    0    0 -0.11989972602E+02 -0.10892341303E+03  0.16358785895E+03  0.23322314324E+03  0.12499591033E+03 0.  0.
          2    1    1    2  501    0  0.44820411747E+02  0.15803749938E+03 -0.17770342653E+03  0.24199840561E+03  0.00000000000E+00 0. -1.
          1    1    1    2  502    0 -0.32830439146E+02 -0.49114086348E+02  0.12177458811E+04  0.12191780272E+04  0.00000000000E+00 0. -1.
         22    1    3    3    0    0 -0.40131868842E+02 -0.67143619894E+01  0.10385263524E+03  0.11153931773E+03  0.00000000000E+00 0. -1.
         22    1    3    3    0    0  0.28141896240E+02 -0.10220905104E+03  0.59735223707E+02  0.12168382551E+03  0.00000000000E+00 0. -1.
</event>
<event>
 7    1  0.5562528E-006  0.6006229E+02  0.7818608E-02  0.1448508E+00
          2   -1    0    0  502    0  0.00000000000E+00  0.00000000000E+00  0.92328501590E+03  0.92328501590E+03  0.00000000000E+00 0. -1.
          1   -1    0    0  501    0 -0.00000000000E+00 -0.00000000000E+00 -0.84485343416E+03  0.84485343416E+03  0.00000000000E+00 0. -1.
         25    2    1    2    0    0 -0.29021752368E+02  0.47336316646E+02 -0.51382165458E+02  0.14611114876E+03  0.12500140751E+03 0.  0.
          2    1    1    2  501    0  0.38813214173E+02  0.12113577241E+02 -0.74451530675E+03  0.74562473560E+03  0.00000000000E+00 0. -1.
          1    1    1    2  502    0 -0.97914618058E+01 -0.59449893887E+02  0.87432905395E+03  0.87640256571E+03  0.00000000000E+00 0. -1.
         22    1    3    3    0    0 -0.14778302472E+02  0.82138781210E+02 -0.12808342290E+01  0.83467467548E+02  0.00000000000E+00 0. -1.
         22    1    3    3    0    0 -0.14243449895E+02 -0.34802464564E+02 -0.50101331229E+02  0.62643681210E+02  0.00000000000E+00 0. -1.
</event>
<event>
 7    1  0.5562528E-006  0.1482775E+03  0.7818608E-02  0.1280032E+00
          2   -1    0    0  502    0  0.00000000000E+00  0.00000000000E+00  0.82259094122E+02  0.82259094122E+02  0.00000000000E+00 0. -1.
          1   -1    0    0  501    0 -0.00000000000E+00 -0.00000000000E+00 -0.16561419161E+04  0.16561419161E+04  0.00000000000E+00 0. -1.
         25    2    1    2    0    0  0.13216551536E+03  0.13183772385E+03 -0.11046510349E+04  0.11272655259E+04  0.12499899202E+03 0.  0.
          2    1    1    2  501    0 -0.71925714520E+02 -0.10113946573E+03 -0.51483510747E+03  0.52958255997E+03  0.00000000000E+00 0. -1.
          1    1    1    2  502    0 -0.60239800843E+02 -0.30698258123E+02  0.45603320348E+02  0.81552924437E+02  0.00000000000E+00 0. -1.
         22    1    3    3    0    0  0.14237250323E+02  0.56942217958E+02 -0.62313692684E+03  0.62589515502E+03  0.00000000000E+00 0.  1.
         22    1    3    3    0    0  0.11792826504E+03  0.74895505895E+02 -0.48151410805E+03  0.50137037083E+03  0.00000000000E+00 0.  1.
</event>
<event>
 7    1  0.5562528E-006  0.6238645E+02  0.7818608E-02  0.1394446E+00
          2   -1    0    0  502    0  0.00000000000E+00  0.00000000000E+00  0.31113938562E+04  0.31113938562E+04  0.00000000000E+00 0. -1.
          1   -1    0    0  501    0 -0.00000000000E+00 -0.00000000000E+00 -0.13560374644E+03  0.13560374644E+03  0.00000000000E+00 0. -1.
         25    2    1    2    0    0 -0.83508619406E+01 -0.34234517688E+02  0.11797685615E+04  0.11868955141E+04  0.12500145480E+03 0.  0.
          2    1    1    2  501    0 -0.50882295091E+02  0.36630991296E+02 -0.12411444762E+03  0.13905119052E+03  0.00000000000E+00 0. -1.
          1    1    1    2  502    0  0.59233157031E+02 -0.23964736077E+01  0.19201359958E+04  0.19210508980E+04  0.00000000000E+00 0. -1.
         22    1    3    3    0    0 -0.47068336978E+02 -0.62854721878E+02  0.59713880982E+03  0.60227975444E+03  0.00000000000E+00 0.  1.
         22    1    3    3    0    0  0.38717475038E+02  0.28620204190E+02  0.58262975168E+03  0.58461575971E+03  0.00000000000E+00 0.  1.
</event>
<event>
 7    1  0.5562528E-006  0.4825501E+02  0.7818608E-02  0.1517950E+00
          2   -1    0    0  502    0  0.00000000000E+00  0.00000000000E+00  0.11970236502E+03  0.11970236502E+03  0.00000000000E+00 0. -1.
          1   -1    0    0  501    0 -0.00000000000E+00 -0.00000000000E+00 -0.50779428870E+03  0.50779428870E+03  0.00000000000E+00 0. -1.
         25    2    1    2    0    0 -0.68850621961E+02 -0.26855077272E+02 -0.13003486634E+03  0.19492489176E+03  0.12500017458E+03 0.  0.
          2    1    1    2  501    0  0.21748563986E+02  0.22157801647E+02 -0.33813071890E+03  0.33955316414E+03  0.00000000000E+00 0. -1.
          1    1    1    2  502    0  0.47102057976E+02  0.46972756248E+01  0.80073661563E+02  0.93018597818E+02  0.00000000000E+00 0. -1.
         22    1    3    3    0    0 -0.53598944738E+02 -0.44240537805E+02 -0.71305581339E+01  0.69863559326E+02  0.00000000000E+00 0.  1.
         22    1    3    3    0    0 -0.15251677223E+02  0.17385460533E+02 -0.12290430820E+03  0.12506133244E+03  0.00000000000E+00 0.  1.
</event>
<event>
 7    1  0.5562528E-006  0.1183803E+03  0.7818608E-02  0.1381931E+00
          2   -1    0    0  502    0  0.00000000000E+00  0.00000000000E+00  0.11644017218E+04  0.11644017218E+04  0.00000000000E+00 0. -1.
          1   -1    0    0  501    0 -0.00000000000E+00 -0.00000000000E+00 -0.61413762429E+02  0.61413762429E+02  0.00000000000E+00 0. -1.
         25    2    1    2    0    0 -0.42728259917E+02  0.82012357010E+02  0.31325635240E+03  0.34972366285E+03  0.12500146855E+03 0.  0.
          2    1    1    2  501    0  0.67730180489E+02 -0.10586624600E+03  0.49533282975E+02  0.13508732551E+03  0.00000000000E+00 0. -1.
          1    1    1    2  502    0 -0.25001920572E+02  0.23853888992E+02  0.74019832398E+03  0.74100449585E+03  0.00000000000E+00 0. -1.
         22    1    3    3    0    0 -0.84881790190E+02  0.36541901011E+02  0.20715664575E+03  0.22683497243E+03  0.00000000000E+00 0. -1.
         22    1    3    3    0    0  0.42153530273E+02  0.45470455999E+02  0.10609970665E+03  0.12288869042E+03  0.00000000000E+00 0. -1.
</event>
<event>
 7    1  0.5562528E-006  0.5452664E+02  0.7818608E-02  0.1435848E+00
          2   -1    0    0  502    0  0.00000000000E+00  0.00000000000E+00  0.16800118331E+04  0.16800118331E+04  0.00000000000E+00 0. -1.
          1   -1    0    0  501    0 -0.00000000000E+00 -0.00000000000E+00 -0.17708473174E+03  0.17708473174E+03  0.00000000000E+00 0. -1.
         25    2    1    2    0    0 -0.71521440127E+01  0.32795134723E+01  0.75150635951E+02  0.14606439228E+03  0.12500112094E+03 0.  0.
          2    1    1    2  501    0  0.55034015886E+02 -0.14665326654E+02 -0.13549892388E+03  0.14698222030E+03  0.00000000000E+00 0. -1.
          1    1    1    2  502    0 -0.47881871874E+02  0.11385813182E+02  0.15632753893E+04  0.15640499523E+04  0.00000000000E+00 0. -1.
         22    1    3    3    0    0 -0.39857248171E+02 -0.48881201300E+02  0.30817821285E+02  0.70197650823E+02  0.00000000000E+00 0. -1.
         22    1    3    3    0    0  0.32705104158E+02  0.52160714772E+02  0.44332814666E+02  0.75866741460E+02  0.00000000000E+00 0. -1.
</event>
<event>
 7    1  0.5562528E-006  0.1642826E+03  0.7818608E-02  0.1349276E+00
          2   -1    0    0  502    0  0.00000000000E+00  0.00000000000E+00  0.17354076071E+04  0.17354076071E+04  0.00000000000E+00 0. -1.
          1   -1    0    0  501    0 -0.00000000000E+00 -0.00000000000E+00 -0.76637129648E+02  0.76637129648E+02  0.00000000000E+00 0. -1.
         25    2    1    2    0    0  0.19046370411E+03 -0.82012438573E+01  0.52870367385E+03  0.57575747040E+03  0.12500162796E+03 0.  0.
          2    1    1    2  501    0 -0.15810561525E+03  0.12839308006E+02  0.66146728917E+02  0.17186513070E+03  0.00000000000E+00 0. -1.
          1    1    1    2  502    0 -0.32358088860E+02 -0.46380641486E+01  0.10639200747E+04  0.10644221356E+04  0.00000000000E+00 0. -1.
         22    1    3    3    0    0  0.95432392371E+02  0.49265569365E+02  0.34257138342E+03  0.35901196439E+03  0.00000000000E+00 0.  1.
         22    1    3    3    0    0  0.95031311738E+02 -0.57466813223E+02  0.18613229043E+03  0.21674550601E+03  0.00000000000E+00 0.  1.
</event>
<event>
 7    1  0.5562528E-006  0.6107477E+02  0.7818608E-02  0.1524935E+00
          2   -1    0    0  502    0  0.00000000000E+00  0.00000000000E+00  0.87289879272E+03  0.87289879272E+03  0.00000000000E+00 0. -1.
          1   -1    0    0  501    0 -0.00000000000E+00 -0.00000000000E+00 -0.39383509254E+02  0.39383509254E+02  0.00000000000E+00 0. -1.
         25    2    1    2    0    0  0.59793734968E+02  0.23048252187E+02  0.43817332130E+03  0.46013753735E+03  0.12499672440E+03 0.  0.
          2    1    1    2  501    0 -0.45114506965E+02 -0.41288597814E+02  0.52831292357E+01  0.61383861908E+02  0.00000000000E+00 0. -1.
          1    1    1    2  502    0 -0.14679228002E+02  0.18240345627E+02  0.39005883293E+03  0.39076090272E+03  0.00000000000E+00 0. -1.
         22    1    3    3    0    0  0.41872202001E+02 -0.24449689026E+02  0.53798751300E+02  0.72424955888E+02  0.00000000000E+00 0.  1.
         22    1    3    3    0    0  0.17921532966E+02  0.47497941213E+02  0.38437457000E+03  0.38771258146E+03  0.00000000000E+00 0.  1.
</event>
<event>
 7    1  0.5562528E-006  0.3997892E+02  0.7818608E-02  0.1605410E+00
          2   -1    0    0  502    0  0.00000000000E+00  0.00000000000E+00  0.76848984052E+03  0.76848984052E+03  0.00000000000E+00 0. -1.
          1   -1    0    0  501    0 -0.00000000000E+00 -0.00000000000E+00 -0.67651136154E+02  0.67651136154E+02  0.00000000000E+00 0. -1.
         25    2    1    2    0    0  0.20838301601E+02  0.11154333652E+02  0.26475057746E+03  0.29372945459E+03  0.12500188102E+03 0.  0.
          2    1    1    2  501    0 -0.40433164952E+02 -0.22000088016E+01 -0.45174782393E+02  0.60666645127E+02  0.00000000000E+00 0. -1.
          1    1    1    2  502    0  0.19594863350E+02 -0.89543248500E+01  0.48126290930E+03  0.48174487695E+03  0.00000000000E+00 0. -1.
         22    1    3    3    0    0  0.20288264057E+02  0.57907317467E+02  0.22217883448E+03  0.23049578210E+03  0.00000000000E+00 0.  1.
         22    1    3    3    0    0  0.55003754450E+00 -0.46752983815E+02  0.42571742980E+02  0.63233672495E+02  0.00000000000E+00 0.  1.
</event>
<event>
 7    1  0.5562528E-006  0.5291178E+02  0.7818608E-02  0.1558537E+00
          2   -1    0    0  502    0  0.00000000000E+00  0.00000000000E+00  0.55188777859E+03  0.55188777859E+03  0.00000000000E+00 0. -1.
          1   -1    0    0  501    0 -0.00000000000E+00 -0.00000000000E+00 -0.10643932045E+04  0.10643932045E+04  0.00000000000E+00 0. -1.
         25    2    1    2    0    0  0.32333734348E+02 -0.33622523700E+02  0.11932224356E+03  0.17899283367E+03  0.12499876887E+03 0.  0.
          2    1    1    2  501    0  0.17171976589E+02  0.13310964198E+02 -0.10326656591E+04  0.10328941970E+04  0.00000000000E+00 0. -1.
          1    1    1    2  502    0 -0.49505710938E+02  0.20311559502E+02  0.40083798964E+03  0.40439395248E+03  0.00000000000E+00 0. -1.
         22    1    3    3    0    0  0.10604902524E+02  0.11810295561E+02 -0.23043898407E+02  0.27981570588E+02  0.00000000000E+00 0.  1.
         22    1    3    3    0    0  0.21728831825E+02 -0.45432819261E+02  0.14236614197E+03  0.15101126308E+03  0.00000000000E+00 0.  1.
</event>
<event>
 7    1  0.5562528E-006  0.8890996E+02  0.7818608E-02  0.1389455E+00
          2   -1    0    0  502    0  0.00000000000E+00  0.00000000000E+00  0.46877597150E+02  0.46877597150E+02  0.00000000000E+00 0. -1.
          1   -1    0    0  501    0 -0.00000000000E+00 -0.00000000000E+00 -0.17447467325E+04  0.17447467325E+04  0.00000000000E+00 0. -1.
         25    2    1    2    0    0 -0.98779061415E+02  0.31191860010E+00 -0.36044042934E+03  0.39408086146E+03  0.12500008798E+03 0.  0.
          2    1    1    2  501    0  0.18970217613E+02 -0.38916694855E+02 -0.13009601900E+04  0.13016803733E+04  0.00000000000E+00 0. -1.
          1    1    1    2  502    0  0.79808843802E+02  0.38604776255E+02 -0.36468515987E+02  0.95863094865E+02  0.00000000000E+00 0. -1.
         22    1    3    3    0    0  0.20212697979E+02  0.30346426957E+02 -0.89494368294E+02  0.96636953310E+02  0.00000000000E+00 0.  1.
         22    1    3    3    0    0 -0.11899175939E+03 -0.30034508357E+02 -0.27094606105E+03  0.29744390815E+03  0.00000000000E+00 0.  1.
</event>
<event>
 7    1  0.6749379E-006  0.1193048E+03  0.7818608E-02  0.1301624E+00
          2   -1    0    0  502    0  0.00000000000E+00  0.00000000000E+00  0.26746410510E+04  0.26746410510E+04  0.00000000000E+00 0. -1.
          1   -1    0    0  501    0 -0.00000000000E+00 -0.00000000000E+00 -0.18971725320E+04  0.18971725320E+04  0.00000000000E+00 0. -1.
         25    2    1    2    0    0  0.16788764785E+03  0.69095233942E+02 -0.46063940526E+03  0.51066062411E+03  0.12500079071E+03 0.  0.
          2    1    1    2  501    0 -0.10789506050E+03 -0.35695289377E+02 -0.14087890573E+04  0.14133655245E+04  0.00000000000E+00 0. -1.
          1    1    1    2  502    0 -0.59992587351E+02 -0.33399944565E+02  0.26468969816E+04  0.26477874344E+04  0.00000000000E+00 0. -1.
         22    1    3    3    0    0  0.95822883006E+01 -0.22054609370E+02 -0.13641114626E+03  0.13851435617E+03  0.00000000000E+00 0. -1.
         22    1    3    3    0    0  0.15830535955E+03  0.91149843312E+02 -0.32422825901E+03  0.37214626793E+03  0.00000000000E+00 0. -1.
</event>
<event>
 7    1  0.5562528E-006  0.9568380E+02  0.7818608E-02  0.1318585E+00
          2   -1    0    0  502    0  0.00000000000E+00  0.00000000000E+00  0.25412555651E+03  0.25412555651E+03  0.00000000000E+00 0. -1.
          1   -1    0    0  501    0 -0.00000000000E+00 -0.00000000000E+00 -0.11996154331E+04  0.11996154331E+04  0.00000000000E+00 0. -1.
         25    2    1    2    0    0  0.13063226523E+03 -0.25056869373E+02 -0.12190654227E+03  0.21949625542E+03  0.12499906269E+03 0.  0.
          2    1    1    2  501    0 -0.88243621843E+02 -0.34869180277E+02 -0.10200812299E+04  0.10244845104E+04  0.00000000000E+00 0. -1.
          1    1    1    2  502    0 -0.42388643391E+02  0.59926049650E+02  0.19649789556E+03  0.20976022377E+03  0.00000000000E+00 0. -1.
         22    1    3    3    0    0  0.12176174412E+03 -0.57592424421E+02 -0.12731439367E+03  0.18534229015E+03  0.00000000000E+00 0. -1.
         22    1    3    3    0    0  0.88705211132E+01  0.32535555049E+02  0.54078513999E+01  0.34153965274E+02  0.00000000000E+00 0. -1.
</event>
<event>
 7    1  0.5562528E-006  0.1296452E+03  0.7818608E-02  0.1363927E+00
          2   -1    0    0  502    0  0.00000000000E+00  0.00000000000E+00  0.90848189985E+03  0.90848189985E+03  0.00000000000E+00 0. -1.
          1   -1    0    0  501    0 -0.00000000000E+00 -0.00000000000E+00 -0.53208208531E+03  0.53208208531E+03  0.00000000000E+00 0. -1.
         25    2    1    2    0    0  0.13675290561E+03 -0.25867677048E+01 -0.29255413442E+01  0.18531346923E+03  0.12499789808E+03 0.  0.
          2    1    1    2  501    0 -0.12399490923E+03  0.36892125339E+02 -0.42798570458E+03  0.44711019867E+03  0.00000000000E+00 0. -1.
          1    1    1    2  502    0 -0.12757996382E+02 -0.34305357635E+02  0.80731106047E+03  0.80814031727E+03  0.00000000000E+00 0. -1.
         22    1    3    3    0    0 -0.14484916639E+02 -0.25941818897E+02 -0.11931956563E+02  0.32018156804E+02  0.00000000000E+00 0.  1.
         22    1    3    3    0    0  0.15123782225E+03  0.23355051192E+02  0.90064152189E+01  0.15329531242E+03  0.00000000000E+00 0.  1.
</event>
<event>
 7    1  0.5562528E-006  0.3799378E+02  0.7818608E-02  0.1524030E+00
          2   -1    0    0  502    0  0.00000000000E+00  0.00000000000E+00  0.31949086429E+03  0.31949086429E+03  0.00000000000E+00 0. -1.
          1   -1    0    0  501    0 -0.00000000000E+00 -0.00000000000E+00 -0.96282813300E+03  0.96282813300E+03  0.00000000000E+00 0. -1.
         25    2    1    2    0    0 -0.22331873908E+02 -0.16045431434E+02  0.27467902362E+02  0.13090813751E+03  0.12500514527E+03 0.  0.
          2    1    1    2  501    0  0.32137795598E+02 -0.20527022589E+02 -0.90921430054E+03  0.91001364873E+03  0.00000000000E+00 0. -1.
          1    1    1    2  502    0 -0.98059216901E+01  0.36572454022E+02  0.23840912946E+03  0.24139721105E+03  0.00000000000E+00 0. -1.
         22    1    3    3    0    0 -0.51546944496E+01 -0.35308789048E+01  0.76872669759E+02  0.77126165059E+02  0.00000000000E+00 0. -1.
         22    1    3    3    0    0 -0.17177179458E+02 -0.12514552529E+02 -0.49404767398E+02  0.53781972451E+02  0.00000000000E+00 0. -1.
</event>
<event>
 7    1  0.5562528E-006  0.6294642E+02  0.7818608E-02  0.1471658E+00
          2   -1    0    0  502    0  0.00000000000E+00  0.00000000000E+00  0.37039412703E+04  0.37039412703E+04  0.00000000000E+00 0. -1.
          1   -1    0    0  501    0 -0.00000000000E+00 -0.00000000000E+00 -0.84257639794E+02  0.84257639794E+02  0.00000000000E+00 0. -1.
         25    2    1    2    0    0 -0.16815569496E+01  0.36961113784E+02  0.30058369766E+04  0.30086624873E+04  0.12500032552E+03 0.  0.
          2    1    1    2  501    0  0.28019244502E+02 -0.56496609814E+02 -0.70393894243E+02  0.94510556710E+02  0.00000000000E+00 0. -1.
          1    1    1    2  502    0 -0.26337687553E+02  0.19535496030E+02  0.68424054813E+03  0.68502586600E+03  0.00000000000E+00 0. -1.
         22    1    3    3    0    0  0.46555479312E+02  0.60354690257E+02  0.18956282477E+04  0.18971601290E+04  0.00000000000E+00 0.  1.
         22    1    3    3    0    0 -0.48237036262E+02 -0.23393576473E+02  0.11102087288E+04  0.11115023584E+04  0.00000000000E+00 0.  1.
</event>
<event>
 7    1  0.5562528E-006  0.6163653E+02  0.7818608E-02  0.1447948E+00
          2   -1    0    0  502    0  0.00000000000E+00  0.00000000000E+00  0.81172310762E+03  0.81172310762E+03  0.00000000000E+00 0. -1.
          1   -1    0    0  501    0 -0.00000000000E+00 -0.00000000000E+00 -0.22959920475E+03  0.22959920475E+03  0.00000000000E+00 0. -1.
         25    2    1    2    0    0  0.52588537855E+02  0.34925086885E+02 -0.15618344866E+03  0.20977598258E+03  0.12500950853E+03 0.  0.
          2    1    1    2  501    0  0.90044912221E+01 -0.38752843967E+02 -0.36675328923E+02  0.54110475228E+02  0.00000000000E+00 0. -1.
          1    1    1    2  502    0 -0.61593029077E+02  0.38277570818E+01  0.77498268046E+03  0.77743585456E+03  0.00000000000E+00 0. -1.
         22    1    3    3    0    0  0.29641223035E+02  0.80659525916E+02 -0.76348374255E+02  0.11495057840E+03  0.00000000000E+00 0.  1.
         22    1    3    3    0    0  0.22947314820E+02 -0.45734439031E+02 -0.79835074408E+02  0.94825404173E+02  0.00000000000E+00 0.  1.
</event>
<event>
 7    1  0.5562528E-006  0.6497997E+02  0.7818608E-02  0.1517590E+00
          2   -1    0    0  502    0  0.00000000000E+00  0.00000000000E+00  0.10634952293E+04  0.10634952293E+04  0.00000000000E+00 0. -1.
          1   -1    0    0  501    0 -0.00000000000E+00 -0.00000000000E+00 -0.48299836921E+03  0.48299836921E+03  0.00000000000E+00 0. -1.
         25    2    1    2    0    0 -0.72854716622E+02 -0.43854207378E+02 -0.32389852639E+03  0.35744213194E+03  0.12499448408E+03 0.  0.
          2    1    1    2  501    0  0.12767458731E+02  0.19265700876E+02 -0.14037542804E+03  0.14226537186E+03  0.00000000000E+00 0. -1.
          1    1    1    2  502    0  0.60087257891E+02  0.24588506502E+02  0.10447708145E+04  0.10467860947E+04  0.00000000000E+00 0. -1.
         22    1    3    3    0    0 -0.81734561802E+02 -0.79041794684E+02 -0.26340739479E+03  0.28689998175E+03  0.00000000000E+00 0.  1.
         22    1    3    3    0    0  0.88798451800E+01  0.35187587306E+02 -0.60491131602E+02  0.70542150189E+02  0.00000000000E+00 0.  1.
</event>
<event>
 7    1  0.5562528E-006  0.6176722E+02  0.7818608E-02  0.1394027E+00
          2   -1    0    0  502    0  0.00000000000E+00  0.00000000000E+00  0.40227748287E+03  0.40227748287E+03  0.00000000000E+00 0. -1.
          1   -1    0    0  501    0 -0.00000000000E+00 -0.00000000000E+00 -0.45199848735E+03  0.45199848735E+03  0.00000000000E+00 0. -1.
         25    2    1    2    0    0  0.21333305124E+02 -0.10248364121E+03  0.92561239216E+02  0.18748495105E+03  0.12500006896E+03 0.  0.
          2    1    1    2  501    0  0.19242308323E+02  0.58179564810E+02 -0.39872434111E+03  0.40340578625E+03  0.00000000000E+00 0. -1.
          1    1    1    2  502    0 -0.40575613447E+02  0.44304076404E+02  0.25644209741E+03  0.26338523291E+03  0.00000000000E+00 0. -1.
         22    1    3    3    0    0  0.42169590213E+01 -0.12800632830E+03  0.90225920139E+02  0.15666562959E+03  0.00000000000E+00 0. -1.
         22    1    3    3    0    0  0.17116346103E+02  0.25522687088E+02  0.23353190763E+01  0.30819321461E+02  0.00000000000E+00 0. -1.
</event>
<event>
 7    1  0.5562528E-006  0.7089472E+02  0.7818608E-02  0.1475762E+00
          2   -1    0    0  502    0  0.00000000000E+00  0.00000000000E+00  0.86969363166E+02  0.86969363166E+02  0.00000000000E+00 0. -1.
          1   -1    0    0  501    0 -0.00000000000E+00 -0.00000000000E+00 -0.77336947113E+03  0.77336947113E+03  0.00000000000E+00 0. -1.
         25    2    1    2    0    0  0.24513172639E+02  0.38021093143E+02 -0.15596289059E+02  0.13383766418E+03  0.12499110754E+03 0.  0.
          2    1    1    2  501    0 -0.48718531037E+02 -0.52638142280E+02 -0.68909944034E+03  0.69282198865E+03  0.00000000000E+00 0. -1.
          1    1    1    2  502    0  0.24205358398E+02  0.14617049138E+02  0.18295621433E+02  0.33679181467E+02  0.00000000000E+00 0. -1.
         22    1    3    3    0    0  0.68193238855E+02  0.16791902009E+02 -0.38556574410E+02  0.80118008143E+02  0.00000000000E+00 0.  1.
         22    1    3    3    0    0 -0.43680066216E+02  0.21229191134E+02  0.22960285351E+02  0.53719656033E+02  0.00000000000E+00 0.  1.
</event>
<event>
 7    1  0.5562528E-006  0.1225643E+03  0.7818608E-02  0.1379401E+00
          2   -1    0    0  502    0  0.00000000000E+00  0.00000000000E+00  0.54639798788E+03  0.54639798788E+03  0.00000000000E+00 0. -1.
          1   -1    0    0  501    0 -0.00000000000E+00 -0.00000000000E+00 -0.85005186813E+03  0.85005186813E+03  0.00000000000E+00 0. -1.
         25    2    1    2    0    0 -0.14622464530E+03 -0.45935292764E+02  0.60717070670E+02  0.20687227562E+03  0.12497150770E+03 0.  0.
          2    1    1    2  501    0  0.11871672075E+03  0.25831218392E+02 -0.77150885297E+03  0.78101653109E+03  0.00000000000E+00 0. -1.
          1    1    1    2  502    0  0.27507924543E+02  0.20104074372E+02  0.40713790205E+03  0.40856104930E+03  0.00000000000E+00 0. -1.
         22    1    3    3    0    0 -0.57953662197E+02  0.34901528472E+02 -0.91697148987E+01  0.68270252109E+02  0.00000000000E+00 0.  1.
         22    1    3    3    0    0 -0.88270983100E+02 -0.80836821236E+02  0.69886785568E+02  0.13860202351E+03  0.00000000000E+00 0.  1.
</event>
<event>
 7    1  0.5562528E-006  0.7692588E+02  0.7818608E-02  0.1340366E+00
          2   -1    0    0  502    0  0.00000000000E+00  0.00000000000E+00  0.83721582373E+03  0.83721582373E+03  0.00000000000E+00 0. -1.
          1   -1    0    0  501    0 -0.00000000000E+00 -0.00000000000E+00 -0.11715216792E+03  0.11715216792E+03  0.00000000000E+00 0. -1.
         25    2    1    2    0    0  0.16081385985E+02  0.71428049432E+02  0.15874642182E+03  0.21490686348E+03  0.12499582518E+03 0.  0.
          2    1    1    2  501    0 -0.73733852841E+02 -0.15613992591E+02 -0.70121473996E+02  0.10294415445E+03  0.00000000000E+00 0. -1.
          1    1    1    2  502    0  0.57652466856E+02 -0.55814056841E+02  0.63143870799E+03  0.63651697371E+03  0.00000000000E+00 0. -1.
         22    1    3    3    0    0 -0.20984141142E+02  0.23104160313E+02  0.15019953939E+03  0.15340807683E+03  0.00000000000E+00 0. -1.
         22    1    3    3    0    0  0.37065527128E+02  0.48323889119E+02  0.85468824252E+01  0.61498786655E+02  0.00000000000E+00 0. -1.
</event>
<event>
 7    1  0.5562528E-006  0.3884680E+02  0.7818608E-02  0.1550634E+00
          2   -1    0    0  502    0  0.00000000000E+00  0.00000000000E+00  0.32699929926E+03  0.32699929926E+03  0.00000000000E+00 0. -1.
          1   -1    0    0  501    0 -0.00000000000E+00 -0.00000000000E+00 -0.70074891139E+02  0.70074891139E+02  0.00000000000E+00 0. -1.
         25    2    1    2    0    0 -0.60401696251E+02  0.28464400359E+02  0.18259053063E+03  0.23113126072E+03  0.12499508315E+03 0.  0.
          2    1    1    2  501    0  0.27961776275E+02 -0.13670575733E+02 -0.37400791603E+02  0.48657628239E+02  0.00000000000E+00 0. -1.
          1    1    1    2  502    0  0.32439919975E+02 -0.14793824626E+02  0.11173466910E+03  0.11728530144E+03  0.00000000000E+00 0. -1.
         22    1    3    3    0    0  0.30874511908E+02 -0.65685628259E+01  0.10605997397E+02  0.33299679937E+02  0.00000000000E+00 0.  1.
         22    1    3    3    0    0 -0.91276208159E+02  0.35032963184E+02  0.17198453323E+03  0.19783158078E+03  0.00000000000E+00 0.  1.
</event>
<event>
 7    1  0.5562528E-006  0.6871639E+02  0.7818608E-02  0.1366857E+00
          2   -1    0    0  502    0  0.00000000000E+00  0.00000000000E+00  0.14446060062E+04  0.14446060062E+04  0.00000000000E+00 0. -1.
          1   -1    0    0  501    0 -0.00000000000E+00 -0.00000000000E+00 -0.10231809617E+04  0.10231809617E+04  0.00000000000E+00 0. -1.
         25    2    1    2    0    0 -0.88961814531E+01  0.89443614262E+01  0.46378988744E+03  0.48050492404E+03  0.12499911477E+03 0.  0.
          2    1    1    2  501    0 -0.35909894708E+02  0.57022161178E+02 -0.10120662545E+04  0.10143072270E+04  0.00000000000E+00 0. -1.
          1    1    1    2  502    0  0.44806076161E+02 -0.65966522605E+02  0.96970141153E+03  0.97297481678E+03  0.00000000000E+00 0. -1.
         22    1    3    3    0    0  0.31642319027E+02  0.14827362522E+02  0.41640483983E+03  0.41786849327E+03  0.00000000000E+00 0.  1.
         22    1    3    3    0    0 -0.40538500480E+02 -0.58830010956E+01  0.47385047602E+02  0.62636430768E+02  0.00000000000E+00 0.  1.
</event>
<event>
 7    1  0.5562528E-006  0.5088633E+02  0.7818608E-02  0.1532379E+00
          2   -1    0    0  502    0  0.00000000000E+00  0.00000000000E+00  0.60725767164E+03  0.60725767164E+03  0.00000000000E+00 0. -1.
          1   -1    0    0  501    0 -0.00000000000E+00 -0.00000000000E+00 -0.41071990970E+03  0.41071990970E+03  0.00000000000E+00 0. -1.
         25    2    1    2    0    0 -0.33868660710E+02  0.60307168869E+02 -0.74343058050E+02  0.16104018888E+03  0.12499204518E+03 0.  0.
          2    1    1    2  501    0 -0.39389649161E+01 -0.26460839859E+02 -0.29127247344E+03  0.29249845346E+03  0.00000000000E+00 0. -1.
          1    1    1    2  502    0  0.37807625626E+02 -0.33846329010E+02  0.56215329343E+03  0.56443893900E+03  0.00000000000E+00 0. -1.
         22    1    3    3    0    0  0.36786198348E+02  0.85944769392E+01 -0.62020598029E+02  0.72619859561E+02  0.00000000000E+00 0.  1.
         22    1    3    3    0    0 -0.70654859058E+02  0.51712691930E+02 -0.12322460020E+02  0.88420329314E+02  0.00000000000E+00 0.  1.
</event>
<event>
 7    1  0.5562528E-006  0.5290246E+02  0.7818608E-02  0.1536601E+00
          2   -1    0    0  502    0  0.00000000000E+00  0.00000000000E+00  0.14105307203E+04  0.14105307203E+04  0.00000000000E+00 0. -1.
          1   -1    0    0  501    0 -0.00000000000E+00 -0.00000000000E+00 -0.40790079967E+03  0.40790079967E+03  0.00000000000E+00 0. -1.
         25    2    1    2    0    0  0.60467654475E+02 -0.10426397191E+02  0.75711211208E+03  0.76981704667E+03  0.12503794660E+03 0.  0.
          2    1    1    2  501    0 -0.51306264860E+02 -0.12866925648E+02 -0.39956262826E+03  0.40304861307E+03  0.00000000000E+00 0. -1.
          1    1    1    2  502    0 -0.91613896149E+01  0.23293322839E+02  0.64508043680E+03  0.64556586023E+03  0.00000000000E+00 0. -1.
         22    1    3    3    0    0  0.60295298986E+02  0.11501529086E+02  0.14686970876E+03  0.15918077648E+03  0.00000000000E+00 0.  1.
         22    1    3    3    0    0  0.17235548971E+00 -0.21927926277E+02  0.61024240332E+03  0.61063627019E+03  0.00000000000E+00 0.  1.
</event>
<event>
 7    1  0.5562528E-006  0.9377143E+02  0.7818608E-02  0.1421644E+00
          2   -1    0    0  502    0  0.00000000000E+00  0.00000000000E+00  0.44382279179E+04  0.44382279179E+04  0.00000000000E+00 0. -1.
          1   -1    0    0  501    0 -0.00000000000E+00 -0.00000000000E+00 -0.12486490306E+03  0.12486490306E+03  0.00000000000E+00 0. -1.
         25    2    1    2    0    0  0.90893955467E+02  0.28462502150E+02  0.42154432884E+02  0.16271146430E+03  0.12500479685E+03 0.  0.
          2    1    1    2  501    0 -0.15766140238E+02  0.27707190272E+02 -0.60113666897E+02  0.68043460513E+02  0.00000000000E+00 0. -1.
          1    1    1    2  502    0 -0.75127815229E+02 -0.56169692422E+02  0.43313222488E+04  0.43323378961E+04  0.00000000000E+00 0. -1.
         22    1    3    3    0    0  0.10005059980E+02 -0.14174523354E+02 -0.37579922246E+02  0.41391652462E+02  0.00000000000E+00 0. -1.
         22    1    3    3    0    0  0.80888895487E+02  0.42637025504E+02  0.79734355130E+02  0.12131981184E+03  0.00000000000E+00 0. -1.
</event>
<event>
 7    1  0.5562528E-006  0.9633513E+02  0.7818608E-02  0.1380824E+00
          2   -1    0    0  502    0  0.00000000000E+00  0.00000000000E+00  0.24315601545E+04  0.24315601545E+04  0.00000000000E+00 0. -1.
          1   -1    0    0  501    0 -0.00000000000E+00 -0.00000000000E+00 -0.40185730869E+03  0.40185730869E+03  0.00000000000E+00 0. -1.
         25    2    1    2    0    0 -0.67534393155E+02  0.49661876714E+02  0.41427655688E+03  0.44076895431E+03  0.12500003698E+03 0.  0.
          2    1    1    2  501    0  0.44485503559E+02 -0.85782462574E+02 -0.38237080902E+03  0.39439197064E+03  0.00000000000E+00 0. -1.
          1    1    1    2  502    0  0.23048889596E+02  0.36120585859E+02  0.19977970980E+04  0.19982565383E+04  0.00000000000E+00 0. -1.
         22    1    3    3    0    0 -0.73575307381E+02  0.22511637432E+02  0.10462676994E+03  0.12987247847E+03  0.00000000000E+00 0. -1.
         22    1    3    3    0    0  0.60409142260E+01  0.27150239282E+02  0.30964978693E+03  0.31089647583E+03  0.00000000000E+00 0. -1.
</event>
<event>
 7    1  0.5562528E-006  0.4035536E+02  0.7818608E-02  0.1548247E+00
          2   -1    0    0  502    0  0.00000000000E+00  0.00000000000E+00  0.76695846810E+03  0.76695846810E+03  0.00000000000E+00 0. -1.
          1   -1    0    0  501    0 -0.00000000000E+00 -0.00000000000E+00 -0.49564129225E+03  0.49564129225E+03  0.00000000000E+00 0. -1.
         25    2    1    2    0    0  0.11064159437E+02  0.64969609652E+00  0.44903065263E+02  0.13329028893E+03  0.12500871220E+03 0.  0.
          2    1    1    2  501    0  0.26895899362E+02  0.14221880267E+02 -0.45032091203E+03  0.45134751034E+03  0.00000000000E+00 0. -1.
          1    1    1    2  502    0 -0.37960058799E+02 -0.14871576364E+02  0.67673502261E+03  0.67796196108E+03  0.00000000000E+00 0. -1.
         22    1    3    3    0    0  0.92220745140E+01 -0.62052552453E+02  0.24041393389E+02  0.67182992791E+02  0.00000000000E+00 0. -1.
         22    1    3    3    0    0  0.18420849225E+01  0.62702248550E+02  0.20861671874E+02  0.66107296144E+02  0.00000000000E+00 0. -1.
</event>
<event>
 7    1  0.6241756E-006  0.1318590E+03  0.7818608E-02  0.1312752E+00
          2   -1    0    0  502    0  0.00000000000E+00  0.00000000000E+00  0.14469508901E+04  0.14469508901E+04  0.00000000000E+00 0. -1.
          1   -1    0    0  501    0 -0.00000000000E+00 -0.00000000000E+00 -0.86146138485E+03  0.86146138485E+03  0.00000000000E+00 0. -1.
         25    2    1    2    0    0  0.64432008907E+02 -0.16768742020E+03 -0.15222414144E+03  0.26658811169E+03  0.12500590943E+03 0.  0.
          2    1    1    2  501    0 -0.30224665808E+02  0.12318065841E+03 -0.64531271189E+03  0.65765910711E+03  0.00000000000E+00 0. -1.
          1    1    1    2  502    0 -0.34207343099E+02  0.44506761787E+02  0.13830263586E+04  0.13841650562E+04  0.00000000000E+00 0. -1.
         22    1    3    3    0    0  0.96922761108E+02 -0.10828591777E+03 -0.13094020129E+03  0.19561492254E+03  0.00000000000E+00 0. -1.
         22    1    3    3    0    0 -0.32490752201E+02 -0.59401502425E+02 -0.21283940156E+02  0.70973189145E+02  0.00000000000E+00 0. -1.
</event>
<event>
 7    1  0.5562528E-006  0.7803210E+02  0.7818608E-02  0.1469148E+00
          2   -1    0    0  502    0  0.00000000000E+00  0.00000000000E+00  0.46804390925E+03  0.46804390925E+03  0.00000000000E+00 0. -1.
          1   -1    0    0  501    0 -0.00000000000E+00 -0.00000000000E+00 -0.97483487963E+02  0.97483487963E+02  0.00000000000E+00 0. -1.
         25    2    1    2    0    0  0.34272290030E+02 -0.96664958811E+02  0.19303277834E+03  0.25180296013E+03  0.12499749234E+03 0.  0.
          2    1    1    2  501    0 -0.26716922361E+02  0.70814466744E+02 -0.46007334355E+02  0.88572893455E+02  0.00000000000E+00 0. -1.
          1    1    1    2  502    0 -0.75553676692E+01  0.25850492067E+02  0.22353497730E+03  0.22515154363E+03  0.00000000000E+00 0. -1.
         22    1    3    3    0    0 -0.43608109386E+02 -0.31564104850E+02  0.35793736844E+02  0.64646357333E+02  0.00000000000E+00 0. -1.
         22    1    3    3    0    0  0.77880399417E+02 -0.65100853961E+02  0.15723904150E+03  0.18715660280E+03  0.00000000000E+00 0. -1.
</event>
<event>
 7    1  0.5562528E-006  0.1432880E+03  0.7818608E-02  0.1368002E+00
          2   -1    0    0  502    0  0.00000000000E+00  0.00000000000E+00  0.67367130837E+03  0.67367130837E+03  0.00000000000E+00 0. -1.
          1   -1    0    0  501    0 -0.00000000000E+00 -0.00000000000E+00 -0.17577685144E+04  0.17577685144E+04  0.00000000000E+00 0. -1.
         25    2    1    2    0    0 -0.14689736769E+03 -0.90865829254E+02 -0.42665531802E+03  0.47696591852E+03  0.12500516579E+03 0.  0.
          2    1    1    2  501    0  0.31188648449E+02  0.72083254351E+01 -0.12978990291E+04  0.12982937192E+04  0.00000000000E+00 0. -1.
          1    1    1    2  502    0  0.11570871924E+03  0.83657503819E+02  0.64045714107E+03  0.65618018501E+03  0.00000000000E+00 0. -1.
         22    1    3    3    0    0 -0.65954815123E+02 -0.94570678806E+02 -0.33672088201E+03  0.35591375825E+03  0.00000000000E+00 0. -1.
         22    1    3    3    0    0 -0.80942552565E+02  0.37048495523E+01 -0.89934436010E+02  0.12105216027E+03  0.00000000000E+00 0. -1.
</event>
<event>
 7    1  0.5562528E-006  0.7166886E+02  0.7818608E-02  0.1503854E+00
          2   -1    0    0  502    0  0.00000000000E+00  0.00000000000E+00  0.26704600451E+04  0.26704600451E+04  0.00000000000E+00 0. -1.
          1   -1    0    0  501    0 -0.00000000000E+00 -0.00000000000E+00 -0.21234146732E+03  0.21234146732E+03  0.00000000000E+00 0. -1.
         25    2    1    2    0    0  0.46339920685E+02 -0.27276979996E+02 -0.11328623876E+03  0.17705593959E+03  0.12499444773E+03 0.  0.
          2    1    1    2  501    0  0.22184705169E+02  0.60609756510E+01 -0.64699569737E+02  0.68665354389E+02  0.00000000000E+00 0. -1.
          1    1    1    2  502    0 -0.68524625854E+02  0.21216004345E+02  0.26361043863E+04  0.26370802185E+04  0.00000000000E+00 0. -1.
         22    1    3    3    0    0  0.75694676272E+02  0.21433015553E+02 -0.73372437457E+02  0.10757589298E+03  0.00000000000E+00 0.  1.
         22    1    3    3    0    0 -0.29354755587E+02 -0.48709995550E+02 -0.39913801303E+02  0.69480046607E+02  0.00000000000E+00 0.  1.
</event>
<event>
 7    1  0.5562528E-006  0.6468828E+02  0.7818608E-02  0.1476584E+00
          2   -1    0    0  502    0  0.00000000000E+00  0.00000000000E+00  0.13550499132E+04  0.13550499132E+04  0.00000000000E+00 0. -1.
          1   -1    0    0  501    0 -0.00000000000E+00 -0.00000000000E+00 -0.20903641587E+03  0.20903641587E+03  0.00000000000E+00 0. -1.
         25    2    1    2    0    0 -0.75511395963E+02  0.56190972566E+02  0.21601872555E+03  0.26673633636E+03  0.12499914812E+03 0.  0.
          2    1    1    2  501    0  0.54384776790E+02 -0.33766597698E+02 -0.17787939655E+03  0.18904752520E+03  0.00000000000E+00 0. -1.
          1    1    1    2  502    0  0.21126619174E+02 -0.22424374868E+02  0.11078741683E+04  0.11083024675E+04  0.00000000000E+00 0. -1.
         22    1    3    3    0    0  0.34625818618E+02  0.62317080544E+01  0.56442920318E+02  0.66510034989E+02  0.00000000000E+00 0. -1.
         22    1    3    3    0    0 -0.11013721458E+03  0.49959264512E+02  0.15957580523E+03  0.20022630137E+03  0.00000000000E+00 0. -1.
</event>
<event>
 7    1  0.5562528E-006  0.1012490E+03  0.7818608E-02  0.1365167E+00
          2   -1    0    0  502    0  0.00000000000E+00  0.00000000000E+00  0.56015186577E+03  0.56015186577E+03  0.00000000000E+00 0. -1.
          1   -1    0    0  501    0 -0.00000000000E+00 -0.00000000000E+00 -0.80053404732E+03  0.80053404732E+03  0.00000000000E+00 0. -1.
         25    2    1    2    0    0  0.57665016125E+02 -0.27807693421E+02 -0.13083923341E+03  0.19194413420E+03  0.12500049503E+03 0.  0.
          2    1    1    2  501    0 -0.10395802551E+03  0.24914320292E+02 -0.63364089356E+03  0.64259534422E+03  0.00000000000E+00 0. -1.
          1    1    1    2  502    0  0.46293009389E+02  0.28933731285E+01  0.52409794542E+03  0.52614643467E+03  0.00000000000E+00 0. -1.
         22    1    3    3    0    0  0.86353294498E+02  0.15961171357E+02 -0.87898819214E+02  0.12424915646E+03  0.00000000000E+00 0. -1.
         22    1    3    3    0    0 -0.28688278373E+02 -0.43768864778E+02 -0.42940414198E+02  0.67694977742E+02  0.00000000000E+00 0. -1.
</event>
<event>
 7    1  0.5562528E-006  0.3361209E+02  0.7818608E-02  0.1580827E+00
          2   -1    0    0  502    0  0.00000000000E+00  0.00000000000E+00  0.86883139783E+03  0.86883139783E+03  0.00000000000E+00 0. -1.
          1   -1    0    0  501    0 -0.00000000000E+00 -0.00000000000E+00 -0.25085701531E+03  0.25085701531E+03  0.00000000000E+00 0. -1.
         25    2    1    2    0    0  0.10014100865E+02 -0.35883918535E+02 -0.18495896333E+03  0.22632107073E+03  0.12499388431E+03 0.  0.
          2    1    1    2  501    0 -0.28677504425E+02  0.79112583393E+01 -0.39952187452E+02  0.49811289391E+02  0.00000000000E+00 0. -1.
          1    1    1    2  502    0  0.18663403560E+02  0.27972660196E+02  0.84288553330E+03  0.84355605303E+03  0.00000000000E+00 0. -1.
         22    1    3    3    0    0  0.10785294788E+02 -0.25674132712E+02  0.11112208900E+02  0.29982742717E+02  0.00000000000E+00 0.  1.
         22    1    3    3    0    0 -0.77119392255E+00 -0.10209785823E+02 -0.19607117223E+03  0.19633832801E+03  0.00000000000E+00 0.  1.
</event>
<event>
 7    1  0.5562528E-006  0.2226343E+03  0.7818608E-02  0.1139487E+00
          2   -1    0    0  502    0  0.00000000000E+00  0.00000000000E+00  0.19946367272E+04  0.19946367272E+04  0.00000000000E+00 0. -1.
          1   -1    0    0  501    0 -0.00000000000E+00 -0.00000000000E+00 -0.49069415559E+03  0.49069415559E+03  0.00000000000E+00 0. -1.
         25    2    1    2    0    0 -0.36532444598E+02 -0.19153500118E+03  0.41048042164E+03  0.47131843874E+03  0.12500647170E+03 0.  0.
          2    1    1    2  501    0 -0.16425884667E+03  0.16095700346E+03 -0.42435580390E+03  0.48266548869E+03  0.00000000000E+00 0. -1.
          1    1    1    2  502    0  0.20079129127E+03  0.30577997722E+02  0.15178179538E+04  0.15313469553E+04  0.00000000000E+00 0. -1.
         22    1    3    3    0    0  0.40875749904E+02 -0.85546734350E+02  0.22442065929E+03  0.24362615419E+03  0.00000000000E+00 0. -1.
         22    1    3    3    0    0 -0.77408194503E+02 -0.10598826683E+03  0.18605976235E+03  0.22769228456E+03  0.00000000000E+00 0. -1.
</event>
<event>
 7    1  0.5562528E-006  0.6664582E+02  0.7818608E-02  0.1443789E+00
          2   -1    0    0  502    0  0.00000000000E+00  0.00000000000E+00  0.13246703328E+04  0.13246703328E+04  0.00000000000E+00 0. -1.
          1   -1    0    0  501    0 -0.00000000000E+00 -0.00000000000E+00 -0.18175671731E+02  0.18175671731E+02  0.00000000000E+00 0. -1.
         25    2    1    2    0    0  0.25506419028E+02  0.76916383603E+02  0.43723619094E+03  0.46191702415E+03  0.12500057223E+03 0.  0.
          2    1    1    2  501    0 -0.36060799931E+02 -0.11813855296E+02  0.76129704437E+02  0.85062802483E+02  0.00000000000E+00 0. -1.
          1    1    1    2  502    0  0.10554380903E+02 -0.65102528307E+02  0.79312876575E+03  0.79586617795E+03  0.00000000000E+00 0. -1.
         22    1    3    3    0    0  0.35359745897E+02  0.30203764727E+01  0.26039302944E+02  0.44016810445E+02  0.00000000000E+00 0. -1.
         22    1    3    3    0    0 -0.98533268691E+01  0.73896007130E+02  0.41119688799E+03  0.41790021370E+03  0.00000000000E+00 0. -1.
</event>
<event>
 7    1  0.5562528E-006  0.6907053E+02  0.7818608E-02  0.1411099E+00
          2   -1    0    0  502    0  0.00000000000E+00  0.00000000000E+00  0.15713117474E+04  0.15713117474E+04  0.00000000000E+00 0. -1.
          1   -1    0    0  501    0 -0.00000000000E+00 -0.00000000000E+00 -0.43659623597E+03  0.43659623597E+03  0.00000000000E+00 0. -1.
         25    2    1    2    0    0 -0.66203549496E+00 -0.49117784319E+02  0.80405969289E+03  0.81519888914E+03  0.12499697640E+03 0.  0.
          2    1    1    2  501    0 -0.46234378696E+02  0.51466163546E+02 -0.42751948975E+03  0.43308116777E+03  0.00000000000E+00 0. -1.
          1    1    1    2  502    0  0.46896414191E+02 -0.23483792270E+01  0.75817530826E+03  0.75962792643E+03  0.00000000000E+00 0. -1.
         22    1    3    3    0    0 -0.14849162661E+02 -0.39298432221E+02  0.75230483481E+02  0.86165480626E+02  0.00000000000E+00 0. -1.
         22    1    3    3    0    0  0.14187127166E+02 -0.98193520973E+01  0.72882920940E+03  0.72903340852E+03  0.00000000000E+00 0. -1.
</event>
<event>
 7    1  0.5562528E-006  0.1412269E+03  0.7818608E-02  0.1329111E+00
          2   -1    0    0  502    0  0.00000000000E+00  0.00000000000E+00  0.31239148428E+04  0.31239148428E+04  0.00000000000E+00 0. -1.
          1   -1    0    0  501    0 -0.00000000000E+00 -0.00000000000E+00 -0.11976144199E+03  0.11976144199E+03  0.00000000000E+00 0. -1.
         25    2    1    2    0    0 -0.40198230431E+02 -0.14436165222E+03  0.93089916435E+03  0.95113302585E+03  0.12499837724E+03 0.  0.
          2    1    1    2  501    0 -0.49734612395E+01  0.14104428695E+03 -0.63889484347E+02  0.15491963209E+03  0.00000000000E+00 0. -1.
          1    1    1    2  502    0  0.45171691671E+02  0.33173652794E+01  0.21371437208E+04  0.21376236269E+04  0.00000000000E+00 0. -1.
         22    1    3    3    0    0  0.28968050001E+02 -0.72226180426E+02  0.22242924251E+03  0.23564918202E+03  0.00000000000E+00 0. -1.
         22    1    3    3    0    0 -0.69166280432E+02 -0.72135471798E+02  0.70846992183E+03  0.71548384383E+03  0.00000000000E+00 0. -1.
</event>
<event>
 7    1  0.5562528E-006  0.7309061E+02  0.7818608E-02  0.1420676E+00
          2   -1    0    0  502    0  0.00000000000E+00  0.00000000000E+00  0.18953701107E+04  0.18953701107E+04  0.00000000000E+00 0. -1.
          1   -1    0    0  501    0 -0.00000000000E+00 -0.00000000000E+00 -0.33642164469E+02  0.33642164469E+02  0.00000000000E+00 0. -1.
         25    2    1    2    0    0  0.76780929874E+02 -0.52734311097E+02  0.13669248230E+04  0.13757851643E+04  0.12500051035E+03 0.  0.
          2    1    1    2  501    0 -0.71724803830E+02  0.11842009358E+02  0.18323872750E+02  0.74969627068E+02  0.00000000000E+00 0. -1.
          1    1    1    2  502    0 -0.50561260440E+01  0.40892301740E+02  0.47647925046E+03  0.47825748386E+03  0.00000000000E+00 0. -1.
         22    1    3    3    0    0 -0.20341685600E+02  0.22015505100E+02  0.40052662208E+03  0.40164666266E+03  0.00000000000E+00 0. -1.
         22    1    3    3    0    0  0.97122615474E+02 -0.74749816197E+02  0.96639820097E+03  0.97413850160E+03  0.00000000000E+00 0. -1.
</event>
<event>
 7    1  0.5562528E-006  0.8328836E+02  0.7818608E-02  0.1368621E+00
          2   -1    0    0  502    0  0.00000000000E+00  0.00000000000E+00  0.43889604474E+03  0.43889604474E+03  0.00000000000E+00 0. -1.
          1   -1    0    0  501    0 -0.00000000000E+00 -0.00000000000E+00 -0.11803122993E+04  0.11803122993E+04  0.00000000000E+00 0. -1.
         25    2    1    2    0    0  0.51458377129E+01 -0.33188561389E+02  0.18934929970E+03  0.22936193285E+03  0.12500311473E+03 0.  0.
          2    1    1    2  501    0  0.22184117308E+02  0.80674151406E+02 -0.11555023175E+04  0.11585275394E+04  0.00000000000E+00 0. -1.
          1    1    1    2  502    0 -0.27329955021E+02 -0.47485590017E+02  0.22473676324E+03  0.23131887180E+03  0.00000000000E+00 0. -1.
         22    1    3    3    0    0 -0.36806513200E+02  0.16508487893E+02  0.14533976424E+03  0.15083400365E+03  0.00000000000E+00 0. -1.
         22    1    3    3    0    0  0.41952350912E+02 -0.49697049282E+02  0.44009535459E+02  0.78527929208E+02  0.00000000000E+00 0. -1.
</event>
<event>
 7    1  0.5562528E-006  0.1196182E+03  0.7818608E-02  0.1399715E+00
          2   -1    0    0  502    0  0.00000000000E+00  0.00000000000E+00  0.78608449731E+03  0.78608449731E+03  0.00000000000E+00 0. -1.
          1   -1    0    0  501    0 -0.00000000000E+00 -0.00000000000E+00 -0.50898738480E+03  0.50898738480E+03  0.00000000000E+00 0. -1.
         25    2    1    2    0    0  0.50074000909E+02 -0.13161056604E+03  0.13212449293E+03  0.23002485674E+03  0.12500322567E+03 0.  0.
          2    1    1    2  501    0 -0.24757406545E+02  0.11617824054E+03 -0.45199511745E+03  0.46734344861E+03  0.00000000000E+00 0. -1.
          1    1    1    2  502    0 -0.25316594364E+02  0.15432325499E+02  0.59696773704E+03  0.59770357677E+03  0.00000000000E+00 0. -1.
         22    1    3    3    0    0  0.31141149114E+02 -0.16846425643E+01  0.84975708769E+02  0.90517845033E+02  0.00000000000E+00 0. -1.
         22    1    3    3    0    0  0.18932851795E+02 -0.12992592348E+03  0.47148784157E+02  0.13950701171E+03  0.00000000000E+00 0. -1.
</event>
<event>
 7    1  0.5562528E-006  0.6182594E+02  0.7818608E-02  0.1398370E+00
          2   -1    0    0  502    0  0.00000000000E+00  0.00000000000E+00  0.11269670614E+04  0.11269670614E+04  0.00000000000E+00 0. -1.
          1   -1    0    0  501    0 -0.00000000000E+00 -0.00000000000E+00 -0.51995870822E+03  0.51995870822E+03  0.00000000000E+00 0. -1.
         25    2    1    2    0    0  0.94784949287E+02  0.10386324696E+02  0.23697240541E+03  0.28437618967E+03  0.12498733525E+03 0.  0.
          2    1    1    2  501    0 -0.45782985697E+02 -0.41377708252E+02 -0.49336230435E+03  0.49720675767E+03  0.00000000000E+00 0. -1.
          1    1    1    2  502    0 -0.49001963590E+02  0.30991383555E+02  0.86339825211E+03  0.86534282226E+03  0.00000000000E+00 0. -1.
         22    1    3    3    0    0  0.11022832925E+03 -0.10586899659E+02  0.11497556016E+03  0.15963002990E+03  0.00000000000E+00 0.  1.
         22    1    3    3    0    0 -0.15443379960E+02  0.20973224355E+02  0.12199684526E+03  0.12474615977E+03  0.00000000000E+00 0.  1.
</event>
<event>
 7    1  0.5562528E-006  0.1033315E+03  0.7818608E-02  0.1326738E+00
          2   -1    0    0  502    0  0.00000000000E+00  0.00000000000E+00  0.50015248280E+03  0.50015248280E+03  0.00000000000E+00 0. -1.
          1   -1    0    0  501    0 -0.00000000000E+00 -0.00000000000E+00 -0.30195064158E+03  0.30195064158E+03  0.00000000000E+00 0. -1.
         25    2    1    2    0    0  0.29642756081E+02  0.43844312283E+02 -0.48446267287E+02  0.14409813518E+03  0.12496485522E+03 0.  0.
          2    1    1    2  501    0 -0.13013442039E+02  0.61860345514E+02 -0.19426598482E+03  0.20429225359E+03  0.00000000000E+00 0. -1.
          1    1    1    2  502    0 -0.16629314042E+02 -0.10570465780E+03  0.44091409332E+03  0.45371273561E+03  0.00000000000E+00 0. -1.
         22    1    3    3    0    0  0.33554661315E+02  0.85102315502E+02 -0.19463620833E+02  0.93526209886E+02  0.00000000000E+00 0.  1.
         22    1    3    3    0    0 -0.39119052339E+01 -0.41258003219E+02 -0.28982646453E+02  0.50571925290E+02  0.00000000000E+00 0.  1.
</event>
<event>
 7    1  0.5562528E-006  0.5975790E+02  0.7818608E-02  0.1460294E+00
          2   -1    0    0  502    0  0.00000000000E+00  0.00000000000E+00  0.27020623713E+04  0.27020623713E+04  0.00000000000E+00 0. -1.
          1   -1    0    0  501    0 -0.00000000000E+00 -0.00000000000E+00 -0.18859063070E+02  0.18859063070E+02  0.00000000000E+00 0. -1.
         25    2    1    2    0    0  0.44617121218E+02  0.67347734717E+02  0.57163386745E+03  0.59069273959E+03  0.12500491715E+03 0.  0.
          2    1    1    2  501    0 -0.48936385130E+02 -0.30109270519E+02  0.80978676611E+02  0.99291913197E+02  0.00000000000E+00 0. -1.
          1    1    1    2  502    0  0.43192639116E+01 -0.37238464198E+02  0.20305907642E+04  0.20309367816E+04  0.00000000000E+00 0. -1.
         22    1    3    3    0    0 -0.16166420884E+02  0.81789979212E+02  0.38345352457E+03  0.39241248625E+03  0.00000000000E+00 0. -1.
         22    1    3    3    0    0  0.60783542102E+02 -0.14442244495E+02  0.18818034288E+03  0.19828025334E+03  0.00000000000E+00 0. -1.
</event>
<event>
 7    1  0.5562528E-006  0.1614819E+03  0.7818608E-02  0.1226208E+00
          2   -1    0    0  502    0  0.00000000000E+00  0.00000000000E+00  0.33887523536E+04  0.33887523536E+04  0.00000000000E+00 0. -1.
          1   -1    0    0  501    0 -0.00000000000E+00 -0.00000000000E+00 -0.75386692938E+03  0.75386692938E+03  0.00000000000E+00 0. -1.
         25    2    1    2    0    0 -0.16761027892E+03  0.34668766132E+02 -0.49670680316E+02  0.21768785948E+03  0.12500279491E+03 0.  0.
          2    1    1    2  501    0  0.10882853157E+03 -0.12290058998E+03 -0.60845666052E+03  0.63021243405E+03  0.00000000000E+00 0. -1.
          1    1    1    2  502    0  0.58781747356E+02  0.88231823850E+02  0.32930127650E+04  0.32947189894E+04  0.00000000000E+00 0. -1.
         22    1    3    3    0    0 -0.61909136394E+02 -0.39468965416E+02  0.12355151324E+02  0.74452603476E+02  0.00000000000E+00 0. -1.
         22    1    3    3    0    0 -0.10570114253E+03  0.74137731548E+02 -0.62025831640E+02  0.14323525600E+03  0.00000000000E+00 0. -1.
</event>
<event>
 7    1  0.5562528E-006  0.1185514E+03  0.7818608E-02  0.1388799E+00
          2   -1    0    0  502    0  0.00000000000E+00  0.00000000000E+00  0.22189473457E+04  0.22189473457E+04  0.00000000000E+00 0. -1.
          1   -1    0    0  501    0 -0.00000000000E+00 -0.00000000000E+00 -0.12360706296E+03  0.12360706296E+03  0.00000000000E+00 0. -1.
         25    2    1    2    0    0  0.55674942586E+02 -0.13080699381E+03  0.54026043185E+03  0.57246536063E+03  0.12500034415E+03 0.  0.
          2    1    1    2  501    0 -0.26742511236E+02  0.18715595909E+02 -0.10296130756E+03  0.10801141742E+03  0.00000000000E+00 0. -1.
          1    1    1    2  502    0 -0.28932431350E+02  0.11209139790E+03  0.16580411584E+04  0.16620776306E+04  0.00000000000E+00 0. -1.
         22    1    3    3    0    0 -0.12615042267E+02  0.10381631921E+01  0.51393017208E+00  0.12668117399E+02  0.00000000000E+00 0. -1.
         22    1    3    3    0    0  0.68289984853E+02 -0.13184515700E+03  0.53974650168E+03  0.55979724323E+03  0.00000000000E+00 0. -1.
</event>
<event>
 7    1  0.5562528E-006  0.1024003E+03  0.7818608E-02  0.1277561E+00
          2   -1    0    0  502    0  0.00000000000E+00  0.00000000000E+00  0.28434870046E+04  0.28434870046E+04  0.00000000000E+00 0. -1.
          1   -1    0    0  501    0 -0.00000000000E+00 -0.00000000000E+00 -0.53023481155E+03  0.53023481155E+03  0.00000000000E+00 0. -1.
         25    2    1    2    0    0 -0.23820503759E+02 -0.93114291104E+02  0.21289605628E+04  0.21347918647E+04  0.12500215946E+03 0.  0.
          2    1    1    2  501    0  0.99741363402E+02 -0.23183495176E+02 -0.51545780688E+03  0.52553074572E+03  0.00000000000E+00 0. -1.
          1    1    1    2  502    0 -0.75920859643E+02  0.11629778628E+03  0.69974943709E+03  0.71339920573E+03  0.00000000000E+00 0. -1.
         22    1    3    3    0    0 -0.47096723373E+02  0.89852161113E+01  0.44424579873E+03  0.44682565409E+03  0.00000000000E+00 0.  1.
         22    1    3    3    0    0  0.23276219614E+02 -0.10209950722E+03  0.16847147641E+04  0.16879662106E+04  0.00000000000E+00 0.  1.
</event>
<event>
 7    1  0.5562528E-006  0.5192502E+02  0.7818608E-02  0.1482062E+00
          2   -1    0    0  502    0  0.00000000000E+00  0.00000000000E+00  0.48461753998E+03  0.48461753998E+03  0.00000000000E+00 0. -1.
          1   -1    0    0  501    0 -0.00000000000E+00 -0.00000000000E+00 -0.99686298586E+03  0.99686298586E+03  0.00000000000E+00 0. -1.
         25    2    1    2    0    0 -0.47817493470E+02  0.48122167799E+02 -0.21927642381E+03  0.26136045657E+03  0.12499953002E+03 0.  0.
          2    1    1    2  501    0 -0.28286035876E+01 -0.36815186715E+02 -0.75463951022E+03  0.75554228827E+03  0.00000000000E+00 0. -1.
          1    1    1    2  502    0  0.50646097058E+02 -0.11306981084E+02  0.46167048816E+03  0.46457778100E+03  0.00000000000E+00 0. -1.
         22    1    3    3    0    0 -0.87074317371E+02  0.54073304323E+02 -0.15613661483E+03  0.18677393147E+03  0.00000000000E+00 0.  1.
         22    1    3    3    0    0  0.39256823901E+02 -0.59511365243E+01 -0.63139808984E+02  0.74586525105E+02  0.00000000000E+00 0.  1.
</event>
<event>
 7    1  0.5562528E-006  0.6916628E+02  0.7818608E-02  0.1520765E+00
          2   -1    0    0  502    0  0.00000000000E+00  0.00000000000E+00  0.41577994953E+03  0.41577994953E+03  0.00000000000E+00 0. -1.
          1   -1    0    0  501    0 -0.00000000000E+00 -0.00000000000E+00 -0.47906524143E+03  0.47906524143E+03  0.00000000000E+00 0. -1.
         25    2    1    2    0    0  0.59383108480E+02  0.45926544963E+00 -0.31969367149E+03  0.34836231338E+03  0.12500277314E+03 0.  0.
          2    1    1    2  501    0 -0.75102948718E+02 -0.14767878245E+02 -0.13463010311E+03  0.15486706492E+03  0.00000000000E+00 0. -1.
          1    1    1    2  502    0  0.15719840238E+02  0.14308612795E+02  0.39103848270E+03  0.39161581266E+03  0.00000000000E+00 0. -1.
         22    1    3    3    0    0 -0.24328927476E+02  0.89578735290E+01 -0.10580153904E+02  0.28001426159E+02  0.00000000000E+00 0.  1.
         22    1    3    3    0    0  0.83712035957E+02 -0.84986080794E+01 -0.30911351759E+03  0.32036088722E+03  0.00000000000E+00 0.  1.
</event>
<event>
 7    1  0.5562528E-006  0.7157659E+02  0.7818608E-02  0.1430955E+00
          2   -1    0    0  502    0  0.00000000000E+00  0.00000000000E+00  0.52187311264E+02  0.52187311264E+02  0.00000000000E+00 0. -1.
          1   -1    0    0  501    0 -0.00000000000E+00 -0.00000000000E+00 -0.62942196823E+03  0.62942196823E+03  0.00000000000E+00 0. -1.
         25    2    1    2    0    0 -0.17981580003E+02  0.44364645783E+02 -0.29790277839E+03  0.32659203215E+03  0.12499892430E+03 0.  0.
          2    1    1    2  501    0  0.24171663054E+02  0.30482454345E+02 -0.27716650351E+03  0.27988340427E+03  0.00000000000E+00 0. -1.
          1    1    1    2  502    0 -0.61900830512E+01 -0.74847100128E+02 -0.21653750617E+01  0.75133843073E+02  0.00000000000E+00 0. -1.
         22    1    3    3    0    0  0.11818909444E+02  0.72605078461E+02 -0.26174039137E+03  0.27188088663E+03  0.00000000000E+00 0. -1.
         22    1    3    3    0    0 -0.29800489447E+02 -0.28240432678E+02 -0.36162387019E+02  0.54711145519E+02  0.00000000000E+00 0. -1.
</event>
<event>
 7    1  0.5562528E-006  0.6792816E+02  0.7818608E-02  0.1528631E+00
          2   -1    0    0  502    0  0.00000000000E+00  0.00000000000E+00  0.64611820031E+03  0.64611820031E+03  0.00000000000E+00 0. -1.
          1   -1    0    0  501    0 -0.00000000000E+00 -0.00000000000E+00 -0.94561630966E+03  0.94561630966E+03  0.00000000000E+00 0. -1.
         25    2    1    2    0    0 -0.94611646551E+01 -0.84405516298E+02 -0.24389038331E+03  0.28691870655E+03  0.12500408105E+03 0.  0.
          2    1    1    2  501    0  0.15653311010E+02  0.64818911536E+02 -0.67840777636E+03  0.68167707051E+03  0.00000000000E+00 0. -1.
          1    1    1    2  502    0 -0.61921463551E+01  0.19586604763E+02  0.62280005033E+03  0.62313873291E+03  0.00000000000E+00 0. -1.
         22    1    3    3    0    0 -0.63260474775E+02 -0.24172862238E+02 -0.84980681941E+02  0.10866430527E+03  0.00000000000E+00 0.  1.
         22    1    3    3    0    0  0.53799310120E+02 -0.60232654060E+02 -0.15890970137E+03  0.17825440128E+03  0.00000000000E+00 0.  1.
</event>
<event>
 7    1  0.5562528E-006  0.1266410E+03  0.7818608E-02  0.1328145E+00
          2   -1    0    0  502    0  0.00000000000E+00  0.00000000000E+00  0.12908337252E+04  0.12908337252E+04  0.00000000000E+00 0. -1.
          1   -1    0    0  501    0 -0.00000000000E+00 -0.00000000000E+00 -0.21899974780E+03  0.21899974780E+03  0.00000000000E+00 0. -1.
         25    2    1    2    0    0  0.68974903082E+02 -0.49391372638E+02  0.35229784273E+03  0.38332217547E+03  0.12500030106E+03 0.  0.
          2    1    1    2  501    0 -0.83964216109E+02  0.98077975455E+02 -0.18221661899E+03  0.22332078966E+03  0.00000000000E+00 0. -1.
          1    1    1    2  502    0  0.14989313027E+02 -0.48686602817E+02  0.90175275366E+03  0.90319050788E+03  0.00000000000E+00 0. -1.
         22    1    3    3    0    0  0.60954019566E+01  0.40610896301E+02  0.87080331231E+02  0.96277634530E+02  0.00000000000E+00 0. -1.
         22    1    3    3    0    0  0.62879501126E+02 -0.90002268939E+02  0.26521751150E+03  0.28704454094E+03  0.00000000000E+00 0. -1.
</event>
<event>
 7    1  0.5562528E-006  0.7029377E+02  0.7818608E-02  0.1378596E+00
          2   -1    0    0  502    0  0.00000000000E+00  0.00000000000E+00  0.14023393906E+04  0.14023393906E+04  0.00000000000E+00 0. -1.
          1   -1    0    0  501    0 -0.00000000000E+00 -0.00000000000E+00 -0.69622438349E+03  0.69622438349E+03  0.00000000000E+00 0. -1.
         25    2    1    2    0    0  0.74048324641E+02 -0.80418797894E+02  0.92736915057E+03  0.94211936671E+03  0.12500008901E+03 0.  0.
          2    1    1    2  501    0 -0.67023717516E+02  0.21033910867E+02 -0.68513415164E+03  0.68872593233E+03  0.00000000000E+00 0. -1.
          1    1    1    2  502    0 -0.70246071247E+01  0.59384887026E+02  0.46388000816E+03  0.46771847503E+03  0.00000000000E+00 0. -1.
         22    1    3    3    0    0  0.33037061668E+02  0.20989529063E+02  0.97360864427E+02  0.10493400638E+03  0.00000000000E+00 0. -1.
         22    1    3    3    0    0  0.41011262973E+02 -0.10140832696E+03  0.83000828615E+03  0.83718536032E+03  0.00000000000E+00 0. -1.
</event>
<event>
 7    1  0.5562528E-006  0.8343744E+02  0.7818608E-02  0.1364945E+00
          2   -1    0    0  502    0  0.00000000000E+00  0.00000000000E+00  0.16047253223E+04  0.16047253223E+04  0.00000000000E+00 0. -1.
          1   -1    0    0  501    0 -0.00000000000E+00 -0.00000000000E+00 -0.33289481195E+03  0.33289481195E+03  0.00000000000E+00 0. -1.
         25    2    1    2    0    0  0.40999833065E+02  0.85701309555E+02 -0.10799022615E+03  0.19055730515E+03  0.12499798731E+03 0.  0.
          2    1    1    2  501    0  0.32490247350E+02 -0.46088273539E+02 -0.17814767287E+03  0.18685914075E+03  0.00000000000E+00 0. -1.
          1    1    1    2  502    0 -0.73490080416E+02 -0.39613036015E+02  0.15579684094E+04  0.15602036884E+04  0.00000000000E+00 0. -1.
         22    1    3    3    0    0 -0.26836111029E+02 -0.64849571908E+00 -0.68989588137E+02  0.74028107319E+02  0.00000000000E+00 0.  1.
         22    1    3    3    0    0  0.67835944095E+02  0.86349805274E+02 -0.39000638016E+02  0.11652919783E+03  0.00000000000E+00 0.  1.
</event>
<event>
 7    1  0.5562528E-006  0.7443936E+02  0.7818608E-02  0.1455325E+00
          2   -1    0    0  502    0  0.00000000000E+00  0.00000000000E+00  0.23992468911E+03  0.23992468911E+03  0.00000000000E+00 0. -1.
          1   -1    0    0  501    0 -0.00000000000E+00 -0.00000000000E+00 -0.21358969490E+03  0.21358969490E+03  0.00000000000E+00 0. -1.
         25    2    1    2    0    0 -0.21105553823E+02  0.87665687010E+02 -0.58081652367E+02  0.16470923719E+03  0.12499974957E+03 0.  0.
          2    1    1    2  501    0  0.37306581064E+02 -0.60996994858E+02 -0.88114444045E+02  0.11347497355E+03  0.00000000000E+00 0. -1.
          1    1    1    2  502    0 -0.16201027241E+02 -0.26668692152E+02  0.17253109063E+03  0.17533017327E+03  0.00000000000E+00 0. -1.
         22    1    3    3    0    0 -0.78446668836E+00  0.51279637733E+02  0.35428060752E+02  0.62332689037E+02  0.00000000000E+00 0. -1.
         22    1    3    3    0    0 -0.20321087135E+02  0.36386049278E+02 -0.93509713119E+02  0.10237654815E+03  0.00000000000E+00 0. -1.
</event>
<event>
 7    1  0.5562528E-006  0.1144145E+03  0.7818608E-02  0.1402282E+00
          2   -1    0    0  502    0  0.00000000000E+00  0.00000000000E+00  0.82068629050E+03  0.82068629050E+03  0.00000000000E+00 0. -1.
          1   -1    0    0  501    0 -0.00000000000E+00 -0.00000000000E+00 -0.78846504796E+03  0.78846504796E+03  0.00000000000E+00 0. -1.
         25    2    1    2    0    0  0.23561184956E+02  0.22413941581E+01  0.72814326491E+03  0.73917369090E+03  0.12499991124E+03 0.  0.
          2    1    1    2  501    0  0.55259962803E+02 -0.10018490106E+03 -0.73064570488E+03  0.73954974407E+03  0.00000000000E+00 0. -1.
          1    1    1    2  502    0 -0.78821147759E+02  0.97943506904E+02  0.34723682513E+02  0.13042790348E+03  0.00000000000E+00 0. -1.
         22    1    3    3    0    0  0.35284919303E+02 -0.54558340319E+02  0.28878750235E+03  0.29600651942E+03  0.00000000000E+00 0.  1.
         22    1    3    3    0    0 -0.11723734347E+02  0.56799734477E+02  0.43935576256E+03  0.44316717148E+03  0.00000000000E+00 0.  1.
</event>
<event>
 7    1  0.5562528E-006  0.6413803E+02  0.7818608E-02  0.1521114E+00
          2   -1    0    0  502    0  0.00000000000E+00  0.00000000000E+00  0.98308596881E+03  0.98308596881E+03  0.00000000000E+00 0. -1.
          1   -1    0    0  501    0 -0.00000000000E+00 -0.00000000000E+00 -0.83421532714E+03  0.83421532714E+03  0.00000000000E+00 0. -1.
         25    2    1    2    0    0 -0.54560918368E+02  0.45330562560E+02  0.34303062755E+03  0.37192213572E+03  0.12499723952E+03 0.  0.
          2    1    1    2  501    0  0.33649128648E+02 -0.54589655961E+02 -0.81830572230E+03  0.82081456465E+03  0.00000000000E+00 0. -1.
          1    1    1    2  502    0  0.20911789720E+02  0.92590934008E+01  0.62414573641E+03  0.62456459557E+03  0.00000000000E+00 0. -1.
         22    1    3    3    0    0 -0.75534904822E+01  0.35619822808E+02  0.13375626897E+02  0.38790906025E+02  0.00000000000E+00 0. -1.
         22    1    3    3    0    0 -0.47007427886E+02  0.97107397523E+01  0.32965500065E+03  0.33313122970E+03  0.00000000000E+00 0. -1.
</event>
<event>
 7    1  0.5562528E-006  0.8054291E+02  0.7818608E-02  0.1386794E+00
          2   -1    0    0  502    0  0.00000000000E+00  0.00000000000E+00  0.15827400659E+04  0.15827400659E+04  0.00000000000E+00 0. -1.
          1   -1    0    0  501    0 -0.00000000000E+00 -0.00000000000E+00 -0.30465229884E+03  0.30465229884E+03  0.00000000000E+00 0. -1.
         25    2    1    2    0    0 -0.33416422840E+02  0.27345551956E+02  0.10438322337E+03  0.16847848948E+03  0.12499883027E+03 0.  0.
          2    1    1    2  501    0  0.80911653425E+02 -0.16018759814E+02 -0.26594213116E+03  0.27843942511E+03  0.00000000000E+00 0. -1.
          1    1    1    2  502    0 -0.47495230585E+02 -0.11326792142E+02  0.14396466749E+04  0.14404744502E+04  0.00000000000E+00 0. -1.
         22    1    3    3    0    0 -0.74666160663E+02 -0.92439981925E+01  0.46054515691E+02  0.88212841845E+02  0.00000000000E+00 0. -1.
         22    1    3    3    0    0  0.41249737824E+02  0.36589550149E+02  0.58328707681E+02  0.80265647635E+02  0.00000000000E+00 0. -1.
</event>
<event>
 7    1  0.5562528E-006  0.3243419E+02  0.7818608E-02  0.1613589E+00
          2   -1    0    0  502    0  0.00000000000E+00  0.00000000000E+00  0.58895074478E+03  0.58895074478E+03  0.00000000000E+00 0. -1.
          1   -1    0    0  501    0 -0.00000000000E+00 -0.00000000000E+00 -0.18326874649E+03  0.18326874649E+03  0.00000000000E+00 0. -1.
         25    2    1    2    0    0 -0.32727940774E+02 -0.64170597835E+01 -0.30906238334E+02  0.13302093915E+03  0.12500831140E+03 0.  0.
          2    1    1    2  501    0  0.14682739991E+02 -0.20597806219E+02 -0.99226438295E+02  0.10239989517E+03  0.00000000000E+00 0. -1.
          1    1    1    2  502    0  0.18045200783E+02  0.27014866003E+02  0.53581467492E+03  0.53679865696E+03  0.00000000000E+00 0. -1.
         22    1    3    3    0    0 -0.30587623244E+02  0.49622537698E+02  0.15401331675E+02  0.60292619455E+02  0.00000000000E+00 0.  1.
         22    1    3    3    0    0 -0.21403175298E+01 -0.56039597482E+02 -0.46307570009E+02  0.72728319692E+02  0.00000000000E+00 0.  1.
</event>
<event>
 7    1  0.5562528E-006  0.1767694E+03  0.7818608E-02  0.1223029E+00
          2   -1    0    0  502    0  0.00000000000E+00  0.00000000000E+00  0.22608901696E+03  0.22608901696E+03  0.00000000000E+00 0. -1.
          1   -1    0    0  501    0 -0.00000000000E+00 -0.00000000000E+00 -0.87016852863E+03  0.87016852863E+03  0.00000000000E+00 0. -1.
         25    2    1    2    0    0  0.43697889320E+02 -0.82447696270E+02  0.25674790331E+02  0.15808736552E+03  0.12500116850E+03 0.  0.
          2    1    1    2  501    0 -0.12751932514E+03  0.13718700847E+03 -0.77240153313E+03  0.79478650087E+03  0.00000000000E+00 0. -1.
          1    1    1    2  502    0  0.83821435816E+02 -0.54739312202E+02  0.10264723113E+03  0.14338367920E+03  0.00000000000E+00 0. -1.
         22    1    3    3    0    0  0.87162869221E+02 -0.58704745859E+02  0.27147207545E+02  0.10853839797E+03  0.00000000000E+00 0.  1.
         22    1    3    3    0    0 -0.43464979901E+02 -0.23742950411E+02 -0.14724172141E+01  0.49548967542E+02  0.00000000000E+00 0.  1.
</event>
<event>
 7    1  0.5562528E-006  0.9353547E+02  0.7818608E-02  0.1339400E+00
          2   -1    0    0  502    0  0.00000000000E+00  0.00000000000E+00  0.20443208524E+03  0.20443208524E+03  0.00000000000E+00 0. -1.
          1   -1    0    0  501    0 -0.00000000000E+00 -0.00000000000E+00 -0.13829233565E+04  0.13829233565E+04  0.00000000000E+00 0. -1.
         25    2    1    2    0    0  0.10030571165E+03 -0.50307935761E+02 -0.88142183659E+01  0.16820394456E+03  0.12499100900E+03 0.  0.
          2    1    1    2  501    0 -0.54527388884E+02 -0.30558744795E+02 -0.12762360719E+04  0.12777658566E+04  0.00000000000E+00 0. -1.
          1    1    1    2  502    0 -0.45778322764E+02  0.80866680556E+02  0.10655901896E+03  0.14138564065E+03  0.00000000000E+00 0. -1.
         22    1    3    3    0    0  0.55511741725E+02 -0.88697707134E+02  0.12710718292E+02  0.10540587782E+03  0.00000000000E+00 0.  1.
         22    1    3    3    0    0  0.44793969923E+02  0.38389771373E+02 -0.21524936658E+02  0.62798066735E+02  0.00000000000E+00 0.  1.
</event>
<event>
 7    1  0.5562528E-006  0.2696223E+03  0.7818608E-02  0.1317006E+00
          2   -1    0    0  502    0  0.00000000000E+00  0.00000000000E+00  0.84196108507E+03  0.84196108507E+03  0.00000000000E+00 0. -1.
          1   -1    0    0  501    0 -0.00000000000E+00 -0.00000000000E+00 -0.31588755682E+03  0.31588755682E+03  0.00000000000E+00 0. -1.
         25    2    1    2    0    0 -0.18899190401E+03  0.21053972441E+03  0.31826392394E+03  0.44380377424E+03  0.12499979768E+03 0.  0.
          2    1    1    2  501    0  0.25799311943E+02 -0.56954048324E+01 -0.21503995254E+03  0.21665692540E+03  0.00000000000E+00 0. -1.
          1    1    1    2  502    0  0.16319259207E+03 -0.20484431957E+03  0.42284955685E+03  0.49738794225E+03  0.00000000000E+00 0. -1.
         22    1    3    3    0    0 -0.17705940276E+03  0.12229320190E+03  0.18643572384E+03  0.28471729568E+03  0.00000000000E+00 0.  1.
         22    1    3    3    0    0 -0.11932501250E+02  0.88246522509E+02  0.13182820010E+03  0.15908647856E+03  0.00000000000E+00 0.  1.
</event>
<event>
 7    1  0.5562528E-006  0.1126074E+03  0.7818608E-02  0.1368864E+00
          2   -1    0    0  502    0  0.00000000000E+00  0.00000000000E+00  0.14735289660E+03  0.14735289660E+03  0.00000000000E+00 0. -1.
          1   -1    0    0  501    0 -0.00000000000E+00 -0.00000000000E+00 -0.11027653758E+04  0.11027653758E+04  0.00000000000E+00 0. -1.
         25    2    1    2    0    0  0.94414767625E+02 -0.87488055896E+02 -0.45286701822E+03  0.48711648076E+03  0.12500248546E+03 0.  0.
          2    1    1    2  501    0 -0.98607941639E+02  0.47263880550E+02 -0.62476633668E+03  0.63426364866E+03  0.00000000000E+00 0. -1.
          1    1    1    2  502    0  0.41931740145E+01  0.40224175346E+02  0.12222087572E+03  0.12873814296E+03  0.00000000000E+00 0. -1.
         22    1    3    3    0    0  0.64951583219E+01  0.30870964491E+02 -0.93538380140E+02  0.98714903077E+02  0.00000000000E+00 0.  1.
         22    1    3    3    0    0  0.87919609303E+02 -0.11835902039E+03 -0.35932863808E+03  0.38840157769E+03  0.00000000000E+00 0.  1.
</event>
<event>
 7    1  0.5562528E-006  0.8041165E+02  0.7818608E-02  0.1470475E+00
          2   -1    0    0  502    0  0.00000000000E+00  0.00000000000E+00  0.94732939105E+03  0.94732939105E+03  0.00000000000E+00 0. -1.
          1   -1    0    0  501    0 -0.00000000000E+00 -0.00000000000E+00 -0.16182687338E+03  0.16182687338E+03  0.00000000000E+00 0. -1.
         25    2    1    2    0    0 -0.21594691430E+02 -0.10101151619E+03  0.30982870578E+03  0.34969736515E+03  0.12499905266E+03 0.  0.
          2    1    1    2  501    0  0.25591595221E+02  0.75434279954E+02 -0.13041473149E+03  0.15281774284E+03  0.00000000000E+00 0. -1.
          1    1    1    2  502    0 -0.39969037909E+01  0.25577236241E+02  0.60608854338E+03  0.60664115642E+03  0.00000000000E+00 0. -1.
         22    1    3    3    0    0 -0.23391065456E+02 -0.37392261882E+02  0.12798633232E+02  0.45925245829E+02  0.00000000000E+00 0. -1.
         22    1    3    3    0    0  0.17963740258E+01 -0.63619254312E+02  0.29703007255E+03  0.30377211933E+03  0.00000000000E+00 0. -1.
</event>
<event>
 7    1  0.5562528E-006  0.6664132E+02  0.7818608E-02  0.1444195E+00
          2   -1    0    0  502    0  0.00000000000E+00  0.00000000000E+00  0.31279004345E+03  0.31279004345E+03  0.00000000000E+00 0. -1.
          1   -1    0    0  501    0 -0.00000000000E+00 -0.00000000000E+00 -0.36548982462E+03  0.36548982462E+03  0.00000000000E+00 0. -1.
         25    2    1    2    0    0  0.43904497623E+02  0.41651619214E+02 -0.13665808917E+02  0.13954787524E+03  0.12499757140E+03 0.  0.
          2    1    1    2  501    0 -0.14924308450E+02 -0.65974899537E+02 -0.28344782812E+03  0.29140709260E+03  0.00000000000E+00 0. -1.
          1    1    1    2  502    0 -0.28980189173E+02  0.24323280323E+02  0.24441385587E+03  0.24732490022E+03  0.00000000000E+00 0. -1.
         22    1    3    3    0    0  0.49104489276E+02 -0.30661020651E+02 -0.30042416242E+02  0.65221896845E+02  0.00000000000E+00 0.  1.
         22    1    3    3    0    0 -0.51999916523E+01  0.72312639865E+02  0.16376607325E+02  0.74325978399E+02  0.00000000000E+00 0.  1.
</event>
<event>
 7    1  0.5562528E-006  0.8382380E+02  0.7818608E-02  0.1391140E+00
          2   -1    0    0  502    0  0.00000000000E+00  0.00000000000E+00  0.95116460845E+02  0.95116460845E+02  0.00000000000E+00 0. -1.
          1   -1    0    0  501    0 -0.00000000000E+00 -0.00000000000E+00 -0.32248283716E+03  0.32248283716E+03  0.00000000000E+00 0. -1.
         25    2    1    2    0    0  0.57228915126E+02 -0.64903979579E+02 -0.15891902572E+03  0.21992455919E+03  0.12499551874E+03 0.  0.
          2    1    1    2  501    0 -0.16569180341E+02  0.84884032739E+02 -0.10742385378E+03  0.13791200496E+03  0.00000000000E+00 0. -1.
          1    1    1    2  502    0 -0.40659734785E+02 -0.19980053160E+02  0.38976503187E+02  0.59762733854E+02  0.00000000000E+00 0. -1.
         22    1    3    3    0    0  0.32358829367E+02 -0.10953826540E+02 -0.15680191349E+03  0.16048027988E+03  0.00000000000E+00 0. -1.
         22    1    3    3    0    0  0.24870085759E+02 -0.53950153039E+02 -0.21171122250E+01  0.59444279311E+02  0.00000000000E+00 0. -1.
</event>
<event>
 7    1  0.5562528E-006  0.9375002E+02  0.7818608E-02  0.1395500E+00
          2   -1    0    0  502    0  0.00000000000E+00  0.00000000000E+00  0.41335640848E+03  0.41335640848E+03  0.00000000000E+00 0. -1.
          1   -1    0    0  501    0 -0.00000000000E+00 -0.00000000000E+00 -0.38189457627E+03  0.38189457627E+03  0.00000000000E+00 0. -1.
         25    2    1    2    0    0  0.48676422698E+02 -0.83816868637E+02  0.20750149440E+03  0.26091646114E+03  0.12500347165E+03 0.  0.
          2    1    1    2  501    0 -0.10714659903E+02  0.93262250704E+02 -0.34673274935E+03  0.35921616169E+03  0.00000000000E+00 0. -1.
          1    1    1    2  502    0 -0.37961762795E+02 -0.94453820671E+01  0.17069308717E+03  0.17511836192E+03  0.00000000000E+00 0. -1.
         22    1    3    3    0    0  0.52855031940E+02 -0.77268568019E+02  0.22394797360E+03  0.24272779175E+03  0.00000000000E+00 0.  1.
         22    1    3    3    0    0 -0.41786092422E+01 -0.65483006177E+01 -0.16446479205E+02  0.18188669397E+02  0.00000000000E+00 0.  1.
</event>
<event>
 7    1  0.5562528E-006  0.7028239E+02  0.7818608E-02  0.1388036E+00
          2   -1    0    0  502    0  0.00000000000E+00  0.00000000000E+00  0.58783251354E+03  0.58783251354E+03  0.00000000000E+00 0. -1.
          1   -1    0    0  501    0 -0.00000000000E+00 -0.00000000000E+00 -0.62634590692E+03  0.62634590692E+03  0.00000000000E+00 0. -1.
         25    2    1    2    0    0 -0.89669957789E+02 -0.51795029439E+02  0.14468488402E+03  0.21744628003E+03  0.12500297049E+03 0.  0.
          2    1    1    2  501    0  0.34991415344E+02  0.60692073232E+02 -0.58598287260E+03  0.59015578780E+03  0.00000000000E+00 0. -1.
          1    1    1    2  502    0  0.54678542445E+02 -0.88970437924E+01  0.40278459519E+03  0.40657635262E+03  0.00000000000E+00 0. -1.
         22    1    3    3    0    0  0.13588064445E+02 -0.36411402481E+02 -0.20299085952E+00  0.38864726054E+02  0.00000000000E+00 0.  1.
         22    1    3    3    0    0 -0.10325802223E+03 -0.15383626959E+02  0.14488787488E+03  0.17858155398E+03  0.00000000000E+00 0.  1.
</event>
<event>
 7    1  0.5562528E-006  0.1024287E+03  0.7818608E-02  0.1323228E+00
          2   -1    0    0  502    0  0.00000000000E+00  0.00000000000E+00  0.11303632754E+04  0.11303632754E+04  0.00000000000E+00 0. -1.
          1   -1    0    0  501    0 -0.00000000000E+00 -0.00000000000E+00 -0.20593018080E+03  0.20593018080E+03  0.00000000000E+00 0. -1.
         25    2    1    2    0    0  0.60015446913E+02 -0.60378553077E+02  0.17256667799E+03  0.22946283619E+03  0.12500604506E+03 0.  0.
          2    1    1    2  501    0  0.45326991272E+02  0.47680073108E+02 -0.16823037066E+03  0.18063605156E+03  0.00000000000E+00 0. -1.
          1    1    1    2  502    0 -0.10534243819E+03  0.12698479969E+02  0.92009678726E+03  0.92619456844E+03  0.00000000000E+00 0. -1.
         22    1    3    3    0    0 -0.23745384669E+01  0.25810034335E+02 -0.93334538221E+00  0.25935833107E+02  0.00000000000E+00 0. -1.
         22    1    3    3    0    0  0.62389985380E+02 -0.86188587413E+02  0.17350002337E+03  0.20352700308E+03  0.00000000000E+00 0. -1.
</event>
<event>
 7    1  0.5562528E-006  0.7639378E+02  0.7818608E-02  0.1369613E+00
          2   -1    0    0  502    0  0.00000000000E+00  0.00000000000E+00  0.42663895404E+03  0.42663895404E+03  0.00000000000E+00 0. -1.
          1   -1    0    0  501    0 -0.00000000000E+00 -0.00000000000E+00 -0.23043190420E+03  0.23043190420E+03  0.00000000000E+00 0. -1.
         25    2    1    2    0    0 -0.12370685599E+03  0.88596347787E+01  0.17723838443E+03  0.24984044001E+03  0.12499968480E+03 0.  0.
          2    1    1    2  501    0  0.57859799756E+02  0.12733207903E+02 -0.18371315255E+03  0.19302956621E+03  0.00000000000E+00 0. -1.
          1    1    1    2  502    0  0.65847056231E+02 -0.21592842682E+02  0.20268181797E+03  0.21420085202E+03  0.00000000000E+00 0. -1.
         22    1    3    3    0    0 -0.10215376167E+03 -0.12167301220E+02  0.41713854251E+02  0.11101117006E+03  0.00000000000E+00 0. -1.
         22    1    3    3    0    0 -0.21553094316E+02  0.21026935999E+02  0.13552453018E+03  0.13882926994E+03  0.00000000000E+00 0. -1.
</event>
<event>
 7    1  0.5562528E-006  0.1567952E+03  0.7818608E-02  0.1282752E+00
          2   -1    0    0  502    0  0.00000000000E+00  0.00000000000E+00  0.54732283825E+03  0.54732283825E+03  0.00000000000E+00 0. -1.
          1   -1    0    0  501    0 -0.00000000000E+00 -0.00000000000E+00 -0.76203914574E+03  0.76203914574E+03  0.00000000000E+00 0. -1.
         25    2    1    2    0    0  0.75070818772E+02  0.11948782010E+03  0.13422254823E+03  0.23141864698E+03  0.12500372287E+03 0.  0.
          2    1    1    2  501    0 -0.44610551847E+02  0.43499304962E+02 -0.69311475173E+03  0.69590972829E+03  0.00000000000E+00 0. -1.
          1    1    1    2  502    0 -0.30460266924E+02 -0.16298712507E+03  0.34417589601E+03  0.38203360872E+03  0.00000000000E+00 0. -1.
         22    1    3    3    0    0  0.36986996451E+02 -0.65662677808E+01 -0.71271436299E+01  0.38235454167E+02  0.00000000000E+00 0.  1.
         22    1    3    3    0    0  0.38083822321E+02  0.12605408788E+03  0.14134969186E+03  0.19318319281E+03  0.00000000000E+00 0.  1.
</event>
<event>
 7    1  0.5562528E-006  0.6492248E+02  0.7818608E-02  0.1432214E+00
          2   -1    0    0  502    0  0.00000000000E+00  0.00000000000E+00  0.57533591169E+03  0.57533591169E+03  0.00000000000E+00 0. -1.
          1   -1    0    0  501    0 -0.00000000000E+00 -0.00000000000E+00 -0.48066771305E+03  0.48066771305E+03  0.00000000000E+00 0. -1.
         25    2    1    2    0    0  0.18295047815E+02  0.77207362091E+02 -0.12396797276E+03  0.19310415944E+03  0.12500189034E+03 0.  0.
          2    1    1    2  501    0 -0.46196449245E+02 -0.45169985673E+02 -0.31804403337E+03  0.32454036219E+03  0.00000000000E+00 0. -1.
          1    1    1    2  502    0  0.27901401430E+02 -0.32037376418E+02  0.53668020477E+03  0.53835910309E+03  0.00000000000E+00 0. -1.
         22    1    3    3    0    0 -0.71139763975E+01 -0.18726393059E+02  0.13059887588E+02  0.23913325177E+02  0.00000000000E+00 0. -1.
         22    1    3    3    0    0  0.25409024213E+02  0.95933755151E+02 -0.13702786035E+03  0.16919083427E+03  0.00000000000E+00 0. -1.
</event>
<event>
 7    1  0.5562528E-006  0.4144155E+02  0.7818608E-02  0.1522081E+00
          2   -1    0    0  502    0  0.00000000000E+00  0.00000000000E+00  0.13379827499E+03  0.13379827499E+03  0.00000000000E+00 0. -1.
          1   -1    0    0  501    0 -0.00000000000E+00 -0.00000000000E+00 -0.18039099336E+04  0.18039099336E+04  0.00000000000E+00 0. -1.
         25    2    1    2    0    0  0.29144412558E+02 -0.29528976293E+01 -0.11120646448E+03  0.16985341030E+03  0.12500074744E+03 0.  0.
          2    1    1    2  501    0 -0.18446937827E+01  0.35119063973E+02 -0.16589267786E+04  0.16592994933E+04  0.00000000000E+00 0. -1.
          1    1    1    2  502    0 -0.27299718775E+02 -0.32166166343E+02  0.10002158444E+03  0.10855530506E+03  0.00000000000E+00 0. -1.
         22    1    3    3    0    0 -0.26045156210E+02  0.41263777058E+02 -0.77334599661E+02  0.91442275583E+02  0.00000000000E+00 0.  1.
         22    1    3    3    0    0  0.55189568768E+02 -0.44216674687E+02 -0.33871864815E+02  0.78411134714E+02  0.00000000000E+00 0.  1.
</event>
<event>
 7    1  0.5562528E-006  0.7311993E+02  0.7818608E-02  0.1467135E+00
          2   -1    0    0  502    0  0.00000000000E+00  0.00000000000E+00  0.77794960543E+03  0.77794960543E+03  0.00000000000E+00 0. -1.
          1   -1    0    0  501    0 -0.00000000000E+00 -0.00000000000E+00 -0.25718301383E+02  0.25718301383E+02  0.00000000000E+00 0. -1.
         25    2    1    2    0    0 -0.49719147593E+02 -0.15951892223E+02  0.41184305032E+03  0.43355087661E+03  0.12500083202E+03 0.  0.
          2    1    1    2  501    0  0.69270218522E+02  0.37586166698E+02  0.96963566875E+02  0.12495205641E+03  0.00000000000E+00 0. -1.
          1    1    1    2  502    0 -0.19551070929E+02 -0.21634274475E+02  0.24342468685E+03  0.24516497379E+03  0.00000000000E+00 0. -1.
         22    1    3    3    0    0 -0.59620219658E+02 -0.56677223790E+02  0.34486730201E+03  0.35454242945E+03  0.00000000000E+00 0. -1.
         22    1    3    3    0    0  0.99010720647E+01  0.40725331567E+02  0.66975748313E+02  0.79008447152E+02  0.00000000000E+00 0. -1.
</event>
<event>
 7    1  0.5562528E-006  0.6540274E+02  0.7818608E-02  0.1420673E+00
          2   -1    0    0  502    0  0.00000000000E+00  0.00000000000E+00  0.19716927537E+03  0.19716927537E+03  0.00000000000E+00 0. -1.
          1   -1    0    0  501    0 -0.00000000000E+00 -0.00000000000E+00 -0.27150744751E+03  0.27150744751E+03  0.00000000000E+00 0. -1.
         25    2    1    2    0    0  0.33892019930E+02  0.36535359579E+02 -0.27036756707E+02  0.13723781017E+03  0.12497891347E+03 0.  0.
          2    1    1    2  501    0 -0.33400330893E+02  0.31699696527E+02 -0.17807527705E+03  0.18393275174E+03  0.00000000000E+00 0. -1.
          1    1    1    2  502    0 -0.49168903713E+00 -0.68235056106E+02  0.13077386162E+03  0.14750616097E+03  0.00000000000E+00 0. -1.
         22    1    3    3    0    0  0.67872446275E+02  0.25443621348E+02  0.22729384983E+02  0.75964937783E+02  0.00000000000E+00 0.  1.
         22    1    3    3    0    0 -0.33980426345E+02  0.11091738231E+02 -0.49766141690E+02  0.61272872385E+02  0.00000000000E+00 0.  1.
</event>
<event>
 7    1  0.5562528E-006  0.7892836E+02  0.7818608E-02  0.1434914E+00
          2   -1    0    0  502    0  0.00000000000E+00  0.00000000000E+00  0.14513890354E+04  0.14513890354E+04  0.00000000000E+00 0. -1.
          1   -1    0    0  501    0 -0.00000000000E+00 -0.00000000000E+00 -0.24328955224E+03  0.24328955224E+03  0.00000000000E+00 0. -1.
         25    2    1    2    0    0 -0.53690926224E+02 -0.12292944639E+02  0.45306719236E+03  0.47321132935E+03  0.12500099752E+03 0.  0.
          2    1    1    2  501    0  0.65791425877E+02  0.44324229141E+02 -0.22616419297E+03  0.23967350957E+03  0.00000000000E+00 0. -1.
          1    1    1    2  502    0 -0.12100499653E+02 -0.32031284502E+02  0.98119648373E+03  0.98179374869E+03  0.00000000000E+00 0. -1.
         22    1    3    3    0    0 -0.65423689806E+02 -0.52026980599E+02  0.19984030433E+03  0.21661766579E+03  0.00000000000E+00 0. -1.
         22    1    3    3    0    0  0.11732763583E+02  0.39734035959E+02  0.25322688803E+03  0.25659366355E+03  0.00000000000E+00 0. -1.
</event>
<event>
 7    1  0.5562528E-006  0.1245285E+03  0.7818608E-02  0.1294525E+00
          2   -1    0    0  502    0  0.00000000000E+00  0.00000000000E+00  0.30848003482E+03  0.30848003482E+03  0.00000000000E+00 0. -1.
          1   -1    0    0  501    0 -0.00000000000E+00 -0.00000000000E+00 -0.51408458868E+03  0.51408458868E+03  0.00000000000E+00 0. -1.
         25    2    1    2    0    0 -0.13039286178E+03  0.15789059460E+02 -0.14114233175E+03  0.22977634456E+03  0.12499767161E+03 0.  0.
          2    1    1    2  501    0  0.11536066595E+03  0.52829552738E+02 -0.31129202174E+03  0.33615735555E+03  0.00000000000E+00 0. -1.
          1    1    1    2  502    0  0.15032195829E+02 -0.68618612199E+02  0.24682979964E+03  0.25663092339E+03  0.00000000000E+00 0. -1.
         22    1    3    3    0    0 -0.54447655516E+02 -0.39851729412E+02 -0.98072085863E+01  0.68182760787E+02  0.00000000000E+00 0. -1.
         22    1    3    3    0    0 -0.75945206263E+02  0.55640788872E+02 -0.13133512317E+03  0.16159358378E+03  0.00000000000E+00 0. -1.
</event>
<event>
 7    1  0.5562528E-006  0.8770035E+02  0.7818608E-02  0.1330560E+00
          2   -1    0    0  502    0  0.00000000000E+00  0.00000000000E+00  0.41892550590E+03  0.41892550590E+03  0.00000000000E+00 0. -1.
          1   -1    0    0  501    0 -0.00000000000E+00 -0.00000000000E+00 -0.79835310298E+03  0.79835310298E+03  0.00000000000E+00 0. -1.
         25    2    1    2    0    0  0.56874333672E+02 -0.10807294411E+03 -0.15924875291E+03  0.23643721281E+03  0.12501175632E+03 0.  0.
          2    1    1    2  501    0 -0.68729989294E+02  0.21496272186E+02 -0.59328460177E+03  0.59763912175E+03  0.00000000000E+00 0. -1.
          1    1    1    2  502    0  0.11855655622E+02  0.86576671929E+02  0.37310575760E+03  0.38320227432E+03  0.00000000000E+00 0. -1.
         22    1    3    3    0    0 -0.35306348277E+02 -0.35612354891E+02 -0.18984711078E+02  0.53620866314E+02  0.00000000000E+00 0. -1.
         22    1    3    3    0    0  0.92180681949E+02 -0.72460589223E+02 -0.14026404183E+03  0.18281634649E+03  0.00000000000E+00 0. -1.
</event>
<event>
 7    1  0.5562528E-006  0.1340235E+03  0.7818608E-02  0.1339613E+00
          2   -1    0    0  502    0  0.00000000000E+00  0.00000000000E+00  0.75153644670E+03  0.75153644670E+03  0.00000000000E+00 0. -1.
          1   -1    0    0  501    0 -0.00000000000E+00 -0.00000000000E+00 -0.26711564476E+03  0.26711564476E+03  0.00000000000E+00 0. -1.
         25    2    1    2    0    0 -0.16002210649E+03 -0.66651272315E+02  0.35320828970E+03  0.41283120216E+03  0.12499615556E+03 0.  0.
          2    1    1    2  501    0  0.11673243826E+03  0.61961397972E+02 -0.21744425141E+03  0.25445565321E+03  0.00000000000E+00 0. -1.
          1    1    1    2  502    0  0.43289668227E+02  0.46898743428E+01  0.34865676365E+03  0.35136523609E+03  0.00000000000E+00 0. -1.
         22    1    3    3    0    0 -0.62994316256E+02  0.22041451774E+02  0.20060196211E+03  0.21141252725E+03  0.00000000000E+00 0. -1.
         22    1    3    3    0    0 -0.97027790230E+02 -0.88692724088E+02  0.15260632758E+03  0.20141867491E+03  0.00000000000E+00 0. -1.
</event>
<event>
 7    1  0.5562528E-006  0.1182305E+03  0.7818608E-02  0.1383727E+00
          2   -1    0    0  502    0  0.00000000000E+00  0.00000000000E+00  0.18511431155E+04  0.18511431155E+04  0.00000000000E+00 0. -1.
          1   -1    0    0  501    0 -0.00000000000E+00 -0.00000000000E+00 -0.27370205967E+03  0.27370205967E+03  0.00000000000E+00 0. -1.
         25    2    1    2    0    0 -0.14885647114E+03 -0.27125555923E+02  0.10374250229E+04  0.10558265923E+04  0.12500028080E+03 0.  0.
          2    1    1    2  501    0  0.11678904006E+03  0.15532618109E+02 -0.25099580344E+03  0.27727213247E+03  0.00000000000E+00 0. -1.
          1    1    1    2  502    0  0.32067431084E+02  0.11592937814E+02  0.79101183643E+03  0.79174645040E+03  0.00000000000E+00 0. -1.
         22    1    3    3    0    0 -0.16983628013E+03 -0.20451681230E+02  0.84463313523E+03  0.86178173945E+03  0.00000000000E+00 0. -1.
         22    1    3    3    0    0  0.20979808994E+02 -0.66738746933E+01  0.19279188765E+03  0.19404485288E+03  0.00000000000E+00 0. -1.
</event>
<event>
 7    1  0.5562528E-006  0.6155995E+02  0.7818608E-02  0.1392727E+00
          2   -1    0    0  502    0  0.00000000000E+00  0.00000000000E+00  0.75624471116E+03  0.75624471116E+03  0.00000000000E+00 0. -1.
          1   -1    0    0  501    0 -0.00000000000E+00 -0.00000000000E+00 -0.77398679600E+03  0.77398679600E+03  0.00000000000E+00 0. -1.
         25    2    1    2    0    0  0.62687928229E+02 -0.99187983944E+02  0.18075680968E+03  0.24912928218E+03  0.12499736993E+03 0.  0.
          2    1    1    2  501    0 -0.45814092406E+02  0.40663246292E+02 -0.73681211883E+03  0.73935412971E+03  0.00000000000E+00 0. -1.
          1    1    1    2  502    0 -0.16873835822E+02  0.58524737651E+02  0.53831322432E+03  0.54174809527E+03  0.00000000000E+00 0. -1.
         22    1    3    3    0    0  0.59041227729E+02 -0.12453912591E+03  0.17521178710E+03  0.22292382284E+03  0.00000000000E+00 0. -1.
         22    1    3    3    0    0  0.36467004992E+01  0.25351141963E+02  0.55450225773E+01  0.26205459331E+02  0.00000000000E+00 0. -1.
</event>
<event>
 7    1  0.5562528E-006  0.3280271E+02  0.7818608E-02  0.1588886E+00
          2   -1    0    0  502    0  0.00000000000E+00  0.00000000000E+00  0.87062418760E+03  0.87062418760E+03  0.00000000000E+00 0. -1.
          1   -1    0    0  501    0 -0.00000000000E+00 -0.00000000000E+00 -0.44711335475E+03  0.44711335475E+03  0.00000000000E+00 0. -1.
         25    2    1    2    0    0 -0.64269859016E+01 -0.78419052588E+01  0.48905837367E+02  0.13460377025E+03  0.12499436952E+03 0.  0.
          2    1    1    2  501    0 -0.26307114514E+02  0.12232841975E+02 -0.40339306158E+03  0.40443499950E+03  0.00000000000E+00 0. -1.
          1    1    1    2  502    0  0.32734100415E+02 -0.43909367161E+01  0.77799805706E+03  0.77869877260E+03  0.00000000000E+00 0. -1.
         22    1    3    3    0    0  0.23012938056E+02 -0.55005263115E+02 -0.13763720220E+01  0.59641166054E+02  0.00000000000E+00 0. -1.
         22    1    3    3    0    0 -0.29439923958E+02  0.47163357856E+02  0.50282209389E+02  0.74962604196E+02  0.00000000000E+00 0. -1.
</event>
<event>
 7    1  0.5562528E-006  0.7962210E+02  0.7818608E-02  0.1392695E+00
          2   -1    0    0  502    0  0.00000000000E+00  0.00000000000E+00  0.13661477709E+04  0.13661477709E+04  0.00000000000E+00 0. -1.
          1   -1    0    0  501    0 -0.00000000000E+00 -0.00000000000E+00 -0.20071079829E+03  0.20071079829E+03  0.00000000000E+00 0. -1.
         25    2    1    2    0    0 -0.36576364419E+02  0.11117822438E+02 -0.60778203093E+01  0.13085652707E+03  0.12500021746E+03 0.  0.
          2    1    1    2  501    0 -0.43558204975E+02 -0.17928579034E+02 -0.12676505592E+03  0.13523361479E+03  0.00000000000E+00 0. -1.
          1    1    1    2  502    0  0.80134569394E+02  0.68107565966E+01  0.12982798488E+04  0.13007684273E+04  0.00000000000E+00 0. -1.
         22    1    3    3    0    0  0.26101614459E+02  0.23628438756E+02 -0.44144149307E+02  0.56465062769E+02  0.00000000000E+00 0.  1.
         22    1    3    3    0    0 -0.62677978878E+02 -0.12510616318E+02  0.38066328998E+02  0.74391464297E+02  0.00000000000E+00 0.  1.
</event>
<event>
 7    1  0.5562528E-006  0.8127824E+02  0.7818608E-02  0.1337382E+00
          2   -1    0    0  502    0  0.00000000000E+00  0.00000000000E+00  0.47656628924E+03  0.47656628924E+03  0.00000000000E+00 0. -1.
          1   -1    0    0  501    0 -0.00000000000E+00 -0.00000000000E+00 -0.17573928109E+04  0.17573928109E+04  0.00000000000E+00 0. -1.
         25    2    1    2    0    0 -0.85010254692E+01 -0.14983235392E+02 -0.49664841844E+03  0.51242716364E+03  0.12500072684E+03 0.  0.
          2    1    1    2  501    0  0.43292536502E+02 -0.59031196663E+02 -0.12482066319E+04  0.12503514394E+04  0.00000000000E+00 0. -1.
          1    1    1    2  502    0 -0.34791511033E+02  0.74014432056E+02  0.46402852873E+03  0.47118049712E+03  0.00000000000E+00 0. -1.
         22    1    3    3    0    0 -0.35090028420E+02  0.19182897056E+02 -0.43644633436E+03  0.43827468147E+03  0.00000000000E+00 0. -1.
         22    1    3    3    0    0  0.26589002951E+02 -0.34166132448E+02 -0.60202084079E+02  0.74152482169E+02  0.00000000000E+00 0. -1.
</event>
<event>
 7    1  0.5562528E-006  0.4514927E+02  0.7818608E-02  0.1509105E+00
          2   -1    0    0  502    0  0.00000000000E+00  0.00000000000E+00  0.17926836489E+04  0.17926836489E+04  0.00000000000E+00 0. -1.
          1   -1    0    0  501    0 -0.00000000000E+00 -0.00000000000E+00 -0.85032947394E+03  0.85032947394E+03  0.00000000000E+00 0. -1.
         25    2    1    2    0    0  0.66090518418E+02  0.17511164038E+02  0.67882308073E+03  0.69361419212E+03  0.12500110033E+03 0.  0.
          2    1    1    2  501    0 -0.44026277747E+02  0.99455003178E+01 -0.84204902748E+03  0.84325784359E+03  0.00000000000E+00 0. -1.
          1    1    1    2  502    0 -0.22064240671E+02 -0.27456664356E+02  0.11055801217E+04  0.11061410871E+04  0.00000000000E+00 0. -1.
         22    1    3    3    0    0  0.31091420946E+02  0.27822190817E+02  0.63595005589E+03  0.63731720858E+03  0.00000000000E+00 0.  1.
         22    1    3    3    0    0  0.34999097472E+02 -0.10311026780E+02  0.42873024839E+02  0.56296983542E+02  0.00000000000E+00 0.  1.
</event>
<event>
 7    1  0.5562528E-006  0.7221732E+02  0.7818608E-02  0.1374992E+00
          2   -1    0    0  502    0  0.00000000000E+00  0.00000000000E+00  0.67490963441E+03  0.67490963441E+03  0.00000000000E+00 0. -1.
          1   -1    0    0  501    0 -0.00000000000E+00 -0.00000000000E+00 -0.15129005875E+04  0.15129005875E+04  0.00000000000E+00 0. -1.
         25    2    1    2    0    0  0.53627562239E+02  0.12012140411E+03  0.35809649270E+02  0.18496629353E+03  0.12500052642E+03 0.  0.
          2    1    1    2  501    0 -0.31967374820E+02 -0.64220534180E+02 -0.14358326218E+04  0.14376235626E+04  0.00000000000E+00 0. -1.
          1    1    1    2  502    0 -0.21660187418E+02 -0.55900869925E+02  0.56203201944E+03  0.56522036574E+03  0.00000000000E+00 0. -1.
         22    1    3    3    0    0  0.87792520290E+02  0.11051331007E+03  0.45294237702E+02  0.14823051741E+03  0.00000000000E+00 0. -1.
         22    1    3    3    0    0 -0.34164958051E+02  0.96080940362E+01 -0.94845884328E+01  0.36735776123E+02  0.00000000000E+00 0. -1.
</event>
<event>
 7    1  0.5562528E-006  0.6996348E+02  0.7818608E-02  0.1436638E+00
          2   -1    0    0  502    0  0.00000000000E+00  0.00000000000E+00  0.12900865532E+04  0.12900865532E+04  0.00000000000E+00 0. -1.
          1   -1    0    0  501    0 -0.00000000000E+00 -0.00000000000E+00 -0.24985378928E+02  0.24985378928E+02  0.00000000000E+00 0. -1.
         25    2    1    2    0    0  0.60301217934E+02 -0.81768895264E+02  0.74213601397E+03  0.75941608073E+03  0.12499812533E+03 0.  0.
          2    1    1    2  501    0 -0.49593900097E+02  0.45172446077E+02  0.56702550306E+02  0.87836689502E+02  0.00000000000E+00 0. -1.
          1    1    1    2  502    0 -0.10707317837E+02  0.36596449187E+02  0.46626260997E+03  0.46781916186E+03  0.00000000000E+00 0. -1.
         22    1    3    3    0    0  0.22935735227E+02 -0.47594680093E+02  0.83330810131E+02  0.98667752791E+02  0.00000000000E+00 0. -1.
         22    1    3    3    0    0  0.37365482707E+02 -0.34174215170E+02  0.65880520383E+03  0.66074832794E+03  0.00000000000E+00 0. -1.
</event>
<event>
 7    1  0.5562528E-006  0.3558766E+02  0.7818608E-02  0.1624589E+00
          2   -1    0    0  502    0  0.00000000000E+00  0.00000000000E+00  0.26745408824E+03  0.26745408824E+03  0.00000000000E+00 0. -1.
          1   -1    0    0  501    0 -0.00000000000E+00 -0.00000000000E+00 -0.40626745963E+02  0.40626745963E+02  0.00000000000E+00 0. -1.
         25    2    1    2    0    0  0.21096325056E+02 -0.11222742789E+02  0.16323781875E+03  0.20698566126E+03  0.12500189443E+03 0.  0.
          2    1    1    2  501    0 -0.94132121906E-01 -0.21611854740E+02 -0.50197926146E+01  0.22187371274E+02  0.00000000000E+00 0. -1.
          1    1    1    2  502    0 -0.21002192934E+02  0.32834597529E+02  0.68609316136E+02  0.78907801665E+02  0.00000000000E+00 0. -1.
         22    1    3    3    0    0 -0.21150353757E+02 -0.58470399587E+02  0.97748197291E+02  0.11584832828E+03  0.00000000000E+00 0. -1.
         22    1    3    3    0    0  0.42246678814E+02  0.47247656797E+02  0.65489621462E+02  0.91137332980E+02  0.00000000000E+00 0. -1.
</event>
<event>
 7    1  0.5562528E-006  0.5644458E+02  0.7818608E-02  0.1425225E+00
          2   -1    0    0  502    0  0.00000000000E+00  0.00000000000E+00  0.18230626267E+03  0.18230626267E+03  0.00000000000E+00 0. -1.
          1   -1    0    0  501    0 -0.00000000000E+00 -0.00000000000E+00 -0.15545631642E+03  0.15545631642E+03  0.00000000000E+00 0. -1.
         25    2    1    2    0    0  0.60582620365E+02  0.60782974658E+02  0.52348622590E+01  0.15174118299E+03  0.12503263147E+03 0.  0.
          2    1    1    2  501    0 -0.95657696226E+01 -0.53538348222E+02 -0.65298523682E+02  0.84980914763E+02  0.00000000000E+00 0. -1.
          1    1    1    2  502    0 -0.51016850743E+02 -0.72446264356E+01  0.86913607676E+02  0.10104048135E+03  0.00000000000E+00 0. -1.
         22    1    3    3    0    0  0.37559337546E+02  0.31929053411E+02 -0.59471166238E+02  0.77246280832E+02  0.00000000000E+00 0. -1.
         22    1    3    3    0    0  0.23023282819E+02  0.28853921246E+02  0.64706028497E+02  0.74494902154E+02  0.00000000000E+00 0. -1.
</event>
<event>
 7    1  0.5562528E-006  0.5948933E+02  0.7818608E-02  0.1426164E+00
          2   -1    0    0  502    0  0.00000000000E+00  0.00000000000E+00  0.10603495076E+04  0.10603495076E+04  0.00000000000E+00 0. -1.
          1   -1    0    0  501    0 -0.00000000000E+00 -0.00000000000E+00 -0.58271974888E+03  0.58271974888E+03  0.00000000000E+00 0. -1.
         25    2    1    2    0    0  0.32387590396E+02 -0.66093442158E+02 -0.40653361375E+03  0.43163780928E+03  0.12499728071E+03 0.  0.
          2    1    1    2  501    0 -0.47770810177E+02  0.86191531210E+01 -0.15916773769E+03  0.16640525481E+03  0.00000000000E+00 0. -1.
          1    1    1    2  502    0  0.15383219782E+02  0.57474289037E+02  0.10433311101E+04  0.10450261924E+04  0.00000000000E+00 0. -1.
         22    1    3    3    0    0  0.58766156872E+02 -0.80561820611E+02 -0.20606957873E+03  0.22892867757E+03  0.00000000000E+00 0. -1.
         22    1    3    3    0    0 -0.26378566476E+02  0.14468378453E+02 -0.20046403502E+03  0.20270913172E+03  0.00000000000E+00 0. -1.
</event>
<event>
 7    1  0.5562528E-006  0.9905394E+02  0.7818608E-02  0.1411443E+00
          2   -1    0    0  502    0  0.00000000000E+00  0.00000000000E+00  0.88468971335E+03  0.88468971335E+03  0.00000000000E+00 0. -1.
          1   -1    0    0  501    0 -0.00000000000E+00 -0.00000000000E+00 -0.11955145458E+04  0.11955145458E+04  0.00000000000E+00 0. -1.
         25    2    1    2    0    0  0.98547198940E+02 -0.99723250648E+01 -0.82927324057E+02  0.17976718472E+03  0.12501320706E+03 0.  0.
          2    1    1    2  501    0 -0.84791486320E+01 -0.31534282996E+02 -0.10609750557E+04  0.10614774495E+04  0.00000000000E+00 0. -1.
          1    1    1    2  502    0 -0.90068050308E+02  0.41506608060E+02  0.83307754738E+03  0.83895962486E+03  0.00000000000E+00 0. -1.
         22    1    3    3    0    0  0.49446912476E+02  0.17990194903E+02 -0.10630753028E+03  0.11861675793E+03  0.00000000000E+00 0.  1.
         22    1    3    3    0    0  0.49100286464E+02 -0.27962519968E+02  0.23380206225E+02  0.61150426793E+02  0.00000000000E+00 0.  1.
</event>
<event>
 7    1  0.5562528E-006  0.5257050E+02  0.7818608E-02  0.1532009E+00
          2   -1    0    0  502    0  0.00000000000E+00  0.00000000000E+00  0.13263752019E+04  0.13263752019E+04  0.00000000000E+00 0. -1.
          1   -1    0    0  501    0 -0.00000000000E+00 -0.00000000000E+00 -0.21492145215E+02  0.21492145215E+02  0.00000000000E+00 0. -1.
         25    2    1    2    0    0 -0.17688081870E+02  0.23531901484E+02  0.49910952919E+03  0.51536576557E+03  0.12499972624E+03 0.  0.
          2    1    1    2  501    0  0.36355526521E+02 -0.41569884104E+02  0.44870127139E+02  0.71155518989E+02  0.00000000000E+00 0. -1.
          1    1    1    2  502    0 -0.18667444651E+02  0.18037982621E+02  0.76090340038E+03  0.76134606259E+03  0.00000000000E+00 0. -1.
         22    1    3    3    0    0 -0.54775438998E+02 -0.13036027546E+01  0.10225634373E+03  0.11601037855E+03  0.00000000000E+00 0.  1.
         22    1    3    3    0    0  0.37087357129E+02  0.24835504238E+02  0.39685318547E+03  0.39935538702E+03  0.00000000000E+00 0.  1.
</event>
<event>
 7    1  0.5562528E-006  0.7925864E+02  0.7818608E-02  0.1332955E+00
          2   -1    0    0  502    0  0.00000000000E+00  0.00000000000E+00  0.59299195295E+03  0.59299195295E+03  0.00000000000E+00 0. -1.
          1   -1    0    0  501    0 -0.00000000000E+00 -0.00000000000E+00 -0.14980503099E+03  0.14980503099E+03  0.00000000000E+00 0. -1.
         25    2    1    2    0    0 -0.65249260164E+02 -0.47138468772E+02  0.99015727415E+02  0.17862861692E+03  0.12499826925E+03 0.  0.
          2    1    1    2  501    0  0.75446864909E+02 -0.31461414361E+02 -0.90719050712E+02  0.12211468454E+03  0.00000000000E+00 0. -1.
          1    1    1    2  502    0 -0.10197604745E+02  0.78599883133E+02  0.43489024526E+03  0.44205368248E+03  0.00000000000E+00 0. -1.
         22    1    3    3    0    0 -0.46492006458E+02  0.35965961788E+02  0.19065389256E+02  0.61794385985E+02  0.00000000000E+00 0.  1.
         22    1    3    3    0    0 -0.18757253706E+02 -0.83104430560E+02  0.79950338159E+02  0.11683423093E+03  0.00000000000E+00 0.  1.
</event>
<event>
 7    1  0.5562528E-006  0.9054320E+02  0.7818608E-02  0.1458356E+00
          2   -1    0    0  502    0  0.00000000000E+00  0.00000000000E+00  0.16204332869E+03  0.16204332869E+03  0.00000000000E+00 0. -1.
          1   -1    0    0  501    0 -0.00000000000E+00 -0.00000000000E+00 -0.58677811136E+03  0.58677811136E+03  0.00000000000E+00 0. -1.
         25    2    1    2    0    0 -0.10704029093E+03  0.28288616084E+02 -0.20406279588E+02  0.16824277428E+03  0.12502537810E+03 0.  0.
          2    1    1    2  501    0  0.24980562510E+02 -0.23720912490E+01 -0.47103132384E+03  0.47169922977E+03  0.00000000000E+00 0. -1.
          1    1    1    2  502    0  0.82059728419E+02 -0.25916524835E+02  0.66702820760E+02  0.10887943601E+03  0.00000000000E+00 0. -1.
         22    1    3    3    0    0 -0.12585570872E+02 -0.37448340300E+02 -0.34312642042E+02  0.52327164928E+02  0.00000000000E+00 0.  1.
         22    1    3    3    0    0 -0.94454720057E+02  0.65736956385E+02  0.13906362455E+02  0.11591560936E+03  0.00000000000E+00 0.  1.
</event>
<event>
 7    1  0.5562528E-006  0.2752946E+02  0.7818608E-02  0.1652956E+00
          2   -1    0    0  502    0  0.00000000000E+00  0.00000000000E+00  0.14127271990E+04  0.14127271990E+04  0.00000000000E+00 0. -1.
          1   -1    0    0  501    0 -0.00000000000E+00 -0.00000000000E+00 -0.20887206607E+02  0.20887206607E+02  0.00000000000E+00 0. -1.
         25    2    1    2    0    0  0.31806404142E+02  0.39061988262E+02  0.44459811079E+03  0.46456594355E+03  0.12496619352E+03 0.  0.
          2    1    1    2  501    0 -0.17500892374E+02 -0.16053938280E+02  0.24575073227E+01  0.23875709632E+02  0.00000000000E+00 0. -1.
          1    1    1    2  502    0 -0.14305511767E+02 -0.23008049983E+02  0.94478437431E+03  0.94517275245E+03  0.00000000000E+00 0. -1.
         22    1    3    3    0    0  0.65866574611E+02 -0.14342402553E+02  0.17276010836E+03  0.18544585518E+03  0.00000000000E+00 0. -1.
         22    1    3    3    0    0 -0.34060170469E+02  0.53404390815E+02  0.27183800243E+03  0.27912008837E+03  0.00000000000E+00 0. -1.
</event>
<event>
 7    1  0.5562528E-006  0.6600639E+02  0.7818608E-02  0.1397163E+00
          2   -1    0    0  502    0  0.00000000000E+00  0.00000000000E+00  0.26587163293E+02  0.26587163293E+02  0.00000000000E+00 0. -1.
          1   -1    0    0  501    0 -0.00000000000E+00 -0.00000000000E+00 -0.16005319251E+04  0.16005319251E+04  0.00000000000E+00 0. -1.
         25    2    1    2    0    0 -0.40157082291E+02 -0.72965297687E+02 -0.59296612412E+03  0.61169507713E+03  0.12500206840E+03 0.  0.
          2    1    1    2  501    0  0.54190086629E+02  0.83586703152E+01 -0.93082899390E+03  0.93244251766E+03  0.00000000000E+00 0. -1.
          1    1    1    2  502    0 -0.14033004338E+02  0.64606627372E+02 -0.50149643827E+02  0.82981493642E+02  0.00000000000E+00 0. -1.
         22    1    3    3    0    0  0.44716702703E+02 -0.32115960021E+02 -0.25304700092E+03  0.25896679915E+03  0.00000000000E+00 0. -1.
         22    1    3    3    0    0 -0.84873784994E+02 -0.40849337666E+02 -0.33991912320E+03  0.35272827797E+03  0.00000000000E+00 0. -1.
</event>
<event>
 7    1  0.5562528E-006  0.5611254E+02  0.7818608E-02  0.1463098E+00
          2   -1    0    0  502    0  0.00000000000E+00  0.00000000000E+00  0.58652442989E+02  0.58652442989E+02  0.00000000000E+00 0. -1.
          1   -1    0    0  501    0 -0.00000000000E+00 -0.00000000000E+00 -0.45927359334E+03  0.45927359334E+03  0.00000000000E+00 0. -1.
         25    2    1    2    0    0  0.87235738522E+02 -0.22464528972E+02 -0.19520957515E+03  0.24869039228E+03  0.12500161537E+03 0.  0.
          2    1    1    2  501    0 -0.39107636118E+02  0.10019357204E+01 -0.21249394005E+03  0.21606500326E+03  0.00000000000E+00 0. -1.
          1    1    1    2  502    0 -0.48128102404E+02  0.21462593251E+02  0.70823648422E+01  0.53170640789E+02  0.00000000000E+00 0. -1.
         22    1    3    3    0    0 -0.55417251223E+01 -0.89453538998E+01 -0.13895207146E+03  0.13934994882E+03  0.00000000000E+00 0.  1.
         22    1    3    3    0    0  0.92777463645E+02 -0.13519175072E+02 -0.56257503695E+02  0.10934044346E+03  0.00000000000E+00 0.  1.
</event>
<event>
 7    1  0.5562528E-006  0.3713775E+03  0.7818608E-02  0.1244780E+00
          2   -1    0    0  502    0  0.00000000000E+00  0.00000000000E+00  0.39482470627E+04  0.39482470627E+04  0.00000000000E+00 0. -1.
          1   -1    0    0  501    0 -0.00000000000E+00 -0.00000000000E+00 -0.69285110304E+03  0.69285110304E+03  0.00000000000E+00 0. -1.
         25    2    1    2    0    0 -0.35219644854E+03  0.12892131290E+02  0.12654187786E+04  0.13195141013E+04  0.12499693179E+03 0.  0.
          2    1    1    2  501    0 -0.26960664202E+02  0.26951553091E+02 -0.65156124380E+03  0.65267550747E+03  0.00000000000E+00 0. -1.
          1    1    1    2  502    0  0.37915711274E+03 -0.39843684381E+02  0.26415384249E+04  0.26689085570E+04  0.00000000000E+00 0. -1.
         22    1    3    3    0    0 -0.35547709079E+03 -0.49713093112E+01  0.11923168280E+04  0.12441897341E+04  0.00000000000E+00 0.  1.
         22    1    3    3    0    0  0.32806422534E+01  0.17863440601E+02  0.73101950573E+02  0.75324367248E+02  0.00000000000E+00 0.  1.
</event>
<event>
 7    1  0.5562528E-006  0.5336100E+02  0.7818608E-02  0.1511554E+00
          2   -1    0    0  502    0  0.00000000000E+00  0.00000000000E+00  0.13307330221E+04  0.13307330221E+04  0.00000000000E+00 0. -1.
          1   -1    0    0  501    0 -0.00000000000E+00 -0.00000000000E+00 -0.10595987617E+04  0.10595987617E+04  0.00000000000E+00 0. -1.
         25    2    1    2    0    0 -0.55035637838E+02  0.51507896716E+02 -0.21037680399E+02  0.14747872436E+03  0.12500162113E+03 0.  0.
          2    1    1    2  501    0  0.47872661496E+02 -0.23083920774E+02 -0.97444684604E+03  0.97589513518E+03  0.00000000000E+00 0. -1.
          1    1    1    2  502    0  0.71629763418E+01 -0.28423975942E+02  0.12666187868E+04  0.12669579242E+04  0.00000000000E+00 0. -1.
         22    1    3    3    0    0 -0.35909298530E+01 -0.37033978832E+02 -0.25288992457E+02  0.44988259633E+02  0.00000000000E+00 0.  1.
         22    1    3    3    0    0 -0.51444707985E+02  0.88541875548E+02  0.42513120584E+01  0.10249046472E+03  0.00000000000E+00 0.  1.
</event>
<event>
 7    1  0.5562528E-006  0.3060263E+02  0.7818608E-02  0.1611111E+00
          2   -1    0    0  502    0  0.00000000000E+00  0.00000000000E+00  0.26452193651E+03  0.26452193651E+03  0.00000000000E+00 0. -1.
          1   -1    0    0  501    0 -0.00000000000E+00 -0.00000000000E+00 -0.35301157118E+03  0.35301157118E+03  0.00000000000E+00 0. -1.
         25    2    1    2    0    0  0.25705486467E+02 -0.33970760859E+02 -0.55299494068E+02  0.14316069342E+03  0.12498866135E+03 0.  0.
          2    1    1    2  501    0  0.12807905801E+01  0.30523117090E+02 -0.25201667912E+03  0.25386159153E+03  0.00000000000E+00 0. -1.
          1    1    1    2  502    0 -0.26986277047E+02  0.34476437681E+01  0.21882653852E+03  0.22051122275E+03  0.00000000000E+00 0. -1.
         22    1    3    3    0    0  0.60644684630E+02  0.21407669341E+02 -0.14230422010E+02  0.65867829713E+02  0.00000000000E+00 0. -1.
         22    1    3    3    0    0 -0.34939198163E+02 -0.55378430199E+02 -0.41069072058E+02  0.77292863703E+02  0.00000000000E+00 0. -1.
</event>
<event>
 7    1  0.5562528E-006  0.1437363E+03  0.7818608E-02  0.1208429E+00
          2   -1    0    0  502    0  0.00000000000E+00  0.00000000000E+00  0.11711502894E+04  0.11711502894E+04  0.00000000000E+00 0. -1.
          1   -1    0    0  501    0 -0.00000000000E+00 -0.00000000000E+00 -0.31312424361E+03  0.31312424361E+03  0.00000000000E+00 0. -1.
         25    2    1    2    0    0  0.32357210940E+02 -0.91867534608E+02  0.16152442152E+03  0.22629082181E+03  0.12502305496E+03 0.  0.
          2    1    1    2  501    0  0.12865848590E+03  0.64086763901E+02 -0.25491086111E+03  0.29264255742E+03  0.00000000000E+00 0. -1.
          1    1    1    2  502    0 -0.16101569684E+03  0.27780770707E+02  0.95141248538E+03  0.96534115378E+03  0.00000000000E+00 0. -1.
         22    1    3    3    0    0  0.21847839346E+02  0.11418481432E+02 -0.93369141377E+01  0.26360723964E+02  0.00000000000E+00 0.  1.
         22    1    3    3    0    0  0.10509371594E+02 -0.10328601604E+03  0.17086133566E+03  0.19993009785E+03  0.00000000000E+00 0.  1.
</event>
<event>
 7    1  0.5562528E-006  0.3245441E+03  0.7818608E-02  0.1115625E+00
          2   -1    0    0  502    0  0.00000000000E+00  0.00000000000E+00  0.16455782771E+04  0.16455782771E+04  0.00000000000E+00 0. -1.
          1   -1    0    0  501    0 -0.00000000000E+00 -0.00000000000E+00 -0.28728987357E+03  0.28728987357E+03  0.00000000000E+00 0. -1.
         25    2    1    2    0    0 -0.21916307172E+03  0.21060822016E+03  0.10579683245E+04  0.11078404183E+04  0.12500056893E+03 0.  0.
          2    1    1    2  501    0  0.32661933213E+03 -0.57546969357E+02 -0.12969376176E+03  0.35610716595E+03  0.00000000000E+00 0. -1.
          1    1    1    2  502    0 -0.10745626041E+03 -0.15306125080E+03  0.43001384076E+03  0.46892056646E+03  0.00000000000E+00 0. -1.
         22    1    3    3    0    0 -0.72030419891E+02  0.40622565881E+00  0.22455686943E+03  0.23582691538E+03  0.00000000000E+00 0.  1.
         22    1    3    3    0    0 -0.14713265183E+03  0.21020199450E+03  0.83341145510E+03  0.87201350288E+03  0.00000000000E+00 0.  1.
</event>
<event>
 7    1  0.5562528E-006  0.1042203E+03  0.7818608E-02  0.1290645E+00
          2   -1    0    0  502    0  0.00000000000E+00  0.00000000000E+00  0.64319390345E+03  0.64319390345E+03  0.00000000000E+00 0. -1.
          1   -1    0    0  501    0 -0.00000000000E+00 -0.00000000000E+00 -0.46250285822E+03  0.46250285822E+03  0.00000000000E+00 0. -1.
         25    2    1    2    0    0 -0.75020589158E+02 -0.25478938838E+02 -0.10317567002E+01  0.14799838333E+03  0.12500076730E+03 0.  0.
          2    1    1    2  501    0  0.92213134180E+02 -0.59832487912E+02 -0.37676385697E+03  0.39247190045E+03  0.00000000000E+00 0. -1.
          1    1    1    2  502    0 -0.17192545022E+02  0.85311426750E+02  0.55848665890E+03  0.56522647789E+03  0.00000000000E+00 0. -1.
         22    1    3    3    0    0 -0.61340734763E+02  0.42647942787E+02 -0.17180844894E+02  0.76659729953E+02  0.00000000000E+00 0.  1.
         22    1    3    3    0    0 -0.13679854395E+02 -0.68126881625E+02  0.16149088194E+02  0.71338653377E+02  0.00000000000E+00 0.  1.
</event>
<event>
 7    1  0.5562528E-006  0.1240221E+03  0.7818608E-02  0.1419100E+00
          2   -1    0    0  502    0  0.00000000000E+00  0.00000000000E+00  0.18957706356E+04  0.18957706356E+04  0.00000000000E+00 0. -1.
          1   -1    0    0  501    0 -0.00000000000E+00 -0.00000000000E+00 -0.89536463913E+03  0.89536463913E+03  0.00000000000E+00 0. -1.
         25    2    1    2    0    0  0.12214249433E+03  0.66409985762E+02  0.64773302756E+02  0.19786368645E+03  0.12500153014E+03 0.  0.
          2    1    1    2  501    0 -0.23313387392E+02  0.77852819360E+01 -0.82647265881E+03  0.82683806178E+03  0.00000000000E+00 0. -1.
          1    1    1    2  502    0 -0.98829106939E+02 -0.74195267698E+02  0.17621053525E+04  0.17664335265E+04  0.00000000000E+00 0. -1.
         22    1    3    3    0    0  0.81823049414E+02 -0.12687254270E+02  0.70709853529E+02  0.10888462344E+03  0.00000000000E+00 0. -1.
         22    1    3    3    0    0  0.40319444917E+02  0.79097240031E+02 -0.59365507729E+01  0.88979063010E+02  0.00000000000E+00 0. -1.
</event>
<event>
 7    1  0.5562528E-006  0.4826173E+02  0.7818608E-02  0.1497904E+00
          2   -1    0    0  502    0  0.00000000000E+00  0.00000000000E+00  0.53409869879E+03  0.53409869879E+03  0.00000000000E+00 0. -1.
          1   -1    0    0  501    0 -0.00000000000E+00 -0.00000000000E+00 -0.79256223121E+03  0.79256223121E+03  0.00000000000E+00 0. -1.
         25    2    1    2    0    0  0.20917800512E+02 -0.30397043601E+02 -0.11756234574E+03  0.17552210786E+03  0.12500228227E+03 0.  0.
          2    1    1    2  501    0  0.26985895025E+02  0.23181067952E+02 -0.64436669784E+03  0.64534800048E+03  0.00000000000E+00 0. -1.
          1    1    1    2  502    0 -0.47903695536E+02  0.72159756492E+01  0.50346551115E+03  0.50579082166E+03  0.00000000000E+00 0. -1.
         22    1    3    3    0    0 -0.33002640408E+01  0.41044172720E+02 -0.71369865059E+01  0.41790578285E+02  0.00000000000E+00 0. -1.
         22    1    3    3    0    0  0.24218064552E+02 -0.71441216321E+02 -0.11042535923E+03  0.13373152957E+03  0.00000000000E+00 0. -1.
</event>
<event>
 7    1  0.5562528E-006  0.1415953E+03  0.7818608E-02  0.1231064E+00
          2   -1    0    0  502    0  0.00000000000E+00  0.00000000000E+00  0.46932914249E+03  0.46932914249E+03  0.00000000000E+00 0. -1.
          1   -1    0    0  501    0 -0.00000000000E+00 -0.00000000000E+00 -0.24171704763E+03  0.24171704763E+03  0.00000000000E+00 0. -1.
         25    2    1    2    0    0 -0.27527055133E+02 -0.24075307659E+03 -0.36944803198E+02  0.27515456753E+03  0.12500133958E+03 0.  0.
          2    1    1    2  501    0  0.37919441362E+02  0.10855176416E+03 -0.24770482253E+02  0.11762204864E+03  0.00000000000E+00 0. -1.
          1    1    1    2  502    0 -0.10392386229E+02  0.13220131243E+03  0.28932738032E+03  0.31826957395E+03  0.00000000000E+00 0. -1.
         22    1    3    3    0    0 -0.37609234251E+02 -0.70020875786E+02 -0.63939045228E+02  0.10200774016E+03  0.00000000000E+00 0.  1.
         22    1    3    3    0    0  0.10082179118E+02 -0.17073220081E+03  0.26994242030E+02  0.17314682738E+03  0.00000000000E+00 0.  1.
</event>
<event>
 7    1  0.5562528E-006  0.1469026E+03  0.7818608E-02  0.1363761E+00
          2   -1    0    0  502    0  0.00000000000E+00  0.00000000000E+00  0.58362223088E+02  0.58362223088E+02  0.00000000000E+00 0. -1.
          1   -1    0    0  501    0 -0.00000000000E+00 -0.00000000000E+00 -0.15529101388E+04  0.15529101388E+04  0.00000000000E+00 0. -1.
         25    2    1    2    0    0  0.49117312190E+02 -0.10711133416E+03 -0.10045210878E+04  0.10191037038E+04  0.12499758035E+03 0.  0.
          2    1    1    2  501    0  0.15641446958E+02 -0.28312626936E+02 -0.42885316616E+03  0.43007127064E+03  0.00000000000E+00 0. -1.
          1    1    1    2  502    0 -0.64758759148E+02  0.13542396110E+03 -0.61173661831E+02  0.16209738748E+03  0.00000000000E+00 0. -1.
         22    1    3    3    0    0 -0.42564280009E+02 -0.36270879926E+02 -0.32789545951E+03  0.33263001523E+03  0.00000000000E+00 0. -1.
         22    1    3    3    0    0  0.91681592199E+02 -0.70840454235E+02 -0.67662562825E+03  0.68647368857E+03  0.00000000000E+00 0. -1.
</event>
<event>
 7    1  0.5562528E-006  0.1623738E+03  0.7818608E-02  0.1219054E+00
          2   -1    0    0  502    0  0.00000000000E+00  0.00000000000E+00  0.59380144579E+03  0.59380144579E+03  0.00000000000E+00 0. -1.
          1   -1    0    0  501    0 -0.00000000000E+00 -0.00000000000E+00 -0.36554049520E+03  0.36554049520E+03  0.00000000000E+00 0. -1.
         25    2    1    2    0    0  0.18594826516E+03  0.93870014353E+02  0.77779243807E+02  0.25507492225E+03  0.12500107313E+03 0.  0.
          2    1    1    2  501    0 -0.27632284390E+02 -0.11021236359E+03 -0.24929819656E+03  0.27397061710E+03  0.00000000000E+00 0. -1.
          1    1    1    2  502    0 -0.15831598077E+03  0.16342349233E+02  0.39977990334E+03  0.43029640164E+03  0.00000000000E+00 0. -1.
         22    1    3    3    0    0  0.48243043277E+01 -0.12867853675E+02 -0.19150110991E+02  0.23570793822E+02  0.00000000000E+00 0.  1.
         22    1    3    3    0    0  0.18112396083E+03  0.10673786803E+03  0.96929354798E+02  0.23150412843E+03  0.00000000000E+00 0.  1.
</event>
<event>
 7    1  0.5562528E-006  0.3653694E+02  0.7818608E-02  0.1585938E+00
          2   -1    0    0  502    0  0.00000000000E+00  0.00000000000E+00  0.19635610576E+03  0.19635610576E+03  0.00000000000E+00 0. -1.
          1   -1    0    0  501    0 -0.00000000000E+00 -0.00000000000E+00 -0.10850122926E+04  0.10850122926E+04  0.00000000000E+00 0. -1.
         25    2    1    2    0    0 -0.23577564076E+01  0.14804181303E+02  0.83914194888E+02  0.15129773143E+03  0.12499875453E+03 0.  0.
          2    1    1    2  501    0 -0.17801805679E+02  0.19658482639E+02 -0.10460810617E+04  0.10464171959E+04  0.00000000000E+00 0. -1.
          1    1    1    2  502    0  0.20159562087E+02 -0.34462663942E+02  0.73510679961E+02  0.83653471045E+02  0.00000000000E+00 0. -1.
         22    1    3    3    0    0  0.45256996019E+02 -0.30897137447E+02  0.17150420879E+02  0.57419210438E+02  0.00000000000E+00 0. -1.
         22    1    3    3    0    0 -0.47614752426E+02  0.45701318751E+02  0.66763774009E+02  0.93878520994E+02  0.00000000000E+00 0. -1.
</event>
<event>
 7    1  0.5562528E-006  0.9411077E+02  0.7818608E-02  0.1360764E+00
          2   -1    0    0  502    0  0.00000000000E+00  0.00000000000E+00  0.74448875013E+03  0.74448875013E+03  0.00000000000E+00 0. -1.
          1   -1    0    0  501    0 -0.00000000000E+00 -0.00000000000E+00 -0.73212326225E+03  0.73212326225E+03  0.00000000000E+00 0. -1.
         25    2    1    2    0    0  0.10410939742E+03 -0.68454683068E+01  0.79835944087E+02  0.18133935243E+03  0.12499822280E+03 0.  0.
          2    1    1    2  501    0 -0.78600161882E+02  0.51898873357E+02 -0.67701387431E+03  0.68353439161E+03  0.00000000000E+00 0. -1.
          1    1    1    2  502    0 -0.25509235539E+02 -0.45053405050E+02  0.60954341810E+03  0.61173826834E+03  0.00000000000E+00 0. -1.
         22    1    3    3    0    0  0.47847108411E+02 -0.10895246428E+02  0.10775327736E+03  0.11840110202E+03  0.00000000000E+00 0. -1.
         22    1    3    3    0    0  0.56262289009E+02  0.40497781216E+01 -0.27917333273E+02  0.62938250409E+02  0.00000000000E+00 0. -1.
</event>
<event>
 7    1  0.5562528E-006  0.1157458E+03  0.7818608E-02  0.1367050E+00
          2   -1    0    0  502    0  0.00000000000E+00  0.00000000000E+00  0.79972848255E+03  0.79972848255E+03  0.00000000000E+00 0. -1.
          1   -1    0    0  501    0 -0.00000000000E+00 -0.00000000000E+00 -0.96550590057E+03  0.96550590057E+03  0.00000000000E+00 0. -1.
         25    2    1    2    0    0  0.12377729027E+03  0.48474536320E+02 -0.58471202040E+03  0.61252182880E+03  0.12499698272E+03 0.  0.
          2    1    1    2  501    0 -0.10676889184E+03 -0.12334109970E+02 -0.35849385141E+03  0.37425869133E+03  0.00000000000E+00 0. -1.
          1    1    1    2  502    0 -0.17008398428E+02 -0.36140426350E+02  0.77742845380E+03  0.77845386299E+03  0.00000000000E+00 0. -1.
         22    1    3    3    0    0 -0.63984680578E+01 -0.27346324518E+01  0.35813339960E+01  0.78258904493E+01  0.00000000000E+00 0. -1.
         22    1    3    3    0    0  0.13017575833E+03  0.51209168772E+02 -0.58829335440E+03  0.60469593835E+03  0.00000000000E+00 0. -1.
</event>
<event>
 7    1  0.5562528E-006  0.1769677E+03  0.7818608E-02  0.1205175E+00
          2   -1    0    0  502    0  0.00000000000E+00  0.00000000000E+00  0.49635447102E+03  0.49635447102E+03  0.00000000000E+00 0. -1.
          1   -1    0    0  501    0 -0.00000000000E+00 -0.00000000000E+00 -0.14233997225E+04  0.14233997225E+04  0.00000000000E+00 0. -1.
         25    2    1    2    0    0  0.73916839656E+02  0.13846748237E+03 -0.35151556309E+03  0.40475233687E+03  0.12499728099E+03 0.  0.
          2    1    1    2  501    0 -0.17739551498E+03 -0.76058363334E+02 -0.10283643169E+04  0.10463207976E+04  0.00000000000E+00 0. -1.
          1    1    1    2  502    0  0.10347867533E+03 -0.62409119039E+02  0.45283462844E+03  0.46868105904E+03  0.00000000000E+00 0. -1.
         22    1    3    3    0    0  0.80700598235E+02  0.26521584181E+02 -0.11478030249E+03  0.14279530392E+03  0.00000000000E+00 0. -1.
         22    1    3    3    0    0 -0.67837585798E+01  0.11194589819E+03 -0.23673526060E+03  0.26195703295E+03  0.00000000000E+00 0. -1.
</event>
<event>
 7    1  0.5562528E-006  0.8454575E+02  0.7818608E-02  0.1480380E+00
          2   -1    0    0  502    0  0.00000000000E+00  0.00000000000E+00  0.31755413456E+03  0.31755413456E+03  0.00000000000E+00 0. -1.
          1   -1    0    0  501    0 -0.00000000000E+00 -0.00000000000E+00 -0.98576633130E+03  0.98576633130E+03  0.00000000000E+00 0. -1.
         25    2    1    2    0    0  0.89164605105E+01 -0.74933100092E+02 -0.32573728583E+03  0.35696480827E+03  0.12499848882E+03 0.  0.
          2    1    1    2  501    0 -0.21139184951E+02 -0.89295933227E+01 -0.63825819626E+03  0.63867059418E+03  0.00000000000E+00 0. -1.
          1    1    1    2  502    0  0.12222724441E+02  0.83862693415E+02  0.29578328537E+03  0.30768506340E+03  0.00000000000E+00 0. -1.
         22    1    3    3    0    0  0.18733238787E+02 -0.94891781236E+02 -0.14155552223E+03  0.17144488985E+03  0.00000000000E+00 0. -1.
         22    1    3    3    0    0 -0.98167782760E+01  0.19958681143E+02 -0.18418176360E+03  0.18551991842E+03  0.00000000000E+00 0. -1.
</event>
<event>
 7    1  0.5562528E-006  0.7200363E+02  0.7818608E-02  0.1472642E+00
          2   -1    0    0  502    0  0.00000000000E+00  0.00000000000E+00  0.11707133320E+04  0.11707133320E+04  0.00000000000E+00 0. -1.
          1   -1    0    0  501    0 -0.00000000000E+00 -0.00000000000E+00 -0.12004991385E+04  0.12004991385E+04  0.00000000000E+00 0. -1.
         25    2    1    2    0    0  0.91907892244E+02 -0.40443056241E+02  0.69393086046E+03  0.71221312681E+03  0.12499918982E+03 0.  0.
          2    1    1    2  501    0 -0.66159988147E+02  0.28302950101E+02 -0.11898367783E+04  0.11920108053E+04  0.00000000000E+00 0. -1.
          1    1    1    2  502    0 -0.25747904097E+02  0.12140106140E+02  0.46612011134E+03  0.46698853833E+03  0.00000000000E+00 0. -1.
         22    1    3    3    0    0  0.29800715065E+02 -0.76910268313E+02  0.46374309642E+03  0.47102115820E+03  0.00000000000E+00 0.  1.
         22    1    3    3    0    0  0.62107177179E+02  0.36467212072E+02  0.23018776403E+03  0.24119196862E+03  0.00000000000E+00 0.  1.
</event>
<event>
 7    1  0.5562528E-006  0.4748117E+02  0.7818608E-02  0.1469347E+00
          2   -1    0    0  502    0  0.00000000000E+00  0.00000000000E+00  0.11269575044E+04  0.11269575044E+04  0.00000000000E+00 0. -1.
          1   -1    0    0  501    0 -0.00000000000E+00 -0.00000000000E+00 -0.73346213628E+02  0.73346213628E+02  0.00000000000E+00 0. -1.
         25    2    1    2    0    0 -0.43685575860E+02  0.70749290008E+02  0.98089482117E+02  0.17934333617E+03  0.12501437577E+03 0.  0.
          2    1    1    2  501    0  0.37017902475E+02 -0.24147782500E+02 -0.16959806133E+02  0.47339999233E+02  0.00000000000E+00 0. -1.
          1    1    1    2  502    0  0.66676733851E+01 -0.46601507508E+02  0.97248161481E+03  0.97362038265E+03  0.00000000000E+00 0. -1.
         22    1    3    3    0    0 -0.48048527661E+02  0.95308732336E+02  0.36349838710E+02  0.11275516061E+03  0.00000000000E+00 0.  1.
         22    1    3    3    0    0  0.43629518007E+01 -0.24559442328E+02  0.61739643406E+02  0.66588175556E+02  0.00000000000E+00 0.  1.
</event>
<event>
 7    1  0.5562528E-006  0.9638489E+02  0.7818608E-02  0.1316519E+00
          2   -1    0    0  502    0  0.00000000000E+00  0.00000000000E+00  0.39843055165E+04  0.39843055165E+04  0.00000000000E+00 0. -1.
          1   -1    0    0  501    0 -0.00000000000E+00 -0.00000000000E+00 -0.89673770644E+03  0.89673770644E+03  0.00000000000E+00 0. -1.
         25    2    1    2    0    0  0.25432721768E+02  0.35836634358E+02  0.68311737982E+02  0.14907474054E+03  0.12500278806E+03 0.  0.
          2    1    1    2  501    0  0.70942651697E+02 -0.21849748571E+02 -0.85413439730E+03  0.85735397590E+03  0.00000000000E+00 0. -1.
          1    1    1    2  502    0 -0.96375373465E+02 -0.13986885787E+02  0.38733904694E+04  0.38746145065E+04  0.00000000000E+00 0. -1.
         22    1    3    3    0    0  0.74084827487E+02  0.37122942492E+02  0.51592977505E+02  0.97614086334E+02  0.00000000000E+00 0. -1.
         22    1    3    3    0    0 -0.48652105719E+02 -0.12863081345E+01  0.16718760477E+02  0.51460654206E+02  0.00000000000E+00 0. -1.
</event>
<event>
 7    1  0.5562528E-006  0.5122041E+03  0.7818608E-02  0.1131335E+00
          2   -1    0    0  502    0  0.00000000000E+00  0.00000000000E+00  0.13424805248E+04  0.13424805248E+04  0.00000000000E+00 0. -1.
          1   -1    0    0  501    0 -0.00000000000E+00 -0.00000000000E+00 -0.18708065585E+04  0.18708065585E+04  0.00000000000E+00 0. -1.
         25    2    1    2    0    0  0.37891457447E+03  0.26357639045E+03 -0.86084500537E+03  0.98474776551E+03  0.12500108019E+03 0.  0.
          2    1    1    2  501    0 -0.10558230478E+02  0.96909177932E+02 -0.89339058804E+03  0.89869327793E+03  0.00000000000E+00 0. -1.
          1    1    1    2  502    0 -0.36835634400E+03 -0.36048556838E+03  0.12259095597E+04  0.13298460399E+04  0.00000000000E+00 0. -1.
         22    1    3    3    0    0  0.37750506593E+03  0.26478628493E+03 -0.79626600938E+03  0.92014205924E+03  0.00000000000E+00 0.  1.
         22    1    3    3    0    0  0.14095085427E+01 -0.12098944781E+01 -0.64578995994E+02  0.64605706270E+02  0.00000000000E+00 0.  1.
</event>
<event>
 7    1  0.5562528E-006  0.7552966E+02  0.7818608E-02  0.1383363E+00
          2   -1    0    0  502    0  0.00000000000E+00  0.00000000000E+00  0.75111001620E+02  0.75111001620E+02  0.00000000000E+00 0. -1.
          1   -1    0    0  501    0 -0.00000000000E+00 -0.00000000000E+00 -0.40943219322E+03  0.40943219322E+03  0.00000000000E+00 0. -1.
         25    2    1    2    0    0  0.33456117387E+02  0.36558263293E+02 -0.14554462929E+03  0.19815235229E+03  0.12500118879E+03 0.  0.
          2    1    1    2  501    0 -0.84127482412E+02 -0.19285295832E+02 -0.21134825338E+03  0.22829244433E+03  0.00000000000E+00 0. -1.
          1    1    1    2  502    0  0.50671365025E+02 -0.17272967461E+02  0.22571691065E+02  0.58098398222E+02  0.00000000000E+00 0. -1.
         22    1    3    3    0    0  0.16347438966E+02 -0.40286265372E+02 -0.15543193820E+02  0.46171558481E+02  0.00000000000E+00 0. -1.
         22    1    3    3    0    0  0.17108678421E+02  0.76844528665E+02 -0.13000143547E+03  0.15198079381E+03  0.00000000000E+00 0. -1.
</event>
<event>
 7    1  0.5562528E-006  0.1984342E+03  0.7818608E-02  0.1185540E+00
          2   -1    0    0  502    0  0.00000000000E+00  0.00000000000E+00  0.15976945679E+04  0.15976945679E+04  0.00000000000E+00 0. -1.
          1   -1    0    0  501    0 -0.00000000000E+00 -0.00000000000E+00 -0.12367109995E+04  0.12367109995E+04  0.00000000000E+00 0. -1.
         25    2    1    2    0    0  0.75622945005E+02 -0.74580046096E+02  0.11828522791E+03  0.20223067954E+03  0.12499935807E+03 0.  0.
          2    1    1    2  501    0 -0.20210876278E+03  0.31531288668E+02 -0.11828359247E+04  0.12003928519E+04  0.00000000000E+00 0. -1.
          1    1    1    2  502    0  0.12648581778E+03  0.43048757428E+02  0.14255342651E+04  0.14317820360E+04  0.00000000000E+00 0. -1.
         22    1    3    3    0    0  0.54116353421E+02  0.17809823305E+02  0.83727002377E+02  0.10127181464E+03  0.00000000000E+00 0.  1.
         22    1    3    3    0    0  0.21506591583E+02 -0.92389869401E+02  0.34558225529E+02  0.10095886490E+03  0.00000000000E+00 0.  1.
</event>
<event>
 7    1  0.5562528E-006  0.5447911E+02  0.7818608E-02  0.1447755E+00
          2   -1    0    0  502    0  0.00000000000E+00  0.00000000000E+00  0.17232774113E+04  0.17232774113E+04  0.00000000000E+00 0. -1.
          1   -1    0    0  501    0 -0.00000000000E+00 -0.00000000000E+00 -0.61362495085E+03  0.61362495085E+03  0.00000000000E+00 0. -1.
         25    2    1    2    0    0 -0.61476734801E+02 -0.14395604373E+02  0.41023642852E+02  0.14592618562E+03  0.12499956012E+03 0.  0.
          2    1    1    2  501    0  0.46756739133E+02 -0.28209629278E+02 -0.55953255482E+03  0.56219094243E+03  0.00000000000E+00 0. -1.
          1    1    1    2  502    0  0.14719995667E+02  0.42605233651E+02  0.16281613724E+04  0.16287852341E+04  0.00000000000E+00 0. -1.
         22    1    3    3    0    0  0.12185139555E+02 -0.53344460097E+02  0.28402043319E+02  0.61650507814E+02  0.00000000000E+00 0.  1.
         22    1    3    3    0    0 -0.73661874355E+02  0.38948855724E+02  0.12621599533E+02  0.84275677811E+02  0.00000000000E+00 0.  1.
</event>
<event>
 7    1  0.5562528E-006  0.3968724E+03  0.7818608E-02  0.1199599E+00
          2   -1    0    0  502    0  0.00000000000E+00  0.00000000000E+00  0.19367440143E+04  0.19367440143E+04  0.00000000000E+00 0. -1.
          1   -1    0    0  501    0 -0.00000000000E+00 -0.00000000000E+00 -0.12690282311E+04  0.12690282311E+04  0.00000000000E+00 0. -1.
         25    2    1    2    0    0  0.27449674584E+03 -0.23432779513E+03 -0.82196013143E+03  0.90636727416E+03  0.12500079585E+03 0.  0.
          2    1    1    2  501    0 -0.37428506457E+01 -0.57111112587E+02 -0.38182653669E+03  0.38609220691E+03  0.00000000000E+00 0. -1.
          1    1    1    2  502    0 -0.27075389520E+03  0.29143890772E+03  0.18715024513E+04  0.19133127643E+04  0.00000000000E+00 0. -1.
         22    1    3    3    0    0  0.27161670426E+03 -0.18110901795E+03 -0.73709261863E+03  0.80615236702E+03  0.00000000000E+00 0.  1.
         22    1    3    3    0    0  0.28800415812E+01 -0.53218777184E+02 -0.84867512804E+02  0.10021490714E+03  0.00000000000E+00 0.  1.
</event>
<event>
 7    1  0.5562528E-006  0.1091382E+03  0.7818608E-02  0.1355816E+00
          2   -1    0    0  502    0  0.00000000000E+00  0.00000000000E+00  0.48423578169E+03  0.48423578169E+03  0.00000000000E+00 0. -1.
          1   -1    0    0  501    0 -0.00000000000E+00 -0.00000000000E+00 -0.13965808357E+04  0.13965808357E+04  0.00000000000E+00 0. -1.
         25    2    1    2    0    0 -0.68942924050E+02 -0.82279977126E+02 -0.11323180479E+04  0.11442429824E+04  0.12499887886E+03 0.  0.
          2    1    1    2  501    0  0.40394464141E+02 -0.23124610817E+02 -0.24988981620E+03  0.25418768774E+03  0.00000000000E+00 0. -1.
          1    1    1    2  502    0  0.28548459909E+02  0.10540458794E+03  0.46986281014E+03  0.48238594722E+03  0.00000000000E+00 0. -1.
         22    1    3    3    0    0  0.26645181223E+02  0.12560469310E+02 -0.16691709657E+03  0.16949645483E+03  0.00000000000E+00 0.  1.
         22    1    3    3    0    0 -0.95588105273E+02 -0.94840446435E+02 -0.96540095134E+03  0.97474652757E+03  0.00000000000E+00 0.  1.
</event>
<event>
 7    1  0.5562528E-006  0.8022469E+02  0.7818608E-02  0.1478892E+00
          2   -1    0    0  502    0  0.00000000000E+00  0.00000000000E+00  0.18763466257E+04  0.18763466257E+04  0.00000000000E+00 0. -1.
          1   -1    0    0  501    0 -0.00000000000E+00 -0.00000000000E+00 -0.24705057137E+03  0.24705057137E+03  0.00000000000E+00 0. -1.
         25    2    1    2    0    0  0.68674085625E+02 -0.74537965240E+02 -0.20861720438E+02  0.16227278169E+03  0.12500082399E+03 0.  0.
          2    1    1    2  501    0 -0.55354115763E+02  0.54047393992E+02 -0.14577149259E+03  0.16502886712E+03  0.00000000000E+00 0. -1.
          1    1    1    2  502    0 -0.13319969862E+02  0.20490571248E+02  0.17959292674E+04  0.17960955483E+04  0.00000000000E+00 0. -1.
         22    1    3    3    0    0 -0.78765618070E+01  0.66198578790E+01 -0.46646324537E+02  0.47767586678E+02  0.00000000000E+00 0.  1.
         22    1    3    3    0    0  0.76550647432E+02 -0.81157823119E+02  0.25784604099E+02  0.11450519501E+03  0.00000000000E+00 0.  1.
</event>
<event>
 7    1  0.5562528E-006  0.9218441E+02  0.7818608E-02  0.1364221E+00
          2   -1    0    0  502    0  0.00000000000E+00  0.00000000000E+00  0.21371842693E+03  0.21371842693E+03  0.00000000000E+00 0. -1.
          1   -1    0    0  501    0 -0.00000000000E+00 -0.00000000000E+00 -0.13895248168E+04  0.13895248168E+04  0.00000000000E+00 0. -1.
         25    2    1    2    0    0  0.19167204895E+02 -0.41876863209E+02 -0.11891815403E+03  0.17856943019E+03  0.12499784248E+03 0.  0.
          2    1    1    2  501    0  0.54995967082E+01 -0.51052413775E+02 -0.12276400354E+04  0.12287134128E+04  0.00000000000E+00 0. -1.
          1    1    1    2  502    0 -0.24666801603E+02  0.92929276983E+02  0.17075179949E+03  0.19596040072E+03  0.00000000000E+00 0. -1.
         22    1    3    3    0    0  0.70417545172E+02 -0.11697366680E+02 -0.81322643582E+02  0.10820735379E+03  0.00000000000E+00 0.  1.
         22    1    3    3    0    0 -0.51250340278E+02 -0.30179496528E+02 -0.37595510446E+02  0.70362076397E+02  0.00000000000E+00 0.  1.
</event>
<event>
 7    1  0.5562528E-006  0.2882159E+03  0.7818608E-02  0.1212184E+00
          2   -1    0    0  502    0  0.00000000000E+00  0.00000000000E+00  0.23749013782E+04  0.23749013782E+04  0.00000000000E+00 0. -1.
          1   -1    0    0  501    0 -0.00000000000E+00 -0.00000000000E+00 -0.25987345541E+03  0.25987345541E+03  0.00000000000E+00 0. -1.
         25    2    1    2    0    0 -0.25596944444E+03 -0.20633347174E+03  0.10656129518E+03  0.36752494494E+03  0.12500166991E+03 0.  0.
          2    1    1    2  501    0  0.19071805563E+03  0.18440600608E+03  0.78057643707E+01  0.26540512764E+03  0.00000000000E+00 0. -1.
          1    1    1    2  502    0  0.65251388808E+02  0.21927465657E+02  0.20006608633E+04  0.20018447611E+04  0.00000000000E+00 0. -1.
         22    1    3    3    0    0 -0.17052052126E+02 -0.66688095630E+02  0.49978890056E+02  0.85064469855E+02  0.00000000000E+00 0. -1.
         22    1    3    3    0    0 -0.23891739231E+03 -0.13964537611E+03  0.56582405122E+02  0.28246047509E+03  0.00000000000E+00 0. -1.
</event>
<event>
 7    1  0.5562528E-006  0.8055325E+02  0.7818608E-02  0.1343246E+00
          2   -1    0    0  502    0  0.00000000000E+00  0.00000000000E+00  0.29300311239E+03  0.29300311239E+03  0.00000000000E+00 0. -1.
          1   -1    0    0  501    0 -0.00000000000E+00 -0.00000000000E+00 -0.19215988871E+04  0.19215988871E+04  0.00000000000E+00 0. -1.
         25    2    1    2    0    0  0.34860276258E+02  0.99333857389E+01  0.89417655555E+02  0.15790583963E+03  0.12499930420E+03 0.  0.
          2    1    1    2  501    0  0.65626999949E+02 -0.24940586402E+02 -0.18713973101E+04  0.18727137603E+04  0.00000000000E+00 0. -1.
          1    1    1    2  502    0 -0.10048727621E+03  0.15007200663E+02  0.15338387982E+03  0.18398239953E+03  0.00000000000E+00 0. -1.
         22    1    3    3    0    0 -0.25377236776E+02  0.14345427784E+02  0.92939833381E+02  0.97404353463E+02  0.00000000000E+00 0.  1.
         22    1    3    3    0    0  0.60237513033E+02 -0.44120420447E+01 -0.35221778261E+01  0.60501486164E+02  0.00000000000E+00 0.  1.
</event>
<event>
 7    1  0.5562528E-006  0.6152746E+02  0.7818608E-02  0.1425918E+00
          2   -1    0    0  502    0  0.00000000000E+00  0.00000000000E+00  0.45479049191E+03  0.45479049191E+03  0.00000000000E+00 0. -1.
          1   -1    0    0  501    0 -0.00000000000E+00 -0.00000000000E+00 -0.40919452007E+03  0.40919452007E+03  0.00000000000E+00 0. -1.
         25    2    1    2    0    0 -0.26215620016E+02 -0.42435411871E+02  0.27291877776E+02  0.13732502002E+03  0.12500116646E+03 0.  0.
          2    1    1    2  501    0  0.61432357422E+02  0.11276525345E+02 -0.34991752184E+03  0.35544812090E+03  0.00000000000E+00 0. -1.
          1    1    1    2  502    0 -0.35216737406E+02  0.31158886526E+02  0.36822161590E+03  0.37121187107E+03  0.00000000000E+00 0. -1.
         22    1    3    3    0    0 -0.18630637388E+02 -0.29961640094E+02  0.77438201368E+02  0.85096859858E+02  0.00000000000E+00 0.  1.
         22    1    3    3    0    0 -0.75849826282E+01 -0.12473771777E+02 -0.50146323591E+02  0.52228160159E+02  0.00000000000E+00 0.  1.
</event>
<event>
 7    1  0.5562528E-006  0.4487771E+02  0.7818608E-02  0.1519328E+00
          2   -1    0    0  502    0  0.00000000000E+00  0.00000000000E+00  0.10034963187E+04  0.10034963187E+04  0.00000000000E+00 0. -1.
          1   -1    0    0  501    0 -0.00000000000E+00 -0.00000000000E+00 -0.12536093836E+03  0.12536093836E+03  0.00000000000E+00 0. -1.
         25    2    1    2    0    0 -0.28475533522E+02 -0.33475615061E+02  0.39552476360E+03  0.41712905044E+03  0.12500133317E+03 0.  0.
          2    1    1    2  501    0 -0.25492401127E+01  0.44947095271E+02 -0.10965649972E+03  0.11853812859E+03  0.00000000000E+00 0. -1.
          1    1    1    2  502    0  0.31024773634E+02 -0.11471480211E+02  0.59226711649E+03  0.59319007807E+03  0.00000000000E+00 0. -1.
         22    1    3    3    0    0  0.32296099081E+02  0.19141617994E+02  0.23083912085E+03  0.23387205748E+03  0.00000000000E+00 0. -1.
         22    1    3    3    0    0 -0.60771632603E+02 -0.52617233054E+02  0.16468564275E+03  0.18325699297E+03  0.00000000000E+00 0. -1.
</event>
<event>
 7    1  0.5562528E-006  0.1534687E+03  0.7818608E-02  0.1233043E+00
          2   -1    0    0  502    0  0.00000000000E+00  0.00000000000E+00  0.16016842092E+04  0.16016842092E+04  0.00000000000E+00 0. -1.
          1   -1    0    0  501    0 -0.00000000000E+00 -0.00000000000E+00 -0.27273632035E+04  0.27273632035E+04  0.00000000000E+00 0. -1.
         25    2    1    2    0    0  0.20405519655E+03  0.14901239596E+03  0.29335001101E+02  0.28342239962E+03  0.12499798769E+03 0.  0.
          2    1    1    2  501    0 -0.13370316317E+03 -0.72486892430E+02 -0.25962220903E+04  0.26006729951E+04  0.00000000000E+00 0. -1.
          1    1    1    2  502    0 -0.70352033381E+02 -0.76525503528E+02  0.14412080949E+04  0.14449520180E+04  0.00000000000E+00 0. -1.
         22    1    3    3    0    0  0.16320169312E+03  0.76268851302E+02 -0.27838138989E+02  0.18228190338E+03  0.00000000000E+00 0. -1.
         22    1    3    3    0    0  0.40853503431E+02  0.72743544657E+02  0.57173140090E+02  0.10114049624E+03  0.00000000000E+00 0. -1.
</event>
<event>
 7    1  0.5562528E-006  0.1784987E+03  0.7818608E-02  0.1377817E+00
          2   -1    0    0  502    0  0.00000000000E+00  0.00000000000E+00  0.11400349360E+04  0.11400349360E+04  0.00000000000E+00 0. -1.
          1   -1    0    0  501    0 -0.00000000000E+00 -0.00000000000E+00 -0.80759398119E+02  0.80759398119E+02  0.00000000000E+00 0. -1.
         25    2    1    2    0    0  0.43240043710E+02 -0.15856990493E+03  0.68554467557E+03  0.71596830331E+03  0.12499997204E+03 0.  0.
          2    1    1    2  501    0 -0.30525984315E+02  0.17857053855E+03  0.60936094323E+02  0.19113471832E+03  0.00000000000E+00 0. -1.
          1    1    1    2  502    0 -0.12714059395E+02 -0.20000633615E+02  0.31279476795E+03  0.31369131246E+03  0.00000000000E+00 0. -1.
         22    1    3    3    0    0 -0.28171187981E+01 -0.58934474274E+02  0.47384257342E+03  0.47750182492E+03  0.00000000000E+00 0.  1.
         22    1    3    3    0    0  0.46057162508E+02 -0.99635430660E+02  0.21170210216E+03  0.23846647840E+03  0.00000000000E+00 0.  1.
</event>
<event>
 7    1  0.5562528E-006  0.8548082E+02  0.7818608E-02  0.1333328E+00
          2   -1    0    0  502    0  0.00000000000E+00  0.00000000000E+00  0.58379222665E+03  0.58379222665E+03  0.00000000000E+00 0. -1.
          1   -1    0    0  501    0 -0.00000000000E+00 -0.00000000000E+00 -0.95856908962E+02  0.95856908962E+02  0.00000000000E+00 0. -1.
         25    2    1    2    0    0  0.13421111317E+02  0.14096638635E+03  0.23931906170E+03  0.30487459062E+03  0.12499301741E+03 0.  0.
          2    1    1    2  501    0  0.17521665117E+02 -0.69950417200E+02 -0.35436798940E+02  0.80348219234E+02  0.00000000000E+00 0. -1.
          1    1    1    2  502    0 -0.30942776434E+02 -0.71015969148E+02  0.28405305493E+03  0.29442632576E+03  0.00000000000E+00 0. -1.
         22    1    3    3    0    0 -0.20845336880E+01  0.13574003474E+03  0.25059386152E+03  0.28500348373E+03  0.00000000000E+00 0. -1.
         22    1    3    3    0    0  0.15505645005E+02  0.52263516131E+01 -0.11274799810E+02  0.19871106888E+02  0.00000000000E+00 0. -1.
</event>
<event>
 7    1  0.5562528E-006  0.7113354E+02  0.7818608E-02  0.1490711E+00
          2   -1    0    0  502    0  0.00000000000E+00  0.00000000000E+00  0.11129312512E+04  0.11129312512E+04  0.00000000000E+00 0. -1.
          1   -1    0    0  501    0 -0.00000000000E+00 -0.00000000000E+00 -0.17958570265E+04  0.17958570265E+04  0.00000000000E+00 0. -1.
         25    2    1    2    0    0  0.12197270380E+02  0.49390713965E+02  0.33742203266E+03  0.36341066990E+03  0.12500188336E+03 0.  0.
          2    1    1    2  501    0 -0.68055916736E+01  0.24439494505E+02 -0.17809754788E+04  0.17811561585E+04  0.00000000000E+00 0. -1.
          1    1    1    2  502    0 -0.53916787068E+01 -0.73830208470E+02  0.76062767087E+03  0.76422144930E+03  0.00000000000E+00 0. -1.
         22    1    3    3    0    0 -0.26097473740E+01 -0.31594687873E+02  0.20533055424E+03  0.20776349917E+03  0.00000000000E+00 0.  1.
         22    1    3    3    0    0  0.14807017754E+02  0.80985401838E+02  0.13209147842E+03  0.15564717073E+03  0.00000000000E+00 0.  1.
</event>
<event>
 7    1  0.5562528E-006  0.7384350E+02  0.7818608E-02  0.1392640E+00
          2   -1    0    0  502    0  0.00000000000E+00  0.00000000000E+00  0.54768718222E+03  0.54768718222E+03  0.00000000000E+00 0. -1.
          1   -1    0    0  501    0 -0.00000000000E+00 -0.00000000000E+00 -0.59680632014E+03  0.59680632014E+03  0.00000000000E+00 0. -1.
         25    2    1    2    0    0  0.62132606035E+02 -0.72087418992E+02 -0.11474586675E+02  0.15752421259E+03  0.12500061882E+03 0.  0.
          2    1    1    2  501    0 -0.11324033658E+02  0.72693026961E+02 -0.50829112839E+03  0.51358775405E+03  0.00000000000E+00 0. -1.
          1    1    1    2  502    0 -0.50808572377E+02 -0.60560796976E+00  0.47064657714E+03  0.47338153572E+03  0.00000000000E+00 0. -1.
         22    1    3    3    0    0  0.22889137931E+02 -0.10311750884E+03  0.22337762148E+01  0.10565094898E+03  0.00000000000E+00 0.  1.
         22    1    3    3    0    0  0.39243468104E+02  0.31030089848E+02 -0.13708362890E+02  0.51873263614E+02  0.00000000000E+00 0.  1.
</event>
<event>
 7    1  0.5562528E-006  0.1193180E+03  0.7818608E-02  0.1407010E+00
          2   -1    0    0  502    0  0.00000000000E+00  0.00000000000E+00  0.26464157659E+04  0.26464157659E+04  0.00000000000E+00 0. -1.
          1   -1    0    0  501    0 -0.00000000000E+00 -0.00000000000E+00 -0.35103115019E+03  0.35103115019E+03  0.00000000000E+00 0. -1.
         25    2    1    2    0    0 -0.64653830721E+02 -0.65107956627E+02  0.72339518227E+03  0.73982838924E+03  0.12500516770E+03 0.  0.
          2    1    1    2  501    0  0.86318694105E+02  0.82946321453E+02 -0.33225700976E+03  0.35316530085E+03  0.00000000000E+00 0. -1.
          1    1    1    2  502    0 -0.21664863384E+02 -0.17838364826E+02  0.19042464432E+04  0.19044532260E+04  0.00000000000E+00 0. -1.
         22    1    3    3    0    0 -0.84096214071E+02 -0.32237343442E+02  0.65771144020E+03  0.66384919832E+03  0.00000000000E+00 0.  1.
         22    1    3    3    0    0  0.19442383350E+02 -0.32870613185E+02  0.65683742071E+02  0.75979190927E+02  0.00000000000E+00 0.  1.
</event>
<event>
 7    1  0.5562528E-006  0.1738850E+03  0.7818608E-02  0.1237387E+00
          2   -1    0    0  502    0  0.00000000000E+00  0.00000000000E+00  0.18661508340E+04  0.18661508340E+04  0.00000000000E+00 0. -1.
          1   -1    0    0  501    0 -0.00000000000E+00 -0.00000000000E+00 -0.25952405790E+04  0.25952405790E+04  0.00000000000E+00 0. -1.
         25    2    1    2    0    0 -0.87960312693E+02  0.16238347082E+03 -0.10833931688E+02  0.22326541510E+03  0.12499865319E+03 0.  0.
          2    1    1    2  501    0  0.86947870614E+02  0.11875352721E+02 -0.24730970928E+04  0.24746535488E+04  0.00000000000E+00 0. -1.
          1    1    1    2  502    0  0.10124420791E+01 -0.17425882354E+03  0.17548412794E+04  0.17634724491E+04  0.00000000000E+00 0. -1.
         22    1    3    3    0    0 -0.32658816650E+02  0.20125023716E+02 -0.52527102912E+02  0.65043919200E+02  0.00000000000E+00 0.  1.
         22    1    3    3    0    0 -0.55301496043E+02  0.14225844711E+03  0.41693171224E+02  0.15822149590E+03  0.00000000000E+00 0.  1.
</event>
<event>
 7    1  0.5562528E-006  0.6796176E+02  0.7818608E-02  0.1484418E+00
          2   -1    0    0  502    0  0.00000000000E+00  0.00000000000E+00  0.36165582492E+04  0.36165582492E+04  0.00000000000E+00 0. -1.
          1   -1    0    0  501    0 -0.00000000000E+00 -0.00000000000E+00 -0.33233253685E+03  0.33233253685E+03  0.00000000000E+00 0. -1.
         25    2    1    2    0    0  0.50492319706E+02  0.81098290304E+02 -0.75961375678E+02  0.17470513817E+03  0.12500139067E+03 0.  0.
          2    1    1    2  501    0 -0.16358750728E+02 -0.22412179523E+02 -0.20574486529E+03  0.20760747604E+03  0.00000000000E+00 0. -1.
          1    1    1    2  502    0 -0.34133568979E+02 -0.58686110780E+02  0.35659319533E+04  0.35665781718E+04  0.00000000000E+00 0. -1.
         22    1    3    3    0    0  0.56231096863E+02  0.24849828534E+01 -0.77602162969E+02  0.95865567811E+02  0.00000000000E+00 0. -1.
         22    1    3    3    0    0 -0.57387771564E+01  0.78613307450E+02  0.16407872911E+01  0.78839570359E+02  0.00000000000E+00 0. -1.
</event>
<event>
 7    1  0.5562528E-006  0.1126849E+03  0.7818608E-02  0.1343267E+00
          2   -1    0    0  502    0  0.00000000000E+00  0.00000000000E+00  0.10722086580E+04  0.10722086580E+04  0.00000000000E+00 0. -1.
          1   -1    0    0  501    0 -0.00000000000E+00 -0.00000000000E+00 -0.47315493982E+03  0.47315493982E+03  0.00000000000E+00 0. -1.
         25    2    1    2    0    0  0.15075765400E+02  0.15804197425E+03  0.35315186337E+02  0.20512483347E+03  0.12499796235E+03 0.  0.
          2    1    1    2  501    0  0.80907457670E+01 -0.49521908628E+02 -0.38337604218E+03  0.38664592241E+03  0.00000000000E+00 0. -1.
          1    1    1    2  502    0 -0.23166511167E+02 -0.10852006562E+03  0.94711457403E+03  0.95359284195E+03  0.00000000000E+00 0. -1.
         22    1    3    3    0    0  0.46882970635E+02  0.30410651278E+02 -0.24020371638E+02  0.60825972252E+02  0.00000000000E+00 0. -1.
         22    1    3    3    0    0 -0.31807205235E+02  0.12763132297E+03  0.59335557975E+02  0.14429886121E+03  0.00000000000E+00 0. -1.
</event>
<event>
 7    1  0.5562528E-006  0.9033186E+02  0.7818608E-02  0.1444175E+00
          2   -1    0    0  502    0  0.00000000000E+00  0.00000000000E+00  0.12136323601E+04  0.12136323601E+04  0.00000000000E+00 0. -1.
          1   -1    0    0  501    0 -0.00000000000E+00 -0.00000000000E+00 -0.52282273650E+03  0.52282273650E+03  0.00000000000E+00 0. -1.
         25    2    1    2    0    0  0.59965827372E+02 -0.99233077222E+02  0.22485042939E+02  0.17196917368E+03  0.12499886189E+03 0.  0.
          2    1    1    2  501    0 -0.20975327192E+02  0.18421793928E+02 -0.44584057211E+03  0.44671371435E+03  0.00000000000E+00 0. -1.
          1    1    1    2  502    0 -0.38990500181E+02  0.80811283294E+02  0.11141651527E+04  0.11177722085E+04  0.00000000000E+00 0. -1.
         22    1    3    3    0    0 -0.20604706032E+02  0.87302796916E+01 -0.20719626093E+02  0.30497124448E+02  0.00000000000E+00 0. -1.
         22    1    3    3    0    0  0.80570533404E+02 -0.10796335691E+03  0.43204669032E+02  0.14147204924E+03  0.00000000000E+00 0. -1.
</event>
<event>
 7    1  0.5562528E-006  0.1238831E+03  0.7818608E-02  0.1369384E+00
          2   -1    0    0  502    0  0.00000000000E+00  0.00000000000E+00  0.16375450052E+03  0.16375450052E+03  0.00000000000E+00 0. -1.
          1   -1    0    0  501    0 -0.00000000000E+00 -0.00000000000E+00 -0.39585409961E+03  0.39585409961E+03  0.00000000000E+00 0. -1.
         25    2    1    2    0    0 -0.95275767337E+02 -0.68960873415E+01 -0.20826365698E+03  0.26100449047E+03  0.12499826146E+03 0.  0.
          2    1    1    2  501    0 -0.31926142264E+02  0.17902875268E+02 -0.12843641369E+03  0.13355037950E+03  0.00000000000E+00 0. -1.
          1    1    1    2  502    0  0.12720190960E+03 -0.11006787926E+02  0.10460047158E+03  0.16505373016E+03  0.00000000000E+00 0. -1.
         22    1    3    3    0    0 -0.65151296061E+01  0.45551988314E+02 -0.29555831900E+02  0.54689832258E+02  0.00000000000E+00 0. -1.
         22    1    3    3    0    0 -0.88760637731E+02 -0.52448075655E+02 -0.17870782508E+03  0.20631465822E+03  0.00000000000E+00 0. -1.
</event>
<event>
 7    1  0.5562528E-006  0.1000014E+03  0.7818608E-02  0.1320794E+00
          2   -1    0    0  502    0  0.00000000000E+00  0.00000000000E+00  0.19242449529E+04  0.19242449529E+04  0.00000000000E+00 0. -1.
          1   -1    0    0  501    0 -0.00000000000E+00 -0.00000000000E+00 -0.63672948236E+03  0.63672948236E+03  0.00000000000E+00 0. -1.
         25    2    1    2    0    0  0.24086155169E+02  0.23643171090E+02  0.14560430839E+03  0.19484427953E+03  0.12499814492E+03 0.  0.
          2    1    1    2  501    0 -0.84967144635E+02 -0.55818515510E+02 -0.60720623936E+03  0.61565781036E+03  0.00000000000E+00 0. -1.
          1    1    1    2  502    0  0.60880989466E+02  0.32175344419E+02  0.17491174015E+04  0.17504723454E+04  0.00000000000E+00 0. -1.
         22    1    3    3    0    0  0.68613408499E+02 -0.15316660966E+02  0.78053261238E+02  0.10504623515E+03  0.00000000000E+00 0.  1.
         22    1    3    3    0    0 -0.44527253331E+02  0.38959832056E+02  0.67551047153E+02  0.89798044380E+02  0.00000000000E+00 0.  1.
</event>
<event>
 7    1  0.5562528E-006  0.1797152E+03  0.7818608E-02  0.1256707E+00
          2   -1    0    0  502    0  0.00000000000E+00  0.00000000000E+00  0.82096121140E+03  0.82096121140E+03  0.00000000000E+00 0. -1.
          1   -1    0    0  501    0 -0.00000000000E+00 -0.00000000000E+00 -0.73424257477E+03  0.73424257477E+03  0.00000000000E+00 0. -1.
         25    2    1    2    0    0  0.88469466334E+02  0.86561035866E+02  0.41742614642E+02  0.18079950308E+03  0.12500542001E+03 0.  0.
          2    1    1    2  501    0 -0.10438010657E+03 -0.15466707902E+03 -0.64982906526E+03  0.67608795732E+03  0.00000000000E+00 0. -1.
          1    1    1    2  502    0  0.15910640234E+02  0.68106043156E+02  0.69480508724E+03  0.69831632577E+03  0.00000000000E+00 0. -1.
         22    1    3    3    0    0  0.48417862429E+01 -0.26605338853E+02  0.28778426074E+02  0.39490312189E+02  0.00000000000E+00 0.  1.
         22    1    3    3    0    0  0.83627680091E+02  0.11316637472E+03  0.12964188568E+02  0.14130919089E+03  0.00000000000E+00 0.  1.
</event>
<event>
 7    1  0.5562528E-006  0.6549743E+02  0.7818608E-02  0.1466419E+00
          2   -1    0    0  502    0  0.00000000000E+00  0.00000000000E+00  0.11462118892E+04  0.11462118892E+04  0.00000000000E+00 0. -1.
          1   -1    0    0  501    0 -0.00000000000E+00 -0.00000000000E+00 -0.10301471438E+03  0.10301471438E+03  0.00000000000E+00 0. -1.
         25    2    1    2    0    0 -0.36278666694E+02 -0.11076149563E+02  0.86837357613E+02  0.15686158884E+03  0.12500403446E+03 0.  0.
          2    1    1    2  501    0  0.68960935055E+02  0.94747124111E+01 -0.49853490047E+02  0.85619806172E+02  0.00000000000E+00 0. -1.
          1    1    1    2  502    0 -0.32682268362E+02  0.16014371522E+01  0.10062133073E+04  0.10067452086E+04  0.00000000000E+00 0. -1.
         22    1    3    3    0    0 -0.58525107372E+02 -0.55640375201E+02  0.56211885467E+02  0.98391135847E+02  0.00000000000E+00 0.  1.
         22    1    3    3    0    0  0.22246440678E+02  0.44564225638E+02  0.30625472146E+02  0.58470452997E+02  0.00000000000E+00 0.  1.
</event>
<event>
 7    1  0.5562528E-006  0.1327483E+03  0.7818608E-02  0.1315764E+00
          2   -1    0    0  502    0  0.00000000000E+00  0.00000000000E+00  0.11892549961E+04  0.11892549961E+04  0.00000000000E+00 0. -1.
          1   -1    0    0  501    0 -0.00000000000E+00 -0.00000000000E+00 -0.73502488062E+03  0.73502488062E+03  0.00000000000E+00 0. -1.
         25    2    1    2    0    0  0.26437184791E+02 -0.16822789081E+03  0.23936326345E+03  0.31924820470E+03  0.12500038532E+03 0.  0.
          2    1    1    2  501    0 -0.36960233659E+02  0.39730941903E+02 -0.68944416199E+03  0.69157635812E+03  0.00000000000E+00 0. -1.
          1    1    1    2  502    0  0.10523048867E+02  0.12849694891E+03  0.90431101396E+03  0.91345531385E+03  0.00000000000E+00 0. -1.
         22    1    3    3    0    0 -0.16296474166E+02 -0.12365222934E+03  0.22276899949E+03  0.25530663137E+03  0.00000000000E+00 0. -1.
         22    1    3    3    0    0  0.42733658957E+02 -0.44575661473E+02  0.16594263967E+02  0.63941573333E+02  0.00000000000E+00 0. -1.
</event>
<event>
 7    1  0.5562528E-006  0.1952530E+03  0.7818608E-02  0.1224971E+00
          2   -1    0    0  502    0  0.00000000000E+00  0.00000000000E+00  0.29859540027E+04  0.29859540027E+04  0.00000000000E+00 0. -1.
          1   -1    0    0  501    0 -0.00000000000E+00 -0.00000000000E+00 -0.93941411959E+03  0.93941411959E+03  0.00000000000E+00 0. -1.
         25    2    1    2    0    0  0.87823914773E+02  0.75806569924E+02  0.32797569851E+02  0.17366727551E+03  0.12499986379E+03 0.  0.
          2    1    1    2  501    0 -0.14807504302E+03 -0.14106280051E+03 -0.85624997480E+03  0.88033456788E+03  0.00000000000E+00 0. -1.
          1    1    1    2  502    0  0.60251128251E+02  0.65256230587E+02  0.28699922881E+04  0.28713662789E+04  0.00000000000E+00 0. -1.
         22    1    3    3    0    0  0.94793580516E+02  0.38214255838E+00  0.17803506610E+02  0.96451717390E+02  0.00000000000E+00 0.  1.
         22    1    3    3    0    0 -0.69696657425E+01  0.75424427366E+02  0.14994063241E+02  0.77215558124E+02  0.00000000000E+00 0.  1.
</event>
<event>
 7    1  0.5562528E-006  0.1345575E+03  0.7818608E-02  0.1257908E+00
          2   -1    0    0  502    0  0.00000000000E+00  0.00000000000E+00  0.39556763146E+03  0.39556763146E+03  0.00000000000E+00 0. -1.
          1   -1    0    0  501    0 -0.00000000000E+00 -0.00000000000E+00 -0.26604319704E+03  0.26604319704E+03  0.00000000000E+00 0. -1.
         25    2    1    2    0    0 -0.47478906384E+02 -0.37563264607E+02  0.75634265016E+02  0.15814223772E+03  0.12499271942E+03 0.  0.
          2    1    1    2  501    0  0.10200237142E+03  0.11205092256E+03 -0.18980843885E+03  0.24287267545E+03  0.00000000000E+00 0. -1.
          1    1    1    2  502    0 -0.54523465040E+02 -0.74487657951E+02  0.24369860825E+03  0.26059591534E+03  0.00000000000E+00 0. -1.
         22    1    3    3    0    0 -0.56276493562E+02 -0.67256801358E+02  0.13514765410E+02  0.88730884931E+02  0.00000000000E+00 0.  1.
         22    1    3    3    0    0  0.87975871779E+01  0.29693536750E+02  0.62119499607E+02  0.69411352791E+02  0.00000000000E+00 0.  1.
</event>
<event>
 7    1  0.5562528E-006  0.1377434E+03  0.7818608E-02  0.1278007E+00
          2   -1    0    0  502    0  0.00000000000E+00  0.00000000000E+00  0.74557325260E+03  0.74557325260E+03  0.00000000000E+00 0. -1.
          1   -1    0    0  501    0 -0.00000000000E+00 -0.00000000000E+00 -0.53178090203E+03  0.53178090203E+03  0.00000000000E+00 0. -1.
         25    2    1    2    0    0  0.16574564556E+03 -0.49808630304E+02 -0.35856178436E+02  0.21648156508E+03  0.12500433517E+03 0.  0.
          2    1    1    2  501    0 -0.10220717623E+03  0.88128107803E+02 -0.39218969986E+03  0.41475972675E+03  0.00000000000E+00 0. -1.
          1    1    1    2  502    0 -0.63538469333E+02 -0.38319477499E+02  0.64183822887E+03  0.64611286280E+03  0.00000000000E+00 0. -1.
         22    1    3    3    0    0  0.15566336792E+03 -0.60789427724E+02  0.10840307678E+02  0.16746328226E+03  0.00000000000E+00 0. -1.
         22    1    3    3    0    0  0.10082277637E+02  0.10980797420E+02 -0.46696486115E+02  0.49018282811E+02  0.00000000000E+00 0. -1.
</event>
<event>
 7    1  0.5562528E-006  0.1234721E+03  0.7818608E-02  0.1295757E+00
          2   -1    0    0  502    0  0.00000000000E+00  0.00000000000E+00  0.72027080020E+03  0.72027080020E+03  0.00000000000E+00 0. -1.
          1   -1    0    0  501    0 -0.00000000000E+00 -0.00000000000E+00 -0.14398326461E+03  0.14398326461E+03  0.00000000000E+00 0. -1.
         25    2    1    2    0    0 -0.10645923497E+03 -0.11237700610E+03  0.16248829510E+03  0.25688344908E+03  0.12499800060E+03 0.  0.
          2    1    1    2  501    0  0.11224678316E+03  0.42575797333E+02 -0.55936238400E+02  0.13244206890E+03  0.00000000000E+00 0. -1.
          1    1    1    2  502    0 -0.57875481858E+01  0.69801208766E+02  0.46973547890E+03  0.47492854683E+03  0.00000000000E+00 0. -1.
         22    1    3    3    0    0 -0.72039478355E+02 -0.10632558093E+03  0.17729758264E+03  0.21892749579E+03  0.00000000000E+00 0. -1.
         22    1    3    3    0    0 -0.34419756619E+02 -0.60514251724E+01 -0.14809287546E+02  0.37955953287E+02  0.00000000000E+00 0. -1.
</event>
<event>
 7    1  0.5562528E-006  0.7224494E+02  0.7818608E-02  0.1444845E+00
          2   -1    0    0  502    0  0.00000000000E+00  0.00000000000E+00  0.17628336738E+04  0.17628336738E+04  0.00000000000E+00 0. -1.
          1   -1    0    0  501    0 -0.00000000000E+00 -0.00000000000E+00 -0.12956592999E+03  0.12956592999E+03  0.00000000000E+00 0. -1.
         25    2    1    2    0    0 -0.44368992740E+02  0.19787218287E+02  0.17287639643E+02  0.13521687424E+03  0.12499839627E+03 0.  0.
          2    1    1    2  501    0  0.78490947670E+02 -0.13305426863E+02 -0.47919885420E+02  0.92920281257E+02  0.00000000000E+00 0. -1.
          1    1    1    2  502    0 -0.34121954930E+02 -0.64817914233E+01  0.16638999896E+04  0.16642624483E+04  0.00000000000E+00 0. -1.
         22    1    3    3    0    0 -0.35754473577E+02  0.54349575077E+02  0.53643237184E+02  0.84319959602E+02  0.00000000000E+00 0. -1.
         22    1    3    3    0    0 -0.86145191637E+01 -0.34562356790E+02 -0.36355597541E+02  0.50896914640E+02  0.00000000000E+00 0. -1.
</event>
<event>
 7    1  0.5562528E-006  0.1155345E+03  0.7818608E-02  0.1362551E+00
          2   -1    0    0  502    0  0.00000000000E+00  0.00000000000E+00  0.92552406177E+03  0.92552406177E+03  0.00000000000E+00 0. -1.
          1   -1    0    0  501    0 -0.00000000000E+00 -0.00000000000E+00 -0.20844860299E+03  0.20844860299E+03  0.00000000000E+00 0. -1.
         25    2    1    2    0    0  0.47535808397E+02 -0.65045294813E+02  0.24073545718E+03  0.28296400910E+03  0.12499810658E+03 0.  0.
          2    1    1    2  501    0 -0.51246119646E+02  0.10642569450E+03 -0.16797863431E+03  0.20535192916E+03  0.00000000000E+00 0. -1.
          1    1    1    2  502    0  0.37103112489E+01 -0.41380399683E+02  0.64431863591E+03  0.64565672649E+03  0.00000000000E+00 0. -1.
         22    1    3    3    0    0  0.17239588340E+02 -0.84087726375E+02  0.23016771752E+03  0.24565245230E+03  0.00000000000E+00 0. -1.
         22    1    3    3    0    0  0.30296220057E+02  0.19042431562E+02  0.10567739657E+02  0.37311556802E+02  0.00000000000E+00 0. -1.
</event>
<event>
 7    1  0.5562528E-006  0.5017262E+02  0.7818608E-02  0.1473418E+00
          2   -1    0    0  502    0  0.00000000000E+00  0.00000000000E+00  0.91668040273E+02  0.91668040273E+02  0.00000000000E+00 0. -1.
          1   -1    0    0  501    0 -0.00000000000E+00 -0.00000000000E+00 -0.28922119051E+04  0.28922119051E+04  0.00000000000E+00 0. -1.
         25    2    1    2    0    0 -0.34143859272E+02 -0.69527347228E+02 -0.27290794332E+04  0.27330385271E+04  0.12500073138E+03 0.  0.
          2    1    1    2  501    0 -0.64423113024E+01  0.40113047913E+02 -0.15125329664E+03  0.15661455786E+03  0.00000000000E+00 0. -1.
          1    1    1    2  502    0  0.40586170575E+02  0.29414299315E+02  0.79788864998E+02  0.94226860416E+02  0.00000000000E+00 0. -1.
         22    1    3    3    0    0 -0.66121295758E+00 -0.10104060586E+03 -0.18490827360E+04  0.18518414095E+04  0.00000000000E+00 0. -1.
         22    1    3    3    0    0 -0.33482646315E+02  0.31513258630E+02 -0.87999669715E+03  0.88119711760E+03  0.00000000000E+00 0. -1.
</event>
<event>
 7    1  0.5562528E-006  0.1106279E+03  0.7818608E-02  0.1358326E+00
          2   -1    0    0  502    0  0.00000000000E+00  0.00000000000E+00  0.10279164883E+04  0.10279164883E+04  0.00000000000E+00 0. -1.
          1   -1    0    0  501    0 -0.00000000000E+00 -0.00000000000E+00 -0.70911771817E+02  0.70911771817E+02  0.00000000000E+00 0. -1.
         25    2    1    2    0    0  0.50403262539E+02 -0.60305642752E+02  0.57540785811E+03  0.59405102421E+03  0.12500062707E+03 0.  0.
          2    1    1    2  501    0 -0.95315114983E+02  0.62297955522E+02 -0.65300077979E+01  0.11405545760E+03  0.00000000000E+00 0. -1.
          1    1    1    2  502    0  0.44911852444E+02 -0.19923127699E+01  0.38812686619E+03  0.39072177833E+03  0.00000000000E+00 0. -1.
         22    1    3    3    0    0  0.75432749291E+02 -0.43029091371E+02  0.54183833695E+03  0.54875348360E+03  0.00000000000E+00 0. -1.
         22    1    3    3    0    0 -0.25029486752E+02 -0.17276551381E+02  0.33569521158E+02  0.45297540611E+02  0.00000000000E+00 0. -1.
</event>
<event>
 7    1  0.5562528E-006  0.9834807E+02  0.7818608E-02  0.1449850E+00
          2   -1    0    0  502    0  0.00000000000E+00  0.00000000000E+00  0.99501490569E+03  0.99501490569E+03  0.00000000000E+00 0. -1.
          1   -1    0    0  501    0 -0.00000000000E+00 -0.00000000000E+00 -0.23531641887E+03  0.23531641887E+03  0.00000000000E+00 0. -1.
         25    2    1    2    0    0  0.77717938877E+02  0.79857457219E+02  0.40714862919E+02  0.17233892899E+03  0.12500285952E+03 0.  0.
          2    1    1    2  501    0 -0.79515664868E+02 -0.55336664979E+02 -0.15547581575E+03  0.18318738148E+03  0.00000000000E+00 0. -1.
          1    1    1    2  502    0  0.17977259916E+01 -0.24520792240E+02  0.87445943965E+03  0.87480501409E+03  0.00000000000E+00 0. -1.
         22    1    3    3    0    0 -0.16830798652E+01 -0.31027660378E+02  0.80867185047E+01  0.32108308622E+02  0.00000000000E+00 0.  1.
         22    1    3    3    0    0  0.79401018742E+02  0.11088511760E+03  0.32628144415E+02  0.14023062037E+03  0.00000000000E+00 0.  1.
</event>
<event>
 7    1  0.5562528E-006  0.1308499E+03  0.7818608E-02  0.1406311E+00
          2   -1    0    0  502    0  0.00000000000E+00  0.00000000000E+00  0.91446622828E+03  0.91446622828E+03  0.00000000000E+00 0. -1.
          1   -1    0    0  501    0 -0.00000000000E+00 -0.00000000000E+00 -0.24550841731E+03  0.24550841731E+03  0.00000000000E+00 0. -1.
         25    2    1    2    0    0  0.10476301769E+03  0.22560415706E+02  0.21310612555E+03  0.26930229532E+03  0.12500097312E+03 0.  0.
          2    1    1    2  501    0 -0.12948041288E+03 -0.29711837617E+02 -0.19683975018E+03  0.23747390986E+03  0.00000000000E+00 0. -1.
          1    1    1    2  502    0  0.24717395191E+02  0.71514219112E+01  0.65269143560E+03  0.65319844041E+03  0.00000000000E+00 0. -1.
         22    1    3    3    0    0  0.62699973108E+02  0.74785456402E+02  0.12621837938E+03  0.15954695362E+03  0.00000000000E+00 0.  1.
         22    1    3    3    0    0  0.42063044582E+02 -0.52225040696E+02  0.86887746177E+02  0.10975534170E+03  0.00000000000E+00 0.  1.
</event>
<event>
 7    1  0.5562528E-006  0.7430954E+02  0.7818608E-02  0.1403236E+00
          2   -1    0    0  502    0  0.00000000000E+00  0.00000000000E+00  0.64151212504E+03  0.64151212504E+03  0.00000000000E+00 0. -1.
          1   -1    0    0  501    0 -0.00000000000E+00 -0.00000000000E+00 -0.70386963651E+03  0.70386963651E+03  0.00000000000E+00 0. -1.
         25    2    1    2    0    0  0.32671736360E+02  0.76346251492E+01 -0.13692867649E+03  0.18841588446E+03  0.12500141284E+03 0.  0.
          2    1    1    2  501    0 -0.78874686412E+02 -0.31693622951E+01 -0.53743531681E+03  0.54320160233E+03  0.00000000000E+00 0. -1.
          1    1    1    2  502    0  0.46202950052E+02 -0.44652628542E+01  0.61200648183E+03  0.61376427476E+03  0.00000000000E+00 0. -1.
         22    1    3    3    0    0  0.11525534233E+02  0.65573823375E+02 -0.58406942313E+02  0.88567122352E+02  0.00000000000E+00 0. -1.
         22    1    3    3    0    0  0.21146202128E+02 -0.57939198226E+02 -0.78521734177E+02  0.99848762104E+02  0.00000000000E+00 0. -1.
</event>
<event>
 7    1  0.5562528E-006  0.5621256E+02  0.7818608E-02  0.1462851E+00
          2   -1    0    0  502    0  0.00000000000E+00  0.00000000000E+00  0.17904248526E+04  0.17904248526E+04  0.00000000000E+00 0. -1.
          1   -1    0    0  501    0 -0.00000000000E+00 -0.00000000000E+00 -0.45050413518E+02  0.45050413518E+02  0.00000000000E+00 0. -1.
         25    2    1    2    0    0  0.68074006063E+02  0.36396312168E+02  0.53835882882E+03  0.55804389812E+03  0.12499600724E+03 0.  0.
          2    1    1    2  501    0 -0.55726239731E+02  0.72469664102E+00 -0.12641749220E+02  0.57146765465E+02  0.00000000000E+00 0. -1.
          1    1    1    2  502    0 -0.12347766332E+02 -0.37121008809E+02  0.12196573595E+04  0.12202846026E+04  0.00000000000E+00 0. -1.
         22    1    3    3    0    0  0.51959706425E+02  0.21324024752E+02  0.72728206521E+02  0.91890789240E+02  0.00000000000E+00 0.  1.
         22    1    3    3    0    0  0.16114299638E+02  0.15072287416E+02  0.46563062230E+03  0.46615310888E+03  0.00000000000E+00 0.  1.
</event>
<event>
 7    1  0.5562528E-006  0.6156194E+02  0.7818608E-02  0.1437290E+00
          2   -1    0    0  502    0  0.00000000000E+00  0.00000000000E+00  0.10057058816E+04  0.10057058816E+04  0.00000000000E+00 0. -1.
          1   -1    0    0  501    0 -0.00000000000E+00 -0.00000000000E+00 -0.77310898059E+03  0.77310898059E+03  0.00000000000E+00 0. -1.
         25    2    1    2    0    0  0.36915348172E+01  0.70857625558E+02  0.71639040470E+03  0.73066817349E+03  0.12500534900E+03 0.  0.
          2    1    1    2  501    0 -0.38283715806E+02 -0.19848433610E+02 -0.76198777427E+03  0.76320703046E+03  0.00000000000E+00 0. -1.
          1    1    1    2  502    0  0.34592180989E+02 -0.51009191948E+02  0.27819427058E+03  0.28493965823E+03  0.00000000000E+00 0. -1.
         22    1    3    3    0    0 -0.15897195614E+02  0.35358177998E+02  0.66041064406E+03  0.66154753447E+03  0.00000000000E+00 0.  1.
         22    1    3    3    0    0  0.19588730432E+02  0.35499447560E+02  0.55979760638E+02  0.69120639017E+02  0.00000000000E+00 0.  1.
</event>
<event>
 7    1  0.5562528E-006  0.3706049E+02  0.7818608E-02  0.1595235E+00
          2   -1    0    0  502    0  0.00000000000E+00  0.00000000000E+00  0.14825086402E+03  0.14825086402E+03  0.00000000000E+00 0. -1.
          1   -1    0    0  501    0 -0.00000000000E+00 -0.00000000000E+00 -0.23461783310E+03  0.23461783310E+03  0.00000000000E+00 0. -1.
         25    2    1    2    0    0 -0.32254986955E+02  0.14528169627E+02 -0.85684704142E+02  0.15562197389E+03  0.12499951335E+03 0.  0.
          2    1    1    2  501    0  0.15829043872E+02  0.18970361826E+02 -0.10947816139E+03  0.11223146207E+03  0.00000000000E+00 0. -1.
          1    1    1    2  502    0  0.16425943084E+02 -0.33498531453E+02  0.10879589645E+03  0.11501526116E+03  0.00000000000E+00 0. -1.
         22    1    3    3    0    0 -0.22645370919E+02  0.10320727383E+02  0.30273922859E+02  0.39189802794E+02  0.00000000000E+00 0.  1.
         22    1    3    3    0    0 -0.96096160366E+01  0.42074422439E+01 -0.11595862700E+03  0.11643217110E+03  0.00000000000E+00 0.  1.
</event>
<event>
 7    1  0.5562528E-006  0.1518304E+03  0.7818608E-02  0.1217381E+00
          2   -1    0    0  502    0  0.00000000000E+00  0.00000000000E+00  0.13850533789E+04  0.13850533789E+04  0.00000000000E+00 0. -1.
          1   -1    0    0  501    0 -0.00000000000E+00 -0.00000000000E+00 -0.82483768517E+03  0.82483768517E+03  0.00000000000E+00 0. -1.
         25    2    1    2    0    0 -0.15792610274E+02  0.26697543608E+03  0.33957197057E+02  0.29716136707E+03  0.12500598721E+03 0.  0.
          2    1    1    2  501    0  0.30854081120E+02 -0.11976359677E+03 -0.68317385131E+03  0.69427790153E+03  0.00000000000E+00 0. -1.
          1    1    1    2  502    0 -0.15061470847E+02 -0.14721183931E+03  0.12094323479E+04  0.12184517954E+04  0.00000000000E+00 0. -1.
         22    1    3    3    0    0  0.33843051509E+02  0.51882756041E+02 -0.27862941262E+02  0.67922868061E+02  0.00000000000E+00 0.  1.
         22    1    3    3    0    0 -0.49635661783E+02  0.21509268004E+03  0.61820138319E+02  0.22923849901E+03  0.00000000000E+00 0.  1.
</event>
<event>
 7    1  0.5562528E-006  0.7486693E+02  0.7818608E-02  0.1436388E+00
          2   -1    0    0  502    0  0.00000000000E+00  0.00000000000E+00  0.13020153804E+03  0.13020153804E+03  0.00000000000E+00 0. -1.
          1   -1    0    0  501    0 -0.00000000000E+00 -0.00000000000E+00 -0.42665706865E+03  0.42665706865E+03  0.00000000000E+00 0. -1.
         25    2    1    2    0    0 -0.88442331200E+02 -0.60296396866E+02 -0.13360292499E+03  0.21197410654E+03  0.12500231539E+03 0.  0.
          2    1    1    2  501    0  0.25440982107E+02  0.25045253680E+02 -0.23800912177E+03  0.24067166503E+03  0.00000000000E+00 0. -1.
          1    1    1    2  502    0  0.63001349094E+02  0.35251143187E+02  0.75156516155E+02  0.10421283512E+03  0.00000000000E+00 0. -1.
         22    1    3    3    0    0  0.31331883251E+02 -0.94360095195E+01 -0.40005794138E+02  0.51683544270E+02  0.00000000000E+00 0. -1.
         22    1    3    3    0    0 -0.11977421445E+03 -0.50860387347E+02 -0.93597130854E+02  0.16029056227E+03  0.00000000000E+00 0. -1.
</event>
<event>
 7    1  0.5562528E-006  0.4765503E+02  0.7818608E-02  0.1499660E+00
          2   -1    0    0  502    0  0.00000000000E+00  0.00000000000E+00  0.18206246143E+04  0.18206246143E+04  0.00000000000E+00 0. -1.
          1   -1    0    0  501    0 -0.00000000000E+00 -0.00000000000E+00 -0.77158998529E+03  0.77158998529E+03  0.00000000000E+00 0. -1.
         25    2    1    2    0    0 -0.81493954343E+02 -0.12191982349E+02  0.39059042358E+02  0.15474339652E+03  0.12502000219E+03 0.  0.
          2    1    1    2  501    0  0.34069854973E+02  0.10309203483E+02 -0.71297702029E+03  0.71386501956E+03  0.00000000000E+00 0. -1.
          1    1    1    2  502    0  0.47424099370E+02  0.18827788667E+01  0.17229526069E+04  0.17236061835E+04  0.00000000000E+00 0. -1.
         22    1    3    3    0    0 -0.83827062475E+02 -0.23741405524E+02  0.76220182261E+02  0.11575900364E+03  0.00000000000E+00 0.  1.
         22    1    3    3    0    0  0.23331081320E+01  0.11549423175E+02 -0.37161139903E+02  0.38984392878E+02  0.00000000000E+00 0.  1.
</event>
<event>
 7    1  0.5562528E-006  0.5148416E+02  0.7818608E-02  0.1452864E+00
          2   -1    0    0  502    0  0.00000000000E+00  0.00000000000E+00  0.53330320640E+02  0.53330320640E+02  0.00000000000E+00 0. -1.
          1   -1    0    0  501    0 -0.00000000000E+00 -0.00000000000E+00 -0.72157701141E+03  0.72157701141E+03  0.00000000000E+00 0. -1.
         25    2    1    2    0    0 -0.26068872919E+02  0.40885662758E+02 -0.12541962399E+03  0.18359442773E+03  0.12500243301E+03 0.  0.
          2    1    1    2  501    0 -0.19177497723E+02 -0.48823692158E+02 -0.54284701996E+03  0.54537548205E+03  0.00000000000E+00 0. -1.
          1    1    1    2  502    0  0.45246370642E+02  0.79380293998E+01  0.19953181801E-01  0.45937422274E+02  0.00000000000E+00 0. -1.
         22    1    3    3    0    0  0.12349599713E+02  0.73159784401E+02 -0.39392089408E+02  0.84003591439E+02  0.00000000000E+00 0.  1.
         22    1    3    3    0    0 -0.38418472632E+02 -0.32274121642E+02 -0.86027534577E+02  0.99590836288E+02  0.00000000000E+00 0.  1.
</event>
<event>
 7    1  0.5562528E-006  0.1310972E+03  0.7818608E-02  0.1243077E+00
          2   -1    0    0  502    0  0.00000000000E+00  0.00000000000E+00  0.21236118903E+04  0.21236118903E+04  0.00000000000E+00 0. -1.
          1   -1    0    0  501    0 -0.00000000000E+00 -0.00000000000E+00 -0.55965343156E+03  0.55965343156E+03  0.00000000000E+00 0. -1.
         25    2    1    2    0    0 -0.98884524156E+02  0.21889381858E+03 -0.24130582774E+03  0.36269322421E+03  0.12500087784E+03 0.  0.
          2    1    1    2  501    0  0.46658255612E+02 -0.99464582350E+02 -0.24377643038E+03  0.26738949861E+03  0.00000000000E+00 0. -1.
          1    1    1    2  502    0  0.52226268544E+02 -0.11942923623E+03  0.20490407168E+04  0.20531825990E+04  0.00000000000E+00 0. -1.
         22    1    3    3    0    0 -0.94925159469E+02  0.22656906743E+03 -0.18970449050E+03  0.31037416441E+03  0.00000000000E+00 0.  1.
         22    1    3    3    0    0 -0.39593646867E+01 -0.76752488547E+01 -0.51601337243E+02  0.52319059806E+02  0.00000000000E+00 0.  1.
</event>
<event>
 7    1  0.5562528E-006  0.5979578E+02  0.7818608E-02  0.1478516E+00
          2   -1    0    0  502    0  0.00000000000E+00  0.00000000000E+00  0.26489722178E+04  0.26489722178E+04  0.00000000000E+00 0. -1.
          1   -1    0    0  501    0 -0.00000000000E+00 -0.00000000000E+00 -0.18195706999E+03  0.18195706999E+03  0.00000000000E+00 0. -1.
         25    2    1    2    0    0  0.34997631616E+02 -0.82643735144E+02  0.35175132081E+03  0.38393861179E+03  0.12500017902E+03 0.  0.
          2    1    1    2  501    0 -0.33762645531E+01  0.32702694459E+02 -0.16384730116E+03  0.16711314576E+03  0.00000000000E+00 0. -1.
          1    1    1    2  502    0 -0.31621367063E+02  0.49941040686E+02  0.22791111282E+04  0.22798775303E+04  0.00000000000E+00 0. -1.
         22    1    3    3    0    0  0.76123165673E+02 -0.43112278637E+02  0.14394127693E+03  0.16844137296E+03  0.00000000000E+00 0. -1.
         22    1    3    3    0    0 -0.41125534056E+02 -0.39531456507E+02  0.20781004388E+03  0.21549723883E+03  0.00000000000E+00 0. -1.
</event>
<event>
 7    1  0.5562528E-006  0.3438895E+02  0.7818608E-02  0.1557602E+00
          2   -1    0    0  502    0  0.00000000000E+00  0.00000000000E+00  0.25093354934E+03  0.25093354934E+03  0.00000000000E+00 0. -1.
          1   -1    0    0  501    0 -0.00000000000E+00 -0.00000000000E+00 -0.90060301094E+02  0.90060301094E+02  0.00000000000E+00 0. -1.
         25    2    1    2    0    0 -0.81138101020E+01  0.28649274889E+02  0.14279779609E+03  0.19209873385E+03  0.12499639240E+03 0.  0.
          2    1    1    2  501    0  0.33611192252E+02 -0.10854571828E+01 -0.56300062840E+02  0.65578865023E+02  0.00000000000E+00 0. -1.
          1    1    1    2  502    0 -0.25497382150E+02 -0.27563817706E+02  0.74375514998E+02  0.83316251562E+02  0.00000000000E+00 0. -1.
         22    1    3    3    0    0 -0.55197497765E+02 -0.95643780146E+01  0.10930525171E+03  0.12282458686E+03  0.00000000000E+00 0.  1.
         22    1    3    3    0    0  0.47083687663E+02  0.38213652903E+02  0.33492544380E+02  0.69274146990E+02  0.00000000000E+00 0.  1.
</event>
<event>
 7    1  0.5562528E-006  0.1019135E+03  0.7818608E-02  0.1325685E+00
          2   -1    0    0  502    0  0.00000000000E+00  0.00000000000E+00  0.19131249243E+04  0.19131249243E+04  0.00000000000E+00 0. -1.
          1   -1    0    0  501    0 -0.00000000000E+00 -0.00000000000E+00 -0.16827390123E+03  0.16827390123E+03  0.00000000000E+00 0. -1.
         25    2    1    2    0    0  0.10466446466E+03  0.42783668626E+02 -0.48775285222E+02  0.17547047109E+03  0.12500306121E+03 0.  0.
          2    1    1    2  501    0 -0.49814981768E+01 -0.64501323086E+02 -0.35611849887E+02  0.73847409272E+02  0.00000000000E+00 0. -1.
          1    1    1    2  502    0 -0.99682966488E+02  0.21717654460E+02  0.18292381582E+04  0.18320809451E+04  0.00000000000E+00 0. -1.
         22    1    3    3    0    0  0.75685530963E+02  0.84901091497E+02 -0.16291843637E+02  0.11489960445E+03  0.00000000000E+00 0.  1.
         22    1    3    3    0    0  0.28978933702E+02 -0.42117422872E+02 -0.32483441585E+02  0.60570866636E+02  0.00000000000E+00 0.  1.
</event>
<event>
 7    1  0.5562528E-006  0.4764668E+02  0.7818608E-02  0.1458841E+00
          2   -1    0    0  502    0  0.00000000000E+00  0.00000000000E+00  0.11440745592E+04  0.11440745592E+04  0.00000000000E+00 0. -1.
          1   -1    0    0  501    0 -0.00000000000E+00 -0.00000000000E+00 -0.10251459780E+04  0.10251459780E+04  0.00000000000E+00 0. -1.
         25    2    1    2    0    0  0.35153827571E+02  0.37716356593E+02  0.27626502472E+03  0.30757817576E+03  0.12499462058E+03 0.  0.
          2    1    1    2  501    0  0.12460115999E+02 -0.45988606968E+02 -0.10082411697E+04  0.10093663670E+04  0.00000000000E+00 0. -1.
          1    1    1    2  502    0 -0.47613943570E+02  0.82722503746E+01  0.85090472616E+03  0.85227599447E+03  0.00000000000E+00 0. -1.
         22    1    3    3    0    0 -0.35353476895E+02  0.14470240510E+02  0.18983535797E+03  0.19364069646E+03  0.00000000000E+00 0.  1.
         22    1    3    3    0    0  0.70507304466E+02  0.23246116083E+02  0.86429666747E+02  0.11393747930E+03  0.00000000000E+00 0.  1.
</event>
<event>
 7    1  0.5562528E-006  0.1190971E+03  0.7818608E-02  0.1280269E+00
          2   -1    0    0  502    0  0.00000000000E+00  0.00000000000E+00  0.11400064935E+04  0.11400064935E+04  0.00000000000E+00 0. -1.
          1   -1    0    0  501    0 -0.00000000000E+00 -0.00000000000E+00 -0.48295240326E+03  0.48295240326E+03  0.00000000000E+00 0. -1.
         25    2    1    2    0    0  0.17204323808E+02  0.19544893594E+03 -0.31014975050E+02  0.23470242721E+03  0.12500810111E+03 0.  0.
          2    1    1    2  501    0 -0.80107825718E+01 -0.11196680241E+03 -0.33933777829E+03  0.35742253042E+03  0.00000000000E+00 0. -1.
          1    1    1    2  502    0 -0.91935412366E+01 -0.83482133532E+02  0.10274068436E+04  0.10308339391E+04  0.00000000000E+00 0. -1.
         22    1    3    3    0    0  0.11960912685E+01  0.15505884771E+03 -0.75546591017E+02  0.17248757724E+03  0.00000000000E+00 0. -1.
         22    1    3    3    0    0  0.16008232540E+02  0.40390088229E+02  0.44531615967E+02  0.62214849970E+02  0.00000000000E+00 0. -1.
</event>
<event>
 7    1  0.5562528E-006  0.7545518E+02  0.7818608E-02  0.1371982E+00
          2   -1    0    0  502    0  0.00000000000E+00  0.00000000000E+00  0.20850032720E+04  0.20850032720E+04  0.00000000000E+00 0. -1.
          1   -1    0    0  501    0 -0.00000000000E+00 -0.00000000000E+00 -0.53962764735E+03  0.53962764735E+03  0.00000000000E+00 0. -1.
         25    2    1    2    0    0  0.10754787364E+02  0.12997536063E+03  0.30484507290E+03  0.35435474064E+03  0.12501001529E+03 0.  0.
          2    1    1    2  501    0 -0.20924820099E+02 -0.72043050147E+02 -0.51164398053E+03  0.51711469906E+03  0.00000000000E+00 0. -1.
          1    1    1    2  502    0  0.10170032736E+02 -0.57932310478E+02  0.17521745323E+04  0.17531614796E+04  0.00000000000E+00 0. -1.
         22    1    3    3    0    0 -0.23914913005E+02  0.92943096241E+02  0.83311162396E+02  0.12708694655E+03  0.00000000000E+00 0. -1.
         22    1    3    3    0    0  0.34669700369E+02  0.37032264385E+02  0.22153391051E+03  0.22726779410E+03  0.00000000000E+00 0. -1.
</event>
<event>
 7    1  0.5562528E-006  0.6381349E+02  0.7818608E-02  0.1485675E+00
          2   -1    0    0  502    0  0.00000000000E+00  0.00000000000E+00  0.50051713625E+03  0.50051713625E+03  0.00000000000E+00 0. -1.
          1   -1    0    0  501    0 -0.00000000000E+00 -0.00000000000E+00 -0.18740963835E+03  0.18740963835E+03  0.00000000000E+00 0. -1.
         25    2    1    2    0    0  0.25336232972E+02 -0.84842533557E+02  0.14566244387E+03  0.21135689283E+03  0.12495602583E+03 0.  0.
          2    1    1    2  501    0  0.13760050429E+01  0.29259504184E+02 -0.15018184082E+03  0.15301175539E+03  0.00000000000E+00 0. -1.
          1    1    1    2  502    0 -0.26712238015E+02  0.55583029373E+02  0.31762689485E+03  0.32355812638E+03  0.00000000000E+00 0. -1.
         22    1    3    3    0    0 -0.46655555484E+02 -0.73464527632E+01  0.40815658312E+02  0.62422986064E+02  0.00000000000E+00 0. -1.
         22    1    3    3    0    0  0.71991788456E+02 -0.77496080794E+02  0.10484678555E+03  0.14893390677E+03  0.00000000000E+00 0. -1.
</event>
<event>
 7    1  0.5562528E-006  0.8749185E+02  0.7818608E-02  0.1354781E+00
          2   -1    0    0  502    0  0.00000000000E+00  0.00000000000E+00  0.14482583965E+04  0.14482583965E+04  0.00000000000E+00 0. -1.
          1   -1    0    0  501    0 -0.00000000000E+00 -0.00000000000E+00 -0.58266667860E+03  0.58266667860E+03  0.00000000000E+00 0. -1.
         25    2    1    2    0    0  0.73549883255E+02 -0.55026948211E+02 -0.13660364356E+02  0.15572575064E+03  0.12500541389E+03 0.  0.
          2    1    1    2  501    0  0.14167758577E+02  0.56832777310E+02 -0.49484737873E+03  0.49830173409E+03  0.00000000000E+00 0. -1.
          1    1    1    2  502    0 -0.87717641831E+02 -0.18058290999E+01  0.13740994610E+04  0.13768975904E+04  0.00000000000E+00 0. -1.
         22    1    3    3    0    0 -0.26500391837E+02  0.16302458391E+02 -0.10411417210E+02  0.32809122595E+02  0.00000000000E+00 0.  1.
         22    1    3    3    0    0  0.10005027509E+03 -0.71329406602E+02 -0.32489471455E+01  0.12291662804E+03  0.00000000000E+00 0.  1.
</event>
<event>
 7    1  0.5562528E-006  0.2321283E+03  0.7818608E-02  0.1169176E+00
          2   -1    0    0  502    0  0.00000000000E+00  0.00000000000E+00  0.72346476649E+03  0.72346476649E+03  0.00000000000E+00 0. -1.
          1   -1    0    0  501    0 -0.00000000000E+00 -0.00000000000E+00 -0.33120582673E+04  0.33120582673E+04  0.00000000000E+00 0. -1.
         25    2    1    2    0    0 -0.14720875587E+03  0.17960579416E+03 -0.27485776350E+02  0.26515766430E+03  0.12499783972E+03 0.  0.
          2    1    1    2  501    0 -0.80444688633E+02 -0.11138506560E+03 -0.31408232446E+04  0.31438270682E+04  0.00000000000E+00 0. -1.
          1    1    1    2  502    0  0.22765344451E+03 -0.68220728563E+02  0.57971552019E+03  0.62653830127E+03  0.00000000000E+00 0. -1.
         22    1    3    3    0    0 -0.13919259337E+03  0.17147833115E+03 -0.61512895252E+02  0.22926672760E+03  0.00000000000E+00 0. -1.
         22    1    3    3    0    0 -0.80161625047E+01  0.81274630078E+01  0.34027118901E+02  0.35890936697E+02  0.00000000000E+00 0. -1.
</event>
<event>
 7    1  0.5562528E-006  0.6526522E+02  0.7818608E-02  0.1386777E+00
          2   -1    0    0  502    0  0.00000000000E+00  0.00000000000E+00  0.25997156066E+04  0.25997156066E+04  0.00000000000E+00 0. -1.
          1   -1    0    0  501    0 -0.00000000000E+00 -0.00000000000E+00 -0.19308363539E+03  0.19308363539E+03  0.00000000000E+00 0. -1.
         25    2    1    2    0    0 -0.11681574255E+03 -0.52867988335E+00  0.48820193496E+03  0.51731043820E+03  0.12499105150E+03 0.  0.
          2    1    1    2  501    0  0.56654175341E+02 -0.20547311905E+02 -0.17294402532E+03  0.18314345062E+03  0.00000000000E+00 0. -1.
          1    1    1    2  502    0  0.60161567214E+02  0.21075991789E+02  0.20913740615E+04  0.20923453532E+04  0.00000000000E+00 0. -1.
         22    1    3    3    0    0 -0.10426681957E+02 -0.39784534093E+02  0.25156518252E+03  0.25490501350E+03  0.00000000000E+00 0. -1.
         22    1    3    3    0    0 -0.10638906060E+03  0.39255854209E+02  0.23663675244E+03  0.26240542470E+03  0.00000000000E+00 0. -1.
</event>
<event>
 7    1  0.5562528E-006  0.5878369E+02  0.7818608E-02  0.1503763E+00
          2   -1    0    0  502    0  0.00000000000E+00  0.00000000000E+00  0.20273659542E+03  0.20273659542E+03  0.00000000000E+00 0. -1.
          1   -1    0    0  501    0 -0.00000000000E+00 -0.00000000000E+00 -0.32679744687E+03  0.32679744687E+03  0.00000000000E+00 0. -1.
         25    2    1    2    0    0 -0.29608124462E+02 -0.37074503828E+02 -0.11977954383E+03  0.17950822761E+03  0.12499961915E+03 0.  0.
          2    1    1    2  501    0  0.18370375288E+02 -0.21205800447E+02 -0.17088103650E+03  0.17316895015E+03  0.00000000000E+00 0. -1.
          1    1    1    2  502    0  0.11237749174E+02  0.58280304276E+02  0.16659972888E+03  0.17685686454E+03  0.00000000000E+00 0. -1.
         22    1    3    3    0    0 -0.64985525301E+02 -0.62160409932E+02 -0.87222219827E+02  0.12527869210E+03  0.00000000000E+00 0. -1.
         22    1    3    3    0    0  0.35377400838E+02  0.25085906104E+02 -0.32557324007E+02  0.54229535510E+02  0.00000000000E+00 0. -1.
</event>
<event>
 7    1  0.5562528E-006  0.6106773E+02  0.7818608E-02  0.1416646E+00
          2   -1    0    0  502    0  0.00000000000E+00  0.00000000000E+00  0.26134054053E+03  0.26134054053E+03  0.00000000000E+00 0. -1.
          1   -1    0    0  501    0 -0.00000000000E+00 -0.00000000000E+00 -0.46763580858E+03  0.46763580858E+03  0.00000000000E+00 0. -1.
         25    2    1    2    0    0  0.32975455160E+02  0.54925063620E+01  0.14821721630E+03  0.19674889020E+03  0.12499693723E+03 0.  0.
          2    1    1    2  501    0  0.50710837796E+02  0.40361157093E+01 -0.42153172890E+03  0.42459024691E+03  0.00000000000E+00 0. -1.
          1    1    1    2  502    0 -0.83686292956E+02 -0.95286220713E+01  0.67019244556E+02  0.10763721200E+03  0.00000000000E+00 0. -1.
         22    1    3    3    0    0 -0.23129937691E+02 -0.46948197165E+02  0.66199474533E+02  0.84388966477E+02  0.00000000000E+00 0. -1.
         22    1    3    3    0    0  0.56105392851E+02  0.52440703527E+02  0.82017741770E+02  0.11235992372E+03  0.00000000000E+00 0. -1.
</event>
<event>
 7    1  0.5562528E-006  0.5698177E+02  0.7818608E-02  0.1440901E+00
          2   -1    0    0  502    0  0.00000000000E+00  0.00000000000E+00  0.20726141688E+04  0.20726141688E+04  0.00000000000E+00 0. -1.
          1   -1    0    0  501    0 -0.00000000000E+00 -0.00000000000E+00 -0.62603007725E+03  0.62603007725E+03  0.00000000000E+00 0. -1.
         25    2    1    2    0    0  0.82156475710E+01  0.78041725646E+02  0.17983990558E+04  0.18044451971E+04  0.12500119091E+03 0.  0.
          2    1    1    2  501    0 -0.27639874163E+02 -0.35950212538E+02 -0.62019205206E+03  0.62184769989E+03  0.00000000000E+00 0. -1.
          1    1    1    2  502    0  0.19424226592E+02 -0.42091513107E+02  0.26837708783E+03  0.27235134904E+03  0.00000000000E+00 0. -1.
         22    1    3    3    0    0  0.12419291221E+01  0.11216643837E+03  0.14370787180E+04  0.14414499971E+04  0.00000000000E+00 0. -1.
         22    1    3    3    0    0  0.69737184488E+01 -0.34124712721E+02  0.36132033777E+03  0.36299520004E+03  0.00000000000E+00 0. -1.
</event>
<event>
 7    1  0.5562528E-006  0.7564321E+02  0.7818608E-02  0.1370114E+00
          2   -1    0    0  502    0  0.00000000000E+00  0.00000000000E+00  0.71745252796E+03  0.71745252796E+03  0.00000000000E+00 0. -1.
          1   -1    0    0  501    0 -0.00000000000E+00 -0.00000000000E+00 -0.11277220754E+04  0.11277220754E+04  0.00000000000E+00 0. -1.
         25    2    1    2    0    0  0.46656745815E+02 -0.57776519900E+01  0.12195675703E+03  0.18085519177E+03  0.12499966645E+03 0.  0.
          2    1    1    2  501    0 -0.54217294245E+02 -0.53325439041E+02 -0.10953828580E+04  0.10980194548E+04  0.00000000000E+00 0. -1.
          1    1    1    2  502    0  0.75605484298E+01  0.59103091031E+02  0.56315655355E+03  0.56629995679E+03  0.00000000000E+00 0. -1.
         22    1    3    3    0    0  0.81536656560E+02 -0.32259839496E+02  0.95680112082E+02  0.12978292436E+03  0.00000000000E+00 0.  1.
         22    1    3    3    0    0 -0.34879910745E+02  0.26482187506E+02  0.26276644951E+02  0.51072267412E+02  0.00000000000E+00 0.  1.
</event>
<event>
 7    1  0.5562528E-006  0.4210548E+02  0.7818608E-02  0.1524433E+00
          2   -1    0    0  502    0  0.00000000000E+00  0.00000000000E+00  0.25776562158E+03  0.25776562158E+03  0.00000000000E+00 0. -1.
          1   -1    0    0  501    0 -0.00000000000E+00 -0.00000000000E+00 -0.90922471772E+03  0.90922471772E+03  0.00000000000E+00 0. -1.
         25    2    1    2    0    0  0.47083058439E+02 -0.88966613034E+01 -0.51536194700E+02  0.14344695349E+03  0.12500033651E+03 0.  0.
          2    1    1    2  501    0 -0.35319661301E+02 -0.23083633608E+02 -0.80980987062E+03  0.81090835436E+03  0.00000000000E+00 0. -1.
          1    1    1    2  502    0 -0.11763397137E+02  0.31980294911E+02  0.20988696917E+03  0.21263503145E+03  0.00000000000E+00 0. -1.
         22    1    3    3    0    0  0.59121302929E+02  0.45538345931E+02 -0.13191763300E+02  0.75783190940E+02  0.00000000000E+00 0.  1.
         22    1    3    3    0    0 -0.12038244490E+02 -0.54435007234E+02 -0.38344431400E+02  0.67663762550E+02  0.00000000000E+00 0.  1.
</event>
<event>
 7    1  0.5562528E-006  0.1252343E+03  0.7818608E-02  0.1389040E+00
          2   -1    0    0  502    0  0.00000000000E+00  0.00000000000E+00  0.77144587002E+03  0.77144587002E+03  0.00000000000E+00 0. -1.
          1   -1    0    0  501    0 -0.00000000000E+00 -0.00000000000E+00 -0.35901917178E+03  0.35901917178E+03  0.00000000000E+00 0. -1.
         25    2    1    2    0    0 -0.76003941804E+02 -0.58100660017E+02 -0.19355859282E+03  0.24948514574E+03  0.12500249287E+03 0.  0.
          2    1    1    2  501    0 -0.19858826073E+02 -0.23594138249E+02 -0.13035090795E+03  0.13394930211E+03  0.00000000000E+00 0. -1.
          1    1    1    2  502    0  0.95862767876E+02  0.81694798266E+02  0.73633619901E+03  0.74703059395E+03  0.00000000000E+00 0. -1.
         22    1    3    3    0    0 -0.61023582245E+02  0.29906300132E+02 -0.77790696279E+02  0.10329403083E+03  0.00000000000E+00 0.  1.
         22    1    3    3    0    0 -0.14980359559E+02 -0.88006960149E+02 -0.11576789654E+03  0.14619111490E+03  0.00000000000E+00 0.  1.
</event>
<event>
 7    1  0.5562528E-006  0.9224128E+02  0.7818608E-02  0.1346849E+00
          2   -1    0    0  502    0  0.00000000000E+00  0.00000000000E+00  0.66662726349E+03  0.66662726349E+03  0.00000000000E+00 0. -1.
          1   -1    0    0  501    0 -0.00000000000E+00 -0.00000000000E+00 -0.81966531135E+03  0.81966531135E+03  0.00000000000E+00 0. -1.
         25    2    1    2    0    0 -0.12449939794E+03 -0.73225366282E+02  0.99075965413E+02  0.21518371750E+03  0.12500372395E+03 0.  0.
          2    1    1    2  501    0  0.57599274801E+02  0.14680943151E+02 -0.75655893507E+03  0.75889039313E+03  0.00000000000E+00 0. -1.
          1    1    1    2  502    0  0.66900123136E+02  0.58544423131E+02  0.50444492179E+03  0.51221846421E+03  0.00000000000E+00 0. -1.
         22    1    3    3    0    0  0.20406451780E+02  0.20482738579E+01 -0.55537269626E+01  0.21247648887E+02  0.00000000000E+00 0. -1.
         22    1    3    3    0    0 -0.14490584972E+03 -0.75273640139E+02  0.10462969238E+03  0.19393606861E+03  0.00000000000E+00 0. -1.
</event>
<event>
 7    1  0.5562528E-006  0.2379491E+03  0.7818608E-02  0.1151100E+00
          2   -1    0    0  502    0  0.00000000000E+00  0.00000000000E+00  0.32401009477E+03  0.32401009477E+03  0.00000000000E+00 0. -1.
          1   -1    0    0  501    0 -0.00000000000E+00 -0.00000000000E+00 -0.11243377754E+04  0.11243377754E+04  0.00000000000E+00 0. -1.
         25    2    1    2    0    0  0.16684702564E+03 -0.21418204032E+02 -0.59338612886E+03  0.62930985538E+03  0.12500850661E+03 0.  0.
          2    1    1    2  501    0  0.37353336748E+02  0.16114413009E+03 -0.44557164104E+03  0.47528600834E+03  0.00000000000E+00 0. -1.
          1    1    1    2  502    0 -0.20420036239E+03 -0.13972592606E+03  0.23863008929E+03  0.34375200643E+03  0.00000000000E+00 0. -1.
         22    1    3    3    0    0  0.14542475662E+03  0.28930737735E+02 -0.49501928734E+03  0.51674891607E+03  0.00000000000E+00 0. -1.
         22    1    3    3    0    0  0.21422269020E+02 -0.50348941767E+02 -0.98366841526E+02  0.11256093931E+03  0.00000000000E+00 0. -1.
</event>
<event>
 7    1  0.5562528E-006  0.7915234E+02  0.7818608E-02  0.1503516E+00
          2   -1    0    0  502    0  0.00000000000E+00  0.00000000000E+00  0.53984341276E+03  0.53984341276E+03  0.00000000000E+00 0. -1.
          1   -1    0    0  501    0 -0.00000000000E+00 -0.00000000000E+00 -0.84633031640E+03  0.84633031640E+03  0.00000000000E+00 0. -1.
         25    2    1    2    0    0  0.60160094603E+02  0.77336345922E+02 -0.90542172442E+02  0.18281226051E+03  0.12498916041E+03 0.  0.
          2    1    1    2  501    0 -0.63251467899E+01 -0.19890159111E+02 -0.70635934616E+03  0.70666763886E+03  0.00000000000E+00 0. -1.
          1    1    1    2  502    0 -0.53834947813E+02 -0.57446186811E+02  0.49041461496E+03  0.49669382979E+03  0.00000000000E+00 0. -1.
         22    1    3    3    0    0  0.41830227075E+02 -0.53493977102E+01 -0.88569082256E+02  0.98096209328E+02  0.00000000000E+00 0. -1.
         22    1    3    3    0    0  0.18329867528E+02  0.82685743632E+02 -0.19730901864E+01  0.84716051186E+02  0.00000000000E+00 0. -1.
</event>
<event>
 7    1  0.5562528E-006  0.5100172E+02  0.7818608E-02  0.1509497E+00
          2   -1    0    0  502    0  0.00000000000E+00  0.00000000000E+00  0.14449783689E+04  0.14449783689E+04  0.00000000000E+00 0. -1.
          1   -1    0    0  501    0 -0.00000000000E+00 -0.00000000000E+00 -0.25181546323E+02  0.25181546323E+02  0.00000000000E+00 0. -1.
         25    2    1    2    0    0  0.27770135437E+02 -0.33944099084E+02  0.29229006312E+03  0.32090821132E+03  0.12500086724E+03 0.  0.
          2    1    1    2  501    0 -0.25594020004E+02 -0.17666003210E+02  0.13259361190E+02  0.33807575905E+02  0.00000000000E+00 0. -1.
          1    1    1    2  502    0 -0.21761154326E+01  0.51610102294E+02  0.11142473982E+04  0.11154441280E+04  0.00000000000E+00 0. -1.
         22    1    3    3    0    0  0.11238480306E+02  0.42417174763E+02  0.17171125260E+03  0.17722944006E+03  0.00000000000E+00 0.  1.
         22    1    3    3    0    0  0.16531655131E+02 -0.76361273846E+02  0.12057881052E+03  0.14367877126E+03  0.00000000000E+00 0.  1.
</event>
<event>
 7    1  0.5562528E-006  0.1211324E+03  0.7818608E-02  0.1280250E+00
          2   -1    0    0  502    0  0.00000000000E+00  0.00000000000E+00  0.10299821423E+03  0.10299821423E+03  0.00000000000E+00 0. -1.
          1   -1    0    0  501    0 -0.00000000000E+00 -0.00000000000E+00 -0.88527735464E+03  0.88527735464E+03  0.00000000000E+00 0. -1.
         25    2    1    2    0    0  0.25920105911E+02  0.14802233615E+03 -0.12092612147E+03  0.22985557154E+03  0.12501197153E+03 0.  0.
          2    1    1    2  501    0 -0.71341841566E+02 -0.41612118245E+02 -0.63422911625E+03  0.63958408254E+03  0.00000000000E+00 0. -1.
          1    1    1    2  502    0  0.45421735655E+02 -0.10641021791E+03 -0.27123902705E+02  0.11883591479E+03  0.00000000000E+00 0. -1.
         22    1    3    3    0    0  0.25536235169E+01  0.13564934129E+02  0.25931444029E+02  0.29376320743E+02  0.00000000000E+00 0. -1.
         22    1    3    3    0    0  0.23366482394E+02  0.13445740202E+03 -0.14685756549E+03  0.20047925080E+03  0.00000000000E+00 0. -1.
</event>
<event>
 7    1  0.5562528E-006  0.4765438E+02  0.7818608E-02  0.1501212E+00
          2   -1    0    0  502    0  0.00000000000E+00  0.00000000000E+00  0.50168274291E+03  0.50168274291E+03  0.00000000000E+00 0. -1.
          1   -1    0    0  501    0 -0.00000000000E+00 -0.00000000000E+00 -0.21338527784E+03  0.21338527784E+03  0.00000000000E+00 0. -1.
         25    2    1    2    0    0 -0.33418368455E+00 -0.20352381457E+02  0.13974631557E+03  0.18859908922E+03  0.12500501042E+03 0.  0.
          2    1    1    2  501    0  0.28097516261E+02 -0.21233782833E+02 -0.18544045145E+03  0.18875514560E+03  0.00000000000E+00 0. -1.
          1    1    1    2  502    0 -0.27763332576E+02  0.41586164289E+02  0.33399160096E+03  0.33771378593E+03  0.00000000000E+00 0. -1.
         22    1    3    3    0    0 -0.43900421466E+02 -0.54296993944E+02  0.62989680135E+02  0.94037813457E+02  0.00000000000E+00 0. -1.
         22    1    3    3    0    0  0.43566237781E+02  0.33944612488E+02  0.76756635435E+02  0.94561275767E+02  0.00000000000E+00 0. -1.
</event>
<event>
 7    1  0.5562528E-006  0.5095685E+02  0.7818608E-02  0.1530027E+00
          2   -1    0    0  502    0  0.00000000000E+00  0.00000000000E+00  0.37159728450E+03  0.37159728450E+03  0.00000000000E+00 0. -1.
          1   -1    0    0  501    0 -0.00000000000E+00 -0.00000000000E+00 -0.20888293561E+03  0.20888293561E+03  0.00000000000E+00 0. -1.
         25    2    1    2    0    0  0.23010480499E+02 -0.23881335508E+02  0.11300731530E+03  0.17174136473E+03  0.12499857059E+03 0.  0.
          2    1    1    2  501    0 -0.14170560585E+02  0.49533304831E+02 -0.17498636998E+03  0.18241321979E+03  0.00000000000E+00 0. -1.
          1    1    1    2  502    0 -0.88399199137E+01 -0.25651969323E+02  0.22469340358E+03  0.22632563559E+03  0.00000000000E+00 0. -1.
         22    1    3    3    0    0 -0.26623314369E+02 -0.61849643080E+01  0.11579155853E+03  0.11897369322E+03  0.00000000000E+00 0.  1.
         22    1    3    3    0    0  0.49633794868E+02 -0.17696371200E+02 -0.27842432294E+01  0.52767671514E+02  0.00000000000E+00 0.  1.
</event>
<event>
 7    1  0.5562528E-006  0.1144852E+03  0.7818608E-02  0.1439737E+00
          2   -1    0    0  502    0  0.00000000000E+00  0.00000000000E+00  0.11542482036E+04  0.11542482036E+04  0.00000000000E+00 0. -1.
          1   -1    0    0  501    0 -0.00000000000E+00 -0.00000000000E+00 -0.65512507452E+03  0.65512507452E+03  0.00000000000E+00 0. -1.
         25    2    1    2    0    0 -0.10890343119E+03  0.69792967733E+02 -0.49961929572E+02  0.18668681822E+03  0.12499903208E+03 0.  0.
          2    1    1    2  501    0  0.10265062948E+03 -0.47901108625E+02 -0.53070337304E+03  0.54265803053E+03  0.00000000000E+00 0. -1.
          1    1    1    2  502    0  0.62528017127E+01 -0.21891859108E+02  0.10797884317E+04  0.10800284293E+04  0.00000000000E+00 0. -1.
         22    1    3    3    0    0  0.89225888076E+01  0.55851759084E+02  0.32490394162E+01  0.56653224453E+02  0.00000000000E+00 0. -1.
         22    1    3    3    0    0 -0.11782602000E+03  0.13941208649E+02 -0.53210968988E+02  0.13003359377E+03  0.00000000000E+00 0. -1.
</event>
<event>
 7    1  0.5562528E-006  0.6102076E+02  0.7818608E-02  0.1531590E+00
          2   -1    0    0  502    0  0.00000000000E+00  0.00000000000E+00  0.72434757608E+03  0.72434757608E+03  0.00000000000E+00 0. -1.
          1   -1    0    0  501    0 -0.00000000000E+00 -0.00000000000E+00 -0.10644388691E+04  0.10644388691E+04  0.00000000000E+00 0. -1.
         25    2    1    2    0    0 -0.67870111960E+02  0.14418438482E+02 -0.65670624483E+02  0.15732885255E+03  0.12500197382E+03 0.  0.
          2    1    1    2  501    0  0.52556057280E+02 -0.30800697358E+02 -0.95177986156E+03  0.95372728125E+03  0.00000000000E+00 0. -1.
          1    1    1    2  502    0  0.15314054680E+02  0.16382258876E+02  0.67735919299E+03  0.67773031141E+03  0.00000000000E+00 0. -1.
         22    1    3    3    0    0 -0.77394962774E+02 -0.38097855722E+02 -0.56641839141E+02  0.10319750392E+03  0.00000000000E+00 0.  1.
         22    1    3    3    0    0  0.95248508142E+01  0.52516294204E+02 -0.90287853418E+01  0.54131348632E+02  0.00000000000E+00 0.  1.
</event>
<event>
 7    1  0.5562528E-006  0.5956907E+02  0.7818608E-02  0.1507517E+00
          2   -1    0    0  502    0  0.00000000000E+00  0.00000000000E+00  0.32118545273E+04  0.32118545273E+04  0.00000000000E+00 0. -1.
          1   -1    0    0  501    0 -0.00000000000E+00 -0.00000000000E+00 -0.19231951543E+03  0.19231951543E+03  0.00000000000E+00 0. -1.
         25    2    1    2    0    0  0.40022972783E+02 -0.15634972138E+02  0.54868543018E+02  0.14311741521E+03  0.12500298725E+03 0.  0.
          2    1    1    2  501    0  0.19607232708E+02  0.18542811830E+02 -0.14667775586E+03  0.14913967785E+03  0.00000000000E+00 0. -1.
          1    1    1    2  502    0 -0.59630205490E+02 -0.29078396928E+01  0.31113442248E+04  0.31119169497E+04  0.00000000000E+00 0. -1.
         22    1    3    3    0    0  0.35654149329E+02 -0.64509509651E+02  0.58229852338E+02  0.93933012850E+02  0.00000000000E+00 0. -1.
         22    1    3    3    0    0  0.43688234535E+01  0.48874537513E+02 -0.33613093199E+01  0.49184402363E+02  0.00000000000E+00 0. -1.
</event>
<event>
 7    1  0.5562528E-006  0.6387953E+02  0.7818608E-02  0.1398949E+00
          2   -1    0    0  502    0  0.00000000000E+00  0.00000000000E+00  0.27946304321E+04  0.27946304321E+04  0.00000000000E+00 0. -1.
          1   -1    0    0  501    0 -0.00000000000E+00 -0.00000000000E+00 -0.60752534554E+02  0.60752534554E+02  0.00000000000E+00 0. -1.
         25    2    1    2    0    0  0.20583601333E+02 -0.31503746383E+02  0.27724445562E+03  0.30644466325E+03  0.12501069067E+03 0.  0.
          2    1    1    2  501    0 -0.48752309100E+02 -0.27264999915E+02 -0.28665947931E+02  0.62784587549E+02  0.00000000000E+00 0. -1.
          1    1    1    2  502    0  0.28168707767E+02  0.58768746298E+02  0.24852993898E+04  0.24861537158E+04  0.00000000000E+00 0. -1.
         22    1    3    3    0    0 -0.16293477847E+02  0.38602987677E+02  0.47055046685E+02  0.63006709932E+02  0.00000000000E+00 0.  1.
         22    1    3    3    0    0  0.36877079180E+02 -0.70106734059E+02  0.23018940894E+03  0.24343795332E+03  0.00000000000E+00 0.  1.
</event>
<event>
 7    1  0.5562528E-006  0.6152285E+02  0.7818608E-02  0.1502673E+00
          2   -1    0    0  502    0  0.00000000000E+00  0.00000000000E+00  0.34008627584E+03  0.34008627584E+03  0.00000000000E+00 0. -1.
          1   -1    0    0  501    0 -0.00000000000E+00 -0.00000000000E+00 -0.54039367633E+03  0.54039367633E+03  0.00000000000E+00 0. -1.
         25    2    1    2    0    0  0.13397512961E+02  0.32381078468E+02  0.22978998404E+03  0.26392663382E+03  0.12500321467E+03 0.  0.
          2    1    1    2  501    0 -0.18334856468E+02 -0.58933646133E+02 -0.51950351618E+03  0.52315699836E+03  0.00000000000E+00 0. -1.
          1    1    1    2  502    0  0.49373435076E+01  0.26552567666E+02  0.89406131655E+02  0.93396319992E+02  0.00000000000E+00 0. -1.
         22    1    3    3    0    0  0.27736991316E+02  0.74001450270E+02  0.10375452327E+03  0.13042452388E+03  0.00000000000E+00 0. -1.
         22    1    3    3    0    0 -0.14339478355E+02 -0.41620371802E+02  0.12603546077E+03  0.13350210994E+03  0.00000000000E+00 0. -1.
</event>
<event>
 7    1  0.5562528E-006  0.1583834E+03  0.7818608E-02  0.1221849E+00
          2   -1    0    0  502    0  0.00000000000E+00  0.00000000000E+00  0.23529915908E+03  0.23529915908E+03  0.00000000000E+00 0. -1.
          1   -1    0    0  501    0 -0.00000000000E+00 -0.00000000000E+00 -0.64000042121E+03  0.64000042121E+03  0.00000000000E+00 0. -1.
         25    2    1    2    0    0  0.13387482058E+03 -0.20799294526E+03 -0.10667385164E+03  0.29696563311E+03  0.12500297499E+03 0.  0.
          2    1    1    2  501    0 -0.11039058356E+03  0.97336892216E+02 -0.39988767070E+03  0.42611113656E+03  0.00000000000E+00 0. -1.
          1    1    1    2  502    0 -0.23484237027E+02  0.11065605305E+03  0.10186026020E+03  0.15222281062E+03  0.00000000000E+00 0. -1.
         22    1    3    3    0    0  0.15772568275E+03 -0.18012467527E+03 -0.83432816852E+02  0.25354156379E+03  0.00000000000E+00 0. -1.
         22    1    3    3    0    0 -0.23850862163E+02 -0.27868269990E+02 -0.23241034789E+02  0.43424069319E+02  0.00000000000E+00 0. -1.
</event>
<event>
 7    1  0.5562528E-006  0.8884417E+02  0.7818608E-02  0.1338428E+00
          2   -1    0    0  502    0  0.00000000000E+00  0.00000000000E+00  0.30930507371E+03  0.30930507371E+03  0.00000000000E+00 0. -1.
          1   -1    0    0  501    0 -0.00000000000E+00 -0.00000000000E+00 -0.47271289870E+03  0.47271289870E+03  0.00000000000E+00 0. -1.
         25    2    1    2    0    0  0.12776406253E+02 -0.10553630789E+03  0.15231720659E+02  0.16479890689E+03  0.12500210221E+03 0.  0.
          2    1    1    2  501    0 -0.63380987133E+02  0.62601247272E+02 -0.38773880551E+03  0.39784098204E+03  0.00000000000E+00 0. -1.
          1    1    1    2  502    0  0.50604580880E+02  0.42935060617E+02  0.20909925986E+03  0.21937808348E+03  0.00000000000E+00 0. -1.
         22    1    3    3    0    0  0.37965189989E+02 -0.10606806395E+03 -0.26793486521E+02  0.11580017599E+03  0.00000000000E+00 0. -1.
         22    1    3    3    0    0 -0.25188783736E+02  0.53175605751E+00  0.42025207180E+02  0.48998730893E+02  0.00000000000E+00 0. -1.
</event>
<event>
 7    1  0.5562528E-006  0.6630478E+02  0.7818608E-02  0.1397391E+00
          2   -1    0    0  502    0  0.00000000000E+00  0.00000000000E+00  0.14965652633E+04  0.14965652633E+04  0.00000000000E+00 0. -1.
          1   -1    0    0  501    0 -0.00000000000E+00 -0.00000000000E+00 -0.17857808362E+03  0.17857808362E+03  0.00000000000E+00 0. -1.
         25    2    1    2    0    0 -0.55030035418E+01  0.16257832872E+02  0.19051127855E+03  0.22850374653E+03  0.12499925899E+03 0.  0.
          2    1    1    2  501    0  0.18186796796E+02  0.51360188201E+02 -0.15398145368E+03  0.16333681945E+03  0.00000000000E+00 0. -1.
          1    1    1    2  502    0 -0.12683793254E+02 -0.67618021072E+02  0.12814573548E+04  0.12833027809E+04  0.00000000000E+00 0. -1.
         22    1    3    3    0    0  0.20365192977E+02 -0.77492099787E+01 -0.10661957265E+02  0.24258373256E+02  0.00000000000E+00 0. -1.
         22    1    3    3    0    0 -0.25868196519E+02  0.24007042851E+02  0.20117323581E+03  0.20424537328E+03  0.00000000000E+00 0. -1.
</event>
<event>
 7    1  0.5562528E-006  0.3121006E+03  0.7818608E-02  0.1150701E+00
          2   -1    0    0  502    0  0.00000000000E+00  0.00000000000E+00  0.74726908635E+03  0.74726908635E+03  0.00000000000E+00 0. -1.
          1   -1    0    0  501    0 -0.00000000000E+00 -0.00000000000E+00 -0.32050424319E+04  0.32050424319E+04  0.00000000000E+00 0. -1.
         25    2    1    2    0    0  0.18821049959E+03  0.34113959316E+03 -0.45347095498E+03  0.61078601223E+03  0.12499692617E+03 0.  0.
          2    1    1    2  501    0  0.29311149632E+02 -0.12327488843E+03 -0.26358717795E+04  0.26389156636E+04  0.00000000000E+00 0. -1.
          1    1    1    2  502    0 -0.21752164922E+03 -0.21786470473E+03  0.63156938900E+03  0.70260984235E+03  0.00000000000E+00 0. -1.
         22    1    3    3    0    0  0.91979196248E+02  0.22056326763E+03 -0.18928579719E+03  0.30485642618E+03  0.00000000000E+00 0. -1.
         22    1    3    3    0    0  0.96231303344E+02  0.12057632553E+03 -0.26418515779E+03  0.30592958605E+03  0.00000000000E+00 0. -1.
</event>
<event>
 7    1  0.5562528E-006  0.8057306E+02  0.7818608E-02  0.1336685E+00
          2   -1    0    0  502    0  0.00000000000E+00  0.00000000000E+00  0.21241829423E+04  0.21241829423E+04  0.00000000000E+00 0. -1.
          1   -1    0    0  501    0 -0.00000000000E+00 -0.00000000000E+00 -0.35760540727E+03  0.35760540727E+03  0.00000000000E+00 0. -1.
         25    2    1    2    0    0 -0.27610389318E+02  0.74612821198E+02  0.85784839639E+02  0.17121136307E+03  0.12499954179E+03 0.  0.
          2    1    1    2  501    0  0.73880068168E+02 -0.78345816896E+01 -0.30966977701E+03  0.31845724349E+03  0.00000000000E+00 0. -1.
          1    1    1    2  502    0 -0.46269678850E+02 -0.66778239508E+02  0.19904624724E+04  0.19921197430E+04  0.00000000000E+00 0. -1.
         22    1    3    3    0    0 -0.13626250740E+02  0.41166202453E+02 -0.28116199636E+02  0.51680282658E+02  0.00000000000E+00 0. -1.
         22    1    3    3    0    0 -0.13984138578E+02  0.33446618745E+02  0.11390103927E+03  0.11953108041E+03  0.00000000000E+00 0. -1.
</event>
<event>
 7    1  0.5562528E-006  0.1235191E+03  0.7818608E-02  0.1381231E+00
          2   -1    0    0  502    0  0.00000000000E+00  0.00000000000E+00  0.42793062510E+02  0.42793062510E+02  0.00000000000E+00 0. -1.
          1   -1    0    0  501    0 -0.00000000000E+00 -0.00000000000E+00 -0.22273213546E+04  0.22273213546E+04  0.00000000000E+00 0. -1.
         25    2    1    2    0    0  0.67439975340E+02 -0.66804577290E+02 -0.25432480703E+03  0.29885669744E+03  0.12499286504E+03 0.  0.
          2    1    1    2  501    0 -0.98446644002E+02  0.78969048420E+02 -0.19336574338E+04  0.19377716387E+04  0.00000000000E+00 0. -1.
          1    1    1    2  502    0  0.31006668662E+02 -0.12164471130E+02  0.34539487415E+01  0.33486081008E+02  0.00000000000E+00 0. -1.
         22    1    3    3    0    0  0.40765922342E+02 -0.44454257797E+01 -0.60099232305E+01  0.41445644066E+02  0.00000000000E+00 0. -1.
         22    1    3    3    0    0  0.26674052998E+02 -0.62359151511E+02 -0.24831488380E+03  0.25741105337E+03  0.00000000000E+00 0. -1.
</event>
<event>
 7    1  0.5562528E-006  0.1762402E+03  0.7818608E-02  0.1349024E+00
          2   -1    0    0  502    0  0.00000000000E+00  0.00000000000E+00  0.19947046765E+04  0.19947046765E+04  0.00000000000E+00 0. -1.
          1   -1    0    0  501    0 -0.00000000000E+00 -0.00000000000E+00 -0.54532391168E+03  0.54532391168E+03  0.00000000000E+00 0. -1.
         25    2    1    2    0    0 -0.30220833956E+02 -0.15775972837E+03  0.57380150235E+00  0.20353478913E+03  0.12499860175E+03 0.  0.
          2    1    1    2  501    0  0.58421734364E+02  0.16947276733E+03 -0.42561406534E+03  0.46182404715E+03  0.00000000000E+00 0. -1.
          1    1    1    2  502    0 -0.28200900408E+02 -0.11713038958E+02  0.18744210286E+04  0.18746697519E+04  0.00000000000E+00 0. -1.
         22    1    3    3    0    0  0.45688620252E+02 -0.70488967482E+02  0.19748401792E+02  0.86291042007E+02  0.00000000000E+00 0. -1.
         22    1    3    3    0    0 -0.75909454208E+02 -0.87270760886E+02 -0.19174600289E+02  0.11724374713E+03  0.00000000000E+00 0. -1.
</event>
<event>
 7    1  0.5562528E-006  0.4032199E+02  0.7818608E-02  0.1579255E+00
          2   -1    0    0  502    0  0.00000000000E+00  0.00000000000E+00  0.12182414237E+04  0.12182414237E+04  0.00000000000E+00 0. -1.
          1   -1    0    0  501    0 -0.00000000000E+00 -0.00000000000E+00 -0.46709517741E+03  0.46709517741E+03  0.00000000000E+00 0. -1.
         25    2    1    2    0    0 -0.22984709239E+02  0.50345200496E+02  0.46873104277E+03  0.48826008473E+03  0.12500473517E+03 0.  0.
          2    1    1    2  501    0  0.30422648925E+02 -0.26435195315E+02 -0.45623013310E+03  0.45800686837E+03  0.00000000000E+00 0. -1.
          1    1    1    2  502    0 -0.74379396860E+01 -0.23910005181E+02  0.73864533659E+03  0.73906964798E+03  0.00000000000E+00 0. -1.
         22    1    3    3    0    0  0.17270525986E+02  0.31438246539E+02  0.42282434434E+03  0.42434309300E+03  0.00000000000E+00 0.  1.
         22    1    3    3    0    0 -0.40255235225E+02  0.18906953958E+02  0.45906698433E+02  0.63916991732E+02  0.00000000000E+00 0.  1.
</event>
<event>
 7    1  0.5562528E-006  0.1014811E+03  0.7818608E-02  0.1372894E+00
          2   -1    0    0  502    0  0.00000000000E+00  0.00000000000E+00  0.15437437808E+04  0.15437437808E+04  0.00000000000E+00 0. -1.
          1   -1    0    0  501    0 -0.00000000000E+00 -0.00000000000E+00 -0.12355187015E+04  0.12355187015E+04  0.00000000000E+00 0. -1.
         25    2    1    2    0    0 -0.12849697688E+03  0.33157777761E+02  0.53773607963E+03  0.56779911834E+03  0.12499934462E+03 0.  0.
          2    1    1    2  501    0  0.42052145233E+02  0.10755071278E+02 -0.12177279188E+04  0.12185012674E+04  0.00000000000E+00 0. -1.
          1    1    1    2  502    0  0.86444831645E+02 -0.43912849039E+02  0.98821691849E+03  0.99296209657E+03  0.00000000000E+00 0. -1.
         22    1    3    3    0    0  0.17486511829E+02  0.18872132477E+02  0.31130820308E+02  0.40386426596E+02  0.00000000000E+00 0.  1.
         22    1    3    3    0    0 -0.14598348871E+03  0.14285645284E+02  0.50660525932E+03  0.52741269174E+03  0.00000000000E+00 0.  1.
</event>
<event>
 7    1  0.5562528E-006  0.6707722E+02  0.7818608E-02  0.1451486E+00
          2   -1    0    0  502    0  0.00000000000E+00  0.00000000000E+00  0.27536481425E+04  0.27536481425E+04  0.00000000000E+00 0. -1.
          1   -1    0    0  501    0 -0.00000000000E+00 -0.00000000000E+00 -0.93990759835E+02  0.93990759835E+02  0.00000000000E+00 0. -1.
         25    2    1    2    0    0  0.56508341325E+02  0.29948045661E+02  0.52652892401E+03  0.54493124675E+03  0.12500911082E+03 0.  0.
          2    1    1    2  501    0  0.11130056116E+02 -0.33833752354E+02 -0.80507894738E+02  0.88034777575E+02  0.00000000000E+00 0. -1.
          1    1    1    2  502    0 -0.67638397441E+02  0.38857066930E+01  0.22136363534E+04  0.22146728780E+04  0.00000000000E+00 0. -1.
         22    1    3    3    0    0  0.93794207643E+02  0.12113975679E+02  0.29646573935E+03  0.31118489103E+03  0.00000000000E+00 0. -1.
         22    1    3    3    0    0 -0.37285866319E+02  0.17834069982E+02  0.23006318466E+03  0.23374635572E+03  0.00000000000E+00 0. -1.
</event>
<event>
 7    1  0.5562528E-006  0.6735836E+02  0.7818608E-02  0.1390944E+00
          2   -1    0    0  502    0  0.00000000000E+00  0.00000000000E+00  0.34735541709E+04  0.34735541709E+04  0.00000000000E+00 0. -1.
          1   -1    0    0  501    0 -0.00000000000E+00 -0.00000000000E+00 -0.25371671439E+03  0.25371671439E+03  0.00000000000E+00 0. -1.
         25    2    1    2    0    0  0.63018289722E+01  0.10547298444E+02  0.33889079633E+03  0.36141905741E+03  0.12500321865E+03 0.  0.
          2    1    1    2  501    0 -0.50330926474E+02 -0.45901743256E+02 -0.23740731364E+03  0.24698664896E+03  0.00000000000E+00 0. -1.
          1    1    1    2  502    0  0.44029097502E+02  0.35354444812E+02  0.31183539738E+04  0.31188651789E+04  0.00000000000E+00 0. -1.
         22    1    3    3    0    0  0.33911722175E+02 -0.48875462699E+02  0.14381046006E+03  0.15562860976E+03  0.00000000000E+00 0.  1.
         22    1    3    3    0    0 -0.27609893203E+02  0.59422761143E+02  0.19508033627E+03  0.20579044765E+03  0.00000000000E+00 0.  1.
</event>
<event>
 7    1  0.5562528E-006  0.5943208E+02  0.7818608E-02  0.1402256E+00
          2   -1    0    0  502    0  0.00000000000E+00  0.00000000000E+00  0.70186485145E+03  0.70186485145E+03  0.00000000000E+00 0. -1.
          1   -1    0    0  501    0 -0.00000000000E+00 -0.00000000000E+00 -0.46627054420E+02  0.46627054420E+02  0.00000000000E+00 0. -1.
         25    2    1    2    0    0 -0.18427072989E+02 -0.89450684692E+01  0.15243002244E+03  0.19819253136E+03  0.12500318587E+03 0.  0.
          2    1    1    2  501    0 -0.26564207864E+02  0.53164976039E+02  0.18998776320E+02  0.62394914203E+02  0.00000000000E+00 0. -1.
          1    1    1    2  502    0  0.44991280853E+02 -0.44219907570E+02  0.48380899827E+03  0.48790446030E+03  0.00000000000E+00 0. -1.
         22    1    3    3    0    0 -0.18175465362E+02  0.48324184032E+02  0.22729929939E+02  0.56411204725E+02  0.00000000000E+00 0. -1.
         22    1    3    3    0    0 -0.25160762673E+00 -0.57269252501E+02  0.12970009250E+03  0.14178132664E+03  0.00000000000E+00 0. -1.
</event>
<event>
 7    1  0.5562528E-006  0.8094848E+02  0.7818608E-02  0.1375496E+00
          2   -1    0    0  502    0  0.00000000000E+00  0.00000000000E+00  0.78616898382E+02  0.78616898382E+02  0.00000000000E+00 0. -1.
          1   -1    0    0  501    0 -0.00000000000E+00 -0.00000000000E+00 -0.34774598183E+03  0.34774598183E+03  0.00000000000E+00 0. -1.
         25    2    1    2    0    0  0.34742688036E+02  0.25855654370E+02 -0.11300232274E+03  0.17398101808E+03  0.12499720186E+03 0.  0.
          2    1    1    2  501    0 -0.77068452156E+02 -0.58189971675E+02 -0.17160872485E+03  0.19691412739E+03  0.00000000000E+00 0. -1.
          1    1    1    2  502    0  0.42325764121E+02  0.32334317305E+02  0.15481964141E+02  0.55467734744E+02  0.00000000000E+00 0. -1.
         22    1    3    3    0    0  0.37605509933E+02  0.66840749869E+02 -0.10818919487E+03  0.13261509004E+03  0.00000000000E+00 0.  1.
         22    1    3    3    0    0 -0.28628218970E+01 -0.40985095498E+02 -0.48131278675E+01  0.41365928034E+02  0.00000000000E+00 0.  1.
</event>
<event>
 7    1  0.5562528E-006  0.1033084E+03  0.7818608E-02  0.1360226E+00
          2   -1    0    0  502    0  0.00000000000E+00  0.00000000000E+00  0.11182140094E+03  0.11182140094E+03  0.00000000000E+00 0. -1.
          1   -1    0    0  501    0 -0.00000000000E+00 -0.00000000000E+00 -0.23836978899E+03  0.23836978899E+03  0.00000000000E+00 0. -1.
         25    2    1    2    0    0 -0.84632144691E+02 -0.18376410199E+02 -0.77565817323E+02  0.17071111026E+03  0.12500213912E+03 0.  0.
          2    1    1    2  501    0  0.11863032181E+03 -0.14620323282E+02 -0.55268264364E+02  0.13168708423E+03  0.00000000000E+00 0. -1.
          1    1    1    2  502    0 -0.33998177123E+02  0.32996733481E+02  0.62856936334E+01  0.47792995434E+02  0.00000000000E+00 0. -1.
         22    1    3    3    0    0 -0.41826760043E+02 -0.64983229206E+02 -0.74519609689E+02  0.10735674251E+03  0.00000000000E+00 0. -1.
         22    1    3    3    0    0 -0.42805384649E+02  0.46606819007E+02 -0.30462076342E+01  0.63354367757E+02  0.00000000000E+00 0. -1.
</event>
<event>
 7    1  0.5562528E-006  0.1015696E+03  0.7818608E-02  0.1290887E+00
          2   -1    0    0  502    0  0.00000000000E+00  0.00000000000E+00  0.40000838943E+02  0.40000838943E+02  0.00000000000E+00 0. -1.
          1   -1    0    0  501    0 -0.00000000000E+00 -0.00000000000E+00 -0.14060662345E+04  0.14060662345E+04  0.00000000000E+00 0. -1.
         25    2    1    2    0    0  0.75380984778E+02  0.11756185291E+03 -0.61920474877E+03  0.64694886362E+03  0.12500091646E+03 0.  0.
          2    1    1    2  501    0 -0.87111049855E+02 -0.18700493265E+02 -0.66297201803E+03  0.66893193985E+03  0.00000000000E+00 0. -1.
          1    1    1    2  502    0  0.11730065077E+02 -0.98861359650E+02 -0.83888628795E+02  0.13018627001E+03  0.00000000000E+00 0. -1.
         22    1    3    3    0    0  0.68126168914E+02  0.75133990951E+02 -0.57976309594E+03  0.58856736140E+03  0.00000000000E+00 0.  1.
         22    1    3    3    0    0  0.72548158642E+01  0.42427861963E+02 -0.39441652822E+02  0.58381502219E+02  0.00000000000E+00 0.  1.
</event>
<event>
 7    1  0.5562528E-006  0.4350004E+02  0.7818608E-02  0.1508199E+00
          2   -1    0    0  502    0  0.00000000000E+00  0.00000000000E+00  0.11883554954E+04  0.11883554954E+04  0.00000000000E+00 0. -1.
          1   -1    0    0  501    0 -0.00000000000E+00 -0.00000000000E+00 -0.22998620111E+02  0.22998620111E+02  0.00000000000E+00 0. -1.
         25    2    1    2    0    0 -0.69886250955E+02 -0.80500476304E+01  0.52910566857E+03  0.54820279696E+03  0.12499842694E+03 0.  0.
          2    1    1    2  501    0  0.39988259822E+02 -0.13379546650E+02  0.21557954852E+02  0.47358405901E+02  0.00000000000E+00 0. -1.
          1    1    1    2  502    0  0.29897991133E+02  0.21429594280E+02  0.61469325182E+03  0.61579291261E+03  0.00000000000E+00 0. -1.
         22    1    3    3    0    0 -0.41607262306E+02  0.46644358687E+02  0.12852821040E+03  0.14292082193E+03  0.00000000000E+00 0.  1.
         22    1    3    3    0    0 -0.28278988649E+02 -0.54694406318E+02  0.40057745818E+03  0.40528197502E+03  0.00000000000E+00 0.  1.
</event>
<event>
 7    1  0.5562528E-006  0.1449866E+03  0.7818608E-02  0.1299925E+00
          2   -1    0    0  502    0  0.00000000000E+00  0.00000000000E+00  0.52053380734E+03  0.52053380734E+03  0.00000000000E+00 0. -1.
          1   -1    0    0  501    0 -0.00000000000E+00 -0.00000000000E+00 -0.66373872985E+03  0.66373872985E+03  0.00000000000E+00 0. -1.
         25    2    1    2    0    0 -0.27987736763E+02  0.16877964250E+03 -0.13983344746E+03  0.25386400664E+03  0.12499463871E+03 0.  0.
          2    1    1    2  501    0  0.65463773665E+02 -0.12531306605E+03 -0.45432626855E+03  0.47581638105E+03  0.00000000000E+00 0. -1.
          1    1    1    2  502    0 -0.37476036902E+02 -0.43466576458E+02  0.45095479349E+03  0.45459214950E+03  0.00000000000E+00 0. -1.
         22    1    3    3    0    0 -0.10926070858E+02  0.18423434033E+03 -0.13860713492E+03  0.23081076455E+03  0.00000000000E+00 0.  1.
         22    1    3    3    0    0 -0.17061665905E+02 -0.15454697830E+02 -0.12263125413E+01  0.23053242091E+02  0.00000000000E+00 0.  1.
</event>
<event>
 7    1  0.5562528E-006  0.1234460E+03  0.7818608E-02  0.1303559E+00
          2   -1    0    0  502    0  0.00000000000E+00  0.00000000000E+00  0.11026716239E+04  0.11026716239E+04  0.00000000000E+00 0. -1.
          1   -1    0    0  501    0 -0.00000000000E+00 -0.00000000000E+00 -0.57169792274E+03  0.57169792274E+03  0.00000000000E+00 0. -1.
         25    2    1    2    0    0  0.36716865595E+02  0.10153993280E+03 -0.10458771856E+03  0.19550431328E+03  0.12499943785E+03 0.  0.
          2    1    1    2  501    0  0.60513049322E+02 -0.24250674378E+02 -0.41545316203E+03  0.42053686425E+03  0.00000000000E+00 0. -1.
          1    1    1    2  502    0 -0.97229914917E+02 -0.77289258426E+02  0.10510145817E+04  0.10583283691E+04  0.00000000000E+00 0. -1.
         22    1    3    3    0    0  0.63230852895E+02  0.11662945018E+03 -0.72320591417E+02  0.15109876687E+03  0.00000000000E+00 0. -1.
         22    1    3    3    0    0 -0.26513987300E+02 -0.15089517380E+02 -0.32267127147E+02  0.44405546406E+02  0.00000000000E+00 0. -1.
</event>
<event>
 7    1  0.5562528E-006  0.2421521E+03  0.7818608E-02  0.1259918E+00
          2   -1    0    0  502    0  0.00000000000E+00  0.00000000000E+00  0.53879440529E+03  0.53879440529E+03  0.00000000000E+00 0. -1.
          1   -1    0    0  501    0 -0.00000000000E+00 -0.00000000000E+00 -0.23343095567E+03  0.23343095567E+03  0.00000000000E+00 0. -1.
         25    2    1    2    0    0 -0.20191150829E+03 -0.14573029268E+03  0.11828849920E+03  0.30269362401E+03  0.12500274233E+03 0.  0.
          2    1    1    2  501    0  0.21930474333E+03  0.98544110596E+02 -0.33990220164E+02  0.24281854799E+03  0.00000000000E+00 0. -1.
          1    1    1    2  502    0 -0.17393235038E+02  0.47186182080E+02  0.22106517058E+03  0.22671318896E+03  0.00000000000E+00 0. -1.
         22    1    3    3    0    0 -0.16986597310E+03 -0.10496349692E+03  0.32292279080E+02  0.20227351728E+03  0.00000000000E+00 0. -1.
         22    1    3    3    0    0 -0.32045535196E+02 -0.40766795752E+02  0.85996220122E+02  0.10042010674E+03  0.00000000000E+00 0. -1.
</event>
<event>
 7    1  0.6070083E-006  0.4699841E+02  0.7818608E-02  0.1485811E+00
          2   -1    0    0  502    0  0.00000000000E+00  0.00000000000E+00  0.12243374773E+04  0.12243374773E+04  0.00000000000E+00 0. -1.
          1   -1    0    0  501    0 -0.00000000000E+00 -0.00000000000E+00 -0.11807589057E+04  0.11807589057E+04  0.00000000000E+00 0. -1.
         25    2    1    2    0    0 -0.25943202497E+02 -0.82083088706E+02 -0.97114349567E+03  0.98293297003E+03  0.12500740445E+03 0.  0.
          2    1    1    2  501    0  0.16824223220E+02  0.35996080435E+02 -0.20132533730E+03  0.20520882957E+03  0.00000000000E+00 0. -1.
          1    1    1    2  502    0  0.91189792779E+01  0.46087008271E+02  0.12160474046E+04  0.12169545835E+04  0.00000000000E+00 0. -1.
         22    1    3    3    0    0 -0.99593738101E+01 -0.66495860035E+02 -0.94936848846E+03  0.95174650796E+03  0.00000000000E+00 0.  1.
         22    1    3    3    0    0 -0.15983828687E+02 -0.15587228671E+02 -0.21775007214E+02  0.31186462068E+02  0.00000000000E+00 0.  1.
</event>
<event>
 7    1  0.1237751E-005  0.5074702E+02  0.7818608E-02  0.1536591E+00
          2   -1    0    0  502    0  0.00000000000E+00  0.00000000000E+00  0.16791585914E+04  0.16791585914E+04  0.00000000000E+00 0. -1.
          1   -1    0    0  501    0 -0.00000000000E+00 -0.00000000000E+00 -0.14001426782E+04  0.14001426782E+04  0.00000000000E+00 0. -1.
         25    2    1    2    0    0 -0.34732548207E+02  0.37793519349E+02 -0.64808602351E+03  0.66202208979E+03  0.12499221374E+03 0.  0.
          2    1    1    2  501    0 -0.13588199912E+02 -0.22278019052E+02 -0.74447490390E+03  0.74493209882E+03  0.00000000000E+00 0. -1.
          1    1    1    2  502    0  0.48320748119E+02 -0.15515500297E+02  0.16715768406E+04  0.16723470810E+04  0.00000000000E+00 0. -1.
         22    1    3    3    0    0  0.98068931191E+01  0.69271777260E+02 -0.23033820756E+03  0.24072898484E+03  0.00000000000E+00 0. -1.
         22    1    3    3    0    0 -0.44539441326E+02 -0.31478257912E+02 -0.41774781594E+03  0.42129310495E+03  0.00000000000E+00 0. -1.
</event>
<event>
 7    1  0.5562528E-006  0.6992211E+02  0.7818608E-02  0.1439652E+00
          2   -1    0    0  502    0  0.00000000000E+00  0.00000000000E+00  0.11543143669E+03  0.11543143669E+03  0.00000000000E+00 0. -1.
          1   -1    0    0  501    0 -0.00000000000E+00 -0.00000000000E+00 -0.38872267111E+03  0.38872267111E+03  0.00000000000E+00 0. -1.
         25    2    1    2    0    0  0.12928291378E+02 -0.57225404561E+02 -0.19086237377E+03  0.23556622489E+03  0.12498445080E+03 0.  0.
          2    1    1    2  501    0 -0.35888646778E+02 -0.10168173036E+02 -0.15941820750E+03  0.16372401044E+03  0.00000000000E+00 0. -1.
          1    1    1    2  502    0  0.22960355400E+02  0.67393577597E+02  0.76989346852E+02  0.10486387247E+03  0.00000000000E+00 0. -1.
         22    1    3    3    0    0  0.49935904275E+02 -0.68903132131E+02 -0.17310494074E+03  0.19289001183E+03  0.00000000000E+00 0.  1.
         22    1    3    3    0    0 -0.37007612898E+02  0.11677727570E+02 -0.17757433033E+02  0.42676213064E+02  0.00000000000E+00 0.  1.
</event>
<event>
 7    1  0.5562528E-006  0.4942259E+02  0.7818608E-02  0.1473006E+00
          2   -1    0    0  502    0  0.00000000000E+00  0.00000000000E+00  0.71180981658E+03  0.71180981658E+03  0.00000000000E+00 0. -1.
          1   -1    0    0  501    0 -0.00000000000E+00 -0.00000000000E+00 -0.17604212478E+03  0.17604212478E+03  0.00000000000E+00 0. -1.
         25    2    1    2    0    0 -0.85336975380E+01 -0.61763341063E+02  0.17570788549E+03  0.22446898843E+03  0.12500212579E+03 0.  0.
          2    1    1    2  501    0  0.35921222500E+02  0.20511862875E+02 -0.14761395941E+03  0.15330020142E+03  0.00000000000E+00 0. -1.
          1    1    1    2  502    0 -0.27387524961E+02  0.41251478189E+02  0.50767376572E+03  0.51008275150E+03  0.00000000000E+00 0. -1.
         22    1    3    3    0    0  0.48578812950E+02 -0.63873771767E+02  0.12210053467E+03  0.14611057577E+03  0.00000000000E+00 0.  1.
         22    1    3    3    0    0 -0.57112510488E+02  0.21104307034E+01  0.53607350821E+02  0.78358412656E+02  0.00000000000E+00 0.  1.
</event>
<event>
 7    1  0.1570268E-005  0.1164871E+03  0.7818608E-02  0.1328348E+00
          2   -1    0    0  502    0  0.00000000000E+00  0.00000000000E+00  0.17255677190E+04  0.17255677190E+04  0.00000000000E+00 0. -1.
          1   -1    0    0  501    0 -0.00000000000E+00 -0.00000000000E+00 -0.82961614477E+03  0.82961614477E+03  0.00000000000E+00 0. -1.
         25    2    1    2    0    0  0.62208904273E+02 -0.14960823179E+01 -0.27593627723E+03  0.30925232031E+03  0.12499592990E+03 0.  0.
          2    1    1    2  501    0  0.53764586422E+02 -0.12870305196E+02 -0.53359426803E+03  0.53645048083E+03  0.00000000000E+00 0. -1.
          1    1    1    2  502    0 -0.11597349069E+03  0.14366387514E+02  0.17054821195E+04  0.17094810627E+04  0.00000000000E+00 0. -1.
         22    1    3    3    0    0  0.60853936675E+02  0.32331461387E+02 -0.62131758203E+02  0.92784052410E+02  0.00000000000E+00 0.  1.
         22    1    3    3    0    0  0.13549675977E+01 -0.33827543705E+02 -0.21380451902E+03  0.21646826790E+03  0.00000000000E+00 0.  1.
</event>
<event>
 7    1  0.5562528E-006  0.6059970E+02  0.7818608E-02  0.1520855E+00
          2   -1    0    0  502    0  0.00000000000E+00  0.00000000000E+00  0.43504907096E+03  0.43504907096E+03  0.00000000000E+00 0. -1.
          1   -1    0    0  501    0 -0.00000000000E+00 -0.00000000000E+00 -0.21921390505E+03  0.21921390505E+03  0.00000000000E+00 0. -1.
         25    2    1    2    0    0  0.45922217451E+02  0.51402853669E+02  0.62257977193E+02  0.15573263431E+03  0.12500197696E+03 0.  0.
          2    1    1    2  501    0 -0.23781648562E+02  0.47285214440E+01 -0.16881123143E+03  0.17054371164E+03  0.00000000000E+00 0. -1.
          1    1    1    2  502    0 -0.22140568889E+02 -0.56131375113E+02  0.32238842014E+03  0.32798663007E+03  0.00000000000E+00 0. -1.
         22    1    3    3    0    0  0.63502249281E+02  0.24611325326E+02  0.90332750871E+02  0.11312938998E+03  0.00000000000E+00 0. -1.
         22    1    3    3    0    0 -0.17580031830E+02  0.26791528343E+02 -0.28074773678E+02  0.42603244327E+02  0.00000000000E+00 0. -1.
</event>
<event>
 7    1  0.5562528E-006  0.6636519E+02  0.7818608E-02  0.1448834E+00
          2   -1    0    0  502    0  0.00000000000E+00  0.00000000000E+00  0.50411677641E+03  0.50411677641E+03  0.00000000000E+00 0. -1.
          1   -1    0    0  501    0 -0.00000000000E+00 -0.00000000000E+00 -0.12110577864E+03  0.12110577864E+03  0.00000000000E+00 0. -1.
         25    2    1    2    0    0  0.76405162634E+02 -0.41555074498E+02  0.22401383563E+03  0.27087022238E+03  0.12499562282E+03 0.  0.
          2    1    1    2  501    0 -0.65397584920E+02  0.65348006003E+01 -0.85091895522E+02  0.10751827015E+03  0.00000000000E+00 0. -1.
          1    1    1    2  502    0 -0.11007577713E+02  0.35020273898E+02  0.24408905766E+03  0.24683406252E+03  0.00000000000E+00 0. -1.
         22    1    3    3    0    0 -0.25646208952E+01 -0.60290632538E+02  0.48218026937E+02  0.77243224776E+02  0.00000000000E+00 0.  1.
         22    1    3    3    0    0  0.78969783529E+02  0.18735558039E+02  0.17579580869E+03  0.19362699760E+03  0.00000000000E+00 0.  1.
</event>
<event>
 7    1  0.5562528E-006  0.1943756E+03  0.7818608E-02  0.1192225E+00
          2   -1    0    0  502    0  0.00000000000E+00  0.00000000000E+00  0.51981588487E+03  0.51981588487E+03  0.00000000000E+00 0. -1.
          1   -1    0    0  501    0 -0.00000000000E+00 -0.00000000000E+00 -0.89681598445E+03  0.89681598445E+03  0.00000000000E+00 0. -1.
         25    2    1    2    0    0 -0.11900476600E+03 -0.89706115155E+02  0.16803748593E+03  0.25704323643E+03  0.12500122915E+03 0.  0.
          2    1    1    2  501    0 -0.20568382368E+02 -0.12499158138E+03 -0.79304680067E+03  0.80309973342E+03  0.00000000000E+00 0. -1.
          1    1    1    2  502    0  0.13957314837E+03  0.21469769653E+03  0.24800921516E+03  0.35648889947E+03  0.00000000000E+00 0. -1.
         22    1    3    3    0    0 -0.41334042704E+02 -0.10719489178E+03  0.10039750921E+03  0.15257426967E+03  0.00000000000E+00 0. -1.
         22    1    3    3    0    0 -0.77670723298E+02  0.17488776622E+02  0.67639976726E+02  0.10446896676E+03  0.00000000000E+00 0. -1.
</event>
<event>
 7    1  0.5562528E-006  0.3317176E+03  0.7818608E-02  0.1161922E+00
          2   -1    0    0  502    0  0.00000000000E+00  0.00000000000E+00  0.78567712336E+03  0.78567712336E+03  0.00000000000E+00 0. -1.
          1   -1    0    0  501    0 -0.00000000000E+00 -0.00000000000E+00 -0.10608332431E+04  0.10608332431E+04  0.00000000000E+00 0. -1.
         25    2    1    2    0    0 -0.13634824605E+03 -0.24506383249E+03 -0.32439212923E+03  0.44665786156E+03  0.12500346231E+03 0.  0.
          2    1    1    2  501    0 -0.10425631899E+03  0.75868712159E+01 -0.63134162606E+03  0.63993686365E+03  0.00000000000E+00 0. -1.
          1    1    1    2  502    0  0.24060456504E+03  0.23747696127E+03  0.68057763554E+03  0.75991564127E+03  0.00000000000E+00 0. -1.
         22    1    3    3    0    0 -0.42756426518E+02 -0.28590197586E+01 -0.22295457807E+02  0.48305004310E+02  0.00000000000E+00 0. -1.
         22    1    3    3    0    0 -0.93591819533E+02 -0.24220481273E+03 -0.30209667142E+03  0.39835285725E+03  0.00000000000E+00 0. -1.
</event>
<event>
 7    1  0.5562528E-006  0.4230316E+02  0.7818608E-02  0.1563735E+00
          2   -1    0    0  502    0  0.00000000000E+00  0.00000000000E+00  0.34789612590E+03  0.34789612590E+03  0.00000000000E+00 0. -1.
          1   -1    0    0  501    0 -0.00000000000E+00 -0.00000000000E+00 -0.21828350798E+03  0.21828350798E+03  0.00000000000E+00 0. -1.
         25    2    1    2    0    0  0.23397675063E+02 -0.40084182148E+02  0.10110863953E+02  0.13372192828E+03  0.12500052671E+03 0.  0.
          2    1    1    2  501    0 -0.26201841217E+02 -0.22226623034E+01 -0.15372644404E+03  0.15595927772E+03  0.00000000000E+00 0. -1.
          1    1    1    2  502    0  0.28041661540E+01  0.42306844452E+02  0.27322819800E+03  0.27649842788E+03  0.00000000000E+00 0. -1.
         22    1    3    3    0    0  0.64063361309E+02  0.82411764076E+01 -0.14046244788E+02  0.66100894423E+02  0.00000000000E+00 0. -1.
         22    1    3    3    0    0 -0.40665686246E+02 -0.48325358556E+02  0.24157108742E+02  0.67621033859E+02  0.00000000000E+00 0. -1.
</event>
<event>
 7    1  0.5562528E-006  0.4666521E+02  0.7818608E-02  0.1563587E+00
          2   -1    0    0  502    0  0.00000000000E+00  0.00000000000E+00  0.15157698031E+04  0.15157698031E+04  0.00000000000E+00 0. -1.
          1   -1    0    0  501    0 -0.00000000000E+00 -0.00000000000E+00 -0.30189730066E+02  0.30189730066E+02  0.00000000000E+00 0. -1.
         25    2    1    2    0    0  0.13306568712E+02 -0.29862373074E+02  0.32249676046E+03  0.34741851399E+03  0.12500654888E+03 0.  0.
          2    1    1    2  501    0  0.23854325234E+02  0.53227159239E+00 -0.90005975175E+01  0.25501429393E+02  0.00000000000E+00 0. -1.
          1    1    1    2  502    0 -0.37160893946E+02  0.29330101481E+02  0.11720839101E+04  0.11730395897E+04  0.00000000000E+00 0. -1.
         22    1    3    3    0    0  0.33200870551E+01 -0.67176936950E+02  0.28760631596E+03  0.29536614027E+03  0.00000000000E+00 0.  1.
         22    1    3    3    0    0  0.99864816570E+01  0.37314563876E+02  0.34890444497E+02  0.52052373725E+02  0.00000000000E+00 0.  1.
</event>
<event>
 7    1  0.5562528E-006  0.9614659E+02  0.7818608E-02  0.1322290E+00
          2   -1    0    0  502    0  0.00000000000E+00  0.00000000000E+00  0.22349337538E+04  0.22349337538E+04  0.00000000000E+00 0. -1.
          1   -1    0    0  501    0 -0.00000000000E+00 -0.00000000000E+00 -0.12853561987E+03  0.12853561987E+03  0.00000000000E+00 0. -1.
         25    2    1    2    0    0 -0.58697122403E+02 -0.12320289933E+03  0.51064908535E+03  0.54314644642E+03  0.12498506836E+03 0.  0.
          2    1    1    2  501    0  0.64342266522E+02  0.29234613240E+02 -0.99730271573E+02  0.12223222546E+03  0.00000000000E+00 0. -1.
          1    1    1    2  502    0 -0.56451441190E+01  0.93968286089E+02  0.16954793201E+04  0.16980907018E+04  0.00000000000E+00 0. -1.
         22    1    3    3    0    0 -0.19009056437E+02  0.35430142211E+01  0.44879820659E+01  0.19850419629E+02  0.00000000000E+00 0. -1.
         22    1    3    3    0    0 -0.39688065965E+02 -0.12674591355E+03  0.50616110328E+03  0.52329602679E+03  0.00000000000E+00 0. -1.
</event>
<event>
 7    1  0.5562528E-006  0.6391320E+02  0.7818608E-02  0.1390551E+00
          2   -1    0    0  502    0  0.00000000000E+00  0.00000000000E+00  0.53438653681E+02  0.53438653681E+02  0.00000000000E+00 0. -1.
          1   -1    0    0  501    0 -0.00000000000E+00 -0.00000000000E+00 -0.69677053833E+03  0.69677053833E+03  0.00000000000E+00 0. -1.
         25    2    1    2    0    0  0.36847718182E+01 -0.22841586637E+02 -0.73241756766E+02  0.14671394942E+03  0.12500124958E+03 0.  0.
          2    1    1    2  501    0 -0.63372247210E+02  0.21695745051E+02 -0.52350134750E+03  0.52776927526E+03  0.00000000000E+00 0. -1.
          1    1    1    2  502    0  0.59687475391E+02  0.11458415856E+01 -0.46588780380E+02  0.75725967335E+02  0.00000000000E+00 0. -1.
         22    1    3    3    0    0  0.41531629319E+02  0.74740555978E+01  0.16014918618E+02  0.45135522145E+02  0.00000000000E+00 0. -1.
         22    1    3    3    0    0 -0.37846857501E+02 -0.30315642234E+02 -0.89256675384E+02  0.10157842727E+03  0.00000000000E+00 0. -1.
</event>
<event>
 7    1  0.5562528E-006  0.1747049E+03  0.7818608E-02  0.1319447E+00
          2   -1    0    0  502    0  0.00000000000E+00  0.00000000000E+00  0.34614979123E+03  0.34614979123E+03  0.00000000000E+00 0. -1.
          1   -1    0    0  501    0 -0.00000000000E+00 -0.00000000000E+00 -0.62718122618E+03  0.62718122618E+03  0.00000000000E+00 0. -1.
         25    2    1    2    0    0 -0.16107119529E+03  0.18364022901E+02 -0.12781657254E+03  0.24133701925E+03  0.12500125341E+03 0.  0.
          2    1    1    2  501    0  0.17881462120E+03  0.17365525984E+02 -0.42284534624E+03  0.45942835903E+03  0.00000000000E+00 0. -1.
          1    1    1    2  502    0 -0.17743425906E+02 -0.35729548884E+02  0.26963048383E+03  0.27256563914E+03  0.00000000000E+00 0. -1.
         22    1    3    3    0    0 -0.72927601572E+02  0.51617655173E+02 -0.91383890589E+01  0.89812736019E+02  0.00000000000E+00 0.  1.
         22    1    3    3    0    0 -0.88143593719E+02 -0.33253632272E+02 -0.11867818348E+03  0.15152428323E+03  0.00000000000E+00 0.  1.
</event>
<event>
 7    1  0.5562528E-006  0.1430161E+03  0.7818608E-02  0.1287887E+00
          2   -1    0    0  502    0  0.00000000000E+00  0.00000000000E+00  0.99040844915E+03  0.99040844915E+03  0.00000000000E+00 0. -1.
          1   -1    0    0  501    0 -0.00000000000E+00 -0.00000000000E+00 -0.90334502306E+03  0.90334502306E+03  0.00000000000E+00 0. -1.
         25    2    1    2    0    0 -0.12539107137E+03 -0.13620731890E+03 -0.21676814920E+03  0.31127009733E+03  0.12500115393E+03 0.  0.
          2    1    1    2  501    0  0.61728692532E+02  0.12269599627E+03 -0.63080446640E+03  0.64558424223E+03  0.00000000000E+00 0. -1.
          1    1    1    2  502    0  0.63662378842E+02  0.13511322633E+02  0.93463604169E+03  0.93689913265E+03  0.00000000000E+00 0. -1.
         22    1    3    3    0    0 -0.35295329143E+02  0.15304373063E+02 -0.10373485429E+02  0.39844614368E+02  0.00000000000E+00 0.  1.
         22    1    3    3    0    0 -0.90095742231E+02 -0.15151169196E+03 -0.20639466377E+03  0.27142548297E+03  0.00000000000E+00 0.  1.
</event>
<event>
 7    1  0.5562528E-006  0.1190895E+03  0.7818608E-02  0.1323288E+00
          2   -1    0    0  502    0  0.00000000000E+00  0.00000000000E+00  0.49984997959E+02  0.49984997959E+02  0.00000000000E+00 0. -1.
          1   -1    0    0  501    0 -0.00000000000E+00 -0.00000000000E+00 -0.45081566584E+04  0.45081566584E+04  0.00000000000E+00 0. -1.
         25    2    1    2    0    0 -0.10517890674E+03  0.11006568842E+03 -0.10364846710E+04  0.10550365530E+04  0.12499838678E+03 0.  0.
          2    1    1    2  501    0  0.56432994781E+02 -0.36799586540E+01 -0.33775701799E+04  0.33780435972E+04  0.00000000000E+00 0. -1.
          1    1    1    2  502    0  0.48745911964E+02 -0.10638572977E+03 -0.44116809583E+02  0.12506150614E+03  0.00000000000E+00 0. -1.
         22    1    3    3    0    0 -0.88301477345E+02  0.17386990727E+02 -0.69477766088E+03  0.70058222672E+03  0.00000000000E+00 0.  1.
         22    1    3    3    0    0 -0.16877429400E+02  0.92678697694E+02 -0.34170701014E+03  0.35445432626E+03  0.00000000000E+00 0.  1.
</event>
<event>
 7    1  0.5562528E-006  0.6555693E+02  0.7818608E-02  0.1430163E+00
          2   -1    0    0  502    0  0.00000000000E+00  0.00000000000E+00  0.15500633418E+04  0.15500633418E+04  0.00000000000E+00 0. -1.
          1   -1    0    0  501    0 -0.00000000000E+00 -0.00000000000E+00 -0.24415867798E+03  0.24415867798E+03  0.00000000000E+00 0. -1.
         25    2    1    2    0    0 -0.90826582640E+02 -0.56082096889E+02  0.28436761983E+03  0.32845776256E+03  0.12499955547E+03 0.  0.
          2    1    1    2  501    0  0.36403217863E+02  0.22376776472E+02 -0.21922564188E+03  0.22335128487E+03  0.00000000000E+00 0. -1.
          1    1    1    2  502    0  0.54423364777E+02  0.33705320417E+02  0.12407626858E+04  0.12424129723E+04  0.00000000000E+00 0. -1.
         22    1    3    3    0    0 -0.81316509512E+02  0.22917782775E+02  0.15669155363E+03  0.17801641066E+03  0.00000000000E+00 0.  1.
         22    1    3    3    0    0 -0.95100731277E+01 -0.78999879664E+02  0.12767606620E+03  0.15044135189E+03  0.00000000000E+00 0.  1.
</event>
<event>
 7    1  0.5562528E-006  0.1128776E+03  0.7818608E-02  0.1324109E+00
          2   -1    0    0  502    0  0.00000000000E+00  0.00000000000E+00  0.93188699978E+03  0.93188699978E+03  0.00000000000E+00 0. -1.
          1   -1    0    0  501    0 -0.00000000000E+00 -0.00000000000E+00 -0.30170108415E+04  0.30170108415E+04  0.00000000000E+00 0. -1.
         25    2    1    2    0    0  0.45133914470E+02 -0.60479426207E+02  0.70485381468E+02  0.16213698780E+03  0.12500153033E+03 0.  0.
          2    1    1    2  501    0 -0.16174896995E+02  0.11214946865E+03 -0.29690274738E+04  0.29711888649E+04  0.00000000000E+00 0. -1.
          1    1    1    2  502    0 -0.28959017476E+02 -0.51670042442E+02  0.81341825066E+03  0.81557198854E+03  0.00000000000E+00 0. -1.
         22    1    3    3    0    0 -0.13103468628E+02 -0.79102972289E+02  0.19480824928E+02  0.82513536192E+02  0.00000000000E+00 0.  1.
         22    1    3    3    0    0  0.58237383098E+02  0.18623546082E+02  0.51004556540E+02  0.79623451612E+02  0.00000000000E+00 0.  1.
</event>
<event>
 7    1  0.5562528E-006  0.8002070E+02  0.7818608E-02  0.1330583E+00
          2   -1    0    0  502    0  0.00000000000E+00  0.00000000000E+00  0.69566133456E+02  0.69566133456E+02  0.00000000000E+00 0. -1.
          1   -1    0    0  501    0 -0.00000000000E+00 -0.00000000000E+00 -0.20307423126E+04  0.20307423126E+04  0.00000000000E+00 0. -1.
         25    2    1    2    0    0 -0.38892084883E+02  0.75853464451E+02 -0.46256640793E+03  0.48668111343E+03  0.12499792835E+03 0.  0.
          2    1    1    2  501    0 -0.42521739833E+02 -0.66471761521E+02 -0.15253751045E+04  0.15274147449E+04  0.00000000000E+00 0. -1.
          1    1    1    2  502    0  0.81413824716E+02 -0.93817029292E+01  0.26765333352E+02  0.86212587678E+02  0.00000000000E+00 0. -1.
         22    1    3    3    0    0 -0.64213313047E+02  0.80512462634E+02 -0.22180093837E+03  0.24454296652E+03  0.00000000000E+00 0.  1.
         22    1    3    3    0    0  0.25321228164E+02 -0.46589981831E+01 -0.24076546955E+03  0.24213814691E+03  0.00000000000E+00 0.  1.
</event>
<event>
 7    1  0.5562528E-006  0.1257615E+03  0.7818608E-02  0.1313255E+00
          2   -1    0    0  502    0  0.00000000000E+00  0.00000000000E+00  0.21535290336E+04  0.21535290336E+04  0.00000000000E+00 0. -1.
          1   -1    0    0  501    0 -0.00000000000E+00 -0.00000000000E+00 -0.37619379303E+04  0.37619379303E+04  0.00000000000E+00 0. -1.
         25    2    1    2    0    0  0.44169848376E+02 -0.15353646830E+03  0.57705232790E+01  0.20293427090E+03  0.12499838705E+03 0.  0.
          2    1    1    2  501    0 -0.51209824963E+02  0.28463553679E+02 -0.36612069368E+04  0.36616756894E+04  0.00000000000E+00 0. -1.
          1    1    1    2  502    0  0.70399765862E+01  0.12507291462E+03  0.20470275168E+04  0.20508570037E+04  0.00000000000E+00 0. -1.
         22    1    3    3    0    0  0.34102285760E+01 -0.15886743243E+03  0.18314997969E+02  0.15995602489E+03  0.00000000000E+00 0.  1.
         22    1    3    3    0    0  0.40759619801E+02  0.53309641387E+01 -0.12544474690E+02  0.42978246011E+02  0.00000000000E+00 0.  1.
</event>
<event>
 7    1  0.5562528E-006  0.5905233E+02  0.7818608E-02  0.1454954E+00
          2   -1    0    0  502    0  0.00000000000E+00  0.00000000000E+00  0.50610593724E+03  0.50610593724E+03  0.00000000000E+00 0. -1.
          1   -1    0    0  501    0 -0.00000000000E+00 -0.00000000000E+00 -0.50987436921E+03  0.50987436921E+03  0.00000000000E+00 0. -1.
         25    2    1    2    0    0  0.10881248107E+02  0.74673017243E+02 -0.96044778112E+02  0.17477073187E+03  0.12500299297E+03 0.  0.
          2    1    1    2  501    0 -0.33796239794E+02 -0.20333305677E+02 -0.37155581490E+03  0.37364334964E+03  0.00000000000E+00 0. -1.
          1    1    1    2  502    0  0.22914991687E+02 -0.54339711566E+02  0.46383216104E+03  0.46756622495E+03  0.00000000000E+00 0. -1.
         22    1    3    3    0    0  0.24922604453E+02 -0.42285788158E+01 -0.91027757482E+02  0.94472587155E+02  0.00000000000E+00 0.  1.
         22    1    3    3    0    0 -0.14041356346E+02  0.78901596059E+02 -0.50170206298E+01  0.80298144715E+02  0.00000000000E+00 0.  1.
</event>
<event>
 7    1  0.5562528E-006  0.1406406E+03  0.7818608E-02  0.1410316E+00
          2   -1    0    0  502    0  0.00000000000E+00  0.00000000000E+00  0.15315917165E+04  0.15315917165E+04  0.00000000000E+00 0. -1.
          1   -1    0    0  501    0 -0.00000000000E+00 -0.00000000000E+00 -0.44680580388E+02  0.44680580388E+02  0.00000000000E+00 0. -1.
         25    2    1    2    0    0  0.11236652026E+03  0.71431470916E+02  0.10743921069E+04  0.10898025933E+04  0.12499041175E+03 0.  0.
          2    1    1    2  501    0  0.23159824426E+02  0.13900174243E+01 -0.17949058047E+02  0.29333910422E+02  0.00000000000E+00 0. -1.
          1    1    1    2  502    0 -0.13552634469E+03 -0.72821488341E+02  0.43046808731E+03  0.45713579324E+03  0.00000000000E+00 0. -1.
         22    1    3    3    0    0  0.47332867247E+02  0.98796023098E+02  0.56222526950E+03  0.57279866285E+03  0.00000000000E+00 0.  1.
         22    1    3    3    0    0  0.65033653017E+02 -0.27364552182E+02  0.51216683739E+03  0.51700393041E+03  0.00000000000E+00 0.  1.
</event>
<event>
 7    1  0.5562528E-006  0.1022177E+03  0.7818608E-02  0.1354029E+00
          2   -1    0    0  502    0  0.00000000000E+00  0.00000000000E+00  0.59381744068E+03  0.59381744068E+03  0.00000000000E+00 0. -1.
          1   -1    0    0  501    0 -0.00000000000E+00 -0.00000000000E+00 -0.28516288337E+04  0.28516288337E+04  0.00000000000E+00 0. -1.
         25    2    1    2    0    0  0.99936358960E+02  0.65726347602E+02  0.14509084861E+03  0.22579550604E+03  0.12500011034E+03 0.  0.
          2    1    1    2  501    0 -0.46382530166E+02  0.19856992189E+02 -0.28048064618E+04  0.28052602245E+04  0.00000000000E+00 0. -1.
          1    1    1    2  502    0 -0.53553828794E+02 -0.85583339791E+02  0.40190422015E+03  0.41439054381E+03  0.00000000000E+00 0. -1.
         22    1    3    3    0    0  0.13060230665E+02  0.41434327045E+02 -0.11623984594E+02  0.44972103581E+02  0.00000000000E+00 0.  1.
         22    1    3    3    0    0  0.86876128294E+02  0.24292020557E+02  0.15671483321E+03  0.18082340246E+03  0.00000000000E+00 0.  1.
</event>
<event>
 7    1  0.5562528E-006  0.6935358E+02  0.7818608E-02  0.1452547E+00
          2   -1    0    0  502    0  0.00000000000E+00  0.00000000000E+00  0.83860816685E+03  0.83860816685E+03  0.00000000000E+00 0. -1.
          1   -1    0    0  501    0 -0.00000000000E+00 -0.00000000000E+00 -0.10814936276E+04  0.10814936276E+04  0.00000000000E+00 0. -1.
         25    2    1    2    0    0 -0.19351187150E+02 -0.37090700530E+02  0.39812927972E+02  0.13774255575E+03  0.12505100527E+03 0.  0.
          2    1    1    2  501    0 -0.32554884095E+02 -0.10417092899E+02 -0.10305940709E+04  0.10311607417E+04  0.00000000000E+00 0. -1.
          1    1    1    2  502    0  0.51906071245E+02  0.47507793429E+02  0.74789568210E+03  0.75119849705E+03  0.00000000000E+00 0. -1.
         22    1    3    3    0    0  0.36498741192E+02  0.27837241945E+02  0.93724387146E+01  0.46849895999E+02  0.00000000000E+00 0. -1.
         22    1    3    3    0    0 -0.55849928342E+02 -0.64927942475E+02  0.30440489257E+02  0.90892659748E+02  0.00000000000E+00 0. -1.
</event>
<event>
 7    1  0.5562528E-006  0.7771889E+02  0.7818608E-02  0.1357992E+00
          2   -1    0    0  502    0  0.00000000000E+00  0.00000000000E+00  0.15234643694E+04  0.15234643694E+04  0.00000000000E+00 0. -1.
          1   -1    0    0  501    0 -0.00000000000E+00 -0.00000000000E+00 -0.46052627254E+03  0.46052627254E+03  0.00000000000E+00 0. -1.
         25    2    1    2    0    0 -0.10914845971E+03  0.21929612071E+02  0.35187089422E+03  0.38965655370E+03  0.12499923800E+03 0.  0.
          2    1    1    2  501    0  0.54365826319E+02 -0.55350211682E+02 -0.43732332703E+03  0.44415198004E+03  0.00000000000E+00 0. -1.
          1    1    1    2  502    0  0.54782633389E+02  0.33420599611E+02  0.11483905297E+04  0.11501821082E+04  0.00000000000E+00 0. -1.
         22    1    3    3    0    0 -0.11623224395E+03 -0.25767817925E+02  0.25685554234E+03  0.28310543020E+03  0.00000000000E+00 0. -1.
         22    1    3    3    0    0  0.70837842433E+01  0.47697429996E+02  0.95015351879E+02  0.10655112351E+03  0.00000000000E+00 0. -1.
</event>
<event>
 7    1  0.5562528E-006  0.7221630E+02  0.7818608E-02  0.1490293E+00
          2   -1    0    0  502    0  0.00000000000E+00  0.00000000000E+00  0.15761208232E+04  0.15761208232E+04  0.00000000000E+00 0. -1.
          1   -1    0    0  501    0 -0.00000000000E+00 -0.00000000000E+00 -0.74156269349E+03  0.74156269349E+03  0.00000000000E+00 0. -1.
         25    2    1    2    0    0  0.78375896187E+02  0.37375470659E+02  0.21484293541E+03  0.26329012712E+03  0.12499798893E+03 0.  0.
          2    1    1    2  501    0 -0.55066646763E+02 -0.46582773395E+02 -0.71540814938E+03  0.71903484656E+03  0.00000000000E+00 0. -1.
          1    1    1    2  502    0 -0.23309249424E+02  0.92073027363E+01  0.13351233437E+04  0.13353585431E+04  0.00000000000E+00 0. -1.
         22    1    3    3    0    0  0.10715951750E+03  0.12432977306E+02  0.18779846920E+03  0.21657794474E+03  0.00000000000E+00 0. -1.
         22    1    3    3    0    0 -0.28783621312E+02  0.24942493353E+02  0.27044466209E+02  0.46712182383E+02  0.00000000000E+00 0. -1.
</event>
<event>
 7    1  0.5562528E-006  0.1561414E+03  0.7818608E-02  0.1249906E+00
          2   -1    0    0  502    0  0.00000000000E+00  0.00000000000E+00  0.18266356012E+03  0.18266356012E+03  0.00000000000E+00 0. -1.
          1   -1    0    0  501    0 -0.00000000000E+00 -0.00000000000E+00 -0.68447022141E+03  0.68447022141E+03  0.00000000000E+00 0. -1.
         25    2    1    2    0    0  0.60676400109E+02 -0.72869953634E+02  0.60942570165E+01  0.15701240031E+03  0.12499639279E+03 0.  0.
          2    1    1    2  501    0 -0.14667919746E+03  0.77473613824E+02 -0.57657800927E+03  0.59996595619E+03  0.00000000000E+00 0. -1.
          1    1    1    2  502    0  0.86002797350E+02 -0.46036601900E+01  0.68677090970E+02  0.11015542503E+03  0.00000000000E+00 0. -1.
         22    1    3    3    0    0  0.11333850839E+02 -0.13135456720E+02 -0.55427294959E+02  0.58079096279E+02  0.00000000000E+00 0. -1.
         22    1    3    3    0    0  0.49342549269E+02 -0.59734496914E+02  0.61521551975E+02  0.98933304036E+02  0.00000000000E+00 0. -1.
</event>
<event>
 7    1  0.5562528E-006  0.2072058E+03  0.7818608E-02  0.1211265E+00
          2   -1    0    0  502    0  0.00000000000E+00  0.00000000000E+00  0.11993014599E+04  0.11993014599E+04  0.00000000000E+00 0. -1.
          1   -1    0    0  501    0 -0.00000000000E+00 -0.00000000000E+00 -0.58389815322E+03  0.58389815322E+03  0.00000000000E+00 0. -1.
         25    2    1    2    0    0  0.42005101881E+02 -0.16601413271E+03  0.47403600342E+03  0.51929153144E+03  0.12501376423E+03 0.  0.
          2    1    1    2  501    0  0.46899302714E+02  0.20403084792E+03 -0.53820663627E+03  0.57748983958E+03  0.00000000000E+00 0. -1.
          1    1    1    2  502    0 -0.88904404595E+02 -0.38016715208E+02  0.67957393951E+03  0.68641824207E+03  0.00000000000E+00 0. -1.
         22    1    3    3    0    0  0.52618680889E+02 -0.55264779571E+02  0.32186339098E+03  0.33078537436E+03  0.00000000000E+00 0.  1.
         22    1    3    3    0    0 -0.10613579008E+02 -0.11074935314E+03  0.15217261244E+03  0.18850615708E+03  0.00000000000E+00 0.  1.
</event>
<event>
 7    1  0.5562528E-006  0.2807932E+03  0.7818608E-02  0.1206265E+00
          2   -1    0    0  502    0  0.00000000000E+00  0.00000000000E+00  0.22471032296E+03  0.22471032296E+03  0.00000000000E+00 0. -1.
          1   -1    0    0  501    0 -0.00000000000E+00 -0.00000000000E+00 -0.14162169579E+04  0.14162169579E+04  0.00000000000E+00 0. -1.
         25    2    1    2    0    0  0.18204457054E+03  0.21278881907E+03 -0.58759760111E+03  0.66280834609E+03  0.12499862252E+03 0.  0.
          2    1    1    2  501    0  0.51863162676E+02 -0.54553885611E+02 -0.68118762462E+03  0.68533385588E+03  0.00000000000E+00 0. -1.
          1    1    1    2  502    0 -0.23390773321E+03 -0.15823493346E+03  0.77278590793E+02  0.29278507889E+03  0.00000000000E+00 0. -1.
         22    1    3    3    0    0  0.25283545134E+02  0.11620080361E+03 -0.28165753163E+03  0.30573329805E+03  0.00000000000E+00 0. -1.
         22    1    3    3    0    0  0.15676102541E+03  0.96588015458E+02 -0.30594006948E+03  0.35707504803E+03  0.00000000000E+00 0. -1.
</event>
<event>
 7    1  0.5562528E-006  0.2154161E+03  0.7818608E-02  0.1289127E+00
          2   -1    0    0  502    0  0.00000000000E+00  0.00000000000E+00  0.65084086484E+03  0.65084086484E+03  0.00000000000E+00 0. -1.
          1   -1    0    0  501    0 -0.00000000000E+00 -0.00000000000E+00 -0.40749288997E+03  0.40749288997E+03  0.00000000000E+00 0. -1.
         25    2    1    2    0    0 -0.12847690396E+03  0.14338778833E+03 -0.73868301396E+02  0.24113835758E+03  0.12499923541E+03 0.  0.
          2    1    1    2  501    0 -0.42211295450E+02 -0.64891682222E+01 -0.22682082824E+03  0.23080639266E+03  0.00000000000E+00 0. -1.
          1    1    1    2  502    0  0.17068819941E+03 -0.13689862011E+03  0.54403710450E+03  0.58638900457E+03  0.00000000000E+00 0. -1.
         22    1    3    3    0    0 -0.81670151149E+02  0.88802224115E+02  0.20624401017E+02  0.12239777169E+03  0.00000000000E+00 0. -1.
         22    1    3    3    0    0 -0.46806752809E+02  0.54585564214E+02 -0.94492702412E+02  0.11874058589E+03  0.00000000000E+00 0. -1.
</event>
<event>
 7    1  0.5562528E-006  0.9218973E+02  0.7818608E-02  0.1419742E+00
          2   -1    0    0  502    0  0.00000000000E+00  0.00000000000E+00  0.39724899616E+03  0.39724899616E+03  0.00000000000E+00 0. -1.
          1   -1    0    0  501    0 -0.00000000000E+00 -0.00000000000E+00 -0.11580063602E+04  0.11580063602E+04  0.00000000000E+00 0. -1.
         25    2    1    2    0    0 -0.71581757124E+02 -0.39838209770E+01 -0.81133487290E+02  0.16537304103E+03  0.12500312459E+03 0.  0.
          2    1    1    2  501    0 -0.15824128722E+02 -0.28847921345E+02 -0.10283484225E+04  0.10288746686E+04  0.00000000000E+00 0. -1.
          1    1    1    2  502    0  0.87405885847E+02  0.32831742322E+02  0.34872454576E+03  0.36100764673E+03  0.00000000000E+00 0. -1.
         22    1    3    3    0    0  0.33576528221E+02  0.15548882044E+02 -0.24121212977E+02  0.44169943352E+02  0.00000000000E+00 0. -1.
         22    1    3    3    0    0 -0.10515828534E+03 -0.19532703021E+02 -0.57012274312E+02  0.12120309768E+03  0.00000000000E+00 0. -1.
</event>
<event>
 7    1  0.5562528E-006  0.7527444E+02  0.7818608E-02  0.1399460E+00
          2   -1    0    0  502    0  0.00000000000E+00  0.00000000000E+00  0.19716610757E+03  0.19716610757E+03  0.00000000000E+00 0. -1.
          1   -1    0    0  501    0 -0.00000000000E+00 -0.00000000000E+00 -0.10010811487E+04  0.10010811487E+04  0.00000000000E+00 0. -1.
         25    2    1    2    0    0 -0.31896824232E+02 -0.88407980897E+01 -0.23158235291E+01  0.12932103927E+03  0.12499200395E+03 0.  0.
          2    1    1    2  501    0  0.60885390735E+02  0.46104047901E+02 -0.92947830375E+03  0.93261059998E+03  0.00000000000E+00 0. -1.
          1    1    1    2  502    0 -0.28988566503E+02 -0.37263249812E+02  0.12787908614E+03  0.13631561703E+03  0.00000000000E+00 0. -1.
         22    1    3    3    0    0  0.13896284250E+02  0.45219004153E+02  0.24858905477E+02  0.53439968508E+02  0.00000000000E+00 0. -1.
         22    1    3    3    0    0 -0.45793108482E+02 -0.54059802243E+02 -0.27174729006E+02  0.75881070759E+02  0.00000000000E+00 0. -1.
</event>
<event>
 7    1  0.5562528E-006  0.2146354E+03  0.7818608E-02  0.1195407E+00
          2   -1    0    0  502    0  0.00000000000E+00  0.00000000000E+00  0.82673017134E+03  0.82673017134E+03  0.00000000000E+00 0. -1.
          1   -1    0    0  501    0 -0.00000000000E+00 -0.00000000000E+00 -0.16263064318E+04  0.16263064318E+04  0.00000000000E+00 0. -1.
         25    2    1    2    0    0  0.13670517453E+03  0.38141214812E+02  0.34747958651E+03  0.39561306260E+03  0.12499830099E+03 0.  0.
          2    1    1    2  501    0 -0.21204319345E+03  0.43076381298E+02 -0.15880526442E+04  0.16027255196E+04  0.00000000000E+00 0. -1.
          1    1    1    2  502    0  0.75338018919E+02 -0.81217596110E+02  0.44099679726E+03  0.45469802089E+03  0.00000000000E+00 0. -1.
         22    1    3    3    0    0  0.15900636506E+02 -0.26660671333E+02  0.12134746542E+02  0.33329772140E+02  0.00000000000E+00 0.  1.
         22    1    3    3    0    0  0.12080453803E+03  0.64801886145E+02  0.33534483997E+03  0.36228329046E+03  0.00000000000E+00 0.  1.
</event>
<event>
 7    1  0.5562528E-006  0.1174333E+03  0.7818608E-02  0.1363382E+00
          2   -1    0    0  502    0  0.00000000000E+00  0.00000000000E+00  0.13259896918E+04  0.13259896918E+04  0.00000000000E+00 0. -1.
          1   -1    0    0  501    0 -0.00000000000E+00 -0.00000000000E+00 -0.85692315765E+03  0.85692315765E+03  0.00000000000E+00 0. -1.
         25    2    1    2    0    0 -0.66910927680E+02  0.72642411253E+02  0.21155382359E+03  0.26482478296E+03  0.12499261272E+03 0.  0.
          2    1    1    2  501    0  0.10382745401E+03 -0.55765480361E+02 -0.82572336821E+03  0.83409172745E+03  0.00000000000E+00 0. -1.
          1    1    1    2  502    0 -0.36916526326E+02 -0.16876930892E+02  0.10832360788E+04  0.10839963391E+04  0.00000000000E+00 0. -1.
         22    1    3    3    0    0 -0.14511596136E+02  0.99377261907E+02  0.13034632463E+03  0.16454966105E+03  0.00000000000E+00 0.  1.
         22    1    3    3    0    0 -0.52399331544E+02 -0.26734850654E+02  0.81207498967E+02  0.10027512191E+03  0.00000000000E+00 0.  1.
</event>
<event>
 7    1  0.5562528E-006  0.5003064E+02  0.7818608E-02  0.1463463E+00
          2   -1    0    0  502    0  0.00000000000E+00  0.00000000000E+00  0.75596784469E+02  0.75596784469E+02  0.00000000000E+00 0. -1.
          1   -1    0    0  501    0 -0.00000000000E+00 -0.00000000000E+00 -0.60277066493E+03  0.60277066493E+03  0.00000000000E+00 0. -1.
         25    2    1    2    0    0  0.29349472274E+02  0.79086566631E+02 -0.37219073774E+03  0.40158101614E+03  0.12500116288E+03 0.  0.
          2    1    1    2  501    0 -0.27623608556E+02 -0.35360153336E+02 -0.20527459227E+03  0.21012154203E+03  0.00000000000E+00 0. -1.
          1    1    1    2  502    0 -0.17258637184E+01 -0.43726413295E+02  0.50291449547E+02  0.66664891230E+02  0.00000000000E+00 0. -1.
         22    1    3    3    0    0  0.39744120710E+02  0.35577548334E+02 -0.40726591289E+02  0.67111938688E+02  0.00000000000E+00 0. -1.
         22    1    3    3    0    0 -0.10394648436E+02  0.43509018297E+02 -0.33146414645E+03  0.33446907745E+03  0.00000000000E+00 0. -1.
</event>
<event>
 7    1  0.5562528E-006  0.1277754E+03  0.7818608E-02  0.1298120E+00
          2   -1    0    0  502    0  0.00000000000E+00  0.00000000000E+00  0.17638610626E+04  0.17638610626E+04  0.00000000000E+00 0. -1.
          1   -1    0    0  501    0 -0.00000000000E+00 -0.00000000000E+00 -0.47230654180E+02  0.47230654180E+02  0.00000000000E+00 0. -1.
         25    2    1    2    0    0 -0.99109937657E+02  0.22088161809E+01  0.80137843063E+03  0.81710435517E+03  0.12499791818E+03 0.  0.
          2    1    1    2  501    0  0.11872382429E+03  0.61036075528E+02  0.79001251603E+02  0.15511913720E+03  0.00000000000E+00 0. -1.
          1    1    1    2  502    0 -0.19613886637E+02 -0.63244891709E+02  0.83625072622E+03  0.83886822445E+03  0.00000000000E+00 0. -1.
         22    1    3    3    0    0 -0.30331713574E+02  0.51161871638E+02  0.51842557022E+03  0.52182623719E+03  0.00000000000E+00 0. -1.
         22    1    3    3    0    0 -0.68778224083E+02 -0.48953055457E+02  0.28295286041E+03  0.29527811799E+03  0.00000000000E+00 0. -1.
</event>
<event>
 7    1  0.5562528E-006  0.8835516E+02  0.7818608E-02  0.1387263E+00
          2   -1    0    0  502    0  0.00000000000E+00  0.00000000000E+00  0.85361300508E+03  0.85361300508E+03  0.00000000000E+00 0. -1.
          1   -1    0    0  501    0 -0.00000000000E+00 -0.00000000000E+00 -0.39649352960E+04  0.39649352960E+04  0.00000000000E+00 0. -1.
         25    2    1    2    0    0 -0.47928268297E+02  0.21544621515E+02 -0.69087602355E+03  0.70405688435E+03  0.12500050746E+03 0.  0.
          2    1    1    2  501    0  0.91273724472E+02 -0.12196835953E+02 -0.32662391581E+04  0.32675369766E+04  0.00000000000E+00 0. -1.
          1    1    1    2  502    0 -0.43345456175E+02 -0.93477855617E+01  0.84579289072E+03  0.84695444013E+03  0.00000000000E+00 0. -1.
         22    1    3    3    0    0 -0.74023938840E+02  0.73171773623E+01 -0.64576230062E+03  0.65003233267E+03  0.00000000000E+00 0.  1.
         22    1    3    3    0    0  0.26095670543E+02  0.14227444153E+02 -0.45113722927E+02  0.54024551683E+02  0.00000000000E+00 0.  1.
</event>
<event>
 7    1  0.5562528E-006  0.1087644E+03  0.7818608E-02  0.1326541E+00
          2   -1    0    0  502    0  0.00000000000E+00  0.00000000000E+00  0.87255786627E+03  0.87255786627E+03  0.00000000000E+00 0. -1.
          1   -1    0    0  501    0 -0.00000000000E+00 -0.00000000000E+00 -0.13658550463E+04  0.13658550463E+04  0.00000000000E+00 0. -1.
         25    2    1    2    0    0 -0.19342874982E+02 -0.57250650388E+02  0.17840297696E+02  0.13999080438E+03  0.12500946086E+03 0.  0.
          2    1    1    2  501    0  0.74409721037E+02  0.81479270740E+02 -0.13013013654E+04  0.13059712561E+04  0.00000000000E+00 0. -1.
          1    1    1    2  502    0 -0.55066846055E+02 -0.24228620352E+02  0.79016388769E+03  0.79245085210E+03  0.00000000000E+00 0. -1.
         22    1    3    3    0    0 -0.38875547545E+02  0.23830817382E+02 -0.18251296623E+02  0.49115434259E+02  0.00000000000E+00 0. -1.
         22    1    3    3    0    0  0.19532672563E+02 -0.81081467770E+02  0.36091594319E+02  0.90875370116E+02  0.00000000000E+00 0. -1.
</event>
<event>
 7    1  0.5562528E-006  0.1098924E+03  0.7818608E-02  0.1321956E+00
          2   -1    0    0  502    0  0.00000000000E+00  0.00000000000E+00  0.95834517887E+03  0.95834517887E+03  0.00000000000E+00 0. -1.
          1   -1    0    0  501    0 -0.00000000000E+00 -0.00000000000E+00 -0.15892593563E+04  0.15892593563E+04  0.00000000000E+00 0. -1.
         25    2    1    2    0    0 -0.15670597097E+03  0.27883357763E+01  0.90828229039E+02  0.22008973361E+03  0.12500074998E+03 0.  0.
          2    1    1    2  501    0  0.54229086046E+02  0.30087835071E+02 -0.15203871340E+04  0.15216514413E+04  0.00000000000E+00 0. -1.
          1    1    1    2  502    0  0.10247688492E+03 -0.32876170847E+02  0.79864472754E+03  0.80586336024E+03  0.00000000000E+00 0. -1.
         22    1    3    3    0    0 -0.16814911931E+02 -0.35494992551E+02  0.60162752413E+02  0.71848399686E+02  0.00000000000E+00 0.  1.
         22    1    3    3    0    0 -0.13989105904E+03  0.38283328328E+02  0.30665476625E+02  0.14824133392E+03  0.00000000000E+00 0.  1.
</event>
<event>
 7    1  0.5562528E-006  0.3199061E+02  0.7818608E-02  0.1626424E+00
          2   -1    0    0  502    0  0.00000000000E+00  0.00000000000E+00  0.98224716630E+02  0.98224716630E+02  0.00000000000E+00 0. -1.
          1   -1    0    0  501    0 -0.00000000000E+00 -0.00000000000E+00 -0.93989000660E+02  0.93989000660E+02  0.00000000000E+00 0. -1.
         25    2    1    2    0    0 -0.19121978863E+02 -0.15533276928E+02 -0.19798759482E+01  0.12742855249E+03  0.12500873295E+03 0.  0.
          2    1    1    2  501    0  0.47032230019E+01  0.34451508738E+02 -0.97803413869E+01  0.36120379823E+02  0.00000000000E+00 0. -1.
          1    1    1    2  502    0  0.14418755861E+02 -0.18918231810E+02  0.15995933305E+02  0.28664784976E+02  0.00000000000E+00 0. -1.
         22    1    3    3    0    0  0.24910362770E+02 -0.19283922682E+02 -0.51928517157E+02  0.60736864765E+02  0.00000000000E+00 0. -1.
         22    1    3    3    0    0 -0.44032341634E+02  0.37506457539E+01  0.49948641208E+02  0.66691687727E+02  0.00000000000E+00 0. -1.
</event>
<event>
 7    1  0.5562528E-006  0.1145863E+03  0.7818608E-02  0.1252479E+00
          2   -1    0    0  502    0  0.00000000000E+00  0.00000000000E+00  0.45408198994E+04  0.45408198994E+04  0.00000000000E+00 0. -1.
          1   -1    0    0  501    0 -0.00000000000E+00 -0.00000000000E+00 -0.13428421437E+04  0.13428421437E+04  0.00000000000E+00 0. -1.
         25    2    1    2    0    0  0.35620113853E+02  0.19518982003E+02  0.11079024111E+04  0.11156712506E+04  0.12499921565E+03 0.  0.
          2    1    1    2  501    0 -0.72107123247E+02  0.89102935135E+02 -0.13355448419E+04  0.13404546971E+04  0.00000000000E+00 0. -1.
          1    1    1    2  502    0  0.36487009393E+02 -0.10862191714E+03  0.34256201866E+04  0.34275360954E+04  0.00000000000E+00 0. -1.
         22    1    3    3    0    0  0.67697419163E+02  0.38210972591E+02  0.44566454995E+03  0.45239353451E+03  0.00000000000E+00 0. -1.
         22    1    3    3    0    0 -0.32077305309E+02 -0.18691990589E+02  0.66223786111E+03  0.66327771613E+03  0.00000000000E+00 0. -1.
</event>
<event>
 7    1  0.5562528E-006  0.5197415E+02  0.7818608E-02  0.1454714E+00
          2   -1    0    0  502    0  0.00000000000E+00  0.00000000000E+00  0.28107785737E+04  0.28107785737E+04  0.00000000000E+00 0. -1.
          1   -1    0    0  501    0 -0.00000000000E+00 -0.00000000000E+00 -0.48646354974E+03  0.48646354974E+03  0.00000000000E+00 0. -1.
         25    2    1    2    0    0  0.34973743225E+02 -0.18602051365E+02  0.35230200055E+02  0.13577679164E+03  0.12499988449E+03 0.  0.
          2    1    1    2  501    0 -0.30112054801E+02 -0.33294355260E+02 -0.43478522914E+03  0.43709660879E+03  0.00000000000E+00 0. -1.
          1    1    1    2  502    0 -0.48616884240E+01  0.51896406625E+02  0.27238700531E+04  0.27243687230E+04  0.00000000000E+00 0. -1.
         22    1    3    3    0    0 -0.42942436253E+02 -0.39753486777E+01 -0.10322458253E+02  0.44344214649E+02  0.00000000000E+00 0. -1.
         22    1    3    3    0    0  0.77916179478E+02 -0.14626702687E+02  0.45552658307E+02  0.91432576989E+02  0.00000000000E+00 0. -1.
</event>
<event>
 7    1  0.5562528E-006  0.4160000E+02  0.7818608E-02  0.1503622E+00
          2   -1    0    0  502    0  0.00000000000E+00  0.00000000000E+00  0.73442548869E+03  0.73442548869E+03  0.00000000000E+00 0. -1.
          1   -1    0    0  501    0 -0.00000000000E+00 -0.00000000000E+00 -0.27239656838E+03  0.27239656838E+03  0.00000000000E+00 0. -1.
         25    2    1    2    0    0  0.41723238261E+02 -0.43922037815E+02  0.15409834266E+03  0.20746496756E+03  0.12500175814E+03 0.  0.
          2    1    1    2  501    0 -0.41338592391E+02  0.42401388695E+01 -0.24323777709E+03  0.24676197884E+03  0.00000000000E+00 0. -1.
          1    1    1    2  502    0 -0.38464586979E+00  0.39681898945E+02  0.55116835474E+03  0.55259511066E+03  0.00000000000E+00 0. -1.
         22    1    3    3    0    0 -0.42116333967E+02  0.34156317295E+01  0.40165397759E+02  0.58298467425E+02  0.00000000000E+00 0.  1.
         22    1    3    3    0    0  0.83839572228E+02 -0.47337669544E+02  0.11393294490E+03  0.14916650014E+03  0.00000000000E+00 0.  1.
</event>
<event>
 7    1  0.5562528E-006  0.4928098E+02  0.7818608E-02  0.1496785E+00
          2   -1    0    0  502    0  0.00000000000E+00  0.00000000000E+00  0.20630940240E+03  0.20630940240E+03  0.00000000000E+00 0. -1.
          1   -1    0    0  501    0 -0.00000000000E+00 -0.00000000000E+00 -0.80203391757E+03  0.80203391757E+03  0.00000000000E+00 0. -1.
         25    2    1    2    0    0 -0.58986122553E+01 -0.15659359230E+02 -0.17837295588E+03  0.21845118975E+03  0.12499600696E+03 0.  0.
          2    1    1    2  501    0  0.29331756580E+02  0.41804363612E+02 -0.60087463883E+03  0.60304086789E+03  0.00000000000E+00 0. -1.
          1    1    1    2  502    0 -0.23433144325E+02 -0.26145004382E+02  0.18352307954E+03  0.18685126232E+03  0.00000000000E+00 0. -1.
         22    1    3    3    0    0 -0.63927082719E+02  0.33073602814E+01 -0.77209483352E+02  0.10029414169E+03  0.00000000000E+00 0. -1.
         22    1    3    3    0    0  0.58028470464E+02 -0.18966719511E+02 -0.10116347253E+03  0.11815704807E+03  0.00000000000E+00 0. -1.
</event>
<event>
 7    1  0.5562528E-006  0.1945274E+03  0.7818608E-02  0.1297734E+00
          2   -1    0    0  502    0  0.00000000000E+00  0.00000000000E+00  0.90737126467E+03  0.90737126467E+03  0.00000000000E+00 0. -1.
          1   -1    0    0  501    0 -0.00000000000E+00 -0.00000000000E+00 -0.47362756080E+03  0.47362756080E+03  0.00000000000E+00 0. -1.
         25    2    1    2    0    0  0.15004350482E+03  0.18189037603E+03  0.38928217481E+03  0.47197769348E+03  0.12500067717E+03 0.  0.
          2    1    1    2  501    0 -0.11869249181E+03 -0.15151881848E+03 -0.40975685130E+03  0.45271021322E+03  0.00000000000E+00 0. -1.
          1    1    1    2  502    0 -0.31351013011E+02 -0.30371557545E+02  0.45421838036E+03  0.45631091877E+03  0.00000000000E+00 0. -1.
         22    1    3    3    0    0  0.60525738905E+02  0.13072158775E+03  0.13434092722E+03  0.19697457527E+03  0.00000000000E+00 0. -1.
         22    1    3    3    0    0  0.89517765920E+02  0.51168788273E+02  0.25494124759E+03  0.27500311822E+03  0.00000000000E+00 0. -1.
</event>
<event>
 7    1  0.5562528E-006  0.3266299E+02  0.7818608E-02  0.1592541E+00
          2   -1    0    0  502    0  0.00000000000E+00  0.00000000000E+00  0.16164319372E+04  0.16164319372E+04  0.00000000000E+00 0. -1.
          1   -1    0    0  501    0 -0.00000000000E+00 -0.00000000000E+00 -0.12024167492E+04  0.12024167492E+04  0.00000000000E+00 0. -1.
         25    2    1    2    0    0  0.56029962462E+02  0.10460051730E+02  0.12273568825E+03  0.18422124730E+03  0.12499859764E+03 0.  0.
          2    1    1    2  501    0 -0.27884329404E+02  0.58679272902E+01 -0.11713197400E+04  0.11716662928E+04  0.00000000000E+00 0. -1.
          1    1    1    2  502    0 -0.28145633057E+02 -0.16327979020E+02  0.14625992397E+04  0.14629611463E+04  0.00000000000E+00 0. -1.
         22    1    3    3    0    0  0.75793476822E+02 -0.37577919577E+02  0.85734210165E+02  0.12044544807E+03  0.00000000000E+00 0.  1.
         22    1    3    3    0    0 -0.19763514360E+02  0.48037971307E+02  0.37001478085E+02  0.63775799231E+02  0.00000000000E+00 0.  1.
</event>
<event>
 7    1  0.5562528E-006  0.4890111E+02  0.7818608E-02  0.1481582E+00
          2   -1    0    0  502    0  0.00000000000E+00  0.00000000000E+00  0.14708781328E+04  0.14708781328E+04  0.00000000000E+00 0. -1.
          1   -1    0    0  501    0 -0.00000000000E+00 -0.00000000000E+00 -0.32284194705E+03  0.32284194705E+03  0.00000000000E+00 0. -1.
         25    2    1    2    0    0 -0.32829564698E+02  0.71450680929E+02  0.62867918770E+03  0.64578937336E+03  0.12499365417E+03 0.  0.
          2    1    1    2  501    0  0.30780442772E+02 -0.24498713483E+02 -0.31238985077E+03  0.31485717632E+03  0.00000000000E+00 0. -1.
          1    1    1    2  502    0  0.20491219258E+01 -0.46951967447E+02  0.83174684879E+03  0.83307353014E+03  0.00000000000E+00 0. -1.
         22    1    3    3    0    0 -0.55658601101E+02 -0.80360615835E+01  0.36896700193E+03  0.37322795538E+03  0.00000000000E+00 0. -1.
         22    1    3    3    0    0  0.22829036404E+02  0.79486742513E+02  0.25971218576E+03  0.27256141798E+03  0.00000000000E+00 0. -1.
</event>
<event>
 7    1  0.5562528E-006  0.4294655E+02  0.7818608E-02  0.1508744E+00
          2   -1    0    0  502    0  0.00000000000E+00  0.00000000000E+00  0.30175784450E+03  0.30175784450E+03  0.00000000000E+00 0. -1.
          1   -1    0    0  501    0 -0.00000000000E+00 -0.00000000000E+00 -0.65892494840E+03  0.65892494840E+03  0.00000000000E+00 0. -1.
         25    2    1    2    0    0 -0.36291535439E+02  0.70634350004E+02 -0.61002336969E+02  0.16016623281E+03  0.12500260026E+03 0.  0.
          2    1    1    2  501    0  0.18411174320E+02 -0.32233633113E+02 -0.54592706709E+03  0.54718766527E+03  0.00000000000E+00 0. -1.
          1    1    1    2  502    0  0.17880361119E+02 -0.38400716890E+02  0.24976230016E+03  0.25332889482E+03  0.00000000000E+00 0. -1.
         22    1    3    3    0    0 -0.68984015954E+02 -0.12606839240E+01 -0.31659081752E+02  0.75912325999E+02  0.00000000000E+00 0. -1.
         22    1    3    3    0    0  0.32692480515E+02  0.71895033928E+02 -0.29343255217E+02  0.84253906808E+02  0.00000000000E+00 0. -1.
</event>
<event>
 7    1  0.5562528E-006  0.8869822E+02  0.7818608E-02  0.1389513E+00
          2   -1    0    0  502    0  0.00000000000E+00  0.00000000000E+00  0.13164234015E+04  0.13164234015E+04  0.00000000000E+00 0. -1.
          1   -1    0    0  501    0 -0.00000000000E+00 -0.00000000000E+00 -0.13494178284E+03  0.13494178284E+03  0.00000000000E+00 0. -1.
         25    2    1    2    0    0 -0.43616228402E+02 -0.42898087478E+02  0.17886637072E+03  0.22662994737E+03  0.12500133272E+03 0.  0.
          2    1    1    2  501    0  0.10412429005E+02 -0.42108669148E+02 -0.10487483977E+03  0.11349136845E+03  0.00000000000E+00 0. -1.
          1    1    1    2  502    0  0.33203799397E+02  0.85006756627E+02  0.11074900877E+04  0.11112438685E+04  0.00000000000E+00 0. -1.
         22    1    3    3    0    0  0.21076431533E+02  0.12665946451E+01 -0.91026323192E+01  0.22993002051E+02  0.00000000000E+00 0. -1.
         22    1    3    3    0    0 -0.64692659936E+02 -0.44164682124E+02  0.18796900303E+03  0.20363694532E+03  0.00000000000E+00 0. -1.
</event>
<event>
 7    1  0.5562528E-006  0.9691305E+02  0.7818608E-02  0.1375349E+00
          2   -1    0    0  502    0  0.00000000000E+00  0.00000000000E+00  0.36440025355E+03  0.36440025355E+03  0.00000000000E+00 0. -1.
          1   -1    0    0  501    0 -0.00000000000E+00 -0.00000000000E+00 -0.17970390004E+04  0.17970390004E+04  0.00000000000E+00 0. -1.
         25    2    1    2    0    0 -0.13609870716E+03 -0.90983281259E+01 -0.60996962749E+02  0.19480991717E+03  0.12499854678E+03 0.  0.
          2    1    1    2  501    0  0.41675497447E+02  0.15723262511E+02 -0.16613002194E+04  0.16618972553E+04  0.00000000000E+00 0. -1.
          1    1    1    2  502    0  0.94423209710E+02 -0.66249343852E+01  0.28965843537E+03  0.30473208146E+03  0.00000000000E+00 0. -1.
         22    1    3    3    0    0 -0.18679127111E+00  0.25264726213E+02  0.20603847438E+02  0.32601530805E+02  0.00000000000E+00 0. -1.
         22    1    3    3    0    0 -0.13591191589E+03 -0.34363054339E+02 -0.81600810187E+02  0.16220838636E+03  0.00000000000E+00 0. -1.
</event>
<event>
 7    1  0.5562528E-006  0.2655240E+03  0.7818608E-02  0.1177422E+00
          2   -1    0    0  502    0  0.00000000000E+00  0.00000000000E+00  0.20833787890E+04  0.20833787890E+04  0.00000000000E+00 0. -1.
          1   -1    0    0  501    0 -0.00000000000E+00 -0.00000000000E+00 -0.52044301811E+03  0.52044301811E+03  0.00000000000E+00 0. -1.
         25    2    1    2    0    0  0.31240026967E+03  0.61104033980E+02  0.25444910482E+03  0.42625937817E+03  0.12500031628E+03 0.  0.
          2    1    1    2  501    0 -0.85495000060E+02  0.68200941499E+02 -0.41767507510E+03  0.43175598643E+03  0.00000000000E+00 0. -1.
          1    1    1    2  502    0 -0.22690526961E+03 -0.12930497548E+03  0.17261617412E+04  0.17458064426E+04  0.00000000000E+00 0. -1.
         22    1    3    3    0    0  0.14309442325E+02 -0.23552581609E+02  0.40456955532E+01  0.27854118055E+02  0.00000000000E+00 0. -1.
         22    1    3    3    0    0  0.29809082735E+03  0.84656615588E+02  0.25040340927E+03  0.39840526011E+03  0.00000000000E+00 0. -1.
</event>
<event>
 7    1  0.5562528E-006  0.5663958E+02  0.7818608E-02  0.1447220E+00
          2   -1    0    0  502    0  0.00000000000E+00  0.00000000000E+00  0.12006010256E+04  0.12006010256E+04  0.00000000000E+00 0. -1.
          1   -1    0    0  501    0 -0.00000000000E+00 -0.00000000000E+00 -0.12322808319E+03  0.12322808319E+03  0.00000000000E+00 0. -1.
         25    2    1    2    0    0 -0.83335531082E+02 -0.36014545127E+02  0.32069589455E+03  0.35596828422E+03  0.12500281752E+03 0.  0.
          2    1    1    2  501    0  0.55974850021E+02  0.21594588002E+01 -0.97569350915E+02  0.11250611243E+03  0.00000000000E+00 0. -1.
          1    1    1    2  502    0  0.27360681061E+02  0.33855086327E+02  0.85424639880E+03  0.85535471216E+03  0.00000000000E+00 0. -1.
         22    1    3    3    0    0 -0.60348716185E+02  0.16829673610E+02  0.52766474197E+02  0.81911575850E+02  0.00000000000E+00 0. -1.
         22    1    3    3    0    0 -0.22986814897E+02 -0.52844218737E+02  0.26792942035E+03  0.27405670837E+03  0.00000000000E+00 0. -1.
</event>
<event>
 7    1  0.5562528E-006  0.1307495E+03  0.7818608E-02  0.1238503E+00
          2   -1    0    0  502    0  0.00000000000E+00  0.00000000000E+00  0.14071930762E+04  0.14071930762E+04  0.00000000000E+00 0. -1.
          1   -1    0    0  501    0 -0.00000000000E+00 -0.00000000000E+00 -0.85787616359E+03  0.85787616359E+03  0.00000000000E+00 0. -1.
         25    2    1    2    0    0 -0.23008909040E+03  0.24982673575E+02 -0.25849095548E+03  0.36878313815E+03  0.12497321882E+03 0.  0.
          2    1    1    2  501    0  0.11893111844E+03  0.59713615281E+01 -0.53522172775E+03  0.54830882352E+03  0.00000000000E+00 0. -1.
          1    1    1    2  502    0  0.11115797196E+03 -0.30954035103E+02  0.13430295958E+04  0.13479772781E+04  0.00000000000E+00 0. -1.
         22    1    3    3    0    0 -0.19992700625E+02 -0.20519553573E+02 -0.93521094100E+02  0.97810813302E+02  0.00000000000E+00 0. -1.
         22    1    3    3    0    0 -0.21009638977E+03  0.45502227148E+02 -0.16496986138E+03  0.27097232485E+03  0.00000000000E+00 0. -1.
</event>
<event>
 7    1  0.5562528E-006  0.1698901E+03  0.7818608E-02  0.1279661E+00
          2   -1    0    0  502    0  0.00000000000E+00  0.00000000000E+00  0.30994477121E+04  0.30994477121E+04  0.00000000000E+00 0. -1.
          1   -1    0    0  501    0 -0.00000000000E+00 -0.00000000000E+00 -0.24376809646E+03  0.24376809646E+03  0.00000000000E+00 0. -1.
         25    2    1    2    0    0 -0.84736537528E+02 -0.11245743678E+03  0.89322730320E+02  0.20840376114E+03  0.12500648633E+03 0.  0.
          2    1    1    2  501    0  0.14378377673E+03  0.10796017930E+03 -0.13998277005E+03  0.22786915253E+03  0.00000000000E+00 0. -1.
          1    1    1    2  502    0 -0.59047239197E+02  0.44972574750E+01  0.29063396554E+04  0.29069428949E+04  0.00000000000E+00 0. -1.
         22    1    3    3    0    0 -0.20455570482E+02 -0.93274902054E+02 -0.14877118549E+01  0.95503146563E+02  0.00000000000E+00 0. -1.
         22    1    3    3    0    0 -0.64280967046E+02 -0.19182534723E+02  0.90810442175E+02  0.11290061457E+03  0.00000000000E+00 0. -1.
</event>
<event>
 7    1  0.5562528E-006  0.8467385E+02  0.7818608E-02  0.1371419E+00
          2   -1    0    0  502    0  0.00000000000E+00  0.00000000000E+00  0.23280456219E+04  0.23280456219E+04  0.00000000000E+00 0. -1.
          1   -1    0    0  501    0 -0.00000000000E+00 -0.00000000000E+00 -0.56643570873E+03  0.56643570873E+03  0.00000000000E+00 0. -1.
         25    2    1    2    0    0 -0.12274066254E+03  0.30315411373E+02  0.80293458157E+03  0.82238286271E+03  0.12500134475E+03 0.  0.
          2    1    1    2  501    0  0.42279188398E+02 -0.31391132679E+02 -0.55439482020E+03  0.55689006962E+03  0.00000000000E+00 0. -1.
          1    1    1    2  502    0  0.80461474147E+02  0.10757213059E+01  0.15130701518E+04  0.15152083983E+04  0.00000000000E+00 0. -1.
         22    1    3    3    0    0 -0.79019778751E+01 -0.37138737359E+02  0.10049806536E+03  0.10743178397E+03  0.00000000000E+00 0.  1.
         22    1    3    3    0    0 -0.11483868467E+03  0.67454148733E+02  0.70243651622E+03  0.71495107874E+03  0.00000000000E+00 0.  1.
</event>
<event>
 7    1  0.5562528E-006  0.1008820E+03  0.7818608E-02  0.1334351E+00
          2   -1    0    0  502    0  0.00000000000E+00  0.00000000000E+00  0.38631310064E+03  0.38631310064E+03  0.00000000000E+00 0. -1.
          1   -1    0    0  501    0 -0.00000000000E+00 -0.00000000000E+00 -0.52787312014E+03  0.52787312014E+03  0.00000000000E+00 0. -1.
         25    2    1    2    0    0 -0.13519761020E+03  0.61119388346E+02 -0.22563473117E+03  0.29756830689E+03  0.12498756705E+03 0.  0.
          2    1    1    2  501    0  0.60364457290E+02  0.48388880166E+01 -0.25556018406E+03  0.26263718362E+03  0.00000000000E+00 0. -1.
          1    1    1    2  502    0  0.74833152911E+02 -0.65958276363E+02  0.33963489574E+03  0.35398073027E+03  0.00000000000E+00 0. -1.
         22    1    3    3    0    0 -0.14140737923E+01  0.60093128002E+02 -0.74465652274E+02  0.95699096163E+02  0.00000000000E+00 0. -1.
         22    1    3    3    0    0 -0.13378353641E+03  0.10262603443E+01 -0.15116907890E+03  0.20186921073E+03  0.00000000000E+00 0. -1.
</event>
<event>
 7    1  0.5562528E-006  0.1083041E+03  0.7818608E-02  0.1376360E+00
          2   -1    0    0  502    0  0.00000000000E+00  0.00000000000E+00  0.16212710320E+04  0.16212710320E+04  0.00000000000E+00 0. -1.
          1   -1    0    0  501    0 -0.00000000000E+00 -0.00000000000E+00 -0.23381063836E+04  0.23381063836E+04  0.00000000000E+00 0. -1.
         25    2    1    2    0    0 -0.12873357870E+03 -0.19545097404E+01  0.80315423566E+02  0.19660413887E+03  0.12500586292E+03 0.  0.
          2    1    1    2  501    0  0.24861847805E+02  0.30731200045E+02 -0.22778316365E+04  0.22781745944E+04  0.00000000000E+00 0. -1.
          1    1    1    2  502    0  0.10387173090E+03 -0.28776690305E+02  0.14806808614E+04  0.14845986823E+04  0.00000000000E+00 0. -1.
         22    1    3    3    0    0 -0.14879954338E+03  0.49876193856E+01  0.45243703622E+02  0.15560582628E+03  0.00000000000E+00 0.  1.
         22    1    3    3    0    0  0.20065964673E+02 -0.69421291259E+01  0.35071719944E+02  0.40998312586E+02  0.00000000000E+00 0.  1.
</event>
<event>
 7    1  0.5562528E-006  0.7523833E+02  0.7818608E-02  0.1354865E+00
          2   -1    0    0  502    0  0.00000000000E+00  0.00000000000E+00  0.75933296741E+02  0.75933296741E+02  0.00000000000E+00 0. -1.
          1   -1    0    0  501    0 -0.00000000000E+00 -0.00000000000E+00 -0.20381844817E+04  0.20381844817E+04  0.00000000000E+00 0. -1.
         25    2    1    2    0    0  0.68009447673E+02 -0.71005807765E+02 -0.79343292013E+03  0.80920666239E+03  0.12495004599E+03 0.  0.
          2    1    1    2  501    0 -0.75195822686E+02  0.33237509812E+01 -0.12183881320E+04  0.12207108992E+04  0.00000000000E+00 0. -1.
          1    1    1    2  502    0  0.71863750130E+01  0.67682056784E+02  0.49569867179E+02  0.84200216914E+02  0.00000000000E+00 0. -1.
         22    1    3    3    0    0  0.28742053425E+02  0.24017392807E+02 -0.42648072694E+03  0.42812235546E+03  0.00000000000E+00 0. -1.
         22    1    3    3    0    0  0.39267394248E+02 -0.95023200571E+02 -0.36695219319E+03  0.38108430692E+03  0.00000000000E+00 0. -1.
</event>
<event>
 7    1  0.5562528E-006  0.6654894E+02  0.7818608E-02  0.1435632E+00
          2   -1    0    0  502    0  0.00000000000E+00  0.00000000000E+00  0.10879517051E+04  0.10879517051E+04  0.00000000000E+00 0. -1.
          1   -1    0    0  501    0 -0.00000000000E+00 -0.00000000000E+00 -0.76234697158E+03  0.76234697158E+03  0.00000000000E+00 0. -1.
         25    2    1    2    0    0  0.27867325615E+02 -0.87323417620E+00  0.48292215901E+01  0.12816601695E+03  0.12500342453E+03 0.  0.
          2    1    1    2  501    0 -0.66753686421E+02 -0.10049870363E+02 -0.69865176581E+03  0.70190550961E+03  0.00000000000E+00 0. -1.
          1    1    1    2  502    0  0.38886360806E+02  0.10923104540E+02  0.10194272777E+04  0.10202271501E+04  0.00000000000E+00 0. -1.
         22    1    3    3    0    0  0.17190876555E+02 -0.24274424470E+02 -0.55285584881E+02  0.62779533414E+02  0.00000000000E+00 0. -1.
         22    1    3    3    0    0  0.10676449060E+02  0.23401190294E+02  0.60114806471E+02  0.65386483532E+02  0.00000000000E+00 0. -1.
</event>
<event>
 7    1  0.5562528E-006  0.9313878E+02  0.7818608E-02  0.1388564E+00
          2   -1    0    0  502    0  0.00000000000E+00  0.00000000000E+00  0.63932586434E+03  0.63932586434E+03  0.00000000000E+00 0. -1.
          1   -1    0    0  501    0 -0.00000000000E+00 -0.00000000000E+00 -0.66618172481E+02  0.66618172481E+02  0.00000000000E+00 0. -1.
         25    2    1    2    0    0  0.12664899210E+02  0.53793115466E+02  0.31801054564E+02  0.14032276427E+03  0.12500028863E+03 0.  0.
          2    1    1    2  501    0  0.17355367414E+02  0.37834953438E+02  0.48727299931E+02  0.64086209423E+02  0.00000000000E+00 0. -1.
          1    1    1    2  502    0 -0.30020266624E+02 -0.91628068903E+02  0.49217933736E+03  0.50153506313E+03  0.00000000000E+00 0. -1.
         22    1    3    3    0    0  0.34215376019E+02  0.62422056392E+02  0.67264411068E+02  0.97937255816E+02  0.00000000000E+00 0. -1.
         22    1    3    3    0    0 -0.21550476809E+02 -0.86289409268E+01 -0.35463356505E+02  0.42385508453E+02  0.00000000000E+00 0. -1.
</event>
<event>
 7    1  0.5562528E-006  0.2387855E+03  0.7818608E-02  0.1342492E+00
          2   -1    0    0  502    0  0.00000000000E+00  0.00000000000E+00  0.70673754304E+02  0.70673754304E+02  0.00000000000E+00 0. -1.
          1   -1    0    0  501    0 -0.00000000000E+00 -0.00000000000E+00 -0.19735328023E+04  0.19735328023E+04  0.00000000000E+00 0. -1.
         25    2    1    2    0    0  0.77465163270E+02 -0.22925099698E+03 -0.37542926868E+03  0.46381967781E+03  0.12499874643E+03 0.  0.
          2    1    1    2  501    0 -0.23838435960E+02  0.54705379791E-01 -0.10278967657E+04  0.10281731541E+04  0.00000000000E+00 0. -1.
          1    1    1    2  502    0 -0.53626727310E+02  0.22919629160E+03 -0.49953301363E+03  0.55221372463E+03  0.00000000000E+00 0. -1.
         22    1    3    3    0    0  0.47801978999E+02 -0.10640808817E+03 -0.28636984102E+03  0.30921739322E+03  0.00000000000E+00 0.  1.
         22    1    3    3    0    0  0.29663184271E+02 -0.12284290881E+03 -0.89059427652E+02  0.15460228459E+03  0.00000000000E+00 0.  1.
</event>
<event>
 7    1  0.5562528E-006  0.2107671E+03  0.7818608E-02  0.1228738E+00
          2   -1    0    0  502    0  0.00000000000E+00  0.00000000000E+00  0.30288427277E+03  0.30288427277E+03  0.00000000000E+00 0. -1.
          1   -1    0    0  501    0 -0.00000000000E+00 -0.00000000000E+00 -0.82370918523E+03  0.82370918523E+03  0.00000000000E+00 0. -1.
         25    2    1    2    0    0  0.14795044521E+03  0.47081404993E+02 -0.89048952559E+02  0.21831244420E+03  0.12499845761E+03 0.  0.
          2    1    1    2  501    0 -0.20321850838E+03 -0.10370492826E+03 -0.64323757968E+03  0.68250059209E+03  0.00000000000E+00 0. -1.
          1    1    1    2  502    0  0.55268063166E+02  0.56623523271E+02  0.21146161977E+03  0.22578042171E+03  0.00000000000E+00 0. -1.
         22    1    3    3    0    0  0.12301236458E+03  0.94533018779E+01 -0.11291858014E+03  0.16724835574E+03  0.00000000000E+00 0. -1.
         22    1    3    3    0    0  0.24938080626E+02  0.37628103115E+02  0.23869627577E+02  0.51064088457E+02  0.00000000000E+00 0. -1.
</event>
<event>
 7    1  0.5562528E-006  0.1069757E+03  0.7818608E-02  0.1278906E+00
          2   -1    0    0  502    0  0.00000000000E+00  0.00000000000E+00  0.19502240415E+03  0.19502240415E+03  0.00000000000E+00 0. -1.
          1   -1    0    0  501    0 -0.00000000000E+00 -0.00000000000E+00 -0.92025296271E+03  0.92025296271E+03  0.00000000000E+00 0. -1.
         25    2    1    2    0    0 -0.10634215175E+03 -0.16302569255E+03 -0.20218193620E+03  0.30722691753E+03  0.12499925544E+03 0.  0.
          2    1    1    2  501    0  0.44013020062E+02  0.83878778167E+02 -0.64383370742E+03  0.65076465651E+03  0.00000000000E+00 0. -1.
          1    1    1    2  502    0  0.62329131687E+02  0.79146914379E+02  0.12078508505E+03  0.15728379282E+03  0.00000000000E+00 0. -1.
         22    1    3    3    0    0 -0.12593540799E+03 -0.88914647527E+02 -0.14445490443E+03  0.21126467037E+03  0.00000000000E+00 0. -1.
         22    1    3    3    0    0  0.19593256243E+02 -0.74111045019E+02 -0.57727031766E+02  0.95962247163E+02  0.00000000000E+00 0. -1.
</event>
<event>
 7    1  0.5562528E-006  0.1045808E+03  0.7818608E-02  0.1439102E+00
          2   -1    0    0  502    0  0.00000000000E+00  0.00000000000E+00  0.81308359217E+03  0.81308359217E+03  0.00000000000E+00 0. -1.
          1   -1    0    0  501    0 -0.00000000000E+00 -0.00000000000E+00 -0.23698975656E+03  0.23698975656E+03  0.00000000000E+00 0. -1.
         25    2    1    2    0    0 -0.14039201331E+02 -0.94878728451E+02  0.30583699182E+03  0.34403552023E+03  0.12500040532E+03 0.  0.
          2    1    1    2  501    0  0.38940703032E+02  0.97529922853E+02 -0.20488790664E+03  0.23023361721E+03  0.00000000000E+00 0. -1.
          1    1    1    2  502    0 -0.24901501701E+02 -0.26511944021E+01  0.47514475043E+03  0.47580421129E+03  0.00000000000E+00 0. -1.
         22    1    3    3    0    0 -0.49759639352E+02 -0.26418343476E+01  0.54038104794E+02  0.73505902939E+02  0.00000000000E+00 0.  1.
         22    1    3    3    0    0  0.35720438020E+02 -0.92236894103E+02  0.25179888703E+03  0.27052961729E+03  0.00000000000E+00 0.  1.
</event>
<event>
 7    1  0.5562528E-006  0.4408989E+02  0.7818608E-02  0.1512014E+00
          2   -1    0    0  502    0  0.00000000000E+00  0.00000000000E+00  0.33665393538E+02  0.33665393538E+02  0.00000000000E+00 0. -1.
          1   -1    0    0  501    0 -0.00000000000E+00 -0.00000000000E+00 -0.46860226500E+03  0.46860226500E+03  0.00000000000E+00 0. -1.
         25    2    1    2    0    0 -0.21375869196E+02 -0.43627260667E+01 -0.25718210482E+03  0.28678072222E+03  0.12499834575E+03 0.  0.
          2    1    1    2  501    0  0.33841379568E+02  0.37459259970E+02 -0.17249683231E+03  0.17973200129E+03  0.00000000000E+00 0. -1.
          1    1    1    2  502    0 -0.12465510372E+02 -0.33096533903E+02 -0.52579343315E+01  0.35754935025E+02  0.00000000000E+00 0. -1.
         22    1    3    3    0    0 -0.46877999000E+02  0.23896065216E+02 -0.23876637764E+03  0.24449530019E+03  0.00000000000E+00 0. -1.
         22    1    3    3    0    0  0.25502129804E+02 -0.28258791282E+02 -0.18415727176E+02  0.42285422035E+02  0.00000000000E+00 0. -1.
</event>
<event>
 7    1  0.5562528E-006  0.6736354E+02  0.7818608E-02  0.1381864E+00
          2   -1    0    0  502    0  0.00000000000E+00  0.00000000000E+00  0.19422445937E+04  0.19422445937E+04  0.00000000000E+00 0. -1.
          1   -1    0    0  501    0 -0.00000000000E+00 -0.00000000000E+00 -0.68725138071E+02  0.68725138071E+02  0.00000000000E+00 0. -1.
         25    2    1    2    0    0  0.10106859102E+03  0.55137700106E+02  0.42921235830E+03  0.46163162402E+03  0.12500192685E+03 0.  0.
          2    1    1    2  501    0 -0.40411758984E+02 -0.51609687892E+02 -0.31189518294E+02  0.72591020105E+02  0.00000000000E+00 0. -1.
          1    1    1    2  502    0 -0.60656832040E+02 -0.35280122141E+01  0.14754966156E+04  0.14767470876E+04  0.00000000000E+00 0. -1.
         22    1    3    3    0    0  0.73818477448E+02 -0.10202840195E+01  0.88504397708E+02  0.11525292624E+03  0.00000000000E+00 0. -1.
         22    1    3    3    0    0  0.27250113576E+02  0.56157984125E+02  0.34070796059E+03  0.34637869779E+03  0.00000000000E+00 0. -1.
</event>
<event>
 7    1  0.5562528E-006  0.4378084E+02  0.7818608E-02  0.1514531E+00
          2   -1    0    0  502    0  0.00000000000E+00  0.00000000000E+00  0.69698027860E+03  0.69698027860E+03  0.00000000000E+00 0. -1.
          1   -1    0    0  501    0 -0.00000000000E+00 -0.00000000000E+00 -0.91367790487E+03  0.91367790487E+03  0.00000000000E+00 0. -1.
         25    2    1    2    0    0 -0.42741855148E+02 -0.14480176744E+02 -0.55220397323E+01  0.13301302142E+03  0.12500171696E+03 0.  0.
          2    1    1    2  501    0  0.38116134103E+01  0.34808017790E+02 -0.84328511573E+03  0.84401179667E+03  0.00000000000E+00 0. -1.
          1    1    1    2  502    0  0.38930241737E+02 -0.20327841046E+02  0.63210952919E+03  0.63363336539E+03  0.00000000000E+00 0. -1.
         22    1    3    3    0    0  0.25974489473E+02  0.14582291956E+02 -0.40773070981E+02  0.50495154810E+02  0.00000000000E+00 0.  1.
         22    1    3    3    0    0 -0.68716344621E+02 -0.29062468700E+02  0.35251031249E+02  0.82517866605E+02  0.00000000000E+00 0.  1.
</event>
<event>
 7    1  0.5562528E-006  0.2112338E+02  0.7818608E-02  0.1729501E+00
          2   -1    0    0  502    0  0.00000000000E+00  0.00000000000E+00  0.55205334348E+03  0.55205334348E+03  0.00000000000E+00 0. -1.
          1   -1    0    0  501    0 -0.00000000000E+00 -0.00000000000E+00 -0.14756358627E+03  0.14756358627E+03  0.00000000000E+00 0. -1.
         25    2    1    2    0    0 -0.29561651818E+02 -0.99454633223E+01  0.15902974014E+03  0.20466789389E+03  0.12500274013E+03 0.  0.
          2    1    1    2  501    0  0.10758685819E+02  0.18163654352E+02 -0.12356425038E+03  0.12535466339E+03  0.00000000000E+00 0. -1.
          1    1    1    2  502    0  0.18802965998E+02 -0.82181910297E+01  0.36902426746E+03  0.36959437248E+03  0.00000000000E+00 0. -1.
         22    1    3    3    0    0 -0.13016792523E+02 -0.20513702163E+02  0.17663507758E+03  0.17829806363E+03  0.00000000000E+00 0. -1.
         22    1    3    3    0    0 -0.16544859295E+02  0.10568238841E+02 -0.17605337437E+02  0.26369830253E+02  0.00000000000E+00 0. -1.
</event>
<event>
 7    1  0.5562528E-006  0.5000009E+02  0.7818608E-02  0.1517311E+00
          2   -1    0    0  502    0  0.00000000000E+00  0.00000000000E+00  0.40799523237E+04  0.40799523237E+04  0.00000000000E+00 0. -1.
          1   -1    0    0  501    0 -0.00000000000E+00 -0.00000000000E+00 -0.32401154187E+02  0.32401154187E+02  0.00000000000E+00 0. -1.
         25    2    1    2    0    0  0.60951561408E+02 -0.27029756501E+02  0.28622201581E+04  0.28657245540E+04  0.12500914187E+03 0.  0.
          2    1    1    2  501    0 -0.49915921563E+02 -0.96662341804E+00 -0.10001876279E+02  0.50917296820E+02  0.00000000000E+00 0. -1.
          1    1    1    2  502    0 -0.11035639845E+02  0.27996379919E+02  0.11953328877E+04  0.11957116271E+04  0.00000000000E+00 0. -1.
         22    1    3    3    0    0  0.87997350706E+01 -0.42753606712E+02  0.32481341152E+03  0.32773321243E+03  0.00000000000E+00 0. -1.
         22    1    3    3    0    0  0.52151826338E+02  0.15723850211E+02  0.25374067466E+04  0.25379913416E+04  0.00000000000E+00 0. -1.
</event>
<event>
 7    1  0.5562528E-006  0.1306554E+03  0.7818608E-02  0.1397506E+00
          2   -1    0    0  502    0  0.00000000000E+00  0.00000000000E+00  0.90086407089E+02  0.90086407089E+02  0.00000000000E+00 0. -1.
          1   -1    0    0  501    0 -0.00000000000E+00 -0.00000000000E+00 -0.73153893119E+03  0.73153893119E+03  0.00000000000E+00 0. -1.
         25    2    1    2    0    0 -0.96290194507E+02  0.11696024060E+03 -0.25856164256E+03  0.32470041036E+03  0.12499893619E+03 0.  0.
          2    1    1    2  501    0  0.23584621568E+02 -0.14383809607E+02 -0.36944687758E+03  0.37047823648E+03  0.00000000000E+00 0. -1.
          1    1    1    2  502    0  0.72705572939E+02 -0.10257643099E+03 -0.13444003963E+02  0.12644669143E+03  0.00000000000E+00 0. -1.
         22    1    3    3    0    0 -0.10521014918E+02 -0.67342107474E+01  0.10551951934E+02  0.16351912393E+02  0.00000000000E+00 0.  1.
         22    1    3    3    0    0 -0.85769179589E+02  0.12369445135E+03 -0.26911359449E+03  0.30834849797E+03  0.00000000000E+00 0.  1.
</event>
<event>
 7    1  0.5562528E-006  0.5913650E+02  0.7818608E-02  0.1478158E+00
          2   -1    0    0  502    0  0.00000000000E+00  0.00000000000E+00  0.27074090012E+02  0.27074090012E+02  0.00000000000E+00 0. -1.
          1   -1    0    0  501    0 -0.00000000000E+00 -0.00000000000E+00 -0.14744159815E+04  0.14744159815E+04  0.00000000000E+00 0. -1.
         25    2    1    2    0    0  0.51436779816E+02 -0.66036051487E+02 -0.89244346319E+03  0.90503342917E+03  0.12499468188E+03 0.  0.
          2    1    1    2  501    0 -0.31291979192E+02  0.11468753810E+02 -0.53340568356E+03  0.53444582843E+03  0.00000000000E+00 0. -1.
          1    1    1    2  502    0 -0.20144800624E+02  0.54567297678E+02 -0.21492744762E+02  0.62010813939E+02  0.00000000000E+00 0. -1.
         22    1    3    3    0    0  0.44213570215E+02 -0.80600559185E+02 -0.33591016066E+03  0.34826272549E+03  0.00000000000E+00 0. -1.
         22    1    3    3    0    0  0.72232096008E+01  0.14564507697E+02 -0.55653330253E+03  0.55677070367E+03  0.00000000000E+00 0. -1.
</event>
<event>
 7    1  0.5562528E-006  0.1133206E+03  0.7818608E-02  0.1299985E+00
          2   -1    0    0  502    0  0.00000000000E+00  0.00000000000E+00  0.67264612679E+03  0.67264612679E+03  0.00000000000E+00 0. -1.
          1   -1    0    0  501    0 -0.00000000000E+00 -0.00000000000E+00 -0.18307535453E+03  0.18307535453E+03  0.00000000000E+00 0. -1.
         25    2    1    2    0    0  0.24517590275E+02  0.11252043408E+03 -0.57423490262E+02  0.17940402640E+03  0.12500554842E+03 0.  0.
          2    1    1    2  501    0 -0.72841134974E+02 -0.89459899511E+01 -0.36339282909E+02  0.81892644131E+02  0.00000000000E+00 0. -1.
          1    1    1    2  502    0  0.48323544699E+02 -0.10357444413E+03  0.58333354544E+03  0.59442481079E+03  0.00000000000E+00 0. -1.
         22    1    3    3    0    0  0.38287317202E+01  0.10255560034E+03  0.14735213170E+02  0.10367949100E+03  0.00000000000E+00 0.  1.
         22    1    3    3    0    0  0.20688858555E+02  0.99648337431E+01 -0.72158703432E+02  0.75724535395E+02  0.00000000000E+00 0.  1.
</event>
<event>
 7    1  0.5562528E-006  0.2637558E+03  0.7818608E-02  0.1255475E+00
          2   -1    0    0  502    0  0.00000000000E+00  0.00000000000E+00  0.33333309239E+03  0.33333309239E+03  0.00000000000E+00 0. -1.
          1   -1    0    0  501    0 -0.00000000000E+00 -0.00000000000E+00 -0.79886964300E+03  0.79886964300E+03  0.00000000000E+00 0. -1.
         25    2    1    2    0    0  0.18724791074E+03 -0.14633688491E+03 -0.20665971760E+03  0.33883597410E+03  0.12500125800E+03 0.  0.
          2    1    1    2  501    0  0.11425403494E+01 -0.48225587720E+02 -0.45590842941E+03  0.45845338773E+03  0.00000000000E+00 0. -1.
          1    1    1    2  502    0 -0.18839045109E+03  0.19456247263E+03  0.19703159640E+03  0.33491337357E+03  0.00000000000E+00 0. -1.
         22    1    3    3    0    0  0.12945256357E+03 -0.64890652541E+02 -0.18789431441E+03  0.23721938451E+03  0.00000000000E+00 0. -1.
         22    1    3    3    0    0  0.57795347171E+02 -0.81446232370E+02 -0.18765403191E+02  0.10161658958E+03  0.00000000000E+00 0. -1.
</event>
<event>
 7    1  0.5562528E-006  0.7886089E+02  0.7818608E-02  0.1372621E+00
          2   -1    0    0  502    0  0.00000000000E+00  0.00000000000E+00  0.12361773982E+03  0.12361773982E+03  0.00000000000E+00 0. -1.
          1   -1    0    0  501    0 -0.00000000000E+00 -0.00000000000E+00 -0.70334216017E+03  0.70334216017E+03  0.00000000000E+00 0. -1.
         25    2    1    2    0    0 -0.41241915054E+02  0.51589236903E+02 -0.65621208704E+02  0.15587200710E+03  0.12501037814E+03 0.  0.
          2    1    1    2  501    0  0.45315618071E+02  0.32870658603E+02 -0.56804011085E+03  0.57079204004E+03  0.00000000000E+00 0. -1.
          1    1    1    2  502    0 -0.40737030173E+01 -0.84459895506E+02  0.53936899195E+02  0.10029585286E+03  0.00000000000E+00 0. -1.
         22    1    3    3    0    0  0.17317947041E+02 -0.24341516679E+02  0.12307921115E+02  0.32309528720E+02  0.00000000000E+00 0.  1.
         22    1    3    3    0    0 -0.58559862095E+02  0.75930753582E+02 -0.77929129819E+02  0.12356247838E+03  0.00000000000E+00 0.  1.
</event>
<event>
 7    1  0.5562528E-006  0.7682931E+02  0.7818608E-02  0.1362382E+00
          2   -1    0    0  502    0  0.00000000000E+00  0.00000000000E+00  0.52373887964E+03  0.52373887964E+03  0.00000000000E+00 0. -1.
          1   -1    0    0  501    0 -0.00000000000E+00 -0.00000000000E+00 -0.88910412663E+03  0.88910412663E+03  0.00000000000E+00 0. -1.
         25    2    1    2    0    0  0.41238157700E+02 -0.32375807137E+02  0.11882831810E+03  0.18025669172E+03  0.12499410863E+03 0.  0.
          2    1    1    2  501    0 -0.36924421666E+02 -0.50507219332E+02 -0.85262759882E+03  0.85492000467E+03  0.00000000000E+00 0. -1.
          1    1    1    2  502    0 -0.43137360341E+01  0.82883026468E+02  0.36843403374E+03  0.37766630987E+03  0.00000000000E+00 0. -1.
         22    1    3    3    0    0  0.74199544645E+02  0.16740341563E+02  0.73035652551E+02  0.10545149598E+03  0.00000000000E+00 0.  1.
         22    1    3    3    0    0 -0.32961386945E+02 -0.49116148700E+02  0.45792665544E+02  0.74805195743E+02  0.00000000000E+00 0.  1.
</event>
<event>
 7    1  0.5562528E-006  0.5456017E+02  0.7818608E-02  0.1538102E+00
          2   -1    0    0  502    0  0.00000000000E+00  0.00000000000E+00  0.24059600399E+04  0.24059600399E+04  0.00000000000E+00 0. -1.
          1   -1    0    0  501    0 -0.00000000000E+00 -0.00000000000E+00 -0.25149077832E+03  0.25149077832E+03  0.00000000000E+00 0. -1.
         25    2    1    2    0    0  0.75021016106E+02  0.67910755748E+01 -0.80888251638E+02  0.16683849487E+03  0.12497160698E+03 0.  0.
          2    1    1    2  501    0 -0.20768679585E+02 -0.12092915001E+02 -0.12617871435E+03  0.12844704979E+03  0.00000000000E+00 0. -1.
          1    1    1    2  502    0 -0.54252336521E+02  0.53018394262E+01  0.23615362276E+04  0.23621652736E+04  0.00000000000E+00 0. -1.
         22    1    3    3    0    0  0.32908173570E+02  0.56485746591E+02 -0.77810559107E+02  0.10162711530E+03  0.00000000000E+00 0. -1.
         22    1    3    3    0    0  0.42112842536E+02 -0.49694671016E+02 -0.30776925314E+01  0.65211379568E+02  0.00000000000E+00 0. -1.
</event>
<event>
 7    1  0.5562528E-006  0.1115237E+03  0.7818608E-02  0.1315624E+00
          2   -1    0    0  502    0  0.00000000000E+00  0.00000000000E+00  0.72157701916E+03  0.72157701916E+03  0.00000000000E+00 0. -1.
          1   -1    0    0  501    0 -0.00000000000E+00 -0.00000000000E+00 -0.74854371054E+03  0.74854371054E+03  0.00000000000E+00 0. -1.
         25    2    1    2    0    0 -0.29995948009E+02 -0.14237788002E+03 -0.45696534995E+02  0.19719084642E+03  0.12499935593E+03 0.  0.
          2    1    1    2  501    0 -0.36153942495E+02  0.53623445180E+02 -0.62066429324E+03  0.62402463600E+03  0.00000000000E+00 0. -1.
          1    1    1    2  502    0  0.66149890504E+02  0.88754434839E+02  0.63939413685E+03  0.64890524728E+03  0.00000000000E+00 0. -1.
         22    1    3    3    0    0 -0.32130669464E+02 -0.11064806515E+03 -0.87491620784E+02  0.14467258879E+03  0.00000000000E+00 0. -1.
         22    1    3    3    0    0  0.21347214543E+01 -0.31729814873E+02  0.41795085789E+02  0.52518257622E+02  0.00000000000E+00 0. -1.
</event>
<event>
 7    1  0.5562528E-006  0.1051981E+03  0.7818608E-02  0.1385222E+00
          2   -1    0    0  502    0  0.00000000000E+00  0.00000000000E+00  0.32315166597E+03  0.32315166597E+03  0.00000000000E+00 0. -1.
          1   -1    0    0  501    0 -0.00000000000E+00 -0.00000000000E+00 -0.16765340839E+03  0.16765340839E+03  0.00000000000E+00 0. -1.
         25    2    1    2    0    0  0.16782135623E+02  0.83898608208E+02  0.11071117670E+03  0.18762184556E+03  0.12499750298E+03 0.  0.
          2    1    1    2  501    0 -0.20015385353E+02  0.32138706592E+02 -0.10619036614E+03  0.11273821878E+03  0.00000000000E+00 0. -1.
          1    1    1    2  502    0  0.32332497308E+01 -0.11603731480E+03  0.15097744703E+03  0.19044501002E+03  0.00000000000E+00 0. -1.
         22    1    3    3    0    0 -0.35699760273E+02 -0.16576895599E+01 -0.31026528285E+01  0.35872653551E+02  0.00000000000E+00 0.  1.
         22    1    3    3    0    0  0.52481895896E+02  0.85556297768E+02  0.11381382953E+03  0.15174919201E+03  0.00000000000E+00 0.  1.
</event>
<event>
 7    1  0.5562528E-006  0.1136771E+03  0.7818608E-02  0.1383550E+00
          2   -1    0    0  502    0  0.00000000000E+00  0.00000000000E+00  0.98272167031E+03  0.98272167031E+03  0.00000000000E+00 0. -1.
          1   -1    0    0  501    0 -0.00000000000E+00 -0.00000000000E+00 -0.80763994635E+03  0.80763994635E+03  0.00000000000E+00 0. -1.
         25    2    1    2    0    0  0.85566763454E+02  0.81252175516E+02 -0.44774041116E+02  0.17763048204E+03  0.12499714539E+03 0.  0.
          2    1    1    2  501    0 -0.30483796757E+02  0.18223396176E+02 -0.69245316795E+03  0.69336335628E+03  0.00000000000E+00 0. -1.
          1    1    1    2  502    0 -0.55082966697E+02 -0.99475571692E+02  0.91230893302E+03  0.91936777834E+03  0.00000000000E+00 0. -1.
         22    1    3    3    0    0  0.68168185240E+02  0.34144095356E+02 -0.84344221800E+02  0.11369550773E+03  0.00000000000E+00 0.  1.
         22    1    3    3    0    0  0.17398578214E+02  0.47108080159E+02  0.39570180684E+02  0.63934974306E+02  0.00000000000E+00 0.  1.
</event>
<event>
 7    1  0.5562528E-006  0.1428338E+03  0.7818608E-02  0.1346179E+00
          2   -1    0    0  502    0  0.00000000000E+00  0.00000000000E+00  0.21333059052E+03  0.21333059052E+03  0.00000000000E+00 0. -1.
          1   -1    0    0  501    0 -0.00000000000E+00 -0.00000000000E+00 -0.96202032662E+03  0.96202032662E+03  0.00000000000E+00 0. -1.
         25    2    1    2    0    0 -0.15327056515E+03  0.32238432816E+02  0.13117204150E+02  0.20081791308E+03  0.12499836190E+03 0.  0.
          2    1    1    2  501    0  0.15763666388E+02 -0.35242886216E+02 -0.82306381090E+03  0.82396880464E+03  0.00000000000E+00 0. -1.
          1    1    1    2  502    0  0.13750689876E+03  0.30044534004E+01  0.61256870647E+02  0.15056419943E+03  0.00000000000E+00 0. -1.
         22    1    3    3    0    0 -0.10473013092E+03  0.35970033459E+02  0.66021208331E+02  0.12892262633E+03  0.00000000000E+00 0.  1.
         22    1    3    3    0    0 -0.48540434227E+02 -0.37316006438E+01 -0.52904004181E+02  0.71895286749E+02  0.00000000000E+00 0.  1.
</event>
<event>
 7    1  0.5562528E-006  0.1246797E+03  0.7818608E-02  0.1423341E+00
          2   -1    0    0  502    0  0.00000000000E+00  0.00000000000E+00  0.81885741255E+03  0.81885741255E+03  0.00000000000E+00 0. -1.
          1   -1    0    0  501    0 -0.00000000000E+00 -0.00000000000E+00 -0.16333549674E+04  0.16333549674E+04  0.00000000000E+00 0. -1.
         25    2    1    2    0    0  0.10725034519E+03 -0.28017525005E+02  0.71594753854E+03  0.73518091683E+03  0.12498993675E+03 0.  0.
          2    1    1    2  501    0 -0.11395490846E+03  0.50714148784E+02 -0.16198001888E+04  0.16245954258E+04  0.00000000000E+00 0. -1.
          1    1    1    2  502    0  0.67045632713E+01 -0.22696623779E+02  0.89355095442E+02  0.92436037242E+02  0.00000000000E+00 0. -1.
         22    1    3    3    0    0  0.42039554760E+02 -0.75232683604E+02  0.34558622382E+03  0.35617007025E+03  0.00000000000E+00 0. -1.
         22    1    3    3    0    0  0.65210790431E+02  0.47215158599E+02  0.37036131472E+03  0.37901084659E+03  0.00000000000E+00 0. -1.
</event>
<event>
 7    1  0.5562528E-006  0.1253786E+03  0.7818608E-02  0.1320896E+00
          2   -1    0    0  502    0  0.00000000000E+00  0.00000000000E+00  0.20496614441E+04  0.20496614441E+04  0.00000000000E+00 0. -1.
          1   -1    0    0  501    0 -0.00000000000E+00 -0.00000000000E+00 -0.27545010769E+02  0.27545010769E+02  0.00000000000E+00 0. -1.
         25    2    1    2    0    0  0.33255388861E+01 -0.13650419790E+03  0.97360317954E+03  0.99104642090E+03  0.12500160766E+03 0.  0.
          2    1    1    2  501    0  0.49225443835E+02  0.24246444465E+02  0.34976258616E+02  0.65072060492E+02  0.00000000000E+00 0. -1.
          1    1    1    2  502    0 -0.52550982721E+02  0.11225775344E+03  0.10135369952E+04  0.10210879735E+04  0.00000000000E+00 0. -1.
         22    1    3    3    0    0  0.63663420857E+02 -0.58971458191E+02  0.47269947324E+03  0.48059905955E+03  0.00000000000E+00 0.  1.
         22    1    3    3    0    0 -0.60337881971E+02 -0.77532739710E+02  0.50090370630E+03  0.51044736135E+03  0.00000000000E+00 0.  1.
</event>
<event>
 7    1  0.5562528E-006  0.4600236E+02  0.7818608E-02  0.1469785E+00
          2   -1    0    0  502    0  0.00000000000E+00  0.00000000000E+00  0.32874874679E+03  0.32874874679E+03  0.00000000000E+00 0. -1.
          1   -1    0    0  501    0 -0.00000000000E+00 -0.00000000000E+00 -0.51739421146E+03  0.51739421146E+03  0.00000000000E+00 0. -1.
         25    2    1    2    0    0  0.87231668755E+00 -0.44316620503E+02  0.99868115087E+02  0.16602072611E+03  0.12499806918E+03 0.  0.
          2    1    1    2  501    0 -0.41433278085E+02  0.18743650298E+02 -0.48029212364E+03  0.48244021908E+03  0.00000000000E+00 0. -1.
          1    1    1    2  502    0  0.40560961398E+02  0.25572970206E+02  0.19177854388E+03  0.19768201306E+03  0.00000000000E+00 0. -1.
         22    1    3    3    0    0  0.15916504511E+02 -0.86256533337E+02  0.71879812232E+02  0.11340296321E+03  0.00000000000E+00 0. -1.
         22    1    3    3    0    0 -0.15044187824E+02  0.41939912834E+02  0.27988302855E+02  0.52617762899E+02  0.00000000000E+00 0. -1.
</event>
<event>
 7    1  0.5562528E-006  0.8862954E+02  0.7818608E-02  0.1381777E+00
          2   -1    0    0  502    0  0.00000000000E+00  0.00000000000E+00  0.11062805524E+04  0.11062805524E+04  0.00000000000E+00 0. -1.
          1   -1    0    0  501    0 -0.00000000000E+00 -0.00000000000E+00 -0.11863206084E+03  0.11863206084E+03  0.00000000000E+00 0. -1.
         25    2    1    2    0    0 -0.43706617263E+02 -0.10997283014E+03  0.26487219673E+03  0.31589037825E+03  0.12500063484E+03 0.  0.
          2    1    1    2  501    0  0.39733434610E+02  0.23599479458E+02 -0.84936404974E+02  0.96694747253E+02  0.00000000000E+00 0. -1.
          1    1    1    2  502    0  0.39731826535E+01  0.86373350684E+02  0.80771269980E+03  0.81232748773E+03  0.00000000000E+00 0. -1.
         22    1    3    3    0    0 -0.42627544131E+02 -0.24954172213E+01  0.17445952330E+02  0.46126953925E+02  0.00000000000E+00 0. -1.
         22    1    3    3    0    0 -0.10790731324E+01 -0.10747741292E+03  0.24742624440E+03  0.26976342433E+03  0.00000000000E+00 0. -1.
</event>
<event>
 7    1  0.5562528E-006  0.1281015E+03  0.7818608E-02  0.1326041E+00
          2   -1    0    0  502    0  0.00000000000E+00  0.00000000000E+00  0.74993050191E+03  0.74993050191E+03  0.00000000000E+00 0. -1.
          1   -1    0    0  501    0 -0.00000000000E+00 -0.00000000000E+00 -0.54972492612E+02  0.54972492612E+02  0.00000000000E+00 0. -1.
         25    2    1    2    0    0 -0.14656408799E+02 -0.14019164803E+03  0.38274816021E+03  0.42660264227E+03  0.12500060701E+03 0.  0.
          2    1    1    2  501    0 -0.41875816716E+02  0.29643706292E+02  0.10957387408E+02  0.52463298478E+02  0.00000000000E+00 0. -1.
          1    1    1    2  502    0  0.56532225515E+02  0.11054794173E+03  0.30125246168E+03  0.32583705377E+03  0.00000000000E+00 0. -1.
         22    1    3    3    0    0 -0.22852649184E+02 -0.11006677631E+03  0.37880685532E+03  0.39513487882E+03  0.00000000000E+00 0. -1.
         22    1    3    3    0    0  0.81962403851E+01 -0.30124871716E+02  0.39413048883E+01  0.31467763450E+02  0.00000000000E+00 0. -1.
</event>
<event>
 7    1  0.5562528E-006  0.1741114E+03  0.7818608E-02  0.1222369E+00
          2   -1    0    0  502    0  0.00000000000E+00  0.00000000000E+00  0.80022090138E+03  0.80022090138E+03  0.00000000000E+00 0. -1.
          1   -1    0    0  501    0 -0.00000000000E+00 -0.00000000000E+00 -0.70740107016E+03  0.70740107016E+03  0.00000000000E+00 0. -1.
         25    2    1    2    0    0  0.24507676164E+03 -0.57469120851E+02  0.11130441590E+03  0.30227218467E+03  0.12495791965E+03 0.  0.
          2    1    1    2  501    0 -0.79615589261E+02  0.64309290788E+02 -0.59591614928E+03  0.60464070646E+03  0.00000000000E+00 0. -1.
          1    1    1    2  502    0 -0.16546117237E+03 -0.68401699368E+01  0.57743156459E+03  0.60070908040E+03  0.00000000000E+00 0. -1.
         22    1    3    3    0    0  0.69967154055E+00 -0.31894056669E+02 -0.14282657729E+01  0.31933686511E+02  0.00000000000E+00 0.  1.
         22    1    3    3    0    0  0.24437709009E+03 -0.25575064182E+02  0.11273268168E+03  0.27033849816E+03  0.00000000000E+00 0.  1.
</event>
<event>
 7    1  0.5562528E-006  0.1843856E+03  0.7818608E-02  0.1322698E+00
          2   -1    0    0  502    0  0.00000000000E+00  0.00000000000E+00  0.97411160818E+03  0.97411160818E+03  0.00000000000E+00 0. -1.
          1   -1    0    0  501    0 -0.00000000000E+00 -0.00000000000E+00 -0.51238417909E+03  0.51238417909E+03  0.00000000000E+00 0. -1.
         25    2    1    2    0    0 -0.19114317596E+03 -0.21507893164E+02 -0.11758588633E+03  0.25777853135E+03  0.12500010951E+03 0.  0.
          2    1    1    2  501    0  0.75563271208E+01  0.35932289957E+02 -0.31424369317E+03  0.31638161489E+03  0.00000000000E+00 0. -1.
          1    1    1    2  502    0  0.18358684884E+03 -0.14424396792E+02  0.89355700859E+03  0.91233564103E+03  0.00000000000E+00 0. -1.
         22    1    3    3    0    0 -0.96729219770E+02  0.10204153225E+02 -0.12444299577E+03  0.15794532565E+03  0.00000000000E+00 0. -1.
         22    1    3    3    0    0 -0.94413956194E+02 -0.31712046389E+02  0.68571094415E+01  0.99833205700E+02  0.00000000000E+00 0. -1.
</event>
<event>
 7    1  0.5562528E-006  0.1924348E+03  0.7818608E-02  0.1182733E+00
          2   -1    0    0  502    0  0.00000000000E+00  0.00000000000E+00  0.99223660039E+03  0.99223660039E+03  0.00000000000E+00 0. -1.
          1   -1    0    0  501    0 -0.00000000000E+00 -0.00000000000E+00 -0.12496236579E+04  0.12496236579E+04  0.00000000000E+00 0. -1.
         25    2    1    2    0    0  0.21975172528E+03 -0.17684104876E+03 -0.11486296023E+03  0.32921990686E+03  0.12501467974E+03 0.  0.
          2    1    1    2  501    0 -0.14210960557E+03  0.38238843883E+01 -0.10124002674E+04  0.10223326579E+04  0.00000000000E+00 0. -1.
          1    1    1    2  502    0 -0.77642119712E+02  0.17301716437E+03  0.86987617007E+03  0.89030769354E+03  0.00000000000E+00 0. -1.
         22    1    3    3    0    0  0.13466815786E+03 -0.17829225884E+03 -0.82924465156E+02  0.23832773490E+03  0.00000000000E+00 0.  1.
         22    1    3    3    0    0  0.85083567423E+02  0.14512100765E+01 -0.31938495078E+02  0.90892171962E+02  0.00000000000E+00 0.  1.
</event>
<event>
 7    1  0.5562528E-006  0.8273089E+02  0.7818608E-02  0.1404073E+00
          2   -1    0    0  502    0  0.00000000000E+00  0.00000000000E+00  0.22827323607E+03  0.22827323607E+03  0.00000000000E+00 0. -1.
          1   -1    0    0  501    0 -0.00000000000E+00 -0.00000000000E+00 -0.21420594217E+03  0.21420594217E+03  0.00000000000E+00 0. -1.
         25    2    1    2    0    0  0.36578683037E+02 -0.33421801501E+02  0.75757673448E+02  0.15433566846E+03  0.12500102641E+03 0.  0.
          2    1    1    2  501    0 -0.43489125772E+02  0.74260606986E+02 -0.15988315822E+03  0.18157248165E+03  0.00000000000E+00 0. -1.
          1    1    1    2  502    0  0.69104427349E+01 -0.40838805485E+02  0.98192778676E+02  0.10657102813E+03  0.00000000000E+00 0. -1.
         22    1    3    3    0    0 -0.14796503524E+02  0.41169211164E+02  0.28046532172E+02  0.51965839079E+02  0.00000000000E+00 0. -1.
         22    1    3    3    0    0  0.51375186562E+02 -0.74591012664E+02  0.47711141277E+02  0.10236982938E+03  0.00000000000E+00 0. -1.
</event>
<event>
 7    1  0.5562528E-006  0.1041005E+03  0.7818608E-02  0.1394818E+00
          2   -1    0    0  502    0  0.00000000000E+00  0.00000000000E+00  0.11426269644E+03  0.11426269644E+03  0.00000000000E+00 0. -1.
          1   -1    0    0  501    0 -0.00000000000E+00 -0.00000000000E+00 -0.91399413877E+03  0.91399413877E+03  0.00000000000E+00 0. -1.
         25    2    1    2    0    0 -0.18859290403E+02  0.84793895162E+02 -0.18444620075E+03  0.23914745435E+03  0.12500170582E+03 0.  0.
          2    1    1    2  501    0  0.27596133511E+02  0.22206888786E+02 -0.66839572959E+03  0.66933365658E+03  0.00000000000E+00 0. -1.
          1    1    1    2  502    0 -0.87368431079E+01 -0.10700078395E+03  0.53110488002E+02  0.11977572429E+03  0.00000000000E+00 0. -1.
         22    1    3    3    0    0 -0.57053406980E+00  0.11585956509E+03 -0.13398082849E+03  0.17712884218E+03  0.00000000000E+00 0. -1.
         22    1    3    3    0    0 -0.18288756333E+02 -0.31065669929E+02 -0.50465372268E+02  0.62018612162E+02  0.00000000000E+00 0. -1.
</event>
<event>
 7    1  0.5562528E-006  0.5119920E+02  0.7818608E-02  0.1476147E+00
          2   -1    0    0  502    0  0.00000000000E+00  0.00000000000E+00  0.27789400386E+03  0.27789400386E+03  0.00000000000E+00 0. -1.
          1   -1    0    0  501    0 -0.00000000000E+00 -0.00000000000E+00 -0.22302863584E+04  0.22302863584E+04  0.00000000000E+00 0. -1.
         25    2    1    2    0    0 -0.18481969259E+02 -0.16911880844E+02 -0.55285472021E+03  0.56736123669E+03  0.12499134506E+03 0.  0.
          2    1    1    2  501    0  0.18406810875E+02 -0.34436307140E+02 -0.16675122129E+04  0.16679693193E+04  0.00000000000E+00 0. -1.
          1    1    1    2  502    0  0.75158383874E-01  0.51348187984E+02  0.26797457854E+03  0.27284980631E+03  0.00000000000E+00 0. -1.
         22    1    3    3    0    0 -0.22935726744E+02 -0.69911278049E+02 -0.29080939590E+03  0.29997289728E+03  0.00000000000E+00 0. -1.
         22    1    3    3    0    0  0.44537574858E+01  0.52999397205E+02 -0.26204532431E+03  0.26738833941E+03  0.00000000000E+00 0. -1.
</event>
<event>
 7    1  0.5562528E-006  0.6569748E+02  0.7818608E-02  0.1388955E+00
          2   -1    0    0  502    0  0.00000000000E+00  0.00000000000E+00  0.71049524787E+03  0.71049524787E+03  0.00000000000E+00 0. -1.
          1   -1    0    0  501    0 -0.00000000000E+00 -0.00000000000E+00 -0.41219263522E+02  0.41219263522E+02  0.00000000000E+00 0. -1.
         25    2    1    2    0    0 -0.15315114152E+02  0.17117257941E+02  0.23226360476E+03  0.26477661250E+03  0.12503087295E+03 0.  0.
          2    1    1    2  501    0  0.52452560738E+02  0.39558669741E+02  0.26450811143E+02  0.70822347389E+02  0.00000000000E+00 0. -1.
          1    1    1    2  502    0 -0.37137446586E+02 -0.56675927682E+02  0.41056156844E+03  0.41611555149E+03  0.00000000000E+00 0. -1.
         22    1    3    3    0    0 -0.15909780294E+02 -0.19323231432E+02 -0.43217959736E+01  0.25400517759E+02  0.00000000000E+00 0. -1.
         22    1    3    3    0    0  0.59466614184E+00  0.36440489373E+02  0.23658540074E+03  0.23937609475E+03  0.00000000000E+00 0. -1.
</event>
<event>
 7    1  0.5562528E-006  0.1428978E+03  0.7818608E-02  0.1279251E+00
          2   -1    0    0  502    0  0.00000000000E+00  0.00000000000E+00  0.56315112868E+03  0.56315112868E+03  0.00000000000E+00 0. -1.
          1   -1    0    0  501    0 -0.00000000000E+00 -0.00000000000E+00 -0.12456007286E+04  0.12456007286E+04  0.00000000000E+00 0. -1.
         25    2    1    2    0    0  0.17665598689E+02 -0.18796378274E+03 -0.21809464497E+03  0.31437669930E+03  0.12499991161E+03 0.  0.
          2    1    1    2  501    0 -0.49844490571E+02  0.50111569563E+02 -0.96832527684E+03  0.97090137728E+03  0.00000000000E+00 0. -1.
          1    1    1    2  502    0  0.32178891882E+02  0.13785221317E+03  0.50397032187E+03  0.52347378071E+03  0.00000000000E+00 0. -1.
         22    1    3    3    0    0 -0.52032320096E+02 -0.10826421670E+03 -0.10625249704E+03  0.16036862561E+03  0.00000000000E+00 0. -1.
         22    1    3    3    0    0  0.69697918785E+02 -0.79699566030E+02 -0.11184214793E+03  0.15400807369E+03  0.00000000000E+00 0. -1.
</event>
<event>
 7    1  0.5562528E-006  0.1205674E+03  0.7818608E-02  0.1291129E+00
          2   -1    0    0  502    0  0.00000000000E+00  0.00000000000E+00  0.18314035812E+03  0.18314035812E+03  0.00000000000E+00 0. -1.
          1   -1    0    0  501    0 -0.00000000000E+00 -0.00000000000E+00 -0.40460923845E+03  0.40460923845E+03  0.00000000000E+00 0. -1.
         25    2    1    2    0    0  0.10296896394E+03  0.82562653590E+02 -0.19042932438E+03  0.26327266206E+03  0.12501986923E+03 0.  0.
          2    1    1    2  501    0 -0.66933394620E+02  0.33586618324E+02 -0.14156004459E+03  0.16014801426E+03  0.00000000000E+00 0. -1.
          1    1    1    2  502    0 -0.36035569324E+02 -0.11614927191E+03  0.11052048864E+03  0.16432892025E+03  0.00000000000E+00 0. -1.
         22    1    3    3    0    0  0.50244588374E+02 -0.60817903887E+01 -0.47024377270E+01  0.50829319844E+02  0.00000000000E+00 0.  1.
         22    1    3    3    0    0  0.52724375570E+02  0.88644443978E+02 -0.18572688665E+03  0.21244334222E+03  0.00000000000E+00 0.  1.
</event>
<event>
 7    1  0.5562528E-006  0.2820136E+03  0.7818608E-02  0.1253927E+00
          2   -1    0    0  502    0  0.00000000000E+00  0.00000000000E+00  0.56814849165E+03  0.56814849165E+03  0.00000000000E+00 0. -1.
          1   -1    0    0  501    0 -0.00000000000E+00 -0.00000000000E+00 -0.24098504574E+03  0.24098504574E+03  0.00000000000E+00 0. -1.
         25    2    1    2    0    0 -0.23495263019E+02 -0.28736818621E+03  0.18187473165E+03  0.36308996569E+03  0.12499361321E+03 0.  0.
          2    1    1    2  501    0 -0.42738661359E+02  0.16501756375E+02 -0.76891419939E+02  0.89505260172E+02  0.00000000000E+00 0. -1.
          1    1    1    2  502    0  0.66233924378E+02  0.27086642984E+03  0.22218013421E+03  0.35653831153E+03  0.00000000000E+00 0. -1.
         22    1    3    3    0    0 -0.11035932066E+02 -0.16324057272E+03  0.29651488706E+02  0.16627834243E+03  0.00000000000E+00 0. -1.
         22    1    3    3    0    0 -0.12459330954E+02 -0.12412761349E+03  0.15222324294E+03  0.19681162326E+03  0.00000000000E+00 0. -1.
</event>
<event>
 7    1  0.5562528E-006  0.2410338E+03  0.7818608E-02  0.1231614E+00
          2   -1    0    0  502    0  0.00000000000E+00  0.00000000000E+00  0.11578685342E+04  0.11578685342E+04  0.00000000000E+00 0. -1.
          1   -1    0    0  501    0 -0.00000000000E+00 -0.00000000000E+00 -0.10927494835E+04  0.10927494835E+04  0.00000000000E+00 0. -1.
         25    2    1    2    0    0  0.11862454974E+03  0.18047292793E+03  0.20413046829E+03  0.32238409371E+03  0.12497997550E+03 0.  0.
          2    1    1    2  501    0  0.66092366266E+02 -0.11962800474E+02 -0.10150208870E+04  0.10172407338E+04  0.00000000000E+00 0. -1.
          1    1    1    2  502    0 -0.18471691600E+03 -0.16851012746E+03  0.87600946938E+03  0.91099319018E+03  0.00000000000E+00 0. -1.
         22    1    3    3    0    0  0.12467175256E+03  0.16992226860E+03  0.21848827722E+03  0.30356836221E+03  0.00000000000E+00 0. -1.
         22    1    3    3    0    0 -0.60472028217E+01  0.10550659333E+02 -0.14357808934E+02  0.18815731495E+02  0.00000000000E+00 0. -1.
</event>
<event>
 7    1  0.5562528E-006  0.7922745E+02  0.7818608E-02  0.1391676E+00
          2   -1    0    0  502    0  0.00000000000E+00  0.00000000000E+00  0.23441610425E+04  0.23441610425E+04  0.00000000000E+00 0. -1.
          1   -1    0    0  501    0 -0.00000000000E+00 -0.00000000000E+00 -0.80322228006E+03  0.80322228006E+03  0.00000000000E+00 0. -1.
         25    2    1    2    0    0 -0.31360824441E+02 -0.11282170678E+03  0.11929021728E+03  0.20872997610E+03  0.12500323258E+03 0.  0.
          2    1    1    2  501    0 -0.21001086089E+01  0.78789708809E+02 -0.75619271928E+03  0.76028919324E+03  0.00000000000E+00 0. -1.
          1    1    1    2  502    0  0.33460933050E+02  0.34031997970E+02  0.21778412645E+04  0.21783641533E+04  0.00000000000E+00 0. -1.
         22    1    3    3    0    0 -0.71003636875E+02 -0.94321108228E+02  0.53246487867E+02  0.12951129826E+03  0.00000000000E+00 0. -1.
         22    1    3    3    0    0  0.39642812434E+02 -0.18500598551E+02  0.66043729414E+02  0.79218677843E+02  0.00000000000E+00 0. -1.
</event>
<event>
 7    1  0.5562528E-006  0.7007087E+02  0.7818608E-02  0.1419283E+00
          2   -1    0    0  502    0  0.00000000000E+00  0.00000000000E+00  0.10475135535E+04  0.10475135535E+04  0.00000000000E+00 0. -1.
          1   -1    0    0  501    0 -0.00000000000E+00 -0.00000000000E+00 -0.35019652240E+03  0.35019652240E+03  0.00000000000E+00 0. -1.
         25    2    1    2    0    0  0.31213428244E+02  0.62528696461E+02  0.59589614022E+02  0.15511667928E+03  0.12500458435E+03 0.  0.
          2    1    1    2  501    0  0.11648737984E+02 -0.69606350691E+02 -0.29780483661E+03  0.30605303113E+03  0.00000000000E+00 0. -1.
          1    1    1    2  502    0 -0.42862166229E+02  0.70776542300E+01  0.93553225369E+03  0.93654036548E+03  0.00000000000E+00 0. -1.
         22    1    3    3    0    0  0.11220085036E+02  0.32354446158E+02  0.97116691637E+02  0.10297743582E+03  0.00000000000E+00 0. -1.
         22    1    3    3    0    0  0.19993343208E+02  0.30174250303E+02 -0.37527077615E+02  0.52139243457E+02  0.00000000000E+00 0. -1.
</event>
<event>
 7    1  0.5562528E-006  0.2884696E+03  0.7818608E-02  0.1297296E+00
          2   -1    0    0  502    0  0.00000000000E+00  0.00000000000E+00  0.48880289926E+03  0.48880289926E+03  0.00000000000E+00 0. -1.
          1   -1    0    0  501    0 -0.00000000000E+00 -0.00000000000E+00 -0.88927282826E+03  0.88927282826E+03  0.00000000000E+00 0. -1.
         25    2    1    2    0    0 -0.95994961968E+02  0.25702619516E+03  0.11198018234E+03  0.32162492714E+03  0.12500213917E+03 0.  0.
          2    1    1    2  501    0  0.60477400840E+01  0.28929176456E+02 -0.70145198486E+03  0.70207432618E+03  0.00000000000E+00 0. -1.
          1    1    1    2  502    0  0.89947221884E+02 -0.28595537162E+03  0.18900187352E+03  0.35437647421E+03  0.00000000000E+00 0. -1.
         22    1    3    3    0    0 -0.12337114316E+03  0.22582927165E+03  0.80819361266E+02  0.26972405910E+03  0.00000000000E+00 0.  1.
         22    1    3    3    0    0  0.27376181193E+02  0.31196923508E+02  0.31160821076E+02  0.51900868039E+02  0.00000000000E+00 0.  1.
</event>
<event>
 7    1  0.5562528E-006  0.2795069E+03  0.7818608E-02  0.1148890E+00
          2   -1    0    0  502    0  0.00000000000E+00  0.00000000000E+00  0.28773500529E+04  0.28773500529E+04  0.00000000000E+00 0. -1.
          1   -1    0    0  501    0 -0.00000000000E+00 -0.00000000000E+00 -0.25405045685E+03  0.25405045685E+03  0.00000000000E+00 0. -1.
         25    2    1    2    0    0 -0.91767683395E+02 -0.18785815616E+03  0.18136803524E+03  0.30367513996E+03  0.12494891704E+03 0.  0.
          2    1    1    2  501    0  0.23055613836E+03  0.22828822702E+03 -0.52873420125E+02  0.32873583025E+03  0.00000000000E+00 0. -1.
          1    1    1    2  502    0 -0.13878845497E+03 -0.40430070867E+02  0.24948049809E+04  0.24989895396E+04  0.00000000000E+00 0. -1.
         22    1    3    3    0    0 -0.35159697496E+00  0.61545496367E+01  0.53759898624E+02  0.54112187183E+02  0.00000000000E+00 0.  1.
         22    1    3    3    0    0 -0.91416086420E+02 -0.19401270579E+03  0.12760813662E+03  0.24956295277E+03  0.00000000000E+00 0.  1.
</event>
<event>
 7    1  0.5562528E-006  0.8465321E+02  0.7818608E-02  0.1476434E+00
          2   -1    0    0  502    0  0.00000000000E+00  0.00000000000E+00  0.14815748920E+04  0.14815748920E+04  0.00000000000E+00 0. -1.
          1   -1    0    0  501    0 -0.00000000000E+00 -0.00000000000E+00 -0.13002550772E+04  0.13002550772E+04  0.00000000000E+00 0. -1.
         25    2    1    2    0    0  0.62515230300E+02 -0.12640191041E+00  0.55993106284E+02  0.15056439919E+03  0.12500496132E+03 0.  0.
          2    1    1    2  501    0  0.22476940532E+02  0.70878579469E+01 -0.12515393373E+04  0.12517612246E+04  0.00000000000E+00 0. -1.
          1    1    1    2  502    0 -0.84992170832E+02 -0.69614560365E+01  0.13768660458E+04  0.13795043454E+04  0.00000000000E+00 0. -1.
         22    1    3    3    0    0  0.80020132477E+02 -0.33130017235E+02  0.42069893360E+01  0.86709390512E+02  0.00000000000E+00 0. -1.
         22    1    3    3    0    0 -0.17504902177E+02  0.33003615325E+02  0.51786116948E+02  0.63855008678E+02  0.00000000000E+00 0. -1.
</event>
<event>
 7    1  0.5562528E-006  0.1620133E+03  0.7818608E-02  0.1226662E+00
          2   -1    0    0  502    0  0.00000000000E+00  0.00000000000E+00  0.23289533717E+03  0.23289533717E+03  0.00000000000E+00 0. -1.
          1   -1    0    0  501    0 -0.00000000000E+00 -0.00000000000E+00 -0.13995761978E+04  0.13995761978E+04  0.00000000000E+00 0. -1.
         25    2    1    2    0    0  0.14842810121E+03 -0.11366095744E+03 -0.99115154228E+03  0.10163454621E+04  0.12500801582E+03 0.  0.
          2    1    1    2  501    0 -0.46939189279E+02  0.14126252683E+03 -0.36790409739E+03  0.39687758043E+03  0.00000000000E+00 0. -1.
          1    1    1    2  502    0 -0.10148891193E+03 -0.27601569395E+02  0.19237477900E+03  0.21924849252E+03  0.00000000000E+00 0. -1.
         22    1    3    3    0    0 -0.63456905770E+01  0.12896431654E+02 -0.19300820913E+03  0.19354264266E+03  0.00000000000E+00 0.  1.
         22    1    3    3    0    0  0.15477379179E+03 -0.12655738909E+03 -0.79814333316E+03  0.82280281940E+03  0.00000000000E+00 0.  1.
</event>
<event>
 7    1  0.5562528E-006  0.5879266E+02  0.7818608E-02  0.1502814E+00
          2   -1    0    0  502    0  0.00000000000E+00  0.00000000000E+00  0.56052586172E+03  0.56052586172E+03  0.00000000000E+00 0. -1.
          1   -1    0    0  501    0 -0.00000000000E+00 -0.00000000000E+00 -0.54149537242E+03  0.54149537242E+03  0.00000000000E+00 0. -1.
         25    2    1    2    0    0 -0.84779118830E+00  0.38875938706E+02 -0.64453596309E+02  0.14592066777E+03  0.12500607123E+03 0.  0.
          2    1    1    2  501    0  0.24105953774E+02 -0.54883919490E+02 -0.43386252816E+03  0.43798405789E+03  0.00000000000E+00 0. -1.
          1    1    1    2  502    0 -0.23258162586E+02  0.16007980784E+02  0.51734661378E+03  0.51811650848E+03  0.00000000000E+00 0. -1.
         22    1    3    3    0    0  0.41800090909E+02 -0.28396117693E+02 -0.17598360292E+02  0.53509712996E+02  0.00000000000E+00 0.  1.
         22    1    3    3    0    0 -0.42647882097E+02  0.67272056399E+02 -0.46855236017E+02  0.92410954771E+02  0.00000000000E+00 0.  1.
</event>
<event>
 7    1  0.5562528E-006  0.3608136E+02  0.7818608E-02  0.1577624E+00
          2   -1    0    0  502    0  0.00000000000E+00  0.00000000000E+00  0.48044721143E+03  0.48044721143E+03  0.00000000000E+00 0. -1.
          1   -1    0    0  501    0 -0.00000000000E+00 -0.00000000000E+00 -0.38258652453E+03  0.38258652453E+03  0.00000000000E+00 0. -1.
         25    2    1    2    0    0  0.49747922319E+01  0.86507592076E+01  0.32003056416E+02  0.12941745007E+03  0.12500038628E+03 0.  0.
          2    1    1    2  501    0  0.26401190230E+02  0.10099279484E+02 -0.33244272548E+03  0.33364229950E+03  0.00000000000E+00 0. -1.
          1    1    1    2  502    0 -0.31375982462E+02 -0.18750038692E+02  0.39830035596E+03  0.39997398638E+03  0.00000000000E+00 0. -1.
         22    1    3    3    0    0 -0.25644541084E+02  0.25258288520E+02  0.69481281089E+02  0.78251338954E+02  0.00000000000E+00 0.  1.
         22    1    3    3    0    0  0.30619333316E+02 -0.16607529312E+02 -0.37478224672E+02  0.51166111120E+02  0.00000000000E+00 0.  1.
</event>
<event>
 7    1  0.5562528E-006  0.6983801E+02  0.7818608E-02  0.1403892E+00
          2   -1    0    0  502    0  0.00000000000E+00  0.00000000000E+00  0.85605024982E+03  0.85605024982E+03  0.00000000000E+00 0. -1.
          1   -1    0    0  501    0 -0.00000000000E+00 -0.00000000000E+00 -0.77515331718E+03  0.77515331718E+03  0.00000000000E+00 0. -1.
         25    2    1    2    0    0  0.88823328473E+02  0.65156894901E+02  0.34065234019E+03  0.37921679580E+03  0.12500542671E+03 0.  0.
          2    1    1    2  501    0 -0.66284255719E+02 -0.21495378008E+02 -0.75304193443E+03  0.75625908843E+03  0.00000000000E+00 0. -1.
          1    1    1    2  502    0 -0.22539072753E+02 -0.43661516894E+02  0.49328652688E+03  0.49572768276E+03  0.00000000000E+00 0. -1.
         22    1    3    3    0    0  0.80346329091E+02  0.88706311943E+02  0.33170559260E+03  0.35263712586E+03  0.00000000000E+00 0. -1.
         22    1    3    3    0    0  0.84769993814E+01 -0.23549417041E+02  0.89467475921E+01  0.26579669937E+02  0.00000000000E+00 0. -1.
</event>
<event>
 7    1  0.5562528E-006  0.7774488E+02  0.7818608E-02  0.1499584E+00
          2   -1    0    0  502    0  0.00000000000E+00  0.00000000000E+00  0.75740214086E+02  0.75740214086E+02  0.00000000000E+00 0. -1.
          1   -1    0    0  501    0 -0.00000000000E+00 -0.00000000000E+00 -0.46274349633E+03  0.46274349633E+03  0.00000000000E+00 0. -1.
         25    2    1    2    0    0  0.56157556669E+02  0.25557502451E+02 -0.17050388020E+03  0.22023436260E+03  0.12499897681E+03 0.  0.
          2    1    1    2  501    0 -0.77982956349E+02 -0.25101825148E+02 -0.25836053015E+03  0.27103801698E+03  0.00000000000E+00 0. -1.
          1    1    1    2  502    0  0.21825399680E+02 -0.45567730300E+00  0.41861128108E+02  0.47211330837E+02  0.00000000000E+00 0. -1.
         22    1    3    3    0    0  0.60551204069E+00  0.68873058857E+02 -0.80606091805E+02  0.10602455809E+03  0.00000000000E+00 0.  1.
         22    1    3    3    0    0  0.55552044629E+02 -0.43315556406E+02 -0.89897788391E+02  0.11420980451E+03  0.00000000000E+00 0.  1.
</event>
<event>
 7    1  0.5562528E-006  0.5275683E+02  0.7818608E-02  0.1437375E+00
          2   -1    0    0  502    0  0.00000000000E+00  0.00000000000E+00  0.18496638009E+04  0.18496638009E+04  0.00000000000E+00 0. -1.
          1   -1    0    0  501    0 -0.00000000000E+00 -0.00000000000E+00 -0.31321956013E+02  0.31321956013E+02  0.00000000000E+00 0. -1.
         25    2    1    2    0    0  0.22252476361E+02 -0.89665702933E+01  0.56596720188E+03  0.58010348465E+03  0.12500242883E+03 0.  0.
          2    1    1    2  501    0  0.10545241937E+02  0.51692175389E+02  0.57215936643E+01  0.53066182810E+02  0.00000000000E+00 0. -1.
          1    1    1    2  502    0 -0.32797718298E+02 -0.42725605096E+02  0.12466530493E+04  0.12478160894E+04  0.00000000000E+00 0. -1.
         22    1    3    3    0    0 -0.25230232968E+02 -0.54629419108E+02  0.31066637225E+03  0.31644040977E+03  0.00000000000E+00 0. -1.
         22    1    3    3    0    0  0.47482709328E+02  0.45662848814E+02  0.25530082963E+03  0.26366307488E+03  0.00000000000E+00 0. -1.
</event>
<event>
 7    1  0.5562528E-006  0.1005006E+03  0.7818608E-02  0.1299597E+00
          2   -1    0    0  502    0  0.00000000000E+00  0.00000000000E+00  0.14940375948E+04  0.14940375948E+04  0.00000000000E+00 0. -1.
          1   -1    0    0  501    0 -0.00000000000E+00 -0.00000000000E+00 -0.22678975024E+04  0.22678975024E+04  0.00000000000E+00 0. -1.
         25    2    1    2    0    0 -0.27161791621E+02  0.17427754049E+03 -0.11614374559E+01  0.21618756992E+03  0.12500116962E+03 0.  0.
          2    1    1    2  501    0 -0.10537496624E+02 -0.82374717868E+02 -0.21566436506E+04  0.21582419857E+04  0.00000000000E+00 0. -1.
          1    1    1    2  502    0  0.37699288246E+02 -0.91902822621E+02  0.13839451805E+04  0.13875055415E+04  0.00000000000E+00 0. -1.
         22    1    3    3    0    0  0.38273259438E+02  0.12949315886E+02 -0.10814107979E+02  0.41826691254E+02  0.00000000000E+00 0.  1.
         22    1    3    3    0    0 -0.65435051059E+02  0.16132822460E+03  0.96526705234E+01  0.17436087866E+03  0.00000000000E+00 0.  1.
</event>
<event>
 7    1  0.5562528E-006  0.9976925E+02  0.7818608E-02  0.1418273E+00
          2   -1    0    0  502    0  0.00000000000E+00  0.00000000000E+00  0.20204837292E+04  0.20204837292E+04  0.00000000000E+00 0. -1.
          1   -1    0    0  501    0 -0.00000000000E+00 -0.00000000000E+00 -0.50504718998E+03  0.50504718998E+03  0.00000000000E+00 0. -1.
         25    2    1    2    0    0 -0.33093425305E+02  0.66843117122E+02  0.21532369849E+02  0.14713140772E+03  0.12498332322E+03 0.  0.
          2    1    1    2  501    0  0.29082764610E+02 -0.97329701131E+02 -0.43629039838E+03  0.44796003129E+03  0.00000000000E+00 0. -1.
          1    1    1    2  502    0  0.40106606941E+01  0.30486584009E+02  0.19301945678E+04  0.19304394802E+04  0.00000000000E+00 0. -1.
         22    1    3    3    0    0 -0.47067646926E+01 -0.31697502767E+02  0.30439045666E+02  0.44197520480E+02  0.00000000000E+00 0. -1.
         22    1    3    3    0    0 -0.28386660612E+02  0.98540619889E+02 -0.89066758161E+01  0.10293388724E+03  0.00000000000E+00 0. -1.
</event>
<event>
 7    1  0.5562528E-006  0.6997947E+02  0.7818608E-02  0.1425786E+00
          2   -1    0    0  502    0  0.00000000000E+00  0.00000000000E+00  0.10637904225E+03  0.10637904225E+03  0.00000000000E+00 0. -1.
          1   -1    0    0  501    0 -0.00000000000E+00 -0.00000000000E+00 -0.89567664222E+03  0.89567664222E+03  0.00000000000E+00 0. -1.
         25    2    1    2    0    0 -0.30269877800E+02  0.79164926233E+02 -0.27860561997E+03  0.31690548356E+03  0.12499857191E+03 0.  0.
          2    1    1    2  501    0  0.40131761348E+02 -0.10106053110E+02 -0.58312235130E+03  0.58458905836E+03  0.00000000000E+00 0. -1.
          1    1    1    2  502    0 -0.98618835481E+01 -0.69058873123E+02  0.72430371297E+02  0.10056114255E+03  0.00000000000E+00 0. -1.
         22    1    3    3    0    0 -0.67789516627E+02  0.87952128274E+02 -0.22471649796E+03  0.25065613874E+03  0.00000000000E+00 0.  1.
         22    1    3    3    0    0  0.37519638827E+02 -0.87872020411E+01 -0.53889122017E+02  0.66249344821E+02  0.00000000000E+00 0.  1.
</event>
<event>
 7    1  0.5562528E-006  0.8697127E+02  0.7818608E-02  0.1313896E+00
          2   -1    0    0  502    0  0.00000000000E+00  0.00000000000E+00  0.55645449377E+03  0.55645449377E+03  0.00000000000E+00 0. -1.
          1   -1    0    0  501    0 -0.00000000000E+00 -0.00000000000E+00 -0.15087391722E+04  0.15087391722E+04  0.00000000000E+00 0. -1.
         25    2    1    2    0    0 -0.47380729809E+02  0.10578976371E+03 -0.20735334735E+03  0.26843594610E+03  0.12500415529E+03 0.  0.
          2    1    1    2  501    0  0.82223754355E+02 -0.29103172841E+02 -0.12659616467E+04  0.12689628171E+04  0.00000000000E+00 0. -1.
          1    1    1    2  502    0 -0.34843024547E+02 -0.76686590870E+02  0.52103031559E+03  0.52779490272E+03  0.00000000000E+00 0. -1.
         22    1    3    3    0    0 -0.28809976177E+02  0.12674909179E+03 -0.12073793203E+03  0.17740629985E+03  0.00000000000E+00 0.  1.
         22    1    3    3    0    0 -0.18570753632E+02 -0.20959328083E+02 -0.86615415324E+02  0.91029646248E+02  0.00000000000E+00 0.  1.
</event>
<event>
 7    1  0.5562528E-006  0.4539284E+02  0.7818608E-02  0.1483753E+00
          2   -1    0    0  502    0  0.00000000000E+00  0.00000000000E+00  0.15340236663E+04  0.15340236663E+04  0.00000000000E+00 0. -1.
          1   -1    0    0  501    0 -0.00000000000E+00 -0.00000000000E+00 -0.23095824177E+02  0.23095824177E+02  0.00000000000E+00 0. -1.
         25    2    1    2    0    0  0.10985443061E+02 -0.96582425362E+01  0.72098262206E+03  0.73188258950E+03  0.12498888709E+03 0.  0.
          2    1    1    2  501    0  0.39541281296E+02  0.13360988538E+02  0.90595593936E+01  0.42709537080E+02  0.00000000000E+00 0. -1.
          1    1    1    2  502    0 -0.50526724357E+02 -0.37027460014E+01  0.78088566066E+03  0.78252736388E+03  0.00000000000E+00 0. -1.
         22    1    3    3    0    0 -0.31155179141E+02  0.46104779917E+02  0.34495123460E+03  0.34941043226E+03  0.00000000000E+00 0.  1.
         22    1    3    3    0    0  0.42140622202E+02 -0.55763022454E+02  0.37603138745E+03  0.38247215724E+03  0.00000000000E+00 0.  1.
</event>
<event>
 7    1  0.5562528E-006  0.1288357E+03  0.7818608E-02  0.1353067E+00
          2   -1    0    0  502    0  0.00000000000E+00  0.00000000000E+00  0.18846092241E+04  0.18846092241E+04  0.00000000000E+00 0. -1.
          1   -1    0    0  501    0 -0.00000000000E+00 -0.00000000000E+00 -0.90981647989E+02  0.90981647989E+02  0.00000000000E+00 0. -1.
         25    2    1    2    0    0 -0.51155162659E+02  0.14537213996E+03  0.28391930561E+03  0.34637781848E+03  0.12497004158E+03 0.  0.
          2    1    1    2  501    0  0.35423512152E+02 -0.19338797117E+02 -0.50048470056E+02  0.64293573878E+02  0.00000000000E+00 0. -1.
          1    1    1    2  502    0  0.15731650507E+02 -0.12603334284E+03  0.15597567405E+04  0.15649194797E+04  0.00000000000E+00 0. -1.
         22    1    3    3    0    0 -0.59808624108E+02  0.84164800527E+02  0.72645505279E+02  0.12624640432E+03  0.00000000000E+00 0.  1.
         22    1    3    3    0    0  0.86534614487E+01  0.61207339430E+02  0.21127380033E+03  0.22013141416E+03  0.00000000000E+00 0.  1.
</event>
<event>
 7    1  0.5562528E-006  0.1169383E+03  0.7818608E-02  0.1417800E+00
          2   -1    0    0  502    0  0.00000000000E+00  0.00000000000E+00  0.47935967936E+03  0.47935967936E+03  0.00000000000E+00 0. -1.
          1   -1    0    0  501    0 -0.00000000000E+00 -0.00000000000E+00 -0.51269375705E+03  0.51269375705E+03  0.00000000000E+00 0. -1.
         25    2    1    2    0    0  0.17212483147E+02 -0.95289126630E+02  0.25515508456E+03  0.30017655652E+03  0.12500224270E+03 0.  0.
          2    1    1    2  501    0 -0.29769200451E+01  0.11743951702E+03 -0.48224109610E+03  0.49634401073E+03  0.00000000000E+00 0. -1.
          1    1    1    2  502    0 -0.14235563102E+02 -0.22150390390E+02  0.19375193386E+03  0.19553286917E+03  0.00000000000E+00 0. -1.
         22    1    3    3    0    0  0.55173828961E+02 -0.29078673674E+01  0.64371948798E+02  0.84831331988E+02  0.00000000000E+00 0.  1.
         22    1    3    3    0    0 -0.37961345814E+02 -0.92381259262E+02  0.19078313576E+03  0.21534522453E+03  0.00000000000E+00 0.  1.
</event>
<event>
 7    1  0.5562528E-006  0.6309758E+02  0.7818608E-02  0.1394522E+00
          2   -1    0    0  502    0  0.00000000000E+00  0.00000000000E+00  0.22413454024E+04  0.22413454024E+04  0.00000000000E+00 0. -1.
          1   -1    0    0  501    0 -0.00000000000E+00 -0.00000000000E+00 -0.42931342794E+03  0.42931342794E+03  0.00000000000E+00 0. -1.
         25    2    1    2    0    0  0.98307798137E+01 -0.72365966780E+02  0.21873234753E+03  0.26230648140E+03  0.12500949143E+03 0.  0.
          2    1    1    2  501    0 -0.52701585771E+02  0.25571926109E+02 -0.40491497902E+03  0.40913020028E+03  0.00000000000E+00 0. -1.
          1    1    1    2  502    0  0.42870805957E+02  0.46794040672E+02  0.19982146060E+04  0.19992221487E+04  0.00000000000E+00 0. -1.
         22    1    3    3    0    0  0.31288042465E+02  0.81219579143E+01  0.47368404398E+01  0.32670253427E+02  0.00000000000E+00 0. -1.
         22    1    3    3    0    0 -0.21457262651E+02 -0.80487924694E+02  0.21399550709E+03  0.22963622797E+03  0.00000000000E+00 0. -1.
</event>
<event>
 7    1  0.5562528E-006  0.5114952E+02  0.7818608E-02  0.1470409E+00
          2   -1    0    0  502    0  0.00000000000E+00  0.00000000000E+00  0.11784254699E+03  0.11784254699E+03  0.00000000000E+00 0. -1.
          1   -1    0    0  501    0 -0.00000000000E+00 -0.00000000000E+00 -0.23233000686E+04  0.23233000686E+04  0.00000000000E+00 0. -1.
         25    2    1    2    0    0  0.98419707868E+01 -0.37419707830E+02 -0.17415188233E+03  0.21783049749E+03  0.12499659432E+03 0.  0.
          2    1    1    2  501    0 -0.47081136568E+02  0.20954028696E+02 -0.21226648011E+04  0.21232902680E+04  0.00000000000E+00 0. -1.
          1    1    1    2  502    0  0.37239165781E+02  0.16465679135E+02  0.91359161749E+02  0.10002185008E+03  0.00000000000E+00 0. -1.
         22    1    3    3    0    0  0.29963432396E+02  0.29876129373E+02 -0.16823633471E+02  0.45534877077E+02  0.00000000000E+00 0.  1.
         22    1    3    3    0    0 -0.20121461609E+02 -0.67295837203E+02 -0.15732824886E+03  0.17229562041E+03  0.00000000000E+00 0.  1.
</event>
<event>
 7    1  0.5562528E-006  0.9313289E+02  0.7818608E-02  0.1328394E+00
          2   -1    0    0  502    0  0.00000000000E+00  0.00000000000E+00  0.26253841095E+03  0.26253841095E+03  0.00000000000E+00 0. -1.
          1   -1    0    0  501    0 -0.00000000000E+00 -0.00000000000E+00 -0.19668478977E+04  0.19668478977E+04  0.00000000000E+00 0. -1.
         25    2    1    2    0    0  0.19132673721E+02 -0.19808325201E+02  0.25992401649E+02  0.13061295090E+03  0.12500283616E+03 0.  0.
          2    1    1    2  501    0 -0.85283187173E+02  0.39845643392E+02 -0.19068527947E+04  0.19091748160E+04  0.00000000000E+00 0. -1.
          1    1    1    2  502    0  0.66150513452E+02 -0.20037318192E+02  0.17655090627E+03  0.18959854181E+03  0.00000000000E+00 0. -1.
         22    1    3    3    0    0  0.30190611927E+01  0.50874143597E+02 -0.61073997362E+01  0.51328291894E+02  0.00000000000E+00 0. -1.
         22    1    3    3    0    0  0.16113612528E+02 -0.70682468798E+02  0.32099801385E+02  0.79284659002E+02  0.00000000000E+00 0. -1.
</event>
<event>
 7    1  0.5562528E-006  0.9836683E+02  0.7818608E-02  0.1296193E+00
          2   -1    0    0  502    0  0.00000000000E+00  0.00000000000E+00  0.18206536144E+04  0.18206536144E+04  0.00000000000E+00 0. -1.
          1   -1    0    0  501    0 -0.00000000000E+00 -0.00000000000E+00 -0.18992756253E+02  0.18992756253E+02  0.00000000000E+00 0. -1.
         25    2    1    2    0    0  0.77751701001E+02 -0.67516180529E+02  0.95812284531E+03  0.97171421199E+03  0.12500144574E+03 0.  0.
          2    1    1    2  501    0 -0.10861718709E+03 -0.14425118065E+02  0.57908470748E+03  0.58935971681E+03  0.00000000000E+00 0. -1.
          1    1    1    2  502    0  0.30865486087E+02  0.81941298595E+02  0.26445330540E+03  0.27857244189E+03  0.00000000000E+00 0. -1.
         22    1    3    3    0    0  0.94385118641E+02 -0.91358489138E+02  0.83035024720E+03  0.84067619045E+03  0.00000000000E+00 0. -1.
         22    1    3    3    0    0 -0.16633417640E+02  0.23842308608E+02  0.12777259810E+03  0.13103802154E+03  0.00000000000E+00 0. -1.
</event>
<event>
 7    1  0.5562528E-006  0.8960866E+02  0.7818608E-02  0.1335616E+00
          2   -1    0    0  502    0  0.00000000000E+00  0.00000000000E+00  0.18948993418E+04  0.18948993418E+04  0.00000000000E+00 0. -1.
          1   -1    0    0  501    0 -0.00000000000E+00 -0.00000000000E+00 -0.32358212581E+03  0.32358212581E+03  0.00000000000E+00 0. -1.
         25    2    1    2    0    0  0.78629412819E+02 -0.52244654094E+02  0.50094350333E+03  0.52486239569E+03  0.12499620970E+03 0.  0.
          2    1    1    2  501    0 -0.88697445928E+02 -0.14427765867E+02 -0.30430059924E+03  0.31729206111E+03  0.00000000000E+00 0. -1.
          1    1    1    2  502    0  0.10068033109E+02  0.66672419960E+02  0.13746743119E+04  0.13763270109E+04  0.00000000000E+00 0. -1.
         22    1    3    3    0    0 -0.92460069744E+01  0.29539037427E+02  0.17056049192E+03  0.17334625690E+03  0.00000000000E+00 0.  1.
         22    1    3    3    0    0  0.87875419793E+02 -0.81783691520E+02  0.33038301141E+03  0.35151613879E+03  0.00000000000E+00 0.  1.
</event>
<event>
 7    1  0.5562528E-006  0.3747396E+02  0.7818608E-02  0.1616269E+00
          2   -1    0    0  502    0  0.00000000000E+00  0.00000000000E+00  0.10172106430E+04  0.10172106430E+04  0.00000000000E+00 0. -1.
          1   -1    0    0  501    0 -0.00000000000E+00 -0.00000000000E+00 -0.70303421958E+03  0.70303421958E+03  0.00000000000E+00 0. -1.
         25    2    1    2    0    0 -0.16236130075E+02  0.23303939445E+01  0.19399974248E+02  0.12755399118E+03  0.12499847603E+03 0.  0.
          2    1    1    2  501    0 -0.19769234679E+02  0.85775240245E+01 -0.64840319680E+03  0.64876120582E+03  0.00000000000E+00 0. -1.
          1    1    1    2  502    0  0.36005364754E+02 -0.10907917969E+02  0.94317964596E+03  0.94392966556E+03  0.00000000000E+00 0. -1.
         22    1    3    3    0    0 -0.16560013376E+02 -0.54660501758E+02 -0.17409652906E+02  0.59708462631E+02  0.00000000000E+00 0.  1.
         22    1    3    3    0    0  0.32388330077E+00  0.56990895703E+02  0.36809627154E+02  0.67845528553E+02  0.00000000000E+00 0.  1.
</event>
<event>
 7    1  0.5562528E-006  0.1871233E+03  0.7818608E-02  0.1298384E+00
          2   -1    0    0  502    0  0.00000000000E+00  0.00000000000E+00  0.33004494750E+04  0.33004494750E+04  0.00000000000E+00 0. -1.
          1   -1    0    0  501    0 -0.00000000000E+00 -0.00000000000E+00 -0.34361398641E+04  0.34361398641E+04  0.00000000000E+00 0. -1.
         25    2    1    2    0    0  0.53127839834E+02  0.20430907318E+03 -0.74487345334E+03  0.78423645462E+03  0.12500236203E+03 0.  0.
          2    1    1    2  501    0 -0.13229608410E+02 -0.18327142247E+03 -0.26682700535E+04  0.26745894106E+04  0.00000000000E+00 0. -1.
          1    1    1    2  502    0 -0.39898231424E+02 -0.21037650719E+02  0.32774531177E+04  0.32777634738E+04  0.00000000000E+00 0. -1.
         22    1    3    3    0    0 -0.39916539143E+02  0.79281327253E+02 -0.29985795884E+03  0.31271976981E+03  0.00000000000E+00 0.  1.
         22    1    3    3    0    0  0.93044378977E+02  0.12502774593E+03 -0.44501549450E+03  0.47151668481E+03  0.00000000000E+00 0.  1.
</event>
<event>
 7    1  0.5562528E-006  0.1833566E+03  0.7818608E-02  0.1189460E+00
          2   -1    0    0  502    0  0.00000000000E+00  0.00000000000E+00  0.73087995109E+03  0.73087995109E+03  0.00000000000E+00 0. -1.
          1   -1    0    0  501    0 -0.00000000000E+00 -0.00000000000E+00 -0.38496184325E+03  0.38496184325E+03  0.00000000000E+00 0. -1.
         25    2    1    2    0    0 -0.22518091001E+03 -0.18379967240E+03  0.26298519906E+03  0.41142689000E+03  0.12498843580E+03 0.  0.
          2    1    1    2  501    0  0.82844996683E+02  0.11092081721E+03 -0.27749129702E+03  0.31010988550E+03  0.00000000000E+00 0. -1.
          1    1    1    2  502    0  0.14233591333E+03  0.72878855195E+02  0.36042420580E+03  0.39430501884E+03  0.00000000000E+00 0. -1.
         22    1    3    3    0    0 -0.22914203547E+03 -0.14957178328E+03  0.25894169289E+03  0.37673411193E+03  0.00000000000E+00 0. -1.
         22    1    3    3    0    0  0.39611254569E+01 -0.34227889118E+02  0.40435061673E+01  0.34692778074E+02  0.00000000000E+00 0. -1.
</event>
<event>
 7    1  0.5562528E-006  0.8042614E+02  0.7818608E-02  0.1328631E+00
          2   -1    0    0  502    0  0.00000000000E+00  0.00000000000E+00  0.23244361889E+04  0.23244361889E+04  0.00000000000E+00 0. -1.
          1   -1    0    0  501    0 -0.00000000000E+00 -0.00000000000E+00 -0.18560327042E+03  0.18560327042E+03  0.00000000000E+00 0. -1.
         25    2    1    2    0    0  0.30605141712E+02 -0.34913409243E+02  0.66950447156E+03  0.68265429612E+03  0.12500011893E+03 0.  0.
          2    1    1    2  501    0  0.42345065309E+02  0.68775349274E+02 -0.16888226537E+03  0.18720142302E+03  0.00000000000E+00 0. -1.
          1    1    1    2  502    0 -0.72950207021E+02 -0.33861940031E+02  0.16382107123E+04  0.16401837402E+04  0.00000000000E+00 0. -1.
         22    1    3    3    0    0  0.22219421581E+02 -0.27349546141E+02  0.67040034593E+03  0.67132579587E+03  0.00000000000E+00 0.  1.
         22    1    3    3    0    0  0.83857201311E+01 -0.75638631025E+01 -0.89587437402E+00  0.11328500256E+02  0.00000000000E+00 0.  1.
</event>
<event>
 7    1  0.5562528E-006  0.1384687E+03  0.7818608E-02  0.1278998E+00
          2   -1    0    0  502    0  0.00000000000E+00  0.00000000000E+00  0.98088589291E+03  0.98088589291E+03  0.00000000000E+00 0. -1.
          1   -1    0    0  501    0 -0.00000000000E+00 -0.00000000000E+00 -0.31721199389E+04  0.31721199389E+04  0.00000000000E+00 0. -1.
         25    2    1    2    0    0  0.36429012752E+02 -0.87979310990E+02 -0.48436088346E+03  0.50921297786E+03  0.12499983702E+03 0.  0.
          2    1    1    2  501    0  0.71984499609E+01  0.14665358769E+03 -0.26719344374E+04  0.26759657566E+04  0.00000000000E+00 0. -1.
          1    1    1    2  502    0 -0.43627462712E+02 -0.58674276697E+02  0.96506127486E+03  0.96782709741E+03  0.00000000000E+00 0. -1.
         22    1    3    3    0    0 -0.11527495343E+02  0.25414508538E+02 -0.15709939431E+03  0.15955876687E+03  0.00000000000E+00 0.  1.
         22    1    3    3    0    0  0.47956508095E+02 -0.11339381953E+03 -0.32726148915E+03  0.34965421098E+03  0.00000000000E+00 0.  1.
</event>
<event>
 7    1  0.5562528E-006  0.1759531E+03  0.7818608E-02  0.1227299E+00
          2   -1    0    0  502    0  0.00000000000E+00  0.00000000000E+00  0.10791817664E+04  0.10791817664E+04  0.00000000000E+00 0. -1.
          1   -1    0    0  501    0 -0.00000000000E+00 -0.00000000000E+00 -0.20698106029E+03  0.20698106029E+03  0.00000000000E+00 0. -1.
         25    2    1    2    0    0 -0.11298081342E+03  0.16757312444E+03  0.31845161255E+03  0.39734172389E+03  0.12499439897E+03 0.  0.
          2    1    1    2  501    0  0.15537455737E+03 -0.81213375288E+02 -0.11728051079E+03  0.21093028141E+03  0.00000000000E+00 0. -1.
          1    1    1    2  502    0 -0.42393743954E+02 -0.86359749149E+02  0.67102960437E+03  0.67789082140E+03  0.00000000000E+00 0. -1.
         22    1    3    3    0    0 -0.14038955210E+03  0.14768564719E+03  0.27378178321E+03  0.34128689037E+03  0.00000000000E+00 0. -1.
         22    1    3    3    0    0  0.27408738679E+02  0.19887477251E+02  0.44669829336E+02  0.56054833515E+02  0.00000000000E+00 0. -1.
</event>
<event>
 7    1  0.5562528E-006  0.1016843E+03  0.7818608E-02  0.1473328E+00
          2   -1    0    0  502    0  0.00000000000E+00  0.00000000000E+00  0.65286168069E+03  0.65286168069E+03  0.00000000000E+00 0. -1.
          1   -1    0    0  501    0 -0.00000000000E+00 -0.00000000000E+00 -0.12955885185E+04  0.12955885185E+04  0.00000000000E+00 0. -1.
         25    2    1    2    0    0 -0.54445213428E+02  0.76136199663E+02 -0.69833725543E+03  0.71558220604E+03  0.12498787584E+03 0.  0.
          2    1    1    2  501    0  0.11788624596E+02  0.16229178362E+02 -0.58443891942E+03  0.58478304390E+03  0.00000000000E+00 0. -1.
          1    1    1    2  502    0  0.42656588832E+02 -0.92365378025E+02  0.64004933704E+03  0.64808494927E+03  0.00000000000E+00 0. -1.
         22    1    3    3    0    0 -0.38186236950E+02  0.91789513634E+01 -0.55660509937E+03  0.55798895911E+03  0.00000000000E+00 0.  1.
         22    1    3    3    0    0 -0.16258976478E+02  0.66957248300E+02 -0.14173215606E+03  0.15759324693E+03  0.00000000000E+00 0.  1.
</event>
<event>
 7    1  0.5562528E-006  0.3550958E+03  0.7818608E-02  0.1168033E+00
          2   -1    0    0  502    0  0.00000000000E+00  0.00000000000E+00  0.74353310421E+03  0.74353310421E+03  0.00000000000E+00 0. -1.
          1   -1    0    0  501    0 -0.00000000000E+00 -0.00000000000E+00 -0.62184123484E+03  0.62184123484E+03  0.00000000000E+00 0. -1.
         25    2    1    2    0    0  0.15427725870E+03 -0.28043314412E+03  0.19078511014E+03  0.39302473129E+03  0.12500104114E+03 0.  0.
          2    1    1    2  501    0 -0.30536744966E+02 -0.85726079439E+02 -0.43241698762E+03  0.44188901850E+03  0.00000000000E+00 0. -1.
          1    1    1    2  502    0 -0.12374051373E+03  0.36615922356E+03  0.36332374685E+03  0.53046058926E+03  0.00000000000E+00 0. -1.
         22    1    3    3    0    0  0.14085674105E+03 -0.15444699533E+03  0.15835309887E+03  0.26224072870E+03  0.00000000000E+00 0.  1.
         22    1    3    3    0    0  0.13420517647E+02 -0.12598614878E+03  0.32432011273E+02  0.13078400259E+03  0.00000000000E+00 0.  1.
</event>
<event>
 7    1  0.5562528E-006  0.1045268E+03  0.7818608E-02  0.1314408E+00
          2   -1    0    0  502    0  0.00000000000E+00  0.00000000000E+00  0.15654363338E+04  0.15654363338E+04  0.00000000000E+00 0. -1.
          1   -1    0    0  501    0 -0.00000000000E+00 -0.00000000000E+00 -0.31787401659E+04  0.31787401659E+04  0.00000000000E+00 0. -1.
         25    2    1    2    0    0 -0.13193752218E+03  0.11280046293E+03  0.11044107779E+04  0.11249353062E+04  0.12499929014E+03 0.  0.
          2    1    1    2  501    0  0.84001576009E+02 -0.62116869206E+02 -0.31649116615E+04  0.31666355324E+04  0.00000000000E+00 0. -1.
          1    1    1    2  502    0  0.47935946175E+02 -0.50683593719E+02  0.44719705144E+03  0.45260566106E+03  0.00000000000E+00 0. -1.
         22    1    3    3    0    0 -0.14061455567E+03  0.12518976518E+03  0.10794821942E+04  0.10957767739E+04  0.00000000000E+00 0.  1.
         22    1    3    3    0    0  0.86770334822E+01 -0.12389302254E+02  0.24928583698E+02  0.29158532295E+02  0.00000000000E+00 0.  1.
</event>
<event>
 7    1  0.5562528E-006  0.1004122E+03  0.7818608E-02  0.1363850E+00
          2   -1    0    0  502    0  0.00000000000E+00  0.00000000000E+00  0.17191676902E+04  0.17191676902E+04  0.00000000000E+00 0. -1.
          1   -1    0    0  501    0 -0.00000000000E+00 -0.00000000000E+00 -0.39992506064E+03  0.39992506064E+03  0.00000000000E+00 0. -1.
         25    2    1    2    0    0 -0.29524865090E+02  0.11788079435E+03  0.44974865555E+02  0.18001159948E+03  0.12495534435E+03 0.  0.
          2    1    1    2  501    0  0.43421039000E+02 -0.18725906035E+02 -0.32915553735E+03  0.33253483119E+03  0.00000000000E+00 0. -1.
          1    1    1    2  502    0 -0.13896173910E+02 -0.99154888314E+02  0.16034233014E+04  0.16065463202E+04  0.00000000000E+00 0. -1.
         22    1    3    3    0    0 -0.64260379514E+02  0.16699388554E+02  0.26310792038E+02  0.71417951042E+02  0.00000000000E+00 0.  1.
         22    1    3    3    0    0  0.34735514424E+02  0.10118140580E+03  0.18664073517E+02  0.10859364844E+03  0.00000000000E+00 0.  1.
</event>
<event>
 7    1  0.5562528E-006  0.5782393E+02  0.7818608E-02  0.1476633E+00
          2   -1    0    0  502    0  0.00000000000E+00  0.00000000000E+00  0.41969944262E+03  0.41969944262E+03  0.00000000000E+00 0. -1.
          1   -1    0    0  501    0 -0.00000000000E+00 -0.00000000000E+00 -0.20288350489E+03  0.20288350489E+03  0.00000000000E+00 0. -1.
         25    2    1    2    0    0 -0.79183474702E+02  0.28128398372E+02 -0.74205677161E+02  0.16790855582E+03  0.12500228452E+03 0.  0.
          2    1    1    2  501    0  0.52936432748E+02 -0.58081775026E+01 -0.72259418751E+02  0.89763157455E+02  0.00000000000E+00 0. -1.
          1    1    1    2  502    0  0.26247041954E+02 -0.22320220870E+02  0.36328103364E+03  0.36491123424E+03  0.00000000000E+00 0. -1.
         22    1    3    3    0    0 -0.16671374291E+02 -0.27536375536E+02  0.23050764074E+02  0.39591974222E+02  0.00000000000E+00 0. -1.
         22    1    3    3    0    0 -0.62512100411E+02  0.55664773908E+02 -0.97256441235E+02  0.12831658160E+03  0.00000000000E+00 0. -1.
</event>
<event>
 7    1  0.5562528E-006  0.1434511E+03  0.7818608E-02  0.1276930E+00
          2   -1    0    0  502    0  0.00000000000E+00  0.00000000000E+00  0.19590766308E+04  0.19590766308E+04  0.00000000000E+00 0. -1.
          1   -1    0    0  501    0 -0.00000000000E+00 -0.00000000000E+00 -0.66486308228E+03  0.66486308228E+03  0.00000000000E+00 0. -1.
         25    2    1    2    0    0 -0.93890061312E+02 -0.23564670829E+02 -0.39984281421E+03  0.42996409228E+03  0.12499682896E+03 0.  0.
          2    1    1    2  501    0 -0.46451485771E+02  0.54990820860E+02 -0.24205410587E+03  0.25253102993E+03  0.00000000000E+00 0. -1.
          1    1    1    2  502    0  0.14034154708E+03 -0.31426150030E+02  0.19361104686E+04  0.19414445909E+04  0.00000000000E+00 0. -1.
         22    1    3    3    0    0 -0.81872562126E+02 -0.34784302047E+02 -0.11866104537E+03  0.14830208288E+03  0.00000000000E+00 0. -1.
         22    1    3    3    0    0 -0.12017499186E+02  0.11219631217E+02 -0.28118176884E+03  0.28166200940E+03  0.00000000000E+00 0. -1.
</event>
<event>
 7    1  0.5562528E-006  0.9679680E+02  0.7818608E-02  0.1346061E+00
          2   -1    0    0  502    0  0.00000000000E+00  0.00000000000E+00  0.13907712247E+04  0.13907712247E+04  0.00000000000E+00 0. -1.
          1   -1    0    0  501    0 -0.00000000000E+00 -0.00000000000E+00 -0.54994714136E+03  0.54994714136E+03  0.00000000000E+00 0. -1.
         25    2    1    2    0    0  0.13422322669E+03 -0.29852885309E+02  0.41922130854E+03  0.45856016542E+03  0.12499540164E+03 0.  0.
          2    1    1    2  501    0 -0.41871358761E+02  0.38715859684E+02 -0.52647362004E+03  0.52955320891E+03  0.00000000000E+00 0. -1.
          1    1    1    2  502    0 -0.92351867925E+02 -0.88629743751E+01  0.94807639486E+03  0.95260499175E+03  0.00000000000E+00 0. -1.
         22    1    3    3    0    0  0.58878017332E+02  0.21247107813E+01  0.41482132776E+02  0.72054858688E+02  0.00000000000E+00 0. -1.
         22    1    3    3    0    0  0.75345209354E+02 -0.31977596090E+02  0.37773917576E+03  0.38650530673E+03  0.00000000000E+00 0. -1.
</event>
<event>
 7    1  0.5562528E-006  0.8007061E+02  0.7818608E-02  0.1354028E+00
          2   -1    0    0  502    0  0.00000000000E+00  0.00000000000E+00  0.28916052772E+03  0.28916052772E+03  0.00000000000E+00 0. -1.
          1   -1    0    0  501    0 -0.00000000000E+00 -0.00000000000E+00 -0.45984461793E+03  0.45984461793E+03  0.00000000000E+00 0. -1.
         25    2    1    2    0    0  0.11026397725E+02 -0.39204441580E+02 -0.18541783204E+03  0.22729438503E+03  0.12499758134E+03 0.  0.
          2    1    1    2  501    0 -0.61699038278E+02  0.78965591637E+02 -0.23940732217E+03  0.25953458709E+03  0.00000000000E+00 0. -1.
          1    1    1    2  502    0  0.50672640552E+02 -0.39761150058E+02  0.25414106401E+03  0.26217617353E+03  0.00000000000E+00 0. -1.
         22    1    3    3    0    0 -0.55006587363E+01  0.42941249133E+02 -0.92778966928E+02  0.10238234627E+03  0.00000000000E+00 0. -1.
         22    1    3    3    0    0  0.16527056462E+02 -0.82145690713E+02 -0.92638865114E+02  0.12491203876E+03  0.00000000000E+00 0. -1.
</event>
<event>
 7    1  0.5562528E-006  0.3318402E+03  0.7818608E-02  0.1311188E+00
          2   -1    0    0  502    0  0.00000000000E+00  0.00000000000E+00  0.78322578062E+03  0.78322578062E+03  0.00000000000E+00 0. -1.
          1   -1    0    0  501    0 -0.00000000000E+00 -0.00000000000E+00 -0.69289325172E+03  0.69289325172E+03  0.00000000000E+00 0. -1.
         25    2    1    2    0    0  0.17124643700E+03 -0.30571157986E+03  0.77237755489E+02  0.37996765355E+03  0.12499933851E+03 0.  0.
          2    1    1    2  501    0 -0.16111031598E+03  0.28548644498E+03 -0.49164255708E+03  0.59090730924E+03  0.00000000000E+00 0. -1.
          1    1    1    2  502    0 -0.10136121021E+02  0.20225134873E+02  0.50473733049E+03  0.50524406956E+03  0.00000000000E+00 0. -1.
         22    1    3    3    0    0  0.12158501323E+03 -0.27870285412E+03  0.28632816367E+02  0.30541452897E+03  0.00000000000E+00 0. -1.
         22    1    3    3    0    0  0.49661423767E+02 -0.27008725739E+02  0.48604939122E+02  0.74553124574E+02  0.00000000000E+00 0. -1.
</event>
<event>
 7    1  0.5562528E-006  0.4243197E+02  0.7818608E-02  0.1501876E+00
          2   -1    0    0  502    0  0.00000000000E+00  0.00000000000E+00  0.18644551778E+04  0.18644551778E+04  0.00000000000E+00 0. -1.
          1   -1    0    0  501    0 -0.00000000000E+00 -0.00000000000E+00 -0.12645392623E+04  0.12645392623E+04  0.00000000000E+00 0. -1.
         25    2    1    2    0    0  0.20078474044E+02 -0.53259194902E+02  0.31894112072E+03  0.34724953359E+03  0.12497645030E+03 0.  0.
          2    1    1    2  501    0 -0.38266180386E+02  0.18338216343E+02 -0.12497718295E+04  0.12504919898E+04  0.00000000000E+00 0. -1.
          1    1    1    2  502    0  0.18187706343E+02  0.34920978559E+02  0.15307466243E+04  0.15312529168E+04  0.00000000000E+00 0. -1.
         22    1    3    3    0    0  0.60930823185E+02 -0.47366926575E+02  0.11063569917E+03  0.13489421365E+03  0.00000000000E+00 0.  1.
         22    1    3    3    0    0 -0.40852349141E+02 -0.58922683268E+01  0.20830542155E+03  0.21235531993E+03  0.00000000000E+00 0.  1.
</event>
<event>
 7    1  0.5562528E-006  0.8128440E+02  0.7818608E-02  0.1480083E+00
          2   -1    0    0  502    0  0.00000000000E+00  0.00000000000E+00  0.52664183675E+02  0.52664183675E+02  0.00000000000E+00 0. -1.
          1   -1    0    0  501    0 -0.00000000000E+00 -0.00000000000E+00 -0.10526706183E+04  0.10526706183E+04  0.00000000000E+00 0. -1.
         25    2    1    2    0    0 -0.25205446114E+02  0.84656681051E+02 -0.31072797022E+03  0.34638106813E+03  0.12500361883E+03 0.  0.
          2    1    1    2  501    0  0.23581453788E+02 -0.40017840519E+01 -0.67691870903E+03  0.67734115324E+03  0.00000000000E+00 0. -1.
          1    1    1    2  502    0  0.16239923253E+01 -0.80654896999E+02 -0.12359755380E+02  0.81612580611E+02  0.00000000000E+00 0. -1.
         22    1    3    3    0    0 -0.68954264207E+02  0.23487533218E+02 -0.10909023710E+03  0.13117558690E+03  0.00000000000E+00 0. -1.
         22    1    3    3    0    0  0.43748818093E+02  0.61169147833E+02 -0.20163773312E+03  0.21520548123E+03  0.00000000000E+00 0. -1.
</event>
<event>
 7    1  0.5562528E-006  0.8315757E+02  0.7818608E-02  0.1428922E+00
          2   -1    0    0  502    0  0.00000000000E+00  0.00000000000E+00  0.11998380755E+04  0.11998380755E+04  0.00000000000E+00 0. -1.
          1   -1    0    0  501    0 -0.00000000000E+00 -0.00000000000E+00 -0.73465771912E+02  0.73465771912E+02  0.00000000000E+00 0. -1.
         25    2    1    2    0    0  0.67259676631E+02 -0.38522484070E+02  0.74874971244E+03  0.76305904896E+03  0.12500053777E+03 0.  0.
          2    1    1    2  501    0 -0.83155690836E+02  0.84614247209E+01 -0.39000581310E+02  0.92236164107E+02  0.00000000000E+00 0. -1.
          1    1    1    2  502    0  0.15896014205E+02  0.30061059349E+02  0.41662317243E+03  0.41800863431E+03  0.00000000000E+00 0. -1.
         22    1    3    3    0    0 -0.83227276272E+01  0.27494744679E+02  0.54631223547E+02  0.61723572210E+02  0.00000000000E+00 0. -1.
         22    1    3    3    0    0  0.75582404258E+02 -0.66017228749E+02  0.69411848889E+03  0.70133547675E+03  0.00000000000E+00 0. -1.
</event>
<event>
 7    1  0.5562528E-006  0.3642150E+03  0.7818608E-02  0.1208747E+00
          2   -1    0    0  502    0  0.00000000000E+00  0.00000000000E+00  0.57074193436E+03  0.57074193436E+03  0.00000000000E+00 0. -1.
          1   -1    0    0  501    0 -0.00000000000E+00 -0.00000000000E+00 -0.92001929494E+03  0.92001929494E+03  0.00000000000E+00 0. -1.
         25    2    1    2    0    0 -0.18796925185E+03 -0.32450866774E+03 -0.40180641332E+03  0.56365887778E+03  0.12499848656E+03 0.  0.
          2    1    1    2  501    0  0.22156352839E+03  0.27907145140E+03 -0.36246221450E+03  0.50828154505E+03  0.00000000000E+00 0. -1.
          1    1    1    2  502    0 -0.33594276536E+02  0.45437216335E+02  0.41499126724E+03  0.41882080647E+03  0.00000000000E+00 0. -1.
         22    1    3    3    0    0 -0.64194156940E+02 -0.20051646695E+03 -0.15706701506E+03  0.26267430503E+03  0.00000000000E+00 0.  1.
         22    1    3    3    0    0 -0.12377509491E+03 -0.12399220079E+03 -0.24473939826E+03  0.30098457276E+03  0.00000000000E+00 0.  1.
</event>
<event>
 7    1  0.5562528E-006  0.2194991E+03  0.7818608E-02  0.1315538E+00
          2   -1    0    0  502    0  0.00000000000E+00  0.00000000000E+00  0.87194622041E+03  0.87194622041E+03  0.00000000000E+00 0. -1.
          1   -1    0    0  501    0 -0.00000000000E+00 -0.00000000000E+00 -0.51044328981E+03  0.51044328981E+03  0.00000000000E+00 0. -1.
         25    2    1    2    0    0 -0.13439366815E+03  0.15296127617E+03 -0.19997254747E+03  0.31156508287E+03  0.12499988430E+03 0.  0.
          2    1    1    2  501    0  0.16275121443E+03 -0.16961202608E+03 -0.20000193405E+03  0.30863728034E+03  0.00000000000E+00 0. -1.
          1    1    1    2  502    0 -0.28357546278E+02  0.16650749905E+02  0.76147741212E+03  0.76218714702E+03  0.00000000000E+00 0. -1.
         22    1    3    3    0    0 -0.71353508891E+02  0.83180014224E+02 -0.18684525732E+03  0.21661345336E+03  0.00000000000E+00 0.  1.
         22    1    3    3    0    0 -0.63040159263E+02  0.69781261947E+02 -0.13127290155E+02  0.94951629505E+02  0.00000000000E+00 0.  1.
</event>
<event>
 7    1  0.6096183E-006  0.2134922E+03  0.7818608E-02  0.1199428E+00
          2   -1    0    0  502    0  0.00000000000E+00  0.00000000000E+00  0.17291367481E+04  0.17291367481E+04  0.00000000000E+00 0. -1.
          1   -1    0    0  501    0 -0.00000000000E+00 -0.00000000000E+00 -0.13724486000E+04  0.13724486000E+04  0.00000000000E+00 0. -1.
         25    2    1    2    0    0 -0.14345251790E+02 -0.23375413332E+03 -0.39480466444E+03  0.47575779886E+03  0.12501191550E+03 0.  0.
          2    1    1    2  501    0  0.10835888769E+03  0.18351894462E+03 -0.92333459485E+03  0.94761153730E+03  0.00000000000E+00 0. -1.
          1    1    1    2  502    0 -0.94013635897E+02  0.50235188698E+02  0.16748274074E+04  0.16782160119E+04  0.00000000000E+00 0. -1.
         22    1    3    3    0    0 -0.15018731269E+02 -0.46439636698E+02 -0.13047396562E+02  0.50521645882E+02  0.00000000000E+00 0.  1.
         22    1    3    3    0    0  0.67347947864E+00 -0.18731449662E+03 -0.38175726788E+03  0.42523615298E+03  0.00000000000E+00 0.  1.
</event>
<event>
 7    1  0.5562528E-006  0.1420488E+03  0.7818608E-02  0.1311199E+00
          2   -1    0    0  502    0  0.00000000000E+00  0.00000000000E+00  0.44876942592E+03  0.44876942592E+03  0.00000000000E+00 0. -1.
          1   -1    0    0  501    0 -0.00000000000E+00 -0.00000000000E+00 -0.17358988952E+04  0.17358988952E+04  0.00000000000E+00 0. -1.
         25    2    1    2    0    0  0.12633027998E+03 -0.12719376764E+03  0.41217452595E+02  0.22240080586E+03  0.12500258349E+03 0.  0.
          2    1    1    2  501    0 -0.12945891133E+02  0.51234155908E+02 -0.16301681794E+04  0.16310244719E+04  0.00000000000E+00 0. -1.
          1    1    1    2  502    0 -0.11338438885E+03  0.75959611736E+02  0.30182125754E+03  0.33124304333E+03  0.00000000000E+00 0. -1.
         22    1    3    3    0    0  0.86565067948E+02 -0.35940460475E+01  0.16084095993E+01  0.86654573666E+02  0.00000000000E+00 0. -1.
         22    1    3    3    0    0  0.39765212036E+02 -0.12359972160E+03  0.39609042995E+02  0.13574623219E+03  0.00000000000E+00 0. -1.
</event>
<event>
 7    1  0.5562528E-006  0.7218092E+02  0.7818608E-02  0.1377679E+00
          2   -1    0    0  502    0  0.00000000000E+00  0.00000000000E+00  0.12267489667E+04  0.12267489667E+04  0.00000000000E+00 0. -1.
          1   -1    0    0  501    0 -0.00000000000E+00 -0.00000000000E+00 -0.56277274125E+03  0.56277274125E+03  0.00000000000E+00 0. -1.
         25    2    1    2    0    0  0.29862662221E+02  0.35954731711E+02  0.40287246483E+03  0.42439941449E+03  0.12499647504E+03 0.  0.
          2    1    1    2  501    0  0.17761506381E+02 -0.70226294052E+02 -0.54856670466E+03  0.55332868437E+03  0.00000000000E+00 0. -1.
          1    1    1    2  502    0 -0.47624168602E+02  0.34271562341E+02  0.80967046523E+03  0.81179360904E+03  0.00000000000E+00 0. -1.
         22    1    3    3    0    0  0.76504433984E+02  0.13657331435E+02  0.29032797007E+03  0.30054913297E+03  0.00000000000E+00 0. -1.
         22    1    3    3    0    0 -0.46641771763E+02  0.22297400276E+02  0.11254449476E+03  0.12385028152E+03  0.00000000000E+00 0. -1.
</event>
<event>
 7    1  0.5562528E-006  0.8734876E+02  0.7818608E-02  0.1445246E+00
          2   -1    0    0  502    0  0.00000000000E+00  0.00000000000E+00  0.50767329911E+03  0.50767329911E+03  0.00000000000E+00 0. -1.
          1   -1    0    0  501    0 -0.00000000000E+00 -0.00000000000E+00 -0.93217877164E+02  0.93217877164E+02  0.00000000000E+00 0. -1.
         25    2    1    2    0    0 -0.42104681729E+02  0.65539260978E+02  0.88700875578E+02  0.17193560723E+03  0.12500323496E+03 0.  0.
          2    1    1    2  501    0 -0.27027059205E+02 -0.94793595584E+01 -0.41859502084E+02  0.50720194219E+02  0.00000000000E+00 0. -1.
          1    1    1    2  502    0  0.69131740934E+02 -0.56059901419E+02  0.36761404845E+03  0.37823537482E+03  0.00000000000E+00 0. -1.
         22    1    3    3    0    0 -0.49194387792E+02 -0.15878212776E+02  0.71813012579E+02  0.88483412043E+02  0.00000000000E+00 0.  1.
         22    1    3    3    0    0  0.70897060628E+01  0.81417473753E+02  0.16887862999E+02  0.83452195185E+02  0.00000000000E+00 0.  1.
</event>
<event>
 7    1  0.5562528E-006  0.1513432E+03  0.7818608E-02  0.1392377E+00
          2   -1    0    0  502    0  0.00000000000E+00  0.00000000000E+00  0.78925022590E+03  0.78925022590E+03  0.00000000000E+00 0. -1.
          1   -1    0    0  501    0 -0.00000000000E+00 -0.00000000000E+00 -0.10692463992E+04  0.10692463992E+04  0.00000000000E+00 0. -1.
         25    2    1    2    0    0 -0.74116300848E+01  0.15932365522E+03 -0.44912904511E+03  0.49272785831E+03  0.12499953528E+03 0.  0.
          2    1    1    2  501    0  0.23193173455E+02 -0.89068792214E+01 -0.59060286661E+03  0.59112519980E+03  0.00000000000E+00 0. -1.
          1    1    1    2  502    0 -0.15781543371E+02 -0.15041677599E+03  0.75973573843E+03  0.77464356698E+03  0.00000000000E+00 0. -1.
         22    1    3    3    0    0 -0.10706030364E+02  0.14077833381E+03 -0.21114000061E+03  0.25399460272E+03  0.00000000000E+00 0.  1.
         22    1    3    3    0    0  0.32944002797E+01  0.18545321410E+02 -0.23798904451E+03  0.23873325559E+03  0.00000000000E+00 0.  1.
</event>
<event>
 7    1  0.5562528E-006  0.5073600E+02  0.7818608E-02  0.1493418E+00
          2   -1    0    0  502    0  0.00000000000E+00  0.00000000000E+00  0.11283214194E+04  0.11283214194E+04  0.00000000000E+00 0. -1.
          1   -1    0    0  501    0 -0.00000000000E+00 -0.00000000000E+00 -0.19149889037E+03  0.19149889037E+03  0.00000000000E+00 0. -1.
         25    2    1    2    0    0 -0.54236306575E+02 -0.40772712905E+02  0.48576170678E+03  0.50615571051E+03  0.12500070574E+03 0.  0.
          2    1    1    2  501    0  0.34542396111E+02 -0.50260109618E+01 -0.17862737957E+03  0.18200598520E+03  0.00000000000E+00 0. -1.
          1    1    1    2  502    0  0.19693910464E+02  0.45798723866E+02  0.62968820184E+03  0.63165861408E+03  0.00000000000E+00 0. -1.
         22    1    3    3    0    0 -0.61583037618E+02 -0.42384997432E+02  0.12739936319E+03  0.14771444165E+03  0.00000000000E+00 0.  1.
         22    1    3    3    0    0  0.73467310429E+01  0.16122845272E+01  0.35836234359E+03  0.35844126886E+03  0.00000000000E+00 0.  1.
</event>
<event>
 7    1  0.5562528E-006  0.1458719E+03  0.7818608E-02  0.1211726E+00
          2   -1    0    0  502    0  0.00000000000E+00  0.00000000000E+00  0.14817548064E+04  0.14817548064E+04  0.00000000000E+00 0. -1.
          1   -1    0    0  501    0 -0.00000000000E+00 -0.00000000000E+00 -0.54916234694E+03  0.54916234694E+03  0.00000000000E+00 0. -1.
         25    2    1    2    0    0  0.82236668423E+02 -0.22692135589E+03  0.16812962426E+03  0.31960852745E+03  0.12500347543E+03 0.  0.
          2    1    1    2  501    0 -0.10867324070E+03  0.92829130086E+02 -0.45874262598E+03  0.48049132929E+03  0.00000000000E+00 0. -1.
          1    1    1    2  502    0  0.26436572279E+02  0.13409222581E+03  0.12232054612E+04  0.12308172966E+04  0.00000000000E+00 0. -1.
         22    1    3    3    0    0 -0.13998673437E+01 -0.15102416749E+02 -0.19382667215E+02  0.24611590940E+02  0.00000000000E+00 0.  1.
         22    1    3    3    0    0  0.83636535767E+02 -0.21181893914E+03  0.18751229148E+03  0.29499693651E+03  0.00000000000E+00 0.  1.
</event>
<event>
 7    1  0.5562528E-006  0.1461345E+03  0.7818608E-02  0.1255222E+00
          2   -1    0    0  502    0  0.00000000000E+00  0.00000000000E+00  0.10207009411E+04  0.10207009411E+04  0.00000000000E+00 0. -1.
          1   -1    0    0  501    0 -0.00000000000E+00 -0.00000000000E+00 -0.93877792216E+03  0.93877792216E+03  0.00000000000E+00 0. -1.
         25    2    1    2    0    0  0.11529273848E+03 -0.40942207666E+00 -0.10739961526E+03  0.20112864906E+03  0.12500189175E+03 0.  0.
          2    1    1    2  501    0  0.40607144633E+01 -0.87189952750E+02 -0.77642729342E+03  0.78131806535E+03  0.00000000000E+00 0. -1.
          1    1    1    2  502    0 -0.11935345295E+03  0.87599374827E+02  0.96574992759E+03  0.97703214883E+03  0.00000000000E+00 0. -1.
         22    1    3    3    0    0  0.28063570564E+00 -0.40602137602E+02 -0.55343846580E+02  0.68640758216E+02  0.00000000000E+00 0.  1.
         22    1    3    3    0    0  0.11501210278E+03  0.40192715526E+02 -0.52055768678E+02  0.13248789084E+03  0.00000000000E+00 0.  1.
</event>
<event>
 7    1  0.5562528E-006  0.4571749E+02  0.7818608E-02  0.1481782E+00
          2   -1    0    0  502    0  0.00000000000E+00  0.00000000000E+00  0.10931495914E+04  0.10931495914E+04  0.00000000000E+00 0. -1.
          1   -1    0    0  501    0 -0.00000000000E+00 -0.00000000000E+00 -0.10873196473E+03  0.10873196473E+03  0.00000000000E+00 0. -1.
         25    2    1    2    0    0  0.15123849173E+02 -0.85782020292E+02  0.15521822022E+02  0.15314502069E+03  0.12500073834E+03 0.  0.
          2    1    1    2  501    0 -0.10966035481E+02  0.40563867696E+02 -0.28201113587E+02  0.50606166661E+02  0.00000000000E+00 0. -1.
          1    1    1    2  502    0 -0.41578136918E+01  0.45218152597E+02  0.99709691826E+03  0.99813036881E+03  0.00000000000E+00 0. -1.
         22    1    3    3    0    0 -0.48811193303E+02 -0.17659460182E+02 -0.16367269047E+02  0.54426800582E+02  0.00000000000E+00 0. -1.
         22    1    3    3    0    0  0.63935042476E+02 -0.68122560110E+02  0.31889091069E+02  0.98718220109E+02  0.00000000000E+00 0. -1.
</event>
<event>
 7    1  0.5562528E-006  0.7735684E+02  0.7818608E-02  0.1337310E+00
          2   -1    0    0  502    0  0.00000000000E+00  0.00000000000E+00  0.18992124453E+03  0.18992124453E+03  0.00000000000E+00 0. -1.
          1   -1    0    0  501    0 -0.00000000000E+00 -0.00000000000E+00 -0.73209353055E+03  0.73209353055E+03  0.00000000000E+00 0. -1.
         25    2    1    2    0    0  0.31593362883E+02  0.61734781588E+02  0.25456762074E+02  0.14519604149E+03  0.12499807955E+03 0.  0.
          2    1    1    2  501    0 -0.78181524767E+02  0.19767238832E-01 -0.65527215437E+03  0.65991965230E+03  0.00000000000E+00 0. -1.
          1    1    1    2  502    0  0.46588161884E+02 -0.61754548826E+02  0.87643106279E+02  0.11689908129E+03  0.00000000000E+00 0. -1.
         22    1    3    3    0    0  0.71729295729E+02  0.71754625534E+02  0.20781953198E+02  0.10356499278E+03  0.00000000000E+00 0. -1.
         22    1    3    3    0    0 -0.40135932846E+02 -0.10019843947E+02  0.46748088761E+01  0.41631048704E+02  0.00000000000E+00 0. -1.
</event>
<event>
 7    1  0.5562528E-006  0.1720731E+03  0.7818608E-02  0.1202019E+00
          2   -1    0    0  502    0  0.00000000000E+00  0.00000000000E+00  0.13080681831E+03  0.13080681831E+03  0.00000000000E+00 0. -1.
          1   -1    0    0  501    0 -0.00000000000E+00 -0.00000000000E+00 -0.12281293608E+04  0.12281293608E+04  0.00000000000E+00 0. -1.
         25    2    1    2    0    0 -0.54685100623E+02  0.16208279735E+03 -0.74557313492E+03  0.77509114708E+03  0.12500277333E+03 0.  0.
          2    1    1    2  501    0 -0.71282003311E+02 -0.18790547089E+03 -0.39907768249E+03  0.44682500674E+03  0.00000000000E+00 0. -1.
          1    1    1    2  502    0  0.12596710393E+03  0.25822673538E+02  0.47328274872E+02  0.13702002534E+03  0.00000000000E+00 0. -1.
         22    1    3    3    0    0  0.15194441469E+02  0.11597237795E+03 -0.30549873268E+03  0.32712373679E+03  0.00000000000E+00 0.  1.
         22    1    3    3    0    0 -0.69879542091E+02  0.46110419405E+02 -0.44007440224E+03  0.44796741030E+03  0.00000000000E+00 0.  1.
</event>
<event>
 7    1  0.5562528E-006  0.7703128E+02  0.7818608E-02  0.1418835E+00
          2   -1    0    0  502    0  0.00000000000E+00  0.00000000000E+00  0.12894770723E+03  0.12894770723E+03  0.00000000000E+00 0. -1.
          1   -1    0    0  501    0 -0.00000000000E+00 -0.00000000000E+00 -0.83857027799E+03  0.83857027799E+03  0.00000000000E+00 0. -1.
         25    2    1    2    0    0 -0.26939200714E+02 -0.35883674781E+02 -0.26487877477E+03  0.29631023734E+03  0.12500253109E+03 0.  0.
          2    1    1    2  501    0  0.59137416612E+02  0.59028548724E+02 -0.55125658781E+03  0.55755307300E+03  0.00000000000E+00 0. -1.
          1    1    1    2  502    0 -0.32198215899E+02 -0.23144873943E+02  0.10651279183E+03  0.11365467487E+03  0.00000000000E+00 0. -1.
         22    1    3    3    0    0 -0.10088821772E+02  0.43833909282E+02 -0.14131387692E+03  0.14829972265E+03  0.00000000000E+00 0. -1.
         22    1    3    3    0    0 -0.16850378942E+02 -0.79717584063E+02 -0.12356489785E+03  0.14801051470E+03  0.00000000000E+00 0. -1.
</event>
<event>
 7    1  0.1026197E-005  0.6690696E+02  0.7818608E-02  0.1377779E+00
          2   -1    0    0  502    0  0.00000000000E+00  0.00000000000E+00  0.16104316208E+04  0.16104316208E+04  0.00000000000E+00 0. -1.
          1   -1    0    0  501    0 -0.00000000000E+00 -0.00000000000E+00 -0.10560014350E+04  0.10560014350E+04  0.00000000000E+00 0. -1.
         25    2    1    2    0    0  0.52169205920E+02 -0.18868968379E+02 -0.69653233639E+03  0.70982922126E+03  0.12499025441E+03 0.  0.
          2    1    1    2  501    0 -0.20431153736E+02  0.77769196177E+02 -0.34753045940E+03  0.35671122792E+03  0.00000000000E+00 0. -1.
          1    1    1    2  502    0 -0.31738052184E+02 -0.58900227799E+02  0.15984929816E+04  0.15998926067E+04  0.00000000000E+00 0. -1.
         22    1    3    3    0    0  0.28217496641E+02  0.14811858453E+02 -0.63444104728E+03  0.63524094700E+03  0.00000000000E+00 0.  1.
         22    1    3    3    0    0  0.23951709279E+02 -0.33680826832E+02 -0.62091289111E+02  0.74588274259E+02  0.00000000000E+00 0.  1.
</event>
<event>
 7    1  0.5562528E-006  0.2224027E+03  0.7818608E-02  0.1177570E+00
          2   -1    0    0  502    0  0.00000000000E+00  0.00000000000E+00  0.13594840694E+04  0.13594840694E+04  0.00000000000E+00 0. -1.
          1   -1    0    0  501    0 -0.00000000000E+00 -0.00000000000E+00 -0.12805389583E+03  0.12805389583E+03  0.00000000000E+00 0. -1.
         25    2    1    2    0    0 -0.60348989473E+02  0.20465724676E+03  0.14638740021E+03  0.28736896904E+03  0.12500025697E+03 0.  0.
          2    1    1    2  501    0  0.18695114788E+03 -0.17361645793E+03  0.25774558977E+03  0.36266540393E+03  0.00000000000E+00 0. -1.
          1    1    1    2  502    0 -0.12660215840E+03 -0.31040788833E+02  0.82729718355E+03  0.83750359223E+03  0.00000000000E+00 0. -1.
         22    1    3    3    0    0 -0.86953821661E+02  0.94896341500E+02  0.10820323860E+03  0.16814940849E+03  0.00000000000E+00 0.  1.
         22    1    3    3    0    0  0.26604832188E+02  0.10976090526E+03  0.38184161612E+02  0.11921956055E+03  0.00000000000E+00 0.  1.
</event>
<event>
 7    1  0.5562528E-006  0.7823679E+02  0.7818608E-02  0.1352521E+00
          2   -1    0    0  502    0  0.00000000000E+00  0.00000000000E+00  0.35691808279E+03  0.35691808279E+03  0.00000000000E+00 0. -1.
          1   -1    0    0  501    0 -0.00000000000E+00 -0.00000000000E+00 -0.18702219596E+03  0.18702219596E+03  0.00000000000E+00 0. -1.
         25    2    1    2    0    0 -0.67811938020E+02 -0.15533900774E+02 -0.53839377921E+02  0.15285150834E+03  0.12500057590E+03 0.  0.
          2    1    1    2  501    0  0.34382841463E+02 -0.57235178582E+02 -0.63957460949E+02  0.92458651653E+02  0.00000000000E+00 0. -1.
          1    1    1    2  502    0  0.33429096557E+02  0.72769079356E+02  0.28769272570E+03  0.29863011876E+03  0.00000000000E+00 0. -1.
         22    1    3    3    0    0 -0.47197543244E+02 -0.69466887895E+02 -0.42046701134E+02  0.93921146066E+02  0.00000000000E+00 0. -1.
         22    1    3    3    0    0 -0.20614394776E+02  0.53932987121E+02 -0.11792676787E+02  0.58930362273E+02  0.00000000000E+00 0. -1.
</event>
<event>
 7    1  0.5713408E-006  0.7990831E+02  0.7818608E-02  0.1357822E+00
          2   -1    0    0  502    0  0.00000000000E+00  0.00000000000E+00  0.49493271504E+03  0.49493271504E+03  0.00000000000E+00 0. -1.
          1   -1    0    0  501    0 -0.00000000000E+00 -0.00000000000E+00 -0.20521402454E+04  0.20521402454E+04  0.00000000000E+00 0. -1.
         25    2    1    2    0    0 -0.13680630013E+03  0.38536358772E+02 -0.14360235778E+04  0.14484434982E+04  0.12499534732E+03 0.  0.
          2    1    1    2  501    0  0.60938409243E+02 -0.13900105965E+02 -0.60503112439E+03  0.60825106999E+03  0.00000000000E+00 0. -1.
          1    1    1    2  502    0  0.75867890884E+02 -0.24636252808E+02  0.48384717185E+03  0.49037839219E+03  0.00000000000E+00 0. -1.
         22    1    3    3    0    0 -0.14476451672E+02 -0.53473003367E+01 -0.15107246429E+02  0.21596068359E+02  0.00000000000E+00 0.  1.
         22    1    3    3    0    0 -0.12232984845E+03  0.43883659109E+02 -0.14209163314E+04  0.14268474298E+04  0.00000000000E+00 0.  1.
</event>
<event>
 7    1  0.5562528E-006  0.2080053E+03  0.7818608E-02  0.1326332E+00
          2   -1    0    0  502    0  0.00000000000E+00  0.00000000000E+00  0.10101954049E+04  0.10101954049E+04  0.00000000000E+00 0. -1.
          1   -1    0    0  501    0 -0.00000000000E+00 -0.00000000000E+00 -0.82156018728E+03  0.82156018728E+03  0.00000000000E+00 0. -1.
         25    2    1    2    0    0  0.17675865661E+03  0.10592301282E+03 -0.20627829544E+02  0.24189601217E+03  0.12499946408E+03 0.  0.
          2    1    1    2  501    0 -0.16065841871E+03 -0.13301622199E+03 -0.67425521938E+03  0.70577938740E+03  0.00000000000E+00 0. -1.
          1    1    1    2  502    0 -0.16100237901E+02  0.27093209175E+02  0.88351826658E+03  0.88408019265E+03  0.00000000000E+00 0. -1.
         22    1    3    3    0    0  0.13414311707E+03  0.12371114698E+03 -0.47376447899E+02  0.18852944481E+03  0.00000000000E+00 0. -1.
         22    1    3    3    0    0  0.42615539549E+02 -0.17788134165E+02  0.26748618355E+02  0.53366567362E+02  0.00000000000E+00 0. -1.
</event>
<event>
 7    1  0.5562528E-006  0.4342634E+02  0.7818608E-02  0.1504906E+00
          2   -1    0    0  502    0  0.00000000000E+00  0.00000000000E+00  0.15434718238E+03  0.15434718238E+03  0.00000000000E+00 0. -1.
          1   -1    0    0  501    0 -0.00000000000E+00 -0.00000000000E+00 -0.28446109657E+03  0.28446109657E+03  0.00000000000E+00 0. -1.
         25    2    1    2    0    0 -0.13822694714E+02  0.61886385826E+02 -0.80060736816E+02  0.16142030292E+03  0.12500320386E+03 0.  0.
          2    1    1    2  501    0 -0.16468835706E+02 -0.39471878515E+02 -0.15766817001E+03  0.16336616411E+03  0.00000000000E+00 0. -1.
          1    1    1    2  502    0  0.30291530421E+02 -0.22414507311E+02  0.10761499263E+03  0.11402181192E+03  0.00000000000E+00 0. -1.
         22    1    3    3    0    0  0.40410129128E+02 -0.79787272307E+01  0.13494197401E+01  0.41212371420E+02  0.00000000000E+00 0. -1.
         22    1    3    3    0    0 -0.54232823843E+02  0.69865113056E+02 -0.81410156556E+02  0.12020793150E+03  0.00000000000E+00 0. -1.
</event>
<event>
 7    1  0.5562528E-006  0.5708603E+02  0.7818608E-02  0.1474165E+00
          2   -1    0    0  502    0  0.00000000000E+00  0.00000000000E+00  0.18039333924E+02  0.18039333924E+02  0.00000000000E+00 0. -1.
          1   -1    0    0  501    0 -0.00000000000E+00 -0.00000000000E+00 -0.48247062081E+04  0.48247062081E+04  0.00000000000E+00 0. -1.
         25    2    1    2    0    0 -0.36044075786E+02  0.99411107091E+01 -0.24364788297E+04  0.24399696823E+04  0.12499984798E+03 0.  0.
          2    1    1    2  501    0  0.57494497857E+00  0.35512860381E+02 -0.23349180566E+04  0.23351881776E+04  0.00000000000E+00 0. -1.
          1    1    1    2  502    0  0.35469130808E+02 -0.45453971090E+02 -0.35269987916E+02  0.67587682130E+02  0.00000000000E+00 0. -1.
         22    1    3    3    0    0 -0.31247181325E+02  0.20895633889E+02 -0.20253157091E+03  0.20599041500E+03  0.00000000000E+00 0.  1.
         22    1    3    3    0    0 -0.47968944613E+01 -0.10954523180E+02 -0.22339472588E+04  0.22339792673E+04  0.00000000000E+00 0.  1.
</event>
<event>
 7    1  0.5562528E-006  0.2520613E+02  0.7818608E-02  0.1679125E+00
          2   -1    0    0  502    0  0.00000000000E+00  0.00000000000E+00  0.43081552749E+03  0.43081552749E+03  0.00000000000E+00 0. -1.
          1   -1    0    0  501    0 -0.00000000000E+00 -0.00000000000E+00 -0.15295315529E+03  0.15295315529E+03  0.00000000000E+00 0. -1.
         25    2    1    2    0    0 -0.43544654150E+02 -0.15832757821E+02  0.12750999812E+02  0.13392121185E+03  0.12500195943E+03 0.  0.
          2    1    1    2  501    0  0.21353299040E+02  0.12500828826E+02 -0.90350822143E+02  0.93677666299E+02  0.00000000000E+00 0. -1.
          1    1    1    2  502    0  0.22191355110E+02  0.33319289944E+01  0.35546219453E+03  0.35616980463E+03  0.00000000000E+00 0. -1.
         22    1    3    3    0    0 -0.80504717767E+02 -0.37075766285E+02 -0.24399650245E+01  0.88665525756E+02  0.00000000000E+00 0.  1.
         22    1    3    3    0    0  0.36960063617E+02  0.21243008464E+02  0.15190964836E+02  0.45255686094E+02  0.00000000000E+00 0.  1.
</event>
<event>
 7    1  0.5562528E-006  0.2922861E+03  0.7818608E-02  0.1272808E+00
          2   -1    0    0  502    0  0.00000000000E+00  0.00000000000E+00  0.18941056556E+03  0.18941056556E+03  0.00000000000E+00 0. -1.
          1   -1    0    0  501    0 -0.00000000000E+00 -0.00000000000E+00 -0.37240025549E+04  0.37240025549E+04  0.00000000000E+00 0. -1.
         25    2    1    2    0    0 -0.18556803704E+03  0.20501097084E+03 -0.73425627323E+03  0.79449458926E+03  0.12499753214E+03 0.  0.
          2    1    1    2  501    0  0.17416617843E+03 -0.23995183973E+03 -0.29499718418E+04  0.29648346683E+04  0.00000000000E+00 0. -1.
          1    1    1    2  502    0  0.11401858610E+02  0.34940868893E+02  0.14963612568E+03  0.15408386290E+03  0.00000000000E+00 0. -1.
         22    1    3    3    0    0 -0.11522660398E+03  0.11682986367E+03 -0.58396362614E+03  0.60658050081E+03  0.00000000000E+00 0. -1.
         22    1    3    3    0    0 -0.70341433062E+02  0.88181107168E+02 -0.15029264710E+03  0.18791408845E+03  0.00000000000E+00 0. -1.
</event>
<event>
 7    1  0.5562528E-006  0.8488774E+02  0.7818608E-02  0.1478586E+00
          2   -1    0    0  502    0  0.00000000000E+00  0.00000000000E+00  0.67642826742E+03  0.67642826742E+03  0.00000000000E+00 0. -1.
          1   -1    0    0  501    0 -0.00000000000E+00 -0.00000000000E+00 -0.60705001356E+03  0.60705001356E+03  0.00000000000E+00 0. -1.
         25    2    1    2    0    0  0.10507382617E+03  0.13780910391E+02 -0.39657737741E+02  0.16859707385E+03  0.12498725819E+03 0.  0.
          2    1    1    2  501    0 -0.83601785359E+02 -0.51360409973E+01 -0.49921351150E+03  0.50619143365E+03  0.00000000000E+00 0. -1.
          1    1    1    2  502    0 -0.21472040814E+02 -0.86448693935E+01  0.60824950311E+03  0.60868977347E+03  0.00000000000E+00 0. -1.
         22    1    3    3    0    0  0.86931746401E+02  0.54849813421E+02 -0.60311462466E+02  0.11917677236E+03  0.00000000000E+00 0. -1.
         22    1    3    3    0    0  0.18142079771E+02 -0.41068903031E+02  0.20653724725E+02  0.49420301492E+02  0.00000000000E+00 0. -1.
</event>
<event>
 7    1  0.5562528E-006  0.8106760E+02  0.7818608E-02  0.1451556E+00
          2   -1    0    0  502    0  0.00000000000E+00  0.00000000000E+00  0.14863313643E+04  0.14863313643E+04  0.00000000000E+00 0. -1.
          1   -1    0    0  501    0 -0.00000000000E+00 -0.00000000000E+00 -0.97945836792E+03  0.97945836792E+03  0.00000000000E+00 0. -1.
         25    2    1    2    0    0 -0.48068767719E+02  0.23837973126E+02  0.99533122115E+03  0.10045836157E+04  0.12500058281E+03 0.  0.
          2    1    1    2  501    0  0.77524190445E+02 -0.23867382957E+02 -0.97269649677E+03  0.97607280819E+03  0.00000000000E+00 0. -1.
          1    1    1    2  502    0 -0.29455422726E+02  0.29409831132E-01  0.48423827203E+03  0.48513330837E+03  0.00000000000E+00 0. -1.
         22    1    3    3    0    0  0.32975512147E+02  0.17841296088E+02  0.12593574187E+03  0.13139827750E+03  0.00000000000E+00 0. -1.
         22    1    3    3    0    0 -0.81044279866E+02  0.59966770372E+01  0.86939547927E+03  0.87318533818E+03  0.00000000000E+00 0. -1.
</event>
<event>
 7    1  0.5562528E-006  0.8470900E+02  0.7818608E-02  0.1477323E+00
          2   -1    0    0  502    0  0.00000000000E+00  0.00000000000E+00  0.76676838435E+02  0.76676838435E+02  0.00000000000E+00 0. -1.
          1   -1    0    0  501    0 -0.00000000000E+00 -0.00000000000E+00 -0.77800155983E+03  0.77800155983E+03  0.00000000000E+00 0. -1.
         25    2    1    2    0    0  0.80296409888E+02  0.30126399639E+02 -0.28179232088E+03  0.31997970739E+03  0.12499995056E+03 0.  0.
          2    1    1    2  501    0 -0.84733895156E+02 -0.71466295566E+01 -0.47075975683E+03  0.47837815162E+03  0.00000000000E+00 0. -1.
          1    1    1    2  502    0  0.44374852681E+01 -0.22979770082E+02  0.51227356304E+02  0.56320539259E+02  0.00000000000E+00 0. -1.
         22    1    3    3    0    0  0.65013490084E+02  0.53073168548E+02 -0.78792917106E+02  0.11511663172E+03  0.00000000000E+00 0.  1.
         22    1    3    3    0    0  0.15282919804E+02 -0.22946768909E+02 -0.20299940377E+03  0.20486307567E+03  0.00000000000E+00 0.  1.
</event>
<event>
 7    1  0.5562528E-006  0.6365946E+02  0.7818608E-02  0.1395756E+00
          2   -1    0    0  502    0  0.00000000000E+00  0.00000000000E+00  0.99103696255E+03  0.99103696255E+03  0.00000000000E+00 0. -1.
          1   -1    0    0  501    0 -0.00000000000E+00 -0.00000000000E+00 -0.62999315401E+03  0.62999315401E+03  0.00000000000E+00 0. -1.
         25    2    1    2    0    0 -0.44093876952E+02 -0.94404190359E+02  0.36082616888E+02  0.16668411012E+03  0.12500086473E+03 0.  0.
          2    1    1    2  501    0  0.48186913609E+02  0.31359581896E+02 -0.56210266517E+03  0.56503522741E+03  0.00000000000E+00 0. -1.
          1    1    1    2  502    0 -0.40930366570E+01  0.63044608463E+02  0.88706385682E+03  0.88931077902E+03  0.00000000000E+00 0. -1.
         22    1    3    3    0    0 -0.75960268955E+02 -0.89199213663E+02  0.54821576994E+02  0.12935172006E+03  0.00000000000E+00 0.  1.
         22    1    3    3    0    0  0.31866392003E+02 -0.52049766959E+01 -0.18738960106E+02  0.37332390059E+02  0.00000000000E+00 0.  1.
</event>
<event>
 7    1  0.5562528E-006  0.1247326E+03  0.7818608E-02  0.1239860E+00
          2   -1    0    0  502    0  0.00000000000E+00  0.00000000000E+00  0.64772939821E+03  0.64772939821E+03  0.00000000000E+00 0. -1.
          1   -1    0    0  501    0 -0.00000000000E+00 -0.00000000000E+00 -0.22300141499E+04  0.22300141499E+04  0.00000000000E+00 0. -1.
         25    2    1    2    0    0  0.10648677050E+03 -0.82058520148E+02  0.88325701361E+02  0.20371879767E+03  0.12500754370E+03 0.  0.
          2    1    1    2  501    0  0.10909868359E+02  0.12425453347E+03 -0.21627380204E+04  0.21663319134E+04  0.00000000000E+00 0. -1.
          1    1    1    2  502    0 -0.11739663886E+03 -0.42196013327E+02  0.49212756726E+03  0.50769283707E+03  0.00000000000E+00 0. -1.
         22    1    3    3    0    0  0.10171925014E+03 -0.74174238918E+02  0.11806074807E+03  0.17258900256E+03  0.00000000000E+00 0.  1.
         22    1    3    3    0    0  0.47675203614E+01 -0.78842812293E+01 -0.29735046711E+02  0.31129795114E+02  0.00000000000E+00 0.  1.
</event>
<event>
 7    1  0.5562528E-006  0.1193117E+03  0.7818608E-02  0.1249598E+00
          2   -1    0    0  502    0  0.00000000000E+00  0.00000000000E+00  0.37206254053E+03  0.37206254053E+03  0.00000000000E+00 0. -1.
          1   -1    0    0  501    0 -0.00000000000E+00 -0.00000000000E+00 -0.28562351583E+03  0.28562351583E+03  0.00000000000E+00 0. -1.
         25    2    1    2    0    0  0.11069624610E+01  0.10937304803E+03  0.10520143467E+02  0.16643045495E+03  0.12499893565E+03 0.  0.
          2    1    1    2  501    0  0.10676679711E+03 -0.37193070856E+02 -0.17523703975E+03  0.20854374501E+03  0.00000000000E+00 0. -1.
          1    1    1    2  502    0 -0.10787375957E+03 -0.72179977171E+02  0.25115592098E+03  0.28271185641E+03  0.00000000000E+00 0. -1.
         22    1    3    3    0    0 -0.34782773146E+02  0.12271825200E+03  0.41978054970E+01  0.12762144119E+03  0.00000000000E+00 0. -1.
         22    1    3    3    0    0  0.35889735607E+02 -0.13345203972E+02  0.63223379699E+01  0.38809013752E+02  0.00000000000E+00 0. -1.
</event>
<event>
 7    1  0.5562528E-006  0.3621553E+02  0.7818608E-02  0.1623130E+00
          2   -1    0    0  502    0  0.00000000000E+00  0.00000000000E+00  0.26342904399E+04  0.26342904399E+04  0.00000000000E+00 0. -1.
          1   -1    0    0  501    0 -0.00000000000E+00 -0.00000000000E+00 -0.10864313758E+02  0.10864313758E+02  0.00000000000E+00 0. -1.
         25    2    1    2    0    0 -0.56367632087E+02  0.33138428909E+01  0.76069828646E+03  0.77296571612E+03  0.12500329504E+03 0.  0.
          2    1    1    2  501    0  0.21237218786E+02  0.27839855486E+01  0.20604385883E+02  0.29720544324E+02  0.00000000000E+00 0. -1.
          1    1    1    2  502    0  0.35130413301E+02 -0.60978284394E+01  0.18421234538E+04  0.18424684932E+04  0.00000000000E+00 0. -1.
         22    1    3    3    0    0 -0.65812590342E+02 -0.97202367478E+01  0.17769185967E+03  0.18973712616E+03  0.00000000000E+00 0.  1.
         22    1    3    3    0    0  0.94449582551E+01  0.13034079639E+02  0.58300642679E+03  0.58322858996E+03  0.00000000000E+00 0.  1.
</event>
<event>
 7    1  0.5562528E-006  0.7551721E+02  0.7818608E-02  0.1421505E+00
          2   -1    0    0  502    0  0.00000000000E+00  0.00000000000E+00  0.78443051020E+03  0.78443051020E+03  0.00000000000E+00 0. -1.
          1   -1    0    0  501    0 -0.00000000000E+00 -0.00000000000E+00 -0.12305719183E+03  0.12305719183E+03  0.00000000000E+00 0. -1.
         25    2    1    2    0    0  0.68818918171E+02 -0.29463273010E+02  0.18597517612E+03  0.23625327560E+03  0.12499886457E+03 0.  0.
          2    1    1    2  501    0 -0.45283709117E+02  0.61343903689E+02 -0.82264487001E+02  0.11216565719E+03  0.00000000000E+00 0. -1.
          1    1    1    2  502    0 -0.23535209054E+02 -0.31880630679E+02  0.55766262925E+03  0.55906876924E+03  0.00000000000E+00 0. -1.
         22    1    3    3    0    0  0.74252420868E+02 -0.19081140827E+02  0.34065995848E+02  0.83892812643E+02  0.00000000000E+00 0.  1.
         22    1    3    3    0    0 -0.54335026970E+01 -0.10382132183E+02  0.15190918028E+03  0.15236046296E+03  0.00000000000E+00 0.  1.
</event>
<event>
 7    1  0.5562528E-006  0.1404295E+03  0.7818608E-02  0.1284841E+00
          2   -1    0    0  502    0  0.00000000000E+00  0.00000000000E+00  0.68042727009E+03  0.68042727009E+03  0.00000000000E+00 0. -1.
          1   -1    0    0  501    0 -0.00000000000E+00 -0.00000000000E+00 -0.24168126580E+03  0.24168126580E+03  0.00000000000E+00 0. -1.
         25    2    1    2    0    0  0.12986706330E+03  0.15910117340E+02  0.11363511138E+03  0.21367434324E+03  0.12500080181E+03 0.  0.
          2    1    1    2  501    0  0.55608180643E+01 -0.67980833218E+02 -0.17493579239E+03  0.18776274349E+03  0.00000000000E+00 0. -1.
          1    1    1    2  502    0 -0.13542788137E+03  0.52070715879E+02  0.50004668530E+03  0.52067144917E+03  0.00000000000E+00 0. -1.
         22    1    3    3    0    0  0.11927043276E+02  0.10478121990E+02 -0.26217366059E+02  0.30649562555E+02  0.00000000000E+00 0. -1.
         22    1    3    3    0    0  0.11794002003E+03  0.54319953498E+01  0.13985247744E+03  0.18302478068E+03  0.00000000000E+00 0. -1.
</event>
<event>
 7    1  0.5562528E-006  0.5712600E+02  0.7818608E-02  0.1539530E+00
          2   -1    0    0  502    0  0.00000000000E+00  0.00000000000E+00  0.24922158848E+04  0.24922158848E+04  0.00000000000E+00 0. -1.
          1   -1    0    0  501    0 -0.00000000000E+00 -0.00000000000E+00 -0.48931872184E+02  0.48931872184E+02  0.00000000000E+00 0. -1.
         25    2    1    2    0    0  0.38251558718E+02  0.68358080751E+02  0.86788836428E+03  0.88033564460E+03  0.12499850138E+03 0.  0.
          2    1    1    2  501    0 -0.22379663021E+02 -0.52072331116E+02 -0.23787527488E+02  0.61467255094E+02  0.00000000000E+00 0. -1.
          1    1    1    2  502    0 -0.15871895697E+02 -0.16285749635E+02  0.15991831758E+04  0.15993448572E+04  0.00000000000E+00 0. -1.
         22    1    3    3    0    0 -0.26015967920E+02  0.76087940529E+02  0.40117156564E+03  0.40915135385E+03  0.00000000000E+00 0. -1.
         22    1    3    3    0    0  0.64267526637E+02 -0.77298597783E+01  0.46671679864E+03  0.47118429075E+03  0.00000000000E+00 0. -1.
</event>
<event>
 7    1  0.5562528E-006  0.1035860E+03  0.7818608E-02  0.1399738E+00
          2   -1    0    0  502    0  0.00000000000E+00  0.00000000000E+00  0.32524041252E+04  0.32524041252E+04  0.00000000000E+00 0. -1.
          1   -1    0    0  501    0 -0.00000000000E+00 -0.00000000000E+00 -0.44663551141E+03  0.44663551141E+03  0.00000000000E+00 0. -1.
         25    2    1    2    0    0 -0.69133059588E+02  0.10379076929E+03  0.82688004063E+03  0.84552110554E+03  0.12499373825E+03 0.  0.
          2    1    1    2  501    0  0.75953441881E+02 -0.70244997571E+02 -0.43107297160E+03  0.44331387510E+03  0.00000000000E+00 0. -1.
          1    1    1    2  502    0 -0.68203822934E+01 -0.33545771714E+02  0.24099615448E+04  0.24102046560E+04  0.00000000000E+00 0. -1.
         22    1    3    3    0    0 -0.58489890582E+02 -0.12474284233E+02  0.28412123313E+03  0.29034729237E+03  0.00000000000E+00 0.  1.
         22    1    3    3    0    0 -0.10643169006E+02  0.11626505352E+03  0.54275880750E+03  0.55517381317E+03  0.00000000000E+00 0.  1.
</event>
<event>
 7    1  0.5562528E-006  0.1177916E+03  0.7818608E-02  0.1411463E+00
          2   -1    0    0  502    0  0.00000000000E+00  0.00000000000E+00  0.26230239830E+04  0.26230239830E+04  0.00000000000E+00 0. -1.
          1   -1    0    0  501    0 -0.00000000000E+00 -0.00000000000E+00 -0.10836119884E+03  0.10836119884E+03  0.00000000000E+00 0. -1.
         25    2    1    2    0    0 -0.13464154477E+03  0.35060124533E+02  0.69447646824E+03  0.71922193108E+03  0.12500025320E+03 0.  0.
          2    1    1    2  501    0  0.10844866267E+03 -0.43290976402E+02 -0.60338492676E+02  0.13143802635E+03  0.00000000000E+00 0. -1.
          1    1    1    2  502    0  0.26192882096E+02  0.82308518688E+01  0.18805248086E+04  0.18807252244E+04  0.00000000000E+00 0. -1.
         22    1    3    3    0    0 -0.13410191889E+03  0.35515031102E+02  0.37649190128E+03  0.40123658085E+03  0.00000000000E+00 0. -1.
         22    1    3    3    0    0 -0.53962587505E+00 -0.45490656949E+00  0.31798456696E+03  0.31798535023E+03  0.00000000000E+00 0. -1.
</event>
<event>
 7    1  0.5562528E-006  0.4485849E+02  0.7818608E-02  0.1494440E+00
          2   -1    0    0  502    0  0.00000000000E+00  0.00000000000E+00  0.92321804497E+03  0.92321804497E+03  0.00000000000E+00 0. -1.
          1   -1    0    0  501    0 -0.00000000000E+00 -0.00000000000E+00 -0.23744257175E+03  0.23744257175E+03  0.00000000000E+00 0. -1.
         25    2    1    2    0    0  0.72285358946E+01  0.43923975580E+02  0.18945448619E+03  0.23127081994E+03  0.12494647836E+03 0.  0.
          2    1    1    2  501    0 -0.37818134765E+02 -0.10320473126E+02 -0.21402822607E+03  0.21758861422E+03  0.00000000000E+00 0. -1.
          1    1    1    2  502    0  0.30589598871E+02 -0.33603502454E+02  0.71034921310E+03  0.71180118256E+03  0.00000000000E+00 0. -1.
         22    1    3    3    0    0  0.22890808166E+02  0.65462189467E+02  0.41243955145E+02  0.80686747266E+02  0.00000000000E+00 0. -1.
         22    1    3    3    0    0 -0.15662272272E+02 -0.21538213887E+02  0.14821053104E+03  0.15058407267E+03  0.00000000000E+00 0. -1.
</event>
<event>
 7    1  0.5562528E-006  0.9625497E+02  0.7818608E-02  0.1364774E+00
          2   -1    0    0  502    0  0.00000000000E+00  0.00000000000E+00  0.67184133377E+03  0.67184133377E+03  0.00000000000E+00 0. -1.
          1   -1    0    0  501    0 -0.00000000000E+00 -0.00000000000E+00 -0.44341963801E+02  0.44341963801E+02  0.00000000000E+00 0. -1.
         25    2    1    2    0    0 -0.22812043500E+01 -0.12039282166E+03  0.44040048153E+03  0.47336718995E+03  0.12499710790E+03 0.  0.
          2    1    1    2  501    0  0.36393964202E+02  0.85286916347E+02  0.70897721524E+02  0.11672559980E+03  0.00000000000E+00 0. -1.
          1    1    1    2  502    0 -0.34112759852E+02  0.35105905314E+02  0.11620116691E+03  0.12609050783E+03  0.00000000000E+00 0. -1.
         22    1    3    3    0    0  0.56641875033E+01 -0.12112311528E+03  0.20750913239E+03  0.24033920217E+03  0.00000000000E+00 0. -1.
         22    1    3    3    0    0 -0.79453918533E+01  0.73029361947E+00  0.23289134914E+03  0.23302798778E+03  0.00000000000E+00 0. -1.
</event>
<event>
 7    1  0.5562528E-006  0.5702248E+02  0.7818608E-02  0.1513825E+00
          2   -1    0    0  502    0  0.00000000000E+00  0.00000000000E+00  0.40950147719E+03  0.40950147719E+03  0.00000000000E+00 0. -1.
          1   -1    0    0  501    0 -0.00000000000E+00 -0.00000000000E+00 -0.13113714258E+04  0.13113714258E+04  0.00000000000E+00 0. -1.
         25    2    1    2    0    0  0.70218760696E+02 -0.45892685042E+02 -0.36281694308E+03  0.39280841491E+03  0.12500201496E+03 0.  0.
          2    1    1    2  501    0 -0.22403639173E+02  0.15092218551E+02 -0.93131188600E+03  0.93170356182E+03  0.00000000000E+00 0. -1.
          1    1    1    2  502    0 -0.47815121523E+02  0.30800466490E+02  0.39225888045E+03  0.39636092627E+03  0.00000000000E+00 0. -1.
         22    1    3    3    0    0  0.88059766444E+02 -0.17186658133E+02 -0.34093926417E+03  0.35254713945E+03  0.00000000000E+00 0.  1.
         22    1    3    3    0    0 -0.17841005748E+02 -0.28706026909E+02 -0.21877678914E+02  0.40261275460E+02  0.00000000000E+00 0.  1.
</event>
<event>
 7    1  0.5562528E-006  0.1325510E+03  0.7818608E-02  0.1374237E+00
          2   -1    0    0  502    0  0.00000000000E+00  0.00000000000E+00  0.70496703335E+03  0.70496703335E+03  0.00000000000E+00 0. -1.
          1   -1    0    0  501    0 -0.00000000000E+00 -0.00000000000E+00 -0.22006301885E+04  0.22006301885E+04  0.00000000000E+00 0. -1.
         25    2    1    2    0    0 -0.31472216353E+02  0.13414509060E+03 -0.13640620503E+03  0.23068897285E+03  0.12500137476E+03 0.  0.
          2    1    1    2  501    0  0.32824550770E+02 -0.16522117720E+01 -0.20102748598E+04  0.20105435068E+04  0.00000000000E+00 0. -1.
          1    1    1    2  502    0 -0.13523344166E+01 -0.13249287883E+03  0.65101790974E+03  0.66436474210E+03  0.00000000000E+00 0. -1.
         22    1    3    3    0    0 -0.10305771508E+02  0.13166666995E+03 -0.15412787185E+03  0.20297221924E+03  0.00000000000E+00 0. -1.
         22    1    3    3    0    0 -0.21166444845E+02  0.24784206536E+01  0.17721666817E+02  0.27716753617E+02  0.00000000000E+00 0. -1.
</event>
<event>
 7    1  0.5562528E-006  0.6026746E+02  0.7818608E-02  0.1456030E+00
          2   -1    0    0  502    0  0.00000000000E+00  0.00000000000E+00  0.96058936643E+03  0.96058936643E+03  0.00000000000E+00 0. -1.
          1   -1    0    0  501    0 -0.00000000000E+00 -0.00000000000E+00 -0.90416841342E+03  0.90416841342E+03  0.00000000000E+00 0. -1.
         25    2    1    2    0    0  0.24120779686E+02  0.47136876933E+02  0.57730156727E+02  0.14751682888E+03  0.12499898651E+03 0.  0.
          2    1    1    2  501    0 -0.36302157002E+02  0.12344093050E+02 -0.85777209380E+03  0.85862866720E+03  0.00000000000E+00 0. -1.
          1    1    1    2  502    0  0.12181377316E+02 -0.59480969982E+02  0.85646289009E+03  0.85861228377E+03  0.00000000000E+00 0. -1.
         22    1    3    3    0    0 -0.47560146064E+02  0.12765085852E+02  0.45575472517E+02  0.67097232474E+02  0.00000000000E+00 0.  1.
         22    1    3    3    0    0  0.71680925750E+02  0.34371791080E+02  0.12154684209E+02  0.80419596410E+02  0.00000000000E+00 0.  1.
</event>
<event>
 7    1  0.5562528E-006  0.1287937E+03  0.7818608E-02  0.1285214E+00
          2   -1    0    0  502    0  0.00000000000E+00  0.00000000000E+00  0.95381010212E+03  0.95381010212E+03  0.00000000000E+00 0. -1.
          1   -1    0    0  501    0 -0.00000000000E+00 -0.00000000000E+00 -0.82729366104E+03  0.82729366104E+03  0.00000000000E+00 0. -1.
         25    2    1    2    0    0 -0.14066961272E+03  0.12699658490E+03  0.41327281703E+02  0.23074158050E+03  0.12497063750E+03 0.  0.
          2    1    1    2  501    0  0.69698989600E+02 -0.10565935220E+03 -0.72541600085E+03  0.73637641335E+03  0.00000000000E+00 0. -1.
          1    1    1    2  502    0  0.70970623123E+02 -0.21337232702E+02  0.81060516023E+03  0.81398576931E+03  0.00000000000E+00 0. -1.
         22    1    3    3    0    0 -0.96074750774E+02  0.13239912853E+03  0.69479391956E+02  0.17772808692E+03  0.00000000000E+00 0. -1.
         22    1    3    3    0    0 -0.44594861948E+02 -0.54025436336E+01 -0.28152110253E+02  0.53013493581E+02  0.00000000000E+00 0. -1.
</event>
<event>
 7    1  0.5562528E-006  0.3787762E+02  0.7818608E-02  0.1573504E+00
          2   -1    0    0  502    0  0.00000000000E+00  0.00000000000E+00  0.15165817031E+04  0.15165817031E+04  0.00000000000E+00 0. -1.
          1   -1    0    0  501    0 -0.00000000000E+00 -0.00000000000E+00 -0.57780356602E+03  0.57780356602E+03  0.00000000000E+00 0. -1.
         25    2    1    2    0    0 -0.50140835457E+02  0.39377085478E+02 -0.17182403952E+03  0.22183954009E+03  0.12499849098E+03 0.  0.
          2    1    1    2  501    0  0.25622444985E+02 -0.26651053651E+02 -0.37994658628E+03  0.38174100745E+03  0.00000000000E+00 0. -1.
          1    1    1    2  502    0  0.24518390472E+02 -0.12726031827E+02  0.14905487629E+04  0.14908047216E+04  0.00000000000E+00 0. -1.
         22    1    3    3    0    0 -0.86806425148E+02  0.52375137969E+02 -0.12196659446E+03  0.15860126320E+03  0.00000000000E+00 0. -1.
         22    1    3    3    0    0  0.36665589691E+02 -0.12998052491E+02 -0.49857445065E+02  0.63238276893E+02  0.00000000000E+00 0. -1.
</event>
<event>
 7    1  0.5562528E-006  0.1029274E+03  0.7818608E-02  0.1280986E+00
          2   -1    0    0  502    0  0.00000000000E+00  0.00000000000E+00  0.61413980583E+03  0.61413980583E+03  0.00000000000E+00 0. -1.
          1   -1    0    0  501    0 -0.00000000000E+00 -0.00000000000E+00 -0.54490849810E+03  0.54490849810E+03  0.00000000000E+00 0. -1.
         25    2    1    2    0    0 -0.67069654803E+02  0.60085553309E+02 -0.54779999893E+00  0.15405953161E+03  0.12500170752E+03 0.  0.
          2    1    1    2  501    0 -0.18005655234E+02 -0.10567468281E+03 -0.45701830924E+03  0.46942206721E+03  0.00000000000E+00 0. -1.
          1    1    1    2  502    0  0.85075310037E+02  0.45589129501E+02  0.52679741697E+03  0.53556670512E+03  0.00000000000E+00 0. -1.
         22    1    3    3    0    0 -0.46685252514E+02 -0.81915726175E+01 -0.48779759075E+02  0.68015289161E+02  0.00000000000E+00 0. -1.
         22    1    3    3    0    0 -0.20384402289E+02  0.68277125927E+02  0.48231959077E+02  0.86044242444E+02  0.00000000000E+00 0. -1.
</event>
<event>
 7    1  0.5562528E-006  0.7467250E+02  0.7818608E-02  0.1498857E+00
          2   -1    0    0  502    0  0.00000000000E+00  0.00000000000E+00  0.11607266104E+03  0.11607266104E+03  0.00000000000E+00 0. -1.
          1   -1    0    0  501    0 -0.00000000000E+00 -0.00000000000E+00 -0.79122336066E+03  0.79122336066E+03  0.00000000000E+00 0. -1.
         25    2    1    2    0    0  0.47404903093E+02 -0.59558888388E+02 -0.73607417978E+02  0.16382235280E+03  0.12500090108E+03 0.  0.
          2    1    1    2  501    0  0.14632307073E+02  0.17540390795E+02 -0.65247486100E+03  0.65287457751E+03  0.00000000000E+00 0. -1.
          1    1    1    2  502    0 -0.62037210165E+02  0.42018497593E+02  0.50931579363E+02  0.90599091394E+02  0.00000000000E+00 0. -1.
         22    1    3    3    0    0 -0.40427200775E+02 -0.30488886144E+02 -0.42828755795E+02  0.66319175687E+02  0.00000000000E+00 0. -1.
         22    1    3    3    0    0  0.87832103868E+02 -0.29070002244E+02 -0.30778662183E+02  0.97503177108E+02  0.00000000000E+00 0. -1.
</event>
<event>
 7    1  0.5562528E-006  0.6822752E+02  0.7818608E-02  0.1426136E+00
          2   -1    0    0  502    0  0.00000000000E+00  0.00000000000E+00  0.10792710827E+04  0.10792710827E+04  0.00000000000E+00 0. -1.
          1   -1    0    0  501    0 -0.00000000000E+00 -0.00000000000E+00 -0.33677064762E+03  0.33677064762E+03  0.00000000000E+00 0. -1.
         25    2    1    2    0    0 -0.34956734798E+02  0.57879702648E+02  0.24290800901E+03  0.28142723554E+03  0.12499981910E+03 0.  0.
          2    1    1    2  501    0  0.40862808912E+02  0.11064674660E+02 -0.31462581189E+03  0.31746117508E+03  0.00000000000E+00 0. -1.
          1    1    1    2  502    0 -0.59060741145E+01 -0.68944377308E+02  0.81421823792E+03  0.81715331966E+03  0.00000000000E+00 0. -1.
         22    1    3    3    0    0 -0.90150882325E+01  0.86824205050E+02  0.97284319802E+02  0.13070559773E+03  0.00000000000E+00 0. -1.
         22    1    3    3    0    0 -0.25941646565E+02 -0.28944502402E+02  0.14562368921E+03  0.15072163781E+03  0.00000000000E+00 0. -1.
</event>
<event>
 7    1  0.5562528E-006  0.1112498E+03  0.7818608E-02  0.1277218E+00
          2   -1    0    0  502    0  0.00000000000E+00  0.00000000000E+00  0.18285868583E+03  0.18285868583E+03  0.00000000000E+00 0. -1.
          1   -1    0    0  501    0 -0.00000000000E+00 -0.00000000000E+00 -0.46631348723E+03  0.46631348723E+03  0.00000000000E+00 0. -1.
         25    2    1    2    0    0 -0.75016789529E+02  0.16844119798E+03 -0.16237301596E+03  0.27566370813E+03  0.12500211109E+03 0.  0.
          2    1    1    2  501    0  0.66485038700E+02 -0.64404366312E+02 -0.21437669113E+03  0.23350706300E+03  0.00000000000E+00 0. -1.
          1    1    1    2  502    0  0.85317508295E+01 -0.10403683167E+03  0.93294905699E+02  0.14000140194E+03  0.00000000000E+00 0. -1.
         22    1    3    3    0    0 -0.78136165310E+02  0.38779633262E+02 -0.96888549844E+02  0.13037066916E+03  0.00000000000E+00 0.  1.
         22    1    3    3    0    0  0.31193757812E+01  0.12966156472E+03 -0.65484466121E+02  0.14529303897E+03  0.00000000000E+00 0.  1.
</event>
<event>
 7    1  0.5562528E-006  0.5457419E+02  0.7818608E-02  0.1479541E+00
          2   -1    0    0  502    0  0.00000000000E+00  0.00000000000E+00  0.52323327826E+03  0.52323327826E+03  0.00000000000E+00 0. -1.
          1   -1    0    0  501    0 -0.00000000000E+00 -0.00000000000E+00 -0.79101142915E+02  0.79101142915E+02  0.00000000000E+00 0. -1.
         25    2    1    2    0    0 -0.33745939255E+02 -0.64385977318E+02  0.82709473255E+02  0.16655000432E+03  0.12495480976E+03 0.  0.
          2    1    1    2  501    0 -0.10570646769E+00  0.52854421762E+02 -0.17118630465E+02  0.55557614984E+02  0.00000000000E+00 0. -1.
          1    1    1    2  502    0  0.33851645723E+02  0.11531555556E+02  0.37854129255E+03  0.38022680187E+03  0.00000000000E+00 0. -1.
         22    1    3    3    0    0 -0.46961795474E+02  0.12586941217E+02  0.73198021983E+02  0.87873726139E+02  0.00000000000E+00 0.  1.
         22    1    3    3    0    0  0.13215856219E+02 -0.76972918535E+02  0.95114512723E+01  0.78676278183E+02  0.00000000000E+00 0.  1.
</event>
<event>
 7    1  0.5562528E-006  0.6474690E+02  0.7818608E-02  0.1513169E+00
          2   -1    0    0  502    0  0.00000000000E+00  0.00000000000E+00  0.72793933797E+03  0.72793933797E+03  0.00000000000E+00 0. -1.
          1   -1    0    0  501    0 -0.00000000000E+00 -0.00000000000E+00 -0.39008678578E+03  0.39008678578E+03  0.00000000000E+00 0. -1.
         25    2    1    2    0    0  0.33630841384E+02  0.62063077513E+02 -0.27984559316E+02  0.14625526320E+03  0.12499842948E+03 0.  0.
          2    1    1    2  501    0  0.14601392322E+02 -0.18915872068E+02 -0.30092664120E+03  0.30187390457E+03  0.00000000000E+00 0. -1.
          1    1    1    2  502    0 -0.48232233706E+02 -0.43147205445E+02  0.66676375271E+03  0.66989695598E+03  0.00000000000E+00 0. -1.
         22    1    3    3    0    0  0.38086938975E+02  0.85310171780E+01  0.42455340628E+02  0.57670175328E+02  0.00000000000E+00 0. -1.
         22    1    3    3    0    0 -0.44560975910E+01  0.53532060335E+02 -0.70439899944E+02  0.88585087873E+02  0.00000000000E+00 0. -1.
</event>
<event>
 7    1  0.5562528E-006  0.6818291E+02  0.7818608E-02  0.1516081E+00
          2   -1    0    0  502    0  0.00000000000E+00  0.00000000000E+00  0.25975501184E+03  0.25975501184E+03  0.00000000000E+00 0. -1.
          1   -1    0    0  501    0 -0.00000000000E+00 -0.00000000000E+00 -0.10255563176E+04  0.10255563176E+04  0.00000000000E+00 0. -1.
         25    2    1    2    0    0  0.24098599789E+01  0.52358494728E+02  0.46582844694E+02  0.14331907091E+03  0.12499270087E+03 0.  0.
          2    1    1    2  501    0  0.14469979331E+02 -0.66855752577E+02 -0.97523365942E+03  0.97762966527E+03  0.00000000000E+00 0. -1.
          1    1    1    2  502    0 -0.16879839310E+02  0.14497257848E+02  0.16284950901E+03  0.16436259321E+03  0.00000000000E+00 0. -1.
         22    1    3    3    0    0  0.34615185606E+02  0.15543098871E+02  0.76913906041E+02  0.85764491135E+02  0.00000000000E+00 0. -1.
         22    1    3    3    0    0 -0.32205325627E+02  0.36815395857E+02 -0.30331061347E+02  0.57554579777E+02  0.00000000000E+00 0. -1.
</event>
<event>
 7    1  0.5562528E-006  0.7108917E+02  0.7818608E-02  0.1479992E+00
          2   -1    0    0  502    0  0.00000000000E+00  0.00000000000E+00  0.15175685802E+04  0.15175685802E+04  0.00000000000E+00 0. -1.
          1   -1    0    0  501    0 -0.00000000000E+00 -0.00000000000E+00 -0.18987608871E+03  0.18987608871E+03  0.00000000000E+00 0. -1.
         25    2    1    2    0    0  0.20468803432E+02  0.49158932404E+02  0.27669112284E+02  0.13865789391E+03  0.12499943687E+03 0.  0.
          2    1    1    2  501    0 -0.16100802072E+02  0.22129088457E+02 -0.13208919094E+03  0.13489435402E+03  0.00000000000E+00 0. -1.
          1    1    1    2  502    0 -0.43680013599E+01 -0.71288020861E+02  0.14321125701E+04  0.14338924210E+04  0.00000000000E+00 0. -1.
         22    1    3    3    0    0 -0.36911424678E+02  0.41274731875E+02  0.51882958808E+02  0.75880815611E+02  0.00000000000E+00 0. -1.
         22    1    3    3    0    0  0.57380228110E+02  0.78842005296E+01 -0.24213846524E+02  0.62777078296E+02  0.00000000000E+00 0. -1.
</event>
<event>
 7    1  0.5562528E-006  0.1097400E+03  0.7818608E-02  0.1324208E+00
          2   -1    0    0  502    0  0.00000000000E+00  0.00000000000E+00  0.26007041810E+04  0.26007041810E+04  0.00000000000E+00 0. -1.
          1   -1    0    0  501    0 -0.00000000000E+00 -0.00000000000E+00 -0.84213719126E+02  0.84213719126E+02  0.00000000000E+00 0. -1.
         25    2    1    2    0    0  0.50062765501E+02  0.98049051434E+02  0.20345550717E+04  0.20413619801E+04  0.12499798813E+03 0.  0.
          2    1    1    2  501    0  0.50783698520E+02 -0.33561100067E+02 -0.61833128489E+02  0.86767892978E+02  0.00000000000E+00 0. -1.
          1    1    1    2  502    0 -0.10084646402E+03 -0.64487951367E+02  0.54376851868E+03  0.55678802707E+03  0.00000000000E+00 0. -1.
         22    1    3    3    0    0  0.56888431353E+02  0.70131738253E+02  0.19493494865E+04  0.19514400260E+04  0.00000000000E+00 0. -1.
         22    1    3    3    0    0 -0.68256658519E+01  0.27917313181E+02  0.85205585146E+02  0.89921954103E+02  0.00000000000E+00 0. -1.
</event>
<event>
 7    1  0.5562528E-006  0.7089448E+02  0.7818608E-02  0.1389462E+00
          2   -1    0    0  502    0  0.00000000000E+00  0.00000000000E+00  0.18269633654E+04  0.18269633654E+04  0.00000000000E+00 0. -1.
          1   -1    0    0  501    0 -0.00000000000E+00 -0.00000000000E+00 -0.14406296586E+03  0.14406296586E+03  0.00000000000E+00 0. -1.
         25    2    1    2    0    0  0.10365448913E+03  0.35294675829E+02  0.72189529741E+03  0.74077461234E+03  0.12499695439E+03 0.  0.
          2    1    1    2  501    0 -0.36388725626E+02 -0.40293127514E+02 -0.12806322441E+03  0.13909660285E+03  0.00000000000E+00 0. -1.
          1    1    1    2  502    0 -0.67265763499E+02  0.49984516847E+01  0.10890683266E+04  0.10911551161E+04  0.00000000000E+00 0. -1.
         22    1    3    3    0    0  0.63226132855E+02  0.81823057124E+02  0.40928327332E+03  0.42214376031E+03  0.00000000000E+00 0.  1.
         22    1    3    3    0    0  0.40428356270E+02 -0.46528381295E+02  0.31261202409E+03  0.31863085203E+03  0.00000000000E+00 0.  1.
</event>
<event>
 7    1  0.5562528E-006  0.6692762E+02  0.7818608E-02  0.1405323E+00
          2   -1    0    0  502    0  0.00000000000E+00  0.00000000000E+00  0.87298214718E+03  0.87298214718E+03  0.00000000000E+00 0. -1.
          1   -1    0    0  501    0 -0.00000000000E+00 -0.00000000000E+00 -0.21584509603E+04  0.21584509603E+04  0.00000000000E+00 0. -1.
         25    2    1    2    0    0 -0.99278631309E+01  0.22468414149E+02  0.57085198591E+03  0.58489899168E+03  0.12502579154E+03 0.  0.
          2    1    1    2  501    0  0.60141724585E+02 -0.29463493247E+02 -0.21487244056E+04  0.21497678236E+04  0.00000000000E+00 0. -1.
          1    1    1    2  502    0 -0.50213861454E+02  0.69950790973E+01  0.29240360656E+03  0.29676629212E+03  0.00000000000E+00 0. -1.
         22    1    3    3    0    0  0.93524632643E+01 -0.50683099941E+02  0.24866608217E+03  0.25395091182E+03  0.00000000000E+00 0. -1.
         22    1    3    3    0    0 -0.19280326395E+02  0.73151514091E+02  0.32218590374E+03  0.33094807987E+03  0.00000000000E+00 0. -1.
</event>
<event>
 7    1  0.5562528E-006  0.7454305E+02  0.7818608E-02  0.1437822E+00
          2   -1    0    0  502    0  0.00000000000E+00  0.00000000000E+00  0.47342637105E+04  0.47342637105E+04  0.00000000000E+00 0. -1.
          1   -1    0    0  501    0 -0.00000000000E+00 -0.00000000000E+00 -0.50775628223E+02  0.50775628223E+02  0.00000000000E+00 0. -1.
         25    2    1    2    0    0  0.81348942350E+02  0.68062472429E+02  0.34110690103E+03  0.37845644622E+03  0.12500085273E+03 0.  0.
          2    1    1    2  501    0 -0.33548094827E+02 -0.11522021029E+02 -0.21891020353E+02  0.41682711131E+02  0.00000000000E+00 0. -1.
          1    1    1    2  502    0 -0.47800847522E+02 -0.56540451400E+02  0.43642722017E+04  0.43649001814E+04  0.00000000000E+00 0. -1.
         22    1    3    3    0    0  0.34808710691E+02 -0.33751104629E+02  0.70053027839E+02  0.85195129632E+02  0.00000000000E+00 0. -1.
         22    1    3    3    0    0  0.46540231659E+02  0.10181357706E+03  0.27105387319E+03  0.29326131659E+03  0.00000000000E+00 0. -1.
</event>
<event>
 7    1  0.5562528E-006  0.4845484E+03  0.7818608E-02  0.1192210E+00
          2   -1    0    0  502    0  0.00000000000E+00  0.00000000000E+00  0.70821000895E+03  0.70821000895E+03  0.00000000000E+00 0. -1.
          1   -1    0    0  501    0 -0.00000000000E+00 -0.00000000000E+00 -0.33283282171E+04  0.33283282171E+04  0.00000000000E+00 0. -1.
         25    2    1    2    0    0 -0.49209359032E+03 -0.93311708945E+02 -0.10240188308E+03  0.52628767336E+03  0.12501757004E+03 0.  0.
          2    1    1    2  501    0  0.31784624434E+02 -0.39657193530E+02 -0.28980627731E+04  0.28985083737E+04  0.00000000000E+00 0. -1.
          1    1    1    2  502    0  0.46030896588E+03  0.13296890248E+03  0.38034644802E+03  0.61174217904E+03  0.00000000000E+00 0. -1.
         22    1    3    3    0    0 -0.46883852811E+03 -0.97223728834E+02 -0.12367596509E+03  0.49452781846E+03  0.00000000000E+00 0.  1.
         22    1    3    3    0    0 -0.23255062204E+02  0.39120198889E+01  0.21274082016E+02  0.31759854901E+02  0.00000000000E+00 0.  1.
</event>
<event>
 7    1  0.5562528E-006  0.9309441E+02  0.7818608E-02  0.1314273E+00
          2   -1    0    0  502    0  0.00000000000E+00  0.00000000000E+00  0.80135086022E+03  0.80135086022E+03  0.00000000000E+00 0. -1.
          1   -1    0    0  501    0 -0.00000000000E+00 -0.00000000000E+00 -0.10282733261E+03  0.10282733261E+03  0.00000000000E+00 0. -1.
         25    2    1    2    0    0 -0.10464244597E+03 -0.12018640324E+03  0.14414621873E+03  0.24858917014E+03  0.12499452035E+03 0.  0.
          2    1    1    2  501    0  0.29196772824E+02  0.72786873739E+02 -0.14519536243E+02  0.79757115449E+02  0.00000000000E+00 0. -1.
          1    1    1    2  502    0  0.75445673142E+02  0.47399529499E+02  0.56889684512E+03  0.57583190723E+03  0.00000000000E+00 0. -1.
         22    1    3    3    0    0 -0.36970420039E+02  0.14829772932E+02  0.69539294495E+02  0.80140174706E+02  0.00000000000E+00 0. -1.
         22    1    3    3    0    0 -0.67672025927E+02 -0.13501617617E+03  0.74606924233E+02  0.16844899544E+03  0.00000000000E+00 0. -1.
</event>
<event>
 7    1  0.5562528E-006  0.7477676E+02  0.7818608E-02  0.1425266E+00
          2   -1    0    0  502    0  0.00000000000E+00  0.00000000000E+00  0.12035680658E+04  0.12035680658E+04  0.00000000000E+00 0. -1.
          1   -1    0    0  501    0 -0.00000000000E+00 -0.00000000000E+00 -0.66946071686E+02  0.66946071686E+02  0.00000000000E+00 0. -1.
         25    2    1    2    0    0 -0.21972971366E+02 -0.50317645919E+02  0.50468321940E+03  0.52282355183E+03  0.12499854974E+03 0.  0.
          2    1    1    2  501    0  0.60614815124E+02  0.45988254322E+02 -0.32052530000E+02  0.82561734645E+02  0.00000000000E+00 0. -1.
          1    1    1    2  502    0 -0.38641843758E+02  0.43293915970E+01  0.66399130470E+03  0.66512885101E+03  0.00000000000E+00 0. -1.
         22    1    3    3    0    0 -0.12168114198E+02 -0.57985680932E+01 -0.24036653652E+01  0.13691749423E+02  0.00000000000E+00 0. -1.
         22    1    3    3    0    0 -0.98048571678E+01 -0.44519077826E+02  0.50708688477E+03  0.50913180240E+03  0.00000000000E+00 0. -1.
</event>
<event>
 7    1  0.5562528E-006  0.1161866E+03  0.7818608E-02  0.1439649E+00
          2   -1    0    0  502    0  0.00000000000E+00  0.00000000000E+00  0.24896192329E+02  0.24896192329E+02  0.00000000000E+00 0. -1.
          1   -1    0    0  501    0 -0.00000000000E+00 -0.00000000000E+00 -0.23773542715E+04  0.23773542715E+04  0.00000000000E+00 0. -1.
         25    2    1    2    0    0  0.79158144265E+02 -0.63485800231E+02 -0.83306219392E+03  0.84847754170E+03  0.12500024479E+03 0.  0.
          2    1    1    2  501    0  0.22445463693E+02 -0.38466828509E+00 -0.13258431072E+04  0.13260331413E+04  0.00000000000E+00 0. -1.
          1    1    1    2  502    0 -0.10160360796E+03  0.63870468516E+02 -0.19355277805E+03  0.22773978086E+03  0.00000000000E+00 0. -1.
         22    1    3    3    0    0  0.70989111127E+02 -0.98360701554E+02 -0.71080898455E+03  0.72108508099E+03  0.00000000000E+00 0.  1.
         22    1    3    3    0    0  0.81690331382E+01  0.34874901323E+02 -0.12225320937E+03  0.12739246072E+03  0.00000000000E+00 0.  1.
</event>
<event>
 7    1  0.5562528E-006  0.6049244E+02  0.7818608E-02  0.1402326E+00
          2   -1    0    0  502    0  0.00000000000E+00  0.00000000000E+00  0.11235501998E+02  0.11235501998E+02  0.00000000000E+00 0. -1.
          1   -1    0    0  501    0 -0.00000000000E+00 -0.00000000000E+00 -0.40766434257E+04  0.40766434257E+04  0.00000000000E+00 0. -1.
         25    2    1    2    0    0 -0.90681979893E+02 -0.31054721351E+02 -0.18163240859E+04  0.18231419686E+04  0.12500334263E+03 0.  0.
          2    1    1    2  501    0  0.33578722051E+02  0.46592214539E+02 -0.21388610572E+04  0.21396319747E+04  0.00000000000E+00 0. -1.
          1    1    1    2  502    0  0.57103257843E+02 -0.15537493188E+02 -0.11022278064E+03  0.12510498440E+03  0.00000000000E+00 0. -1.
         22    1    3    3    0    0 -0.48252188280E+02 -0.32723732272E+02 -0.26945815007E+03  0.27569332775E+03  0.00000000000E+00 0. -1.
         22    1    3    3    0    0 -0.42429791614E+02  0.16690109213E+01 -0.15468659358E+04  0.15474486409E+04  0.00000000000E+00 0. -1.
</event>
<event>
 7    1  0.5562528E-006  0.2279679E+03  0.7818608E-02  0.1132892E+00
          2   -1    0    0  502    0  0.00000000000E+00  0.00000000000E+00  0.28018986060E+04  0.28018986060E+04  0.00000000000E+00 0. -1.
          1   -1    0    0  501    0 -0.00000000000E+00 -0.00000000000E+00 -0.44783539801E+03  0.44783539801E+03  0.00000000000E+00 0. -1.
         25    2    1    2    0    0  0.13667068333E+03 -0.37906764543E+03  0.88205528422E+03  0.97776331597E+03  0.12501368778E+03 0.  0.
          2    1    1    2  501    0 -0.15045977030E+03  0.16461638317E+03 -0.36212619119E+03  0.42529057647E+03  0.00000000000E+00 0. -1.
          1    1    1    2  502    0  0.13789086972E+02  0.21445126226E+03  0.18341341149E+04  0.18466801116E+04  0.00000000000E+00 0. -1.
         22    1    3    3    0    0  0.79401597090E+02 -0.85778277962E+02  0.32887401871E+03  0.34902814610E+03  0.00000000000E+00 0.  1.
         22    1    3    3    0    0  0.57269086236E+02 -0.29328936746E+03  0.55318126551E+03  0.62873516986E+03  0.00000000000E+00 0.  1.
</event>
<event>
 7    1  0.5562528E-006  0.1095868E+03  0.7818608E-02  0.1332321E+00
          2   -1    0    0  502    0  0.00000000000E+00  0.00000000000E+00  0.17495592301E+04  0.17495592301E+04  0.00000000000E+00 0. -1.
          1   -1    0    0  501    0 -0.00000000000E+00 -0.00000000000E+00 -0.84023643590E+03  0.84023643590E+03  0.00000000000E+00 0. -1.
         25    2    1    2    0    0 -0.20527915588E+02 -0.55378690064E+02 -0.24741837578E+02  0.14044957936E+03  0.12500292470E+03 0.  0.
          2    1    1    2  501    0  0.13402031538E+02 -0.55141899137E+02 -0.75476184068E+03  0.75689211889E+03  0.00000000000E+00 0. -1.
          1    1    1    2  502    0  0.71258840503E+01  0.11052058920E+03  0.16888264724E+04  0.16924539677E+04  0.00000000000E+00 0. -1.
         22    1    3    3    0    0 -0.62691986594E+02 -0.66917495388E+02 -0.29861806102E+02  0.96436320107E+02  0.00000000000E+00 0.  1.
         22    1    3    3    0    0  0.42164071006E+02  0.11538805324E+02  0.51199685235E+01  0.44013259250E+02  0.00000000000E+00 0.  1.
</event>
<event>
 7    1  0.5562528E-006  0.1178796E+03  0.7818608E-02  0.1428323E+00
          2   -1    0    0  502    0  0.00000000000E+00  0.00000000000E+00  0.11721794915E+04  0.11721794915E+04  0.00000000000E+00 0. -1.
          1   -1    0    0  501    0 -0.00000000000E+00 -0.00000000000E+00 -0.44167586336E+03  0.44167586336E+03  0.00000000000E+00 0. -1.
         25    2    1    2    0    0 -0.53018689705E+02 -0.96638608437E+02  0.11970263214E+03  0.20519100246E+03  0.12499850100E+03 0.  0.
          2    1    1    2  501    0 -0.23380765314E+02  0.58368182902E+01 -0.39507674562E+03  0.39581102001E+03  0.00000000000E+00 0. -1.
          1    1    1    2  502    0  0.76399455018E+02  0.90801790147E+02  0.10058777416E+04  0.10128533324E+04  0.00000000000E+00 0. -1.
         22    1    3    3    0    0 -0.39664542833E+02 -0.10361811120E+03  0.30975066382E+02  0.11519307125E+03  0.00000000000E+00 0. -1.
         22    1    3    3    0    0 -0.13354146872E+02  0.69795027581E+01  0.88727565763E+02  0.89997931219E+02  0.00000000000E+00 0. -1.
</event>
<event>
 7    1  0.5562528E-006  0.1226525E+03  0.7818608E-02  0.1368084E+00
          2   -1    0    0  502    0  0.00000000000E+00  0.00000000000E+00  0.83138920405E+03  0.83138920405E+03  0.00000000000E+00 0. -1.
          1   -1    0    0  501    0 -0.00000000000E+00 -0.00000000000E+00 -0.63007340396E+03  0.63007340396E+03  0.00000000000E+00 0. -1.
         25    2    1    2    0    0  0.68711571482E+02 -0.67250297576E+02  0.94184255266E+01  0.15797692577E+03  0.12499647898E+03 0.  0.
          2    1    1    2  501    0 -0.68515412384E+02  0.10462096849E+03 -0.54828183257E+03  0.56236365166E+03  0.00000000000E+00 0. -1.
          1    1    1    2  502    0 -0.19615909847E+00 -0.37370670917E+02  0.74017920714E+03  0.74112203057E+03  0.00000000000E+00 0. -1.
         22    1    3    3    0    0  0.36178192361E+02 -0.45984160956E+02  0.66717600641E+02  0.88739184674E+02  0.00000000000E+00 0.  1.
         22    1    3    3    0    0  0.32533379122E+02 -0.21266136620E+02 -0.57299175114E+02  0.69237741100E+02  0.00000000000E+00 0.  1.
</event>
<event>
 7    1  0.5562528E-006  0.8426326E+02  0.7818608E-02  0.1469449E+00
          2   -1    0    0  502    0  0.00000000000E+00  0.00000000000E+00  0.33167281124E+03  0.33167281124E+03  0.00000000000E+00 0. -1.
          1   -1    0    0  501    0 -0.00000000000E+00 -0.00000000000E+00 -0.10991414697E+04  0.10991414697E+04  0.00000000000E+00 0. -1.
         25    2    1    2    0    0  0.19337664663E+02 -0.83325396073E+02 -0.10422855118E+03  0.18386522322E+03  0.12500305005E+03 0.  0.
          2    1    1    2  501    0  0.55340496109E+01  0.84185637666E+02 -0.95269648050E+03  0.95642481736E+03  0.00000000000E+00 0. -1.
          1    1    1    2  502    0 -0.24871714274E+02 -0.86024159338E+00  0.28945637326E+03  0.29052424031E+03  0.00000000000E+00 0. -1.
         22    1    3    3    0    0 -0.46685097943E+02 -0.28413992617E+02 -0.85762175081E+01  0.55320925996E+02  0.00000000000E+00 0.  1.
         22    1    3    3    0    0  0.66022762606E+02 -0.54911403456E+02 -0.95652333669E+02  0.12854429722E+03  0.00000000000E+00 0.  1.
</event>
<event>
 7    1  0.5562528E-006  0.2124144E+03  0.7818608E-02  0.1312784E+00
          2   -1    0    0  502    0  0.00000000000E+00  0.00000000000E+00  0.85059816092E+03  0.85059816092E+03  0.00000000000E+00 0. -1.
          1   -1    0    0  501    0 -0.00000000000E+00 -0.00000000000E+00 -0.87029854184E+03  0.87029854184E+03  0.00000000000E+00 0. -1.
         25    2    1    2    0    0  0.19243187371E+03 -0.12603313512E+03  0.32233066564E+03  0.41525487902E+03  0.12500071747E+03 0.  0.
          2    1    1    2  501    0 -0.10025659341E+02  0.33361882863E+02 -0.80172075316E+03  0.80247722405E+03  0.00000000000E+00 0. -1.
          1    1    1    2  502    0 -0.18240621437E+03  0.92671252261E+02  0.45968970659E+03  0.50316459969E+03  0.00000000000E+00 0. -1.
         22    1    3    3    0    0  0.65745909159E+01  0.22685072178E+02  0.25235656920E+02  0.34564087224E+02  0.00000000000E+00 0. -1.
         22    1    3    3    0    0  0.18585728279E+03 -0.14871820730E+03  0.29709500872E+03  0.38069079180E+03  0.00000000000E+00 0. -1.
</event>
<event>
 7    1  0.5562528E-006  0.6498951E+02  0.7818608E-02  0.1389605E+00
          2   -1    0    0  502    0  0.00000000000E+00  0.00000000000E+00  0.55571552837E+03  0.55571552837E+03  0.00000000000E+00 0. -1.
          1   -1    0    0  501    0 -0.00000000000E+00 -0.00000000000E+00 -0.42451491634E+03  0.42451491634E+03  0.00000000000E+00 0. -1.
         25    2    1    2    0    0 -0.35474810375E+02  0.11378476713E+03 -0.17373319041E+03  0.24497971920E+03  0.12500562375E+03 0.  0.
          2    1    1    2  501    0  0.11897822636E+01 -0.59145659528E+02 -0.20903768002E+03  0.21724726992E+03  0.00000000000E+00 0. -1.
          1    1    1    2  502    0  0.34285028112E+02 -0.54639107599E+02  0.51397148245E+03  0.51800345559E+03  0.00000000000E+00 0. -1.
         22    1    3    3    0    0  0.20366882946E+02 -0.15450615268E+02 -0.55611290923E+02  0.61205776780E+02  0.00000000000E+00 0. -1.
         22    1    3    3    0    0 -0.55841693322E+02  0.12923538239E+03 -0.11812189948E+03  0.18377394242E+03  0.00000000000E+00 0. -1.
</event>
<event>
 7    1  0.5562528E-006  0.3690704E+02  0.7818608E-02  0.1598568E+00
          2   -1    0    0  502    0  0.00000000000E+00  0.00000000000E+00  0.31772270011E+03  0.31772270011E+03  0.00000000000E+00 0. -1.
          1   -1    0    0  501    0 -0.00000000000E+00 -0.00000000000E+00 -0.25398495338E+03  0.25398495338E+03  0.00000000000E+00 0. -1.
         25    2    1    2    0    0  0.21444329756E+02 -0.43734290122E+02  0.21956407642E+03  0.25730358463E+03  0.12499681435E+03 0.  0.
          2    1    1    2  501    0 -0.30257242123E+02  0.21072364158E+02 -0.23175873973E+03  0.23467351507E+03  0.00000000000E+00 0. -1.
          1    1    1    2  502    0  0.88129123677E+01  0.22661925964E+02  0.75932410036E+02  0.79730553784E+02  0.00000000000E+00 0. -1.
         22    1    3    3    0    0  0.20552312744E+02 -0.42721236579E+02  0.23604944839E+03  0.24076304471E+03  0.00000000000E+00 0. -1.
         22    1    3    3    0    0  0.89201701146E+00 -0.10130535433E+01 -0.16485371970E+02  0.16540539919E+02  0.00000000000E+00 0. -1.
</event>
<event>
 7    1  0.5562528E-006  0.1491837E+03  0.7818608E-02  0.1219314E+00
          2   -1    0    0  502    0  0.00000000000E+00  0.00000000000E+00  0.65386912216E+03  0.65386912216E+03  0.00000000000E+00 0. -1.
          1   -1    0    0  501    0 -0.00000000000E+00 -0.00000000000E+00 -0.73484916202E+03  0.73484916202E+03  0.00000000000E+00 0. -1.
         25    2    1    2    0    0  0.88250100059E+01  0.10238443282E+03 -0.20592208543E+03  0.26189676884E+03  0.12500223747E+03 0.  0.
          2    1    1    2  501    0 -0.12332476566E+03 -0.13569049235E+01 -0.48377280632E+03  0.49924639923E+03  0.00000000000E+00 0. -1.
          1    1    1    2  502    0  0.11449975565E+03 -0.10102752790E+03  0.60871485189E+03  0.62757511610E+03  0.00000000000E+00 0. -1.
         22    1    3    3    0    0 -0.93009606423E+01 -0.27999708742E+02 -0.28955858312E+02  0.41339246354E+02  0.00000000000E+00 0. -1.
         22    1    3    3    0    0  0.18125970648E+02  0.13038414157E+03 -0.17696622712E+03  0.22055752249E+03  0.00000000000E+00 0. -1.
</event>
<event>
 7    1  0.5562528E-006  0.8824860E+02  0.7818608E-02  0.1334422E+00
          2   -1    0    0  502    0  0.00000000000E+00  0.00000000000E+00  0.81136416094E+03  0.81136416094E+03  0.00000000000E+00 0. -1.
          1   -1    0    0  501    0 -0.00000000000E+00 -0.00000000000E+00 -0.13143628150E+04  0.13143628150E+04  0.00000000000E+00 0. -1.
         25    2    1    2    0    0 -0.55682482145E+02  0.24777330499E+02  0.66156948274E+03  0.67602810902E+03  0.12500147506E+03 0.  0.
          2    1    1    2  501    0  0.78517700168E+02  0.40529911036E+02 -0.12971475379E+04  0.13001536210E+04  0.00000000000E+00 0. -1.
          1    1    1    2  502    0 -0.22835218022E+02 -0.65307241535E+02  0.13257940114E+03  0.14954524595E+03  0.00000000000E+00 0. -1.
         22    1    3    3    0    0 -0.45055022052E+02  0.24277779935E+02  0.84019146503E+02  0.98379787506E+02  0.00000000000E+00 0.  1.
         22    1    3    3    0    0 -0.10627460093E+02  0.49955056415E+00  0.57755033624E+03  0.57764832152E+03  0.00000000000E+00 0.  1.
</event>
<event>
 7    1  0.5562528E-006  0.1129782E+03  0.7818608E-02  0.1276488E+00
          2   -1    0    0  502    0  0.00000000000E+00  0.00000000000E+00  0.11653348951E+04  0.11653348951E+04  0.00000000000E+00 0. -1.
          1   -1    0    0  501    0 -0.00000000000E+00 -0.00000000000E+00 -0.68676156393E+03  0.68676156393E+03  0.00000000000E+00 0. -1.
         25    2    1    2    0    0  0.26262932937E+02  0.10659439723E+03  0.26191596247E+02  0.16840168882E+03  0.12498408665E+03 0.  0.
          2    1    1    2  501    0  0.75027405767E+02 -0.52874753433E+02 -0.60913122785E+03  0.61600787650E+03  0.00000000000E+00 0. -1.
          1    1    1    2  502    0 -0.10129033870E+03 -0.53719643799E+02  0.10615129628E+04  0.10676868937E+04  0.00000000000E+00 0. -1.
         22    1    3    3    0    0  0.20827715489E+02 -0.98186931995E+00 -0.37759698640E+02  0.43134123861E+02  0.00000000000E+00 0. -1.
         22    1    3    3    0    0  0.54352174476E+01  0.10757626655E+03  0.63951294887E+02  0.12526756496E+03  0.00000000000E+00 0. -1.
</event>
<event>
 7    1  0.5562528E-006  0.8252084E+02  0.7818608E-02  0.1337879E+00
          2   -1    0    0  502    0  0.00000000000E+00  0.00000000000E+00  0.18026403094E+03  0.18026403094E+03  0.00000000000E+00 0. -1.
          1   -1    0    0  501    0 -0.00000000000E+00 -0.00000000000E+00 -0.34370647077E+03  0.34370647077E+03  0.00000000000E+00 0. -1.
         25    2    1    2    0    0  0.58341144607E+02  0.41852617051E+02  0.17153898227E+02  0.14517097437E+03  0.12500009947E+03 0.  0.
          2    1    1    2  501    0 -0.81721512463E+02  0.26024699829E+02 -0.25879955948E+03  0.27264061067E+03  0.00000000000E+00 0. -1.
          1    1    1    2  502    0  0.23380367856E+02 -0.67877316881E+02  0.78203221421E+02  0.10615891667E+03  0.00000000000E+00 0. -1.
         22    1    3    3    0    0  0.86083114938E+01  0.25069637930E+02  0.67452198918E+02  0.72473366912E+02  0.00000000000E+00 0. -1.
         22    1    3    3    0    0  0.49732833113E+02  0.16782979121E+02 -0.50298300691E+02  0.72697607457E+02  0.00000000000E+00 0. -1.
</event>
<event>
 7    1  0.5562528E-006  0.3394731E+02  0.7818608E-02  0.1604630E+00
          2   -1    0    0  502    0  0.00000000000E+00  0.00000000000E+00  0.36770163615E+03  0.36770163615E+03  0.00000000000E+00 0. -1.
          1   -1    0    0  501    0 -0.00000000000E+00 -0.00000000000E+00 -0.55278826596E+03  0.55278826596E+03  0.00000000000E+00 0. -1.
         25    2    1    2    0    0  0.14007265394E+02  0.46810068490E+02  0.10967023202E+03  0.17331845647E+03  0.12499736624E+03 0.  0.
          2    1    1    2  501    0 -0.24412709004E+02 -0.23540258653E+02 -0.51969161085E+03  0.52079698015E+03  0.00000000000E+00 0. -1.
          1    1    1    2  502    0  0.10405443610E+02 -0.23269809837E+02  0.22493474902E+03  0.22637446548E+03  0.00000000000E+00 0. -1.
         22    1    3    3    0    0  0.33823202413E+02  0.97599669912E+01  0.12401977163E+03  0.12891923725E+03  0.00000000000E+00 0. -1.
         22    1    3    3    0    0 -0.19815937020E+02  0.37050101499E+02 -0.14349539608E+02  0.44399219227E+02  0.00000000000E+00 0. -1.
</event>
<event>
 7    1  0.5562528E-006  0.6176837E+02  0.7818608E-02  0.1399832E+00
          2   -1    0    0  502    0  0.00000000000E+00  0.00000000000E+00  0.22953691112E+04  0.22953691112E+04  0.00000000000E+00 0. -1.
          1   -1    0    0  501    0 -0.00000000000E+00 -0.00000000000E+00 -0.31829674267E+02  0.31829674267E+02  0.00000000000E+00 0. -1.
         25    2    1    2    0    0 -0.53319687116E+01  0.11446915278E+03  0.55824697796E+03  0.58343509789E+03  0.12500083288E+03 0.  0.
          2    1    1    2  501    0 -0.24775956599E+01 -0.57638502295E+02  0.25641389454E+02  0.63133321473E+02  0.00000000000E+00 0. -1.
          1    1    1    2  502    0  0.78095643715E+01 -0.56830650486E+02  0.16796510696E+04  0.16806303662E+04  0.00000000000E+00 0. -1.
         22    1    3    3    0    0  0.40859952332E+02 -0.45591586855E+01  0.11315181209E+03  0.12038959345E+03  0.00000000000E+00 0.  1.
         22    1    3    3    0    0 -0.46191921044E+02  0.11902831147E+03  0.44509516586E+03  0.46304550443E+03  0.00000000000E+00 0.  1.
</event>
<event>
 7    1  0.5562528E-006  0.5296339E+02  0.7818608E-02  0.1491158E+00
          2   -1    0    0  502    0  0.00000000000E+00  0.00000000000E+00  0.33135524876E+02  0.33135524876E+02  0.00000000000E+00 0. -1.
          1   -1    0    0  501    0 -0.00000000000E+00 -0.00000000000E+00 -0.96751232280E+03  0.96751232280E+03  0.00000000000E+00 0. -1.
         25    2    1    2    0    0 -0.59521431439E+02  0.45144396019E+02 -0.22331859683E+03  0.26660216427E+03  0.12499880403E+03 0.  0.
          2    1    1    2  501    0  0.50767998056E+02 -0.12324583372E+02 -0.69413153874E+03  0.69609473353E+03  0.00000000000E+00 0. -1.
          1    1    1    2  502    0  0.87534333827E+01 -0.32819812647E+02 -0.16926662359E+02  0.37950949880E+02  0.00000000000E+00 0. -1.
         22    1    3    3    0    0 -0.43702606266E+02 -0.12384642052E+02 -0.19561536519E+03  0.20081998967E+03  0.00000000000E+00 0.  1.
         22    1    3    3    0    0 -0.15818825173E+02  0.57529038071E+02 -0.27703231644E+02  0.65782174597E+02  0.00000000000E+00 0.  1.
</event>
<event>
 7    1  0.6620431E-006  0.7733000E+02  0.7818608E-02  0.1337912E+00
          2   -1    0    0  502    0  0.00000000000E+00  0.00000000000E+00  0.81042269327E+03  0.81042269327E+03  0.00000000000E+00 0. -1.
          1   -1    0    0  501    0 -0.00000000000E+00 -0.00000000000E+00 -0.11412089239E+04  0.11412089239E+04  0.00000000000E+00 0. -1.
         25    2    1    2    0    0  0.39176896132E+02 -0.66775891112E+02 -0.11606413606E+03  0.18732150957E+03  0.12499846177E+03 0.  0.
          2    1    1    2  501    0 -0.78906128904E+02  0.12979266696E+01 -0.98604307037E+03  0.98919603640E+03  0.00000000000E+00 0. -1.
          1    1    1    2  502    0  0.39729232773E+02  0.65477964442E+02  0.77132097577E+03  0.77511407124E+03  0.00000000000E+00 0. -1.
         22    1    3    3    0    0 -0.28940655393E+01 -0.90521507262E+02 -0.10324668535E+03  0.13734044170E+03  0.00000000000E+00 0.  1.
         22    1    3    3    0    0  0.42070961671E+02  0.23745616150E+02 -0.12817450709E+02  0.49981067865E+02  0.00000000000E+00 0.  1.
</event>
<event>
 7    1  0.5562528E-006  0.9706352E+02  0.7818608E-02  0.1393996E+00
          2   -1    0    0  502    0  0.00000000000E+00  0.00000000000E+00  0.22309465226E+03  0.22309465226E+03  0.00000000000E+00 0. -1.
          1   -1    0    0  501    0 -0.00000000000E+00 -0.00000000000E+00 -0.94249411514E+03  0.94249411514E+03  0.00000000000E+00 0. -1.
         25    2    1    2    0    0  0.11283600157E+02 -0.90996971283E+02  0.52630791337E+02  0.16376138171E+03  0.12506007167E+03 0.  0.
          2    1    1    2  501    0  0.38148094460E+02  0.26452098014E+01 -0.86412235053E+03  0.86496804041E+03  0.00000000000E+00 0. -1.
          1    1    1    2  502    0 -0.49431694618E+02  0.88351761481E+02  0.92092096307E+02  0.13685934529E+03  0.00000000000E+00 0. -1.
         22    1    3    3    0    0  0.55126141910E+02 -0.13685473470E+02  0.48663577068E+02  0.74795236740E+02  0.00000000000E+00 0. -1.
         22    1    3    3    0    0 -0.43842541753E+02 -0.77311497813E+02  0.39672142686E+01  0.88966144968E+02  0.00000000000E+00 0. -1.
</event>
<event>
 7    1  0.5562528E-006  0.6346500E+02  0.7818608E-02  0.1422826E+00
          2   -1    0    0  502    0  0.00000000000E+00  0.00000000000E+00  0.14007336553E+04  0.14007336553E+04  0.00000000000E+00 0. -1.
          1   -1    0    0  501    0 -0.00000000000E+00 -0.00000000000E+00 -0.17542377151E+04  0.17542377151E+04  0.00000000000E+00 0. -1.
         25    2    1    2    0    0 -0.38760137712E+02  0.13552815123E+02  0.91103883966E+03  0.92049174414E+03  0.12500902603E+03 0.  0.
          2    1    1    2  501    0  0.56058910455E+02  0.29800140943E+02 -0.17478104600E+04  0.17489631368E+04  0.00000000000E+00 0. -1.
          1    1    1    2  502    0 -0.17298772743E+02 -0.43352956066E+02  0.48326756059E+03  0.48551648937E+03  0.00000000000E+00 0. -1.
         22    1    3    3    0    0 -0.28436449089E+02 -0.64839902255E+01  0.88721758925E+03  0.88769686517E+03  0.00000000000E+00 0.  1.
         22    1    3    3    0    0 -0.10323688623E+02  0.20036805349E+02  0.23821250412E+02  0.32794878969E+02  0.00000000000E+00 0.  1.
</event>
<event>
 7    1  0.5562528E-006  0.1044582E+03  0.7818608E-02  0.1436213E+00
          2   -1    0    0  502    0  0.00000000000E+00  0.00000000000E+00  0.37648135588E+03  0.37648135588E+03  0.00000000000E+00 0. -1.
          1   -1    0    0  501    0 -0.00000000000E+00 -0.00000000000E+00 -0.11637510249E+04  0.11637510249E+04  0.00000000000E+00 0. -1.
         25    2    1    2    0    0  0.72573217379E+02  0.10408927259E+03 -0.70513801054E+03  0.72728663506E+03  0.12499914834E+03 0.  0.
          2    1    1    2  501    0 -0.44041854012E+01 -0.25239196539E+02 -0.43972518264E+03  0.44047094131E+03  0.00000000000E+00 0. -1.
          1    1    1    2  502    0 -0.68169031978E+02 -0.78850076054E+02  0.35759352415E+03  0.37247480442E+03  0.00000000000E+00 0. -1.
         22    1    3    3    0    0 -0.57018205025E+01  0.97231358175E+01  0.29793254572E+00  0.11275588276E+02  0.00000000000E+00 0. -1.
         22    1    3    3    0    0  0.78275037882E+02  0.94366136775E+02 -0.70543594308E+03  0.71601104678E+03  0.00000000000E+00 0. -1.
</event>
<event>
 7    1  0.5562528E-006  0.7408562E+02  0.7818608E-02  0.1500641E+00
          2   -1    0    0  502    0  0.00000000000E+00  0.00000000000E+00  0.27514254063E+04  0.27514254063E+04  0.00000000000E+00 0. -1.
          1   -1    0    0  501    0 -0.00000000000E+00 -0.00000000000E+00 -0.55259937374E+02  0.55259937374E+02  0.00000000000E+00 0. -1.
         25    2    1    2    0    0 -0.28422273820E+02  0.76327018119E+02  0.59954167822E+03  0.61782583847E+03  0.12499961365E+03 0.  0.
          2    1    1    2  501    0 -0.15252594317E+02 -0.16869600288E+02 -0.42638979620E+02  0.48325020748E+02  0.00000000000E+00 0. -1.
          1    1    1    2  502    0  0.43674868136E+02 -0.59457417831E+02  0.21392627703E+04  0.21405344844E+04  0.00000000000E+00 0. -1.
         22    1    3    3    0    0  0.17102786270E+01  0.63532989163E+02  0.57060566719E+03  0.57413429892E+03  0.00000000000E+00 0. -1.
         22    1    3    3    0    0 -0.30132552447E+02  0.12794028956E+02  0.28936011024E+02  0.43691539546E+02  0.00000000000E+00 0. -1.
</event>
<event>
 7    1  0.5562528E-006  0.2764208E+02  0.7818608E-02  0.1676757E+00
          2   -1    0    0  502    0  0.00000000000E+00  0.00000000000E+00  0.33964232713E+03  0.33964232713E+03  0.00000000000E+00 0. -1.
          1   -1    0    0  501    0 -0.00000000000E+00 -0.00000000000E+00 -0.26570784103E+03  0.26570784103E+03  0.00000000000E+00 0. -1.
         25    2    1    2    0    0 -0.18164510319E+02  0.35884491716E+00 -0.23468400712E+03  0.26651313677E+03  0.12499036230E+03 0.  0.
          2    1    1    2  501    0  0.23272099588E+00  0.20727168920E+02 -0.70975505071E+01  0.21909927286E+02  0.00000000000E+00 0. -1.
          1    1    1    2  502    0  0.17931789323E+02 -0.21086013837E+02  0.31571604373E+03  0.31692710410E+03  0.00000000000E+00 0. -1.
         22    1    3    3    0    0 -0.17305494518E+02 -0.19672205072E+02 -0.24328852639E+03  0.24469528574E+03  0.00000000000E+00 0. -1.
         22    1    3    3    0    0 -0.85901580110E+00  0.20031049989E+02  0.86045192643E+01  0.21817851031E+02  0.00000000000E+00 0. -1.
</event>
<event>
 7    1  0.5562528E-006  0.5430227E+02  0.7818608E-02  0.1491407E+00
          2   -1    0    0  502    0  0.00000000000E+00  0.00000000000E+00  0.15432504527E+03  0.15432504527E+03  0.00000000000E+00 0. -1.
          1   -1    0    0  501    0 -0.00000000000E+00 -0.00000000000E+00 -0.19765626023E+04  0.19765626023E+04  0.00000000000E+00 0. -1.
         25    2    1    2    0    0 -0.57241105942E+02 -0.44233491287E+01 -0.13635515096E+02  0.13823049846E+03  0.12500253279E+03 0.  0.
          2    1    1    2  501    0  0.95370252170E+01  0.31667238011E+02 -0.18922738256E+04  0.18925628126E+04  0.00000000000E+00 0. -1.
          1    1    1    2  502    0  0.47704080725E+02 -0.27243888882E+02  0.83671783689E+02  0.10009433643E+03  0.00000000000E+00 0. -1.
         22    1    3    3    0    0 -0.62819756390E+02  0.32473599895E+02  0.33385630463E+02  0.78201386205E+02  0.00000000000E+00 0. -1.
         22    1    3    3    0    0  0.55786504476E+01 -0.36896949024E+02 -0.47021145559E+02  0.60029112252E+02  0.00000000000E+00 0. -1.
</event>
<event>
 7    1  0.5562528E-006  0.9596074E+02  0.7818608E-02  0.1336097E+00
          2   -1    0    0  502    0  0.00000000000E+00  0.00000000000E+00  0.20654591963E+03  0.20654591963E+03  0.00000000000E+00 0. -1.
          1   -1    0    0  501    0 -0.00000000000E+00 -0.00000000000E+00 -0.98945363558E+03  0.98945363558E+03  0.00000000000E+00 0. -1.
         25    2    1    2    0    0 -0.97195652152E+02  0.78343790030E+02 -0.24057220552E+03  0.29847103484E+03  0.12500091335E+03 0.  0.
          2    1    1    2  501    0  0.61870737076E+02  0.10172539182E+02 -0.70565504826E+03  0.70843525872E+03  0.00000000000E+00 0. -1.
          1    1    1    2  502    0  0.35324915076E+02 -0.88516329211E+02  0.16331953783E+03  0.18909326164E+03  0.00000000000E+00 0. -1.
         22    1    3    3    0    0 -0.11289141779E+03  0.35031890905E+02 -0.11583044486E+03  0.16549440338E+03  0.00000000000E+00 0.  1.
         22    1    3    3    0    0  0.15695765639E+02  0.43311899125E+02 -0.12474176065E+03  0.13297663147E+03  0.00000000000E+00 0.  1.
</event>
<event>
 7    1  0.5562528E-006  0.4715345E+02  0.7818608E-02  0.1502368E+00
          2   -1    0    0  502    0  0.00000000000E+00  0.00000000000E+00  0.24101769929E+04  0.24101769929E+04  0.00000000000E+00 0. -1.
          1   -1    0    0  501    0 -0.00000000000E+00 -0.00000000000E+00 -0.68198496546E+02  0.68198496546E+02  0.00000000000E+00 0. -1.
         25    2    1    2    0    0 -0.80219803445E+01  0.17381585645E+02  0.12534293609E+04  0.12597919109E+04  0.12499609774E+03 0.  0.
          2    1    1    2  501    0  0.36955154132E+01  0.35117775753E+02 -0.59573805449E+02  0.69252821629E+02  0.00000000000E+00 0. -1.
          1    1    1    2  502    0  0.43264649313E+01 -0.52499361398E+02  0.11481229409E+04  0.11493307569E+04  0.00000000000E+00 0. -1.
         22    1    3    3    0    0  0.38398370951E+02 -0.16755870841E+02  0.95099245295E+03  0.95191482795E+03  0.00000000000E+00 0.  1.
         22    1    3    3    0    0 -0.46420351296E+02  0.34137456485E+02  0.30243690793E+03  0.30787708299E+03  0.00000000000E+00 0.  1.
</event>
<event>
 7    1  0.5562528E-006  0.1373960E+03  0.7818608E-02  0.1225280E+00
          2   -1    0    0  502    0  0.00000000000E+00  0.00000000000E+00  0.29798722878E+04  0.29798722878E+04  0.00000000000E+00 0. -1.
          1   -1    0    0  501    0 -0.00000000000E+00 -0.00000000000E+00 -0.59427356536E+03  0.59427356536E+03  0.00000000000E+00 0. -1.
         25    2    1    2    0    0 -0.12154501956E+03 -0.24203492393E+01  0.22876418002E+04  0.22942775198E+04  0.12500112860E+03 0.  0.
          2    1    1    2  501    0 -0.22794055675E+01 -0.13737708624E+03 -0.56998484584E+03  0.58631082541E+03  0.00000000000E+00 0. -1.
          1    1    1    2  502    0  0.12382442513E+03  0.13979743548E+03  0.66794176807E+03  0.69355750789E+03  0.00000000000E+00 0. -1.
         22    1    3    3    0    0 -0.80771860704E+01  0.10002241378E+02  0.20070458100E+02  0.23835038405E+02  0.00000000000E+00 0.  1.
         22    1    3    3    0    0 -0.11346783349E+03 -0.12422590618E+02  0.22675713421E+04  0.22704424814E+04  0.00000000000E+00 0.  1.
</event>
<event>
 7    1  0.5562528E-006  0.5718827E+02  0.7818608E-02  0.1422323E+00
          2   -1    0    0  502    0  0.00000000000E+00  0.00000000000E+00  0.96161937865E+03  0.96161937865E+03  0.00000000000E+00 0. -1.
          1   -1    0    0  501    0 -0.00000000000E+00 -0.00000000000E+00 -0.29196260169E+03  0.29196260169E+03  0.00000000000E+00 0. -1.
         25    2    1    2    0    0  0.31854878474E+02  0.40827606202E+02  0.23200282599E+03  0.26857449455E+03  0.12500128456E+03 0.  0.
          2    1    1    2  501    0 -0.49663515531E+02  0.15412580162E+02 -0.26996818293E+03  0.27493059524E+03  0.00000000000E+00 0. -1.
          1    1    1    2  502    0  0.17808637056E+02 -0.56240186364E+02  0.70762213390E+03  0.71007689055E+03  0.00000000000E+00 0. -1.
         22    1    3    3    0    0  0.51892373959E+02  0.66718911391E+02  0.92585568843E+02  0.12536474453E+03  0.00000000000E+00 0.  1.
         22    1    3    3    0    0 -0.20037495485E+02 -0.25891305189E+02  0.13941725715E+03  0.14320975002E+03  0.00000000000E+00 0.  1.
</event>
<event>
 7    1  0.5562528E-006  0.9151083E+02  0.7818608E-02  0.1488033E+00
          2   -1    0    0  502    0  0.00000000000E+00  0.00000000000E+00  0.32132282979E+03  0.32132282979E+03  0.00000000000E+00 0. -1.
          1   -1    0    0  501    0 -0.00000000000E+00 -0.00000000000E+00 -0.32180704507E+03  0.32180704507E+03  0.00000000000E+00 0. -1.
         25    2    1    2    0    0  0.10616154465E+02  0.74354298696E+02 -0.13230917729E+02  0.14642871402E+03  0.12500018654E+03 0.  0.
          2    1    1    2  501    0 -0.68762423291E+01  0.18878573792E+02 -0.23298544594E+03  0.23385016844E+03  0.00000000000E+00 0. -1.
          1    1    1    2  502    0 -0.37399121359E+01 -0.93232872488E+02  0.24573214839E+03  0.26285099240E+03  0.00000000000E+00 0. -1.
         22    1    3    3    0    0  0.47636207119E+02 -0.12777641459E+02  0.64327255160E+01  0.49737875985E+02  0.00000000000E+00 0. -1.
         22    1    3    3    0    0 -0.37020052654E+02  0.87131940154E+02 -0.19663643245E+02  0.96690838032E+02  0.00000000000E+00 0. -1.
</event>
<event>
 7    1  0.5562528E-006  0.5419817E+02  0.7818608E-02  0.1544346E+00
          2   -1    0    0  502    0  0.00000000000E+00  0.00000000000E+00  0.14539435127E+04  0.14539435127E+04  0.00000000000E+00 0. -1.
          1   -1    0    0  501    0 -0.00000000000E+00 -0.00000000000E+00 -0.14776368515E+02  0.14776368515E+02  0.00000000000E+00 0. -1.
         25    2    1    2    0    0  0.72498443472E+02 -0.54650820301E+01  0.59552765944E+03  0.61283292594E+03  0.12500044212E+03 0.  0.
          2    1    1    2  501    0 -0.21768096685E+02 -0.81146174010E+01  0.20231730563E+02  0.30806167733E+02  0.00000000000E+00 0. -1.
          1    1    1    2  502    0 -0.50730346787E+02  0.13579699431E+02  0.82340775421E+03  0.82508078756E+03  0.00000000000E+00 0. -1.
         22    1    3    3    0    0  0.67156585873E+02 -0.80803175694E+01  0.60097385111E+03  0.60476844187E+03  0.00000000000E+00 0. -1.
         22    1    3    3    0    0  0.53418575994E+01  0.26152355393E+01 -0.54461916757E+01  0.80644840694E+01  0.00000000000E+00 0. -1.
</event>
<event>
 7    1  0.5562528E-006  0.2476615E+03  0.7818608E-02  0.1176597E+00
          2   -1    0    0  502    0  0.00000000000E+00  0.00000000000E+00  0.74680826480E+02  0.74680826480E+02  0.00000000000E+00 0. -1.
          1   -1    0    0  501    0 -0.00000000000E+00 -0.00000000000E+00 -0.26575899928E+04  0.26575899928E+04  0.00000000000E+00 0. -1.
         25    2    1    2    0    0  0.13082302681E+02 -0.17373714606E+03 -0.91973887735E+03  0.94440481373E+03  0.12500042852E+03 0.  0.
          2    1    1    2  501    0 -0.71282758546E+02 -0.94476868606E+02 -0.14084753049E+04  0.14134389958E+04  0.00000000000E+00 0. -1.
          1    1    1    2  502    0  0.58200455865E+02  0.26821401466E+03 -0.25469498414E+03  0.37442700981E+03  0.00000000000E+00 0. -1.
         22    1    3    3    0    0 -0.24839251738E+02 -0.13809948178E+03 -0.43951559739E+03  0.46137015036E+03  0.00000000000E+00 0. -1.
         22    1    3    3    0    0  0.37921554419E+02 -0.35637664278E+02 -0.48022327996E+03  0.48303466337E+03  0.00000000000E+00 0. -1.
</event>
<event>
 7    1  0.5562528E-006  0.8287814E+02  0.7818608E-02  0.1370047E+00
          2   -1    0    0  502    0  0.00000000000E+00  0.00000000000E+00  0.70855329187E+02  0.70855329187E+02  0.00000000000E+00 0. -1.
          1   -1    0    0  501    0 -0.00000000000E+00 -0.00000000000E+00 -0.32804929506E+04  0.32804929506E+04  0.00000000000E+00 0. -1.
         25    2    1    2    0    0  0.50346501346E+02  0.51603814237E+02 -0.13273089868E+04  0.13351295416E+04  0.12499609024E+03 0.  0.
          2    1    1    2  501    0 -0.88113596831E+02 -0.12431656445E+02 -0.19370240315E+04  0.19390669536E+04  0.00000000000E+00 0. -1.
          1    1    1    2  502    0  0.37767095486E+02 -0.39172157792E+02  0.54695396784E+02  0.77151784664E+02  0.00000000000E+00 0. -1.
         22    1    3    3    0    0  0.38314664187E+02 -0.33881292512E+02 -0.31276809531E+03  0.31692244622E+03  0.00000000000E+00 0. -1.
         22    1    3    3    0    0  0.12031837159E+02  0.85485106749E+02 -0.10145408915E+04  0.10182070954E+04  0.00000000000E+00 0. -1.
</event>
<event>
 7    1  0.5562528E-006  0.1829580E+03  0.7818608E-02  0.1178858E+00
          2   -1    0    0  502    0  0.00000000000E+00  0.00000000000E+00  0.14152118556E+04  0.14152118556E+04  0.00000000000E+00 0. -1.
          1   -1    0    0  501    0 -0.00000000000E+00 -0.00000000000E+00 -0.13294345753E+03  0.13294345753E+03  0.00000000000E+00 0. -1.
         25    2    1    2    0    0  0.56107237778E+01 -0.28855089498E+02  0.24407927394E+03  0.27579559137E+03  0.12499767934E+03 0.  0.
          2    1    1    2  501    0  0.91224445285E+02  0.18408580246E+03 -0.12529455570E+02  0.20583116708E+03  0.00000000000E+00 0. -1.
          1    1    1    2  502    0 -0.96835169063E+02 -0.15523071297E+03  0.10507185797E+04  0.10665285547E+04  0.00000000000E+00 0. -1.
         22    1    3    3    0    0 -0.49488033060E+02 -0.48845829960E+02  0.14114422004E+03  0.15734252880E+03  0.00000000000E+00 0. -1.
         22    1    3    3    0    0  0.55098756838E+02  0.19990740462E+02  0.10293505390E+03  0.11845306257E+03  0.00000000000E+00 0. -1.
</event>
<event>
 7    1  0.5562528E-006  0.6385019E+02  0.7818608E-02  0.1422994E+00
          2   -1    0    0  502    0  0.00000000000E+00  0.00000000000E+00  0.97256551937E+02  0.97256551937E+02  0.00000000000E+00 0. -1.
          1   -1    0    0  501    0 -0.00000000000E+00 -0.00000000000E+00 -0.27321857141E+03  0.27321857141E+03  0.00000000000E+00 0. -1.
         25    2    1    2    0    0  0.43979679592E+02  0.17143013189E+02 -0.31087549398E+02  0.13719058561E+03  0.12500690355E+03 0.  0.
          2    1    1    2  501    0 -0.62392470493E+02  0.25377056755E+02 -0.16836232755E+03  0.18133584511E+03  0.00000000000E+00 0. -1.
          1    1    1    2  502    0  0.18412790901E+02 -0.42520069944E+02  0.23487857473E+02  0.51948692625E+02  0.00000000000E+00 0. -1.
         22    1    3    3    0    0  0.38009225512E+02 -0.35265719695E+02 -0.58147349023E+02  0.77906908602E+02  0.00000000000E+00 0.  1.
         22    1    3    3    0    0  0.59704540807E+01  0.52408732883E+02  0.27059799625E+02  0.59283677012E+02  0.00000000000E+00 0.  1.
</event>
<event>
 7    1  0.5562528E-006  0.1161723E+03  0.7818608E-02  0.1361853E+00
          2   -1    0    0  502    0  0.00000000000E+00  0.00000000000E+00  0.58373355688E+03  0.58373355688E+03  0.00000000000E+00 0. -1.
          1   -1    0    0  501    0 -0.00000000000E+00 -0.00000000000E+00 -0.20902328289E+03  0.20902328289E+03  0.00000000000E+00 0. -1.
         25    2    1    2    0    0 -0.40796934538E+02 -0.97850677826E+02  0.19377869700E+03  0.25380027645E+03  0.12500100758E+03 0.  0.
          2    1    1    2  501    0  0.80540066838E+02  0.85694865052E+02 -0.15829172419E+03  0.19719681085E+03  0.00000000000E+00 0. -1.
          1    1    1    2  502    0 -0.39743132300E+02  0.12155812773E+02  0.33922330117E+03  0.34175975247E+03  0.00000000000E+00 0. -1.
         22    1    3    3    0    0  0.21862055893E+01 -0.41430673477E+02 -0.58933539972E+01  0.41904794725E+02  0.00000000000E+00 0. -1.
         22    1    3    3    0    0 -0.42983140127E+02 -0.56420004349E+02  0.19967205100E+03  0.21189548173E+03  0.00000000000E+00 0. -1.
</event>
<event>
 7    1  0.5562528E-006  0.2122299E+03  0.7818608E-02  0.1182246E+00
          2   -1    0    0  502    0  0.00000000000E+00  0.00000000000E+00  0.10813758760E+04  0.10813758760E+04  0.00000000000E+00 0. -1.
          1   -1    0    0  501    0 -0.00000000000E+00 -0.00000000000E+00 -0.52749641734E+03  0.52749641734E+03  0.00000000000E+00 0. -1.
         25    2    1    2    0    0  0.15039883028E+03 -0.20280334648E+02 -0.11430189463E+03  0.22742276293E+03  0.12500035944E+03 0.  0.
          2    1    1    2  501    0 -0.25076182277E+03  0.10228609592E+03 -0.30027314838E+03  0.40436110200E+03  0.00000000000E+00 0. -1.
          1    1    1    2  502    0  0.10036299249E+03 -0.82005761275E+02  0.96845450167E+03  0.97708842841E+03  0.00000000000E+00 0. -1.
         22    1    3    3    0    0  0.49287854787E+02 -0.19099123057E+02  0.22381135540E+02  0.57401954314E+02  0.00000000000E+00 0. -1.
         22    1    3    3    0    0  0.10111097549E+03 -0.11812115908E+01 -0.13668303017E+03  0.17002080861E+03  0.00000000000E+00 0. -1.
</event>
<event>
 7    1  0.5562528E-006  0.1879860E+03  0.7818608E-02  0.1230613E+00
          2   -1    0    0  502    0  0.00000000000E+00  0.00000000000E+00  0.20372853999E+04  0.20372853999E+04  0.00000000000E+00 0. -1.
          1   -1    0    0  501    0 -0.00000000000E+00 -0.00000000000E+00 -0.17942963362E+03  0.17942963362E+03  0.00000000000E+00 0. -1.
         25    2    1    2    0    0  0.16938661467E+03  0.28175402303E+02  0.66415371928E+03  0.69728751761E+03  0.12499616342E+03 0.  0.
          2    1    1    2  501    0 -0.18178144551E+03  0.57950085830E+02 -0.10502350039E+03  0.21779036254E+03  0.00000000000E+00 0. -1.
          1    1    1    2  502    0  0.12394830847E+02 -0.86125488133E+02  0.12987255474E+04  0.13016371534E+04  0.00000000000E+00 0. -1.
         22    1    3    3    0    0  0.16995327594E+03 -0.11505389002E+02  0.49319843569E+03  0.52178653389E+03  0.00000000000E+00 0. -1.
         22    1    3    3    0    0 -0.56666127258E+00  0.39680791305E+02  0.17095528358E+03  0.17550098372E+03  0.00000000000E+00 0. -1.
</event>
<event>
 7    1  0.5562528E-006  0.1358990E+03  0.7818608E-02  0.1352217E+00
          2   -1    0    0  502    0  0.00000000000E+00  0.00000000000E+00  0.20234339634E+03  0.20234339634E+03  0.00000000000E+00 0. -1.
          1   -1    0    0  501    0 -0.00000000000E+00 -0.00000000000E+00 -0.76411980766E+03  0.76411980766E+03  0.00000000000E+00 0. -1.
         25    2    1    2    0    0  0.12136901565E+03 -0.18225293299E+02 -0.14656493289E+03  0.22839074428E+03  0.12497381023E+03 0.  0.
          2    1    1    2  501    0  0.52576357435E+01 -0.38177957164E+02 -0.54607878757E+03  0.54743697481E+03  0.00000000000E+00 0. -1.
          1    1    1    2  502    0 -0.12662665139E+03  0.56403250463E+02  0.13086730915E+03  0.19063548492E+03  0.00000000000E+00 0. -1.
         22    1    3    3    0    0  0.33936529148E+02 -0.43667486906E+02  0.62889402465E+00  0.55307620912E+02  0.00000000000E+00 0.  1.
         22    1    3    3    0    0  0.87432486502E+02  0.25442193607E+02 -0.14719382692E+03  0.17308312336E+03  0.00000000000E+00 0.  1.
</event>
<event>
 7    1  0.5562528E-006  0.6008413E+02  0.7818608E-02  0.1466963E+00
          2   -1    0    0  502    0  0.00000000000E+00  0.00000000000E+00  0.18372524554E+03  0.18372524554E+03  0.00000000000E+00 0. -1.
          1   -1    0    0  501    0 -0.00000000000E+00 -0.00000000000E+00 -0.12646748805E+04  0.12646748805E+04  0.00000000000E+00 0. -1.
         25    2    1    2    0    0 -0.67893652395E+02 -0.70869236182E+01 -0.29225715706E+03  0.32510937288E+03  0.12498834330E+03 0.  0.
          2    1    1    2  501    0  0.47864401746E+02  0.36433560254E+02 -0.95314630287E+03  0.95504255400E+03  0.00000000000E+00 0. -1.
          1    1    1    2  502    0  0.20029250649E+02 -0.29346636636E+02  0.16445382499E+03  0.16824819915E+03  0.00000000000E+00 0. -1.
         22    1    3    3    0    0 -0.80640441614E+02 -0.42001635375E+01 -0.84274156680E+02  0.11671613291E+03  0.00000000000E+00 0.  1.
         22    1    3    3    0    0  0.12746789220E+02 -0.28867600807E+01 -0.20798300038E+03  0.20839323997E+03  0.00000000000E+00 0.  1.
</event>
<event>
 7    1  0.5562528E-006  0.1364691E+03  0.7818608E-02  0.1345967E+00
          2   -1    0    0  502    0  0.00000000000E+00  0.00000000000E+00  0.92702592592E+03  0.92702592592E+03  0.00000000000E+00 0. -1.
          1   -1    0    0  501    0 -0.00000000000E+00 -0.00000000000E+00 -0.13625488258E+04  0.13625488258E+04  0.00000000000E+00 0. -1.
         25    2    1    2    0    0  0.15981320521E+03 -0.71690174821E+02  0.15393462322E+03  0.26457827469E+03  0.12500421387E+03 0.  0.
          2    1    1    2  501    0 -0.12023806933E+03  0.63170066534E+02 -0.13031238282E+04  0.13101829499E+04  0.00000000000E+00 0. -1.
          1    1    1    2  502    0 -0.39575135878E+02  0.85201082873E+01  0.71366630506E+03  0.71481352716E+03  0.00000000000E+00 0. -1.
         22    1    3    3    0    0  0.12034673812E+03 -0.17760481996E+02  0.15586927648E+03  0.19772203582E+03  0.00000000000E+00 0.  1.
         22    1    3    3    0    0  0.39466467092E+02 -0.53929692825E+02 -0.19346532589E+01  0.66856238872E+02  0.00000000000E+00 0.  1.
</event>
<event>
 7    1  0.5562528E-006  0.3363447E+02  0.7818608E-02  0.1635054E+00
          2   -1    0    0  502    0  0.00000000000E+00  0.00000000000E+00  0.65704033398E+03  0.65704033398E+03  0.00000000000E+00 0. -1.
          1   -1    0    0  501    0 -0.00000000000E+00 -0.00000000000E+00 -0.30711237122E+03  0.30711237122E+03  0.00000000000E+00 0. -1.
         25    2    1    2    0    0 -0.27455696097E+02  0.45988750710E+02  0.18165493366E+03  0.22691754471E+03  0.12499710689E+03 0.  0.
          2    1    1    2  501    0  0.22242065912E+02 -0.25107447436E+02 -0.28323511544E+03  0.28521434752E+03  0.00000000000E+00 0. -1.
          1    1    1    2  502    0  0.52136301851E+01 -0.20881303273E+02  0.45150814455E+03  0.45202081297E+03  0.00000000000E+00 0. -1.
         22    1    3    3    0    0  0.16125536137E+02  0.75703930972E+02  0.74242259197E+02  0.10725218474E+03  0.00000000000E+00 0. -1.
         22    1    3    3    0    0 -0.43581232233E+02 -0.29715180262E+02  0.10741267446E+03  0.11966535997E+03  0.00000000000E+00 0. -1.
</event>
<event>
 7    1  0.5562528E-006  0.9339210E+02  0.7818608E-02  0.1334452E+00
          2   -1    0    0  502    0  0.00000000000E+00  0.00000000000E+00  0.54586521196E+03  0.54586521196E+03  0.00000000000E+00 0. -1.
          1   -1    0    0  501    0 -0.00000000000E+00 -0.00000000000E+00 -0.12959562726E+04  0.12959562726E+04  0.00000000000E+00 0. -1.
         25    2    1    2    0    0 -0.94905401700E+02 -0.12024101836E+03 -0.20670986518E+03  0.28604838137E+03  0.12501907995E+03 0.  0.
          2    1    1    2  501    0  0.66583104546E+02  0.61339451901E+02 -0.10455032109E+04  0.10494154574E+04  0.00000000000E+00 0. -1.
          1    1    1    2  502    0  0.28322297154E+02  0.58901566457E+02  0.50212201546E+03  0.50635764580E+03  0.00000000000E+00 0. -1.
         22    1    3    3    0    0 -0.69482468749E+02 -0.13571234787E+03 -0.11894254267E+03  0.19337265392E+03  0.00000000000E+00 0. -1.
         22    1    3    3    0    0 -0.25422932951E+02  0.15471329512E+02 -0.87767322512E+02  0.92675727446E+02  0.00000000000E+00 0. -1.
</event>
<event>
 7    1  0.5562528E-006  0.1073848E+03  0.7818608E-02  0.1429529E+00
          2   -1    0    0  502    0  0.00000000000E+00  0.00000000000E+00  0.22715984299E+04  0.22715984299E+04  0.00000000000E+00 0. -1.
          1   -1    0    0  501    0 -0.00000000000E+00 -0.00000000000E+00 -0.26342484599E+03  0.26342484599E+03  0.00000000000E+00 0. -1.
         25    2    1    2    0    0  0.57897871172E+02 -0.82971880238E+02 -0.15931476275E+03  0.22636535468E+03  0.12499433496E+03 0.  0.
          2    1    1    2  501    0 -0.19591623108E+02 -0.17414163699E+02 -0.66814890536E+02  0.71772657682E+02  0.00000000000E+00 0. -1.
          1    1    1    2  502    0 -0.38306248065E+02  0.10038604394E+03  0.22343032372E+04  0.22368852636E+04  0.00000000000E+00 0. -1.
         22    1    3    3    0    0  0.11133422408E+02 -0.10039355906E+03 -0.14048160127E+03  0.17302572089E+03  0.00000000000E+00 0. -1.
         22    1    3    3    0    0  0.46764448764E+02  0.17421678823E+02 -0.18833161481E+02  0.53339633787E+02  0.00000000000E+00 0. -1.
</event>
<event>
 7    1  0.1006715E-005  0.4917283E+02  0.7818608E-02  0.1575467E+00
          2   -1    0    0  502    0  0.00000000000E+00  0.00000000000E+00  0.17850021089E+04  0.17850021089E+04  0.00000000000E+00 0. -1.
          1   -1    0    0  501    0 -0.00000000000E+00 -0.00000000000E+00 -0.93935336882E+03  0.93935336882E+03  0.00000000000E+00 0. -1.
         25    2    1    2    0    0  0.31062176315E+02  0.46665814216E+02 -0.38692748893E+03  0.41046351977E+03  0.12499944942E+03 0.  0.
          2    1    1    2  501    0  0.94379828392E+01 -0.18782799735E+02 -0.54011251233E+03  0.54052141036E+03  0.00000000000E+00 0. -1.
          1    1    1    2  502    0 -0.40500159154E+02 -0.27883014481E+02  0.17726887414E+04  0.17733705476E+04  0.00000000000E+00 0. -1.
         22    1    3    3    0    0 -0.23427684093E+02  0.33433728446E+02 -0.32240841524E+03  0.32498285616E+03  0.00000000000E+00 0.  1.
         22    1    3    3    0    0  0.54489860408E+02  0.13232085769E+02 -0.64519073689E+02  0.85480663608E+02  0.00000000000E+00 0.  1.
</event>
<event>
 7    1  0.5562528E-006  0.8794221E+02  0.7818608E-02  0.1315402E+00
          2   -1    0    0  502    0  0.00000000000E+00  0.00000000000E+00  0.14159446137E+04  0.14159446137E+04  0.00000000000E+00 0. -1.
          1   -1    0    0  501    0 -0.00000000000E+00 -0.00000000000E+00 -0.93950905633E+03  0.93950905633E+03  0.00000000000E+00 0. -1.
         25    2    1    2    0    0 -0.18933993834E+02 -0.23779323174E+02  0.88046895600E+03  0.88981701095E+03  0.12499911266E+03 0.  0.
          2    1    1    2  501    0  0.84118809740E+02 -0.26263152521E+02 -0.92955789758E+03  0.93372566222E+03  0.00000000000E+00 0. -1.
          1    1    1    2  502    0 -0.65184815906E+02  0.50042475695E+02  0.52552449893E+03  0.53191099685E+03  0.00000000000E+00 0. -1.
         22    1    3    3    0    0 -0.23162245837E+02 -0.35015892557E+02  0.90577190480E+02  0.99834011234E+02  0.00000000000E+00 0. -1.
         22    1    3    3    0    0  0.42282520028E+01  0.11236569383E+02  0.78989176552E+03  0.78998299972E+03  0.00000000000E+00 0. -1.
</event>
<event>
 7    1  0.5562528E-006  0.3962099E+02  0.7818608E-02  0.1556923E+00
          2   -1    0    0  502    0  0.00000000000E+00  0.00000000000E+00  0.96095263781E+03  0.96095263781E+03  0.00000000000E+00 0. -1.
          1   -1    0    0  501    0 -0.00000000000E+00 -0.00000000000E+00 -0.11616103553E+04  0.11616103553E+04  0.00000000000E+00 0. -1.
         25    2    1    2    0    0 -0.53434249849E+02  0.25739948332E+02  0.12207957312E+03  0.18451710663E+03  0.12500150586E+03 0.  0.
          2    1    1    2  501    0  0.39589726676E+02  0.99133269143E-01 -0.11297787572E+04  0.11304722007E+04  0.00000000000E+00 0. -1.
          1    1    1    2  502    0  0.13844523173E+02 -0.25839081601E+02  0.80704146667E+03  0.80757368573E+03  0.00000000000E+00 0. -1.
         22    1    3    3    0    0  0.17928061309E+01  0.15271684567E+02  0.12715190909E+03  0.12807828266E+03  0.00000000000E+00 0.  1.
         22    1    3    3    0    0 -0.55227055980E+02  0.10468263764E+02 -0.50723359695E+01  0.56438823966E+02  0.00000000000E+00 0.  1.
</event>
<event>
 7    1  0.5562528E-006  0.9425423E+02  0.7818608E-02  0.1457569E+00
          2   -1    0    0  502    0  0.00000000000E+00  0.00000000000E+00  0.25921257152E+04  0.25921257152E+04  0.00000000000E+00 0. -1.
          1   -1    0    0  501    0 -0.00000000000E+00 -0.00000000000E+00 -0.84953196257E+01  0.84953196257E+01  0.00000000000E+00 0. -1.
         25    2    1    2    0    0 -0.77322443657E+02 -0.19667025003E+01  0.10996491201E+04  0.11094303570E+04  0.12499960656E+03 0.  0.
          2    1    1    2  501    0 -0.22654376982E+02 -0.86330613267E+01  0.79469814679E+02  0.83085510105E+02  0.00000000000E+00 0. -1.
          1    1    1    2  502    0  0.99976820639E+02  0.10599763827E+02  0.14045114609E+04  0.14081051677E+04  0.00000000000E+00 0. -1.
         22    1    3    3    0    0  0.24299940669E+01 -0.33687071900E+02  0.89817422801E+02  0.95957767393E+02  0.00000000000E+00 0.  1.
         22    1    3    3    0    0 -0.79752437724E+02  0.31720369400E+02  0.10098316973E+04  0.10134725896E+04  0.00000000000E+00 0.  1.
</event>
<event>
 7    1  0.5562528E-006  0.1019597E+03  0.7818608E-02  0.1276550E+00
          2   -1    0    0  502    0  0.00000000000E+00  0.00000000000E+00  0.23670682846E+03  0.23670682846E+03  0.00000000000E+00 0. -1.
          1   -1    0    0  501    0 -0.00000000000E+00 -0.00000000000E+00 -0.94632607751E+03  0.94632607751E+03  0.00000000000E+00 0. -1.
         25    2    1    2    0    0  0.15457874328E+02  0.62156837106E+02 -0.21631119472E+03  0.25790895986E+03  0.12499632130E+03 0.  0.
          2    1    1    2  501    0  0.84636131060E+02 -0.81572538787E+02 -0.69193912673E+03  0.70185262617E+03  0.00000000000E+00 0. -1.
          1    1    1    2  502    0 -0.10009400539E+03  0.19415701680E+02  0.19863107239E+03  0.22327131994E+03  0.00000000000E+00 0. -1.
         22    1    3    3    0    0 -0.17498654329E+02 -0.15785022172E+02 -0.14599350455E+03  0.14788330940E+03  0.00000000000E+00 0. -1.
         22    1    3    3    0    0  0.32956528657E+02  0.77941859279E+02 -0.70317690165E+02  0.11002565046E+03  0.00000000000E+00 0. -1.
</event>
<event>
 7    1  0.5562528E-006  0.1011989E+03  0.7818608E-02  0.1468819E+00
          2   -1    0    0  502    0  0.00000000000E+00  0.00000000000E+00  0.13554163139E+04  0.13554163139E+04  0.00000000000E+00 0. -1.
          1   -1    0    0  501    0 -0.00000000000E+00 -0.00000000000E+00 -0.26424761812E+04  0.26424761812E+04  0.00000000000E+00 0. -1.
         25    2    1    2    0    0  0.35300535312E+02  0.11674090596E+03  0.50458506338E+03  0.53395192742E+03  0.12499603071E+03 0.  0.
          2    1    1    2  501    0 -0.28607646494E+02 -0.97030606323E+02 -0.26266894328E+04  0.26286366642E+04  0.00000000000E+00 0. -1.
          1    1    1    2  502    0 -0.66928888177E+01 -0.19710299639E+02  0.83504450211E+03  0.83530390348E+03  0.00000000000E+00 0. -1.
         22    1    3    3    0    0  0.20444972685E+02  0.14278518817E+03  0.43085516534E+03  0.45435864729E+03  0.00000000000E+00 0.  1.
         22    1    3    3    0    0  0.14855562627E+02 -0.26044282208E+02  0.73729898044E+02  0.79593280133E+02  0.00000000000E+00 0.  1.
</event>
<event>
 7    1  0.5562528E-006  0.1313107E+03  0.7818608E-02  0.1419419E+00
          2   -1    0    0  502    0  0.00000000000E+00  0.00000000000E+00  0.18190057250E+03  0.18190057250E+03  0.00000000000E+00 0. -1.
          1   -1    0    0  501    0 -0.00000000000E+00 -0.00000000000E+00 -0.18776143362E+04  0.18776143362E+04  0.00000000000E+00 0. -1.
         25    2    1    2    0    0  0.83230768968E+02  0.11691444488E+03 -0.46252780346E+03  0.50015453585E+03  0.12500496963E+03 0.  0.
          2    1    1    2  501    0  0.67968379929E+01 -0.22137847828E+02 -0.13699656624E+04  0.13701613764E+04  0.00000000000E+00 0. -1.
          1    1    1    2  502    0 -0.90027606961E+02 -0.94776597054E+02  0.13677970209E+03  0.18919899648E+03  0.00000000000E+00 0. -1.
         22    1    3    3    0    0 -0.90451619275E+01 -0.21805046370E+02 -0.63172241649E+02  0.67438913963E+02  0.00000000000E+00 0.  1.
         22    1    3    3    0    0  0.92275930895E+02  0.13871949125E+03 -0.39935556181E+03  0.43271562189E+03  0.00000000000E+00 0.  1.
</event>
<event>
 7    1  0.5562528E-006  0.1119852E+03  0.7818608E-02  0.1416173E+00
          2   -1    0    0  502    0  0.00000000000E+00  0.00000000000E+00  0.62461179570E+03  0.62461179570E+03  0.00000000000E+00 0. -1.
          1   -1    0    0  501    0 -0.00000000000E+00 -0.00000000000E+00 -0.52432708134E+03  0.52432708134E+03  0.00000000000E+00 0. -1.
         25    2    1    2    0    0  0.12499291489E+03 -0.29611638464E+02  0.29146428342E+03  0.34216695766E+03  0.12500688180E+03 0.  0.
          2    1    1    2  501    0 -0.11158092271E+03  0.52120535550E+01 -0.49207341528E+03  0.50459262167E+03  0.00000000000E+00 0. -1.
          1    1    1    2  502    0 -0.13411992180E+02  0.24399584909E+02  0.30089384621E+03  0.30217929772E+03  0.00000000000E+00 0. -1.
         22    1    3    3    0    0  0.10550970132E+03 -0.19127796022E+01  0.92462204024E+02  0.14030400911E+03  0.00000000000E+00 0. -1.
         22    1    3    3    0    0  0.19483213566E+02 -0.27698858862E+02  0.19900207940E+03  0.20186294855E+03  0.00000000000E+00 0. -1.
</event>
<event>
 7    1  0.5562528E-006  0.1115146E+03  0.7818608E-02  0.1357720E+00
          2   -1    0    0  502    0  0.00000000000E+00  0.00000000000E+00  0.15672207400E+04  0.15672207400E+04  0.00000000000E+00 0. -1.
          1   -1    0    0  501    0 -0.00000000000E+00 -0.00000000000E+00 -0.61007974653E+02  0.61007974653E+02  0.00000000000E+00 0. -1.
         25    2    1    2    0    0  0.12440987039E+03 -0.34068580979E+01  0.43439143860E+03  0.46883909267E+03  0.12499900144E+03 0.  0.
          2    1    1    2  501    0 -0.22269626151E+02 -0.38903751306E+02 -0.28766403136E+02  0.53262970851E+02  0.00000000000E+00 0. -1.
          1    1    1    2  502    0 -0.10214024424E+03  0.42310609403E+02  0.11005877299E+04  0.11061266511E+04  0.00000000000E+00 0. -1.
         22    1    3    3    0    0  0.82394324308E+02  0.39786914570E+02  0.36789275122E+03  0.37910011824E+03  0.00000000000E+00 0.  1.
         22    1    3    3    0    0  0.42015546079E+02 -0.43193772668E+02  0.66498687374E+02  0.89738974432E+02  0.00000000000E+00 0.  1.
</event>
<event>
 7    1  0.5562528E-006  0.6247867E+02  0.7818608E-02  0.1391162E+00
          2   -1    0    0  502    0  0.00000000000E+00  0.00000000000E+00  0.19681078498E+04  0.19681078498E+04  0.00000000000E+00 0. -1.
          1   -1    0    0  501    0 -0.00000000000E+00 -0.00000000000E+00 -0.88178505465E+02  0.88178505465E+02  0.00000000000E+00 0. -1.
         25    2    1    2    0    0  0.29282573224E+02  0.39711277964E+02  0.98901145290E+02  0.16685640108E+03  0.12500066940E+03 0.  0.
          2    1    1    2  501    0 -0.58565682840E+02  0.16220925652E+02 -0.36444624373E+02  0.70860907991E+02  0.00000000000E+00 0. -1.
          1    1    1    2  502    0  0.29283109616E+02 -0.55932203616E+02  0.18174728234E+04  0.18185690462E+04  0.00000000000E+00 0. -1.
         22    1    3    3    0    0  0.16494001692E+02 -0.45136312916E+02  0.28545985242E+02  0.55894651881E+02  0.00000000000E+00 0.  1.
         22    1    3    3    0    0  0.12788571532E+02  0.84847590880E+02  0.70355160048E+02  0.11096174920E+03  0.00000000000E+00 0.  1.
</event>
<event>
 7    1  0.5562528E-006  0.2043262E+03  0.7818608E-02  0.1176280E+00
          2   -1    0    0  502    0  0.00000000000E+00  0.00000000000E+00  0.78749279286E+03  0.78749279286E+03  0.00000000000E+00 0. -1.
          1   -1    0    0  501    0 -0.00000000000E+00 -0.00000000000E+00 -0.24048802905E+04  0.24048802905E+04  0.00000000000E+00 0. -1.
         25    2    1    2    0    0 -0.20080911297E+03 -0.23283057750E+03  0.92269736353E+02  0.34448950403E+03  0.12499974588E+03 0.  0.
          2    1    1    2  501    0  0.62521649905E+02  0.19278822201E+03 -0.22650679382E+04  0.22741171957E+04  0.00000000000E+00 0. -1.
          1    1    1    2  502    0  0.13828746307E+03  0.40042355490E+02  0.55541070418E+03  0.57376638364E+03  0.00000000000E+00 0. -1.
         22    1    3    3    0    0 -0.68215876000E+02 -0.51142287248E+02 -0.27602725714E+02  0.89615008510E+02  0.00000000000E+00 0. -1.
         22    1    3    3    0    0 -0.13259323697E+03 -0.18168829025E+03  0.11987246207E+03  0.25487449552E+03  0.00000000000E+00 0. -1.
</event>
<event>
 7    1  0.5562528E-006  0.1958437E+03  0.7818608E-02  0.1316105E+00
          2   -1    0    0  502    0  0.00000000000E+00  0.00000000000E+00  0.21141436680E+04  0.21141436680E+04  0.00000000000E+00 0. -1.
          1   -1    0    0  501    0 -0.00000000000E+00 -0.00000000000E+00 -0.13148068373E+04  0.13148068373E+04  0.00000000000E+00 0. -1.
         25    2    1    2    0    0 -0.13813586378E+03  0.18447657478E+03  0.16538529894E+03  0.30998382914E+03  0.12499821487E+03 0.  0.
          2    1    1    2  501    0  0.12271485909E+03 -0.15120775691E+03 -0.12346963125E+04  0.12499590819E+04  0.00000000000E+00 0. -1.
          1    1    1    2  502    0  0.15421004691E+02 -0.33268817866E+02  0.18686478442E+04  0.18690075942E+04  0.00000000000E+00 0. -1.
         22    1    3    3    0    0 -0.56595142318E+02  0.16164092554E+03  0.14107588941E+03  0.22188556852E+03  0.00000000000E+00 0.  1.
         22    1    3    3    0    0 -0.81540721464E+02  0.22835649232E+02  0.24309409525E+02  0.88098260619E+02  0.00000000000E+00 0.  1.
</event>
<event>
 7    1  0.5562528E-006  0.1373375E+03  0.7818608E-02  0.1331328E+00
          2   -1    0    0  502    0  0.00000000000E+00  0.00000000000E+00  0.32688285873E+03  0.32688285873E+03  0.00000000000E+00 0. -1.
          1   -1    0    0  501    0 -0.00000000000E+00 -0.00000000000E+00 -0.26682378600E+04  0.26682378600E+04  0.00000000000E+00 0. -1.
         25    2    1    2    0    0  0.89438122908E+02 -0.15398167445E+03 -0.16767889775E+03  0.27468514808E+03  0.12500473562E+03 0.  0.
          2    1    1    2  501    0 -0.12315323618E+02  0.43985280574E+02 -0.24303245497E+04  0.24307537491E+04  0.00000000000E+00 0. -1.
          1    1    1    2  502    0 -0.77122799290E+02  0.10999639388E+03  0.25664844614E+03  0.28968182156E+03  0.00000000000E+00 0. -1.
         22    1    3    3    0    0  0.20943784047E+02 -0.69474717933E+02 -0.14703360272E+03  0.16396419991E+03  0.00000000000E+00 0.  1.
         22    1    3    3    0    0  0.68494338861E+02 -0.84506956520E+02 -0.20645295023E+02  0.11072094817E+03  0.00000000000E+00 0.  1.
</event>
<event>
 7    1  0.5562528E-006  0.1452657E+03  0.7818608E-02  0.1249183E+00
          2   -1    0    0  502    0  0.00000000000E+00  0.00000000000E+00  0.35049587748E+03  0.35049587748E+03  0.00000000000E+00 0. -1.
          1   -1    0    0  501    0 -0.00000000000E+00 -0.00000000000E+00 -0.11363295294E+04  0.11363295294E+04  0.00000000000E+00 0. -1.
         25    2    1    2    0    0  0.76642505991E+01 -0.21165505043E+03 -0.27654459365E+03  0.37007691524E+03  0.12499363907E+03 0.  0.
          2    1    1    2  501    0  0.47431216023E+02  0.80281470674E+02 -0.79343259461E+03  0.79889305728E+03  0.00000000000E+00 0. -1.
          1    1    1    2  502    0 -0.55095466622E+02  0.13137357975E+03  0.28414353635E+03  0.31785543436E+03  0.00000000000E+00 0. -1.
         22    1    3    3    0    0  0.65208667053E+02 -0.10409120271E+03 -0.12119803014E+03  0.17255755924E+03  0.00000000000E+00 0. -1.
         22    1    3    3    0    0 -0.57544416454E+02 -0.10756384771E+03 -0.15534656351E+03  0.19751935600E+03  0.00000000000E+00 0. -1.
</event>
<event>
 7    1  0.5562528E-006  0.4976429E+02  0.7818608E-02  0.1526607E+00
          2   -1    0    0  502    0  0.00000000000E+00  0.00000000000E+00  0.19022161776E+04  0.19022161776E+04  0.00000000000E+00 0. -1.
          1   -1    0    0  501    0 -0.00000000000E+00 -0.00000000000E+00 -0.31670192090E+02  0.31670192090E+02  0.00000000000E+00 0. -1.
         25    2    1    2    0    0  0.31442368664E+02  0.14289158185E+02  0.11800192636E+04  0.11871235105E+04  0.12499585659E+03 0.  0.
          2    1    1    2  501    0 -0.49584410506E+02  0.75842923284E+01 -0.52236620914E+01  0.50432349747E+02  0.00000000000E+00 0. -1.
          1    1    1    2  502    0  0.18142041842E+02 -0.21873450513E+02  0.69575038401E+03  0.69633050943E+03  0.00000000000E+00 0. -1.
         22    1    3    3    0    0 -0.30953424305E+02 -0.37019752249E+02  0.38566955539E+03  0.38867670691E+03  0.00000000000E+00 0. -1.
         22    1    3    3    0    0  0.62395792969E+02  0.51308910434E+02  0.79434970816E+03  0.79844680357E+03  0.00000000000E+00 0. -1.
</event>
<event>
 7    1  0.5562528E-006  0.3318992E+03  0.7818608E-02  0.1199999E+00
          2   -1    0    0  502    0  0.00000000000E+00  0.00000000000E+00  0.18247553767E+04  0.18247553767E+04  0.00000000000E+00 0. -1.
          1   -1    0    0  501    0 -0.00000000000E+00 -0.00000000000E+00 -0.14458940244E+04  0.14458940244E+04  0.00000000000E+00 0. -1.
         25    2    1    2    0    0 -0.31161177592E+03  0.15374095241E+03  0.48853360612E+03  0.61239516992E+03  0.12499832196E+03 0.  0.
          2    1    1    2  501    0  0.50759187075E+02  0.45461727369E+02 -0.13619628730E+04  0.13636664296E+04  0.00000000000E+00 0. -1.
          1    1    1    2  502    0  0.26085258885E+03 -0.19920267978E+03  0.12522906193E+04  0.12945878015E+04  0.00000000000E+00 0. -1.
         22    1    3    3    0    0 -0.14453777871E+02 -0.88763083217E+01  0.79580181225E+02  0.81367719569E+02  0.00000000000E+00 0.  1.
         22    1    3    3    0    0 -0.29715799805E+03  0.16261726073E+03  0.40895342489E+03  0.53102745035E+03  0.00000000000E+00 0.  1.
</event>
<event>
 7    1  0.5562528E-006  0.7882634E+02  0.7818608E-02  0.1383427E+00
          2   -1    0    0  502    0  0.00000000000E+00  0.00000000000E+00  0.58680398763E+03  0.58680398763E+03  0.00000000000E+00 0. -1.
          1   -1    0    0  501    0 -0.00000000000E+00 -0.00000000000E+00 -0.47876363342E+03  0.47876363342E+03  0.00000000000E+00 0. -1.
         25    2    1    2    0    0  0.11109329869E+03 -0.57662545405E+02  0.46090392253E+02  0.18282128379E+03  0.12503042587E+03 0.  0.
          2    1    1    2  501    0 -0.37866304988E+02  0.34563623700E+02 -0.40565354340E+03  0.40888054296E+03  0.00000000000E+00 0. -1.
          1    1    1    2  502    0 -0.73226993702E+02  0.23098921705E+02  0.46760350536E+03  0.47386579431E+03  0.00000000000E+00 0. -1.
         22    1    3    3    0    0  0.53095735860E+02  0.36971459274E+02  0.27417001406E+02  0.70269039651E+02  0.00000000000E+00 0.  1.
         22    1    3    3    0    0  0.57997562830E+02 -0.94634004679E+02  0.18673390847E+02  0.11255224414E+03  0.00000000000E+00 0.  1.
</event>
<event>
 7    1  0.5562528E-006  0.9145375E+02  0.7818608E-02  0.1399796E+00
          2   -1    0    0  502    0  0.00000000000E+00  0.00000000000E+00  0.27386542209E+03  0.27386542209E+03  0.00000000000E+00 0. -1.
          1   -1    0    0  501    0 -0.00000000000E+00 -0.00000000000E+00 -0.21892789312E+03  0.21892789312E+03  0.00000000000E+00 0. -1.
         25    2    1    2    0    0 -0.13806666936E+02 -0.54484430258E+02 -0.72662404059E+02  0.15511834016E+03  0.12499078885E+03 0.  0.
          2    1    1    2  501    0 -0.16898565619E+02 -0.34877497500E+02 -0.91336329823E+02  0.99218579396E+02  0.00000000000E+00 0. -1.
          1    1    1    2  502    0  0.30705232555E+02  0.89361927757E+02  0.21893626285E+03  0.23845639566E+03  0.00000000000E+00 0. -1.
         22    1    3    3    0    0  0.37910483368E+02 -0.38053012399E+01 -0.73406718078E+02  0.82705691011E+02  0.00000000000E+00 0. -1.
         22    1    3    3    0    0 -0.51717150304E+02 -0.50679129018E+02  0.74431401894E+00  0.72412649150E+02  0.00000000000E+00 0. -1.
</event>
<event>
 7    1  0.5562528E-006  0.2315451E+03  0.7818608E-02  0.1253607E+00
          2   -1    0    0  502    0  0.00000000000E+00  0.00000000000E+00  0.86078513986E+03  0.86078513986E+03  0.00000000000E+00 0. -1.
          1   -1    0    0  501    0 -0.00000000000E+00 -0.00000000000E+00 -0.10998859174E+04  0.10998859174E+04  0.00000000000E+00 0. -1.
         25    2    1    2    0    0  0.20827661671E+03  0.13671232509E+03 -0.17623812110E+03  0.32975630828E+03  0.12493973995E+03 0.  0.
          2    1    1    2  501    0 -0.15954252801E+03 -0.16425113891E+03 -0.83037286213E+03  0.86136597625E+03  0.00000000000E+00 0. -1.
          1    1    1    2  502    0 -0.48734088703E+02  0.27538813826E+02  0.76751020573E+03  0.76954877270E+03  0.00000000000E+00 0. -1.
         22    1    3    3    0    0  0.29009595111E+02  0.73682808538E+02 -0.15114489953E+02  0.80617372130E+02  0.00000000000E+00 0.  1.
         22    1    3    3    0    0  0.17926702160E+03  0.63029516547E+02 -0.16112363115E+03  0.24913893615E+03  0.00000000000E+00 0.  1.
</event>
<event>
 7    1  0.5562528E-006  0.7953383E+02  0.7818608E-02  0.1408153E+00
          2   -1    0    0  502    0  0.00000000000E+00  0.00000000000E+00  0.39337388367E+03  0.39337388367E+03  0.00000000000E+00 0. -1.
          1   -1    0    0  501    0 -0.00000000000E+00 -0.00000000000E+00 -0.66545033997E+03  0.66545033997E+03  0.00000000000E+00 0. -1.
         25    2    1    2    0    0 -0.94379383062E+02 -0.64636503573E+02 -0.62345682389E+02  0.18053236133E+03  0.12497841347E+03 0.  0.
          2    1    1    2  501    0  0.72320309457E+02  0.29217275336E+02 -0.53989555961E+03  0.54550077143E+03  0.00000000000E+00 0. -1.
          1    1    1    2  502    0  0.22059073605E+02  0.35419228238E+02  0.33016478570E+03  0.33279109088E+03  0.00000000000E+00 0. -1.
         22    1    3    3    0    0 -0.17702895170E+02 -0.43808143587E+02 -0.85573621126E+02  0.97751678116E+02  0.00000000000E+00 0.  1.
         22    1    3    3    0    0 -0.76676487893E+02 -0.20828359986E+02  0.23227938737E+02  0.82780683213E+02  0.00000000000E+00 0.  1.
</event>
<event>
 7    1  0.5562528E-006  0.1321372E+03  0.7818608E-02  0.1233984E+00
          2   -1    0    0  502    0  0.00000000000E+00  0.00000000000E+00  0.15792627515E+03  0.15792627515E+03  0.00000000000E+00 0. -1.
          1   -1    0    0  501    0 -0.00000000000E+00 -0.00000000000E+00 -0.83331257548E+03  0.83331257548E+03  0.00000000000E+00 0. -1.
         25    2    1    2    0    0 -0.11602126742E+02 -0.73941552913E+02 -0.92250061784E+02  0.17244469224E+03  0.12500054156E+03 0.  0.
          2    1    1    2  501    0 -0.10275118753E+03  0.10887743277E+03 -0.65992289656E+03  0.67669072058E+03  0.00000000000E+00 0. -1.
          1    1    1    2  502    0  0.11435331427E+03 -0.34935879857E+02  0.76786658023E+02  0.14210343781E+03  0.00000000000E+00 0. -1.
         22    1    3    3    0    0  0.42934471386E+02 -0.73458298980E+02 -0.31309150057E+02  0.90662855677E+02  0.00000000000E+00 0. -1.
         22    1    3    3    0    0 -0.54536598127E+02 -0.48325393272E+00 -0.60940911727E+02  0.81781836564E+02  0.00000000000E+00 0. -1.
</event>
<event>
 7    1  0.5562528E-006  0.9454294E+02  0.7818608E-02  0.1342906E+00
          2   -1    0    0  502    0  0.00000000000E+00  0.00000000000E+00  0.21049095023E+04  0.21049095023E+04  0.00000000000E+00 0. -1.
          1   -1    0    0  501    0 -0.00000000000E+00 -0.00000000000E+00 -0.10052057038E+03  0.10052057038E+03  0.00000000000E+00 0. -1.
         25    2    1    2    0    0  0.96984737653E+02  0.88650242138E+02  0.80824882521E+02  0.19855195583E+03  0.12500125103E+03 0.  0.
          2    1    1    2  501    0 -0.78746393431E+02 -0.31496222825E+02  0.24700218447E+01  0.84847554700E+02  0.00000000000E+00 0. -1.
          1    1    1    2  502    0 -0.18238344222E+02 -0.57154019313E+02  0.19210940275E+04  0.19220305621E+04  0.00000000000E+00 0. -1.
         22    1    3    3    0    0 -0.10950861126E+02  0.52214656409E+02  0.64122554716E+02  0.83414589411E+02  0.00000000000E+00 0.  1.
         22    1    3    3    0    0  0.10793559878E+03  0.36435585729E+02  0.16702327804E+02  0.11513736642E+03  0.00000000000E+00 0.  1.
</event>
<event>
 7    1  0.5562528E-006  0.5474145E+02  0.7818608E-02  0.1556112E+00
          2   -1    0    0  502    0  0.00000000000E+00  0.00000000000E+00  0.51538470148E+03  0.51538470148E+03  0.00000000000E+00 0. -1.
          1   -1    0    0  501    0 -0.00000000000E+00 -0.00000000000E+00 -0.76852879123E+03  0.76852879123E+03  0.00000000000E+00 0. -1.
         25    2    1    2    0    0  0.33389936257E+02  0.56199525507E+01 -0.18532527727E+03  0.22609137963E+03  0.12500152734E+03 0.  0.
          2    1    1    2  501    0  0.21306658596E+02 -0.93533485794E+00 -0.56109520469E+03  0.56150038048E+03  0.00000000000E+00 0. -1.
          1    1    1    2  502    0 -0.54696594853E+02 -0.46846176928E+01  0.49327639222E+03  0.49632173260E+03  0.00000000000E+00 0. -1.
         22    1    3    3    0    0 -0.26835869265E+02  0.35492268536E+02 -0.22346919245E+02  0.49792065681E+02  0.00000000000E+00 0. -1.
         22    1    3    3    0    0  0.60225805522E+02 -0.29872315985E+02 -0.16297835803E+03  0.17629931395E+03  0.00000000000E+00 0. -1.
</event>
<event>
 7    1  0.5562528E-006  0.1168685E+03  0.7818608E-02  0.1328509E+00
          2   -1    0    0  502    0  0.00000000000E+00  0.00000000000E+00  0.19915385915E+04  0.19915385915E+04  0.00000000000E+00 0. -1.
          1   -1    0    0  501    0 -0.00000000000E+00 -0.00000000000E+00 -0.14471605149E+03  0.14471605149E+03  0.00000000000E+00 0. -1.
         25    2    1    2    0    0 -0.68896143781E+02 -0.51806920513E+02  0.75442089912E+02  0.16953942057E+03  0.12498588142E+03 0.  0.
          2    1    1    2  501    0  0.14113635075E+02 -0.53183744176E+02 -0.87881113455E+02  0.10368604266E+03  0.00000000000E+00 0. -1.
          1    1    1    2  502    0  0.54782508705E+02  0.10499066469E+03  0.18592615635E+04  0.18630291797E+04  0.00000000000E+00 0. -1.
         22    1    3    3    0    0 -0.98414490945E+01  0.34943284087E+02  0.49592130806E+02  0.61459471695E+02  0.00000000000E+00 0.  1.
         22    1    3    3    0    0 -0.59054694686E+02 -0.86750204601E+02  0.25849959106E+02  0.10807994887E+03  0.00000000000E+00 0.  1.
</event>
<event>
 7    1  0.5562528E-006  0.1040159E+03  0.7818608E-02  0.1352111E+00
          2   -1    0    0  502    0  0.00000000000E+00  0.00000000000E+00  0.57184707541E+03  0.57184707541E+03  0.00000000000E+00 0. -1.
          1   -1    0    0  501    0 -0.00000000000E+00 -0.00000000000E+00 -0.62269129221E+03  0.62269129221E+03  0.00000000000E+00 0. -1.
         25    2    1    2    0    0 -0.11149234441E+03 -0.53474667548E+02 -0.22111820436E+03  0.28249710995E+03  0.12498509469E+03 0.  0.
          2    1    1    2  501    0  0.10128626595E+03  0.41226883601E+01 -0.36274615765E+03  0.37664396865E+03  0.00000000000E+00 0. -1.
          1    1    1    2  502    0  0.10206078467E+02  0.49351979187E+02  0.53302014522E+03  0.53539728902E+03  0.00000000000E+00 0. -1.
         22    1    3    3    0    0 -0.62305033637E+02  0.58306121267E+01 -0.18887911003E+03  0.19897545442E+03  0.00000000000E+00 0. -1.
         22    1    3    3    0    0 -0.49187310777E+02 -0.59305279674E+02 -0.32239094333E+02  0.83521655528E+02  0.00000000000E+00 0. -1.
</event>
<event>
 7    1  0.5562528E-006  0.8196202E+02  0.7818608E-02  0.1455597E+00
          2   -1    0    0  502    0  0.00000000000E+00  0.00000000000E+00  0.10019101452E+04  0.10019101452E+04  0.00000000000E+00 0. -1.
          1   -1    0    0  501    0 -0.00000000000E+00 -0.00000000000E+00 -0.34487772989E+03  0.34487772989E+03  0.00000000000E+00 0. -1.
         25    2    1    2    0    0  0.24542940892E+02 -0.91547998157E+02  0.13840329642E+03  0.20919935251E+03  0.12500201884E+03 0.  0.
          2    1    1    2  501    0 -0.26407343880E+02  0.10129931718E+02 -0.30682543391E+03  0.30812628941E+03  0.00000000000E+00 0. -1.
          1    1    1    2  502    0  0.18644029879E+01  0.81418066439E+02  0.82545455279E+03  0.82946223318E+03  0.00000000000E+00 0. -1.
         22    1    3    3    0    0  0.56114987438E+01 -0.10943918076E+03  0.14554880666E+03  0.18218912790E+03  0.00000000000E+00 0.  1.
         22    1    3    3    0    0  0.18931442148E+02  0.17891182606E+02 -0.71455102378E+01  0.27010224608E+02  0.00000000000E+00 0.  1.
</event>
<event>
 7    1  0.5562528E-006  0.1057772E+03  0.7818608E-02  0.1385207E+00
          2   -1    0    0  502    0  0.00000000000E+00  0.00000000000E+00  0.18968483938E+03  0.18968483938E+03  0.00000000000E+00 0. -1.
          1   -1    0    0  501    0 -0.00000000000E+00 -0.00000000000E+00 -0.81237581068E+03  0.81237581068E+03  0.00000000000E+00 0. -1.
         25    2    1    2    0    0 -0.21209168288E+02 -0.74231102654E+02  0.98244326828E+02  0.17673996291E+03  0.12499992525E+03 0.  0.
          2    1    1    2  501    0  0.54652453402E+02  0.91544111915E+02 -0.76210415995E+03  0.76952580574E+03  0.00000000000E+00 0. -1.
          1    1    1    2  502    0 -0.33443285114E+02 -0.17313009261E+02  0.41168861819E+02  0.55794881417E+02  0.00000000000E+00 0. -1.
         22    1    3    3    0    0 -0.62822854354E+01 -0.10797416614E+03  0.84918269660E+02  0.13751000031E+03  0.00000000000E+00 0. -1.
         22    1    3    3    0    0 -0.14926882852E+02  0.33743063489E+02  0.13326057168E+02  0.39229962592E+02  0.00000000000E+00 0. -1.
</event>
<event>
 7    1  0.5562528E-006  0.1941679E+03  0.7818608E-02  0.1309411E+00
          2   -1    0    0  502    0  0.00000000000E+00  0.00000000000E+00  0.10104219551E+04  0.10104219551E+04  0.00000000000E+00 0. -1.
          1   -1    0    0  501    0 -0.00000000000E+00 -0.00000000000E+00 -0.49456184125E+03  0.49456184125E+03  0.00000000000E+00 0. -1.
         25    2    1    2    0    0  0.95227386393E+02  0.18621646665E+03  0.86490145200E+02  0.25855430744E+03  0.12499982844E+03 0.  0.
          2    1    1    2  501    0 -0.55984513388E+02 -0.18425703946E+03 -0.38533582341E+03  0.43077676252E+03  0.00000000000E+00 0. -1.
          1    1    1    2  502    0 -0.39242873005E+02 -0.19594271872E+01  0.81470579202E+03  0.81565272634E+03  0.00000000000E+00 0. -1.
         22    1    3    3    0    0  0.42225159656E+02 -0.32164878616E+01 -0.29853914069E+01  0.42452590781E+02  0.00000000000E+00 0. -1.
         22    1    3    3    0    0  0.53002226737E+02  0.18943295451E+03  0.89475536607E+02  0.21610171666E+03  0.00000000000E+00 0. -1.
</event>
<event>
 7    1  0.5562528E-006  0.1207951E+03  0.7818608E-02  0.1291915E+00
          2   -1    0    0  502    0  0.00000000000E+00  0.00000000000E+00  0.26904987290E+03  0.26904987290E+03  0.00000000000E+00 0. -1.
          1   -1    0    0  501    0 -0.00000000000E+00 -0.00000000000E+00 -0.74496871532E+03  0.74496871532E+03  0.00000000000E+00 0. -1.
         25    2    1    2    0    0  0.91873405376E+01  0.53455856682E+02  0.56945138712E+02  0.14768046032E+03  0.12499933479E+03 0.  0.
          2    1    1    2  501    0  0.14738104436E+02 -0.12369225867E+03 -0.68544509161E+03  0.69667206072E+03  0.00000000000E+00 0. -1.
          1    1    1    2  502    0 -0.23925444974E+02  0.70236401983E+02  0.15258111047E+03  0.16966606718E+03  0.00000000000E+00 0. -1.
         22    1    3    3    0    0  0.56070406738E+02  0.66456239506E+02  0.43390574804E+02  0.97175430345E+02  0.00000000000E+00 0. -1.
         22    1    3    3    0    0 -0.46883066200E+02 -0.13000382824E+02  0.13554563908E+02  0.50505029974E+02  0.00000000000E+00 0. -1.
</event>
<event>
 7    1  0.5562528E-006  0.1227055E+03  0.7818608E-02  0.1251108E+00
          2   -1    0    0  502    0  0.00000000000E+00  0.00000000000E+00  0.17474461910E+04  0.17474461910E+04  0.00000000000E+00 0. -1.
          1   -1    0    0  501    0 -0.00000000000E+00 -0.00000000000E+00 -0.46592397240E+03  0.46592397240E+03  0.00000000000E+00 0. -1.
         25    2    1    2    0    0 -0.70858237995E+01  0.10054825476E+03  0.38471866659E+03  0.41688570491E+03  0.12500031240E+03 0.  0.
          2    1    1    2  501    0  0.10798100936E+03 -0.61223715382E+02 -0.43904443089E+03  0.45625459341E+03  0.00000000000E+00 0. -1.
          1    1    1    2  502    0 -0.10089518556E+03 -0.39324539375E+02  0.13358479829E+04  0.13402298651E+04  0.00000000000E+00 0. -1.
         22    1    3    3    0    0  0.58188108969E+02  0.39325322403E+02  0.19072887846E+03  0.20324822775E+03  0.00000000000E+00 0.  1.
         22    1    3    3    0    0 -0.65273932769E+02  0.61222932354E+02  0.19398978814E+03  0.21363747716E+03  0.00000000000E+00 0.  1.
</event>
<event>
 7    1  0.5562528E-006  0.5519082E+02  0.7818608E-02  0.1435414E+00
          2   -1    0    0  502    0  0.00000000000E+00  0.00000000000E+00  0.23510794207E+03  0.23510794207E+03  0.00000000000E+00 0. -1.
          1   -1    0    0  501    0 -0.00000000000E+00 -0.00000000000E+00 -0.72483939645E+02  0.72483939645E+02  0.00000000000E+00 0. -1.
         25    2    1    2    0    0 -0.22723604777E+02  0.65894095950E+02  0.84077324359E+02  0.16598857338E+03  0.12499926371E+03 0.  0.
          2    1    1    2  501    0 -0.23455810205E+02 -0.50167486354E+02  0.81812247232E+01  0.55981105361E+02  0.00000000000E+00 0. -1.
          1    1    1    2  502    0  0.46179414982E+02 -0.15726609596E+02  0.70365453347E+02  0.85622202975E+02  0.00000000000E+00 0. -1.
         22    1    3    3    0    0  0.10632556072E+02  0.76869344712E+02  0.10070488809E+03  0.12713544703E+03  0.00000000000E+00 0.  1.
         22    1    3    3    0    0 -0.33356160849E+02 -0.10975248762E+02 -0.16627563733E+02  0.38853126356E+02  0.00000000000E+00 0.  1.
</event>
<event>
 7    1  0.5562528E-006  0.9159959E+02  0.7818608E-02  0.1325825E+00
          2   -1    0    0  502    0  0.00000000000E+00  0.00000000000E+00  0.84549081153E+03  0.84549081153E+03  0.00000000000E+00 0. -1.
          1   -1    0    0  501    0 -0.00000000000E+00 -0.00000000000E+00 -0.15478910163E+04  0.15478910163E+04  0.00000000000E+00 0. -1.
         25    2    1    2    0    0  0.22700842359E+02  0.15530021543E+03 -0.11861462129E+03  0.23308318508E+03  0.12499943050E+03 0.  0.
          2    1    1    2  501    0  0.10890005811E+02 -0.71059301399E+02 -0.13684869602E+04  0.13703738821E+04  0.00000000000E+00 0. -1.
          1    1    1    2  502    0 -0.33590848169E+02 -0.84240914031E+02  0.78470137677E+03  0.78992476058E+03  0.00000000000E+00 0. -1.
         22    1    3    3    0    0 -0.38144239013E+02  0.12870987811E+03 -0.79477491427E+02  0.15600604904E+03  0.00000000000E+00 0. -1.
         22    1    3    3    0    0  0.60845081372E+02  0.26590337316E+02 -0.39137129859E+02  0.77077136035E+02  0.00000000000E+00 0. -1.
</event>
<event>
 7    1  0.5562528E-006  0.4384288E+02  0.7818608E-02  0.1517760E+00
          2   -1    0    0  502    0  0.00000000000E+00  0.00000000000E+00  0.53827657459E+03  0.53827657459E+03  0.00000000000E+00 0. -1.
          1   -1    0    0  501    0 -0.00000000000E+00 -0.00000000000E+00 -0.14000767041E+03  0.14000767041E+03  0.00000000000E+00 0. -1.
         25    2    1    2    0    0 -0.43286500176E+00 -0.57507534675E+02  0.54064942165E+02  0.14783491510E+03  0.12499936094E+03 0.  0.
          2    1    1    2  501    0  0.26142952398E+02  0.22074361498E+02 -0.88838393885E+02  0.95199745922E+02  0.00000000000E+00 0. -1.
          1    1    1    2  502    0 -0.25710087396E+02  0.35433173177E+02  0.43304235590E+03  0.43524958398E+03  0.00000000000E+00 0. -1.
         22    1    3    3    0    0 -0.12099943654E+02 -0.94252442091E+02  0.53968971290E+02  0.10928211811E+03  0.00000000000E+00 0. -1.
         22    1    3    3    0    0  0.11667078652E+02  0.36744907416E+02  0.95970875324E-01  0.38552796989E+02  0.00000000000E+00 0. -1.
</event>
<event>
 7    1  0.5562528E-006  0.6830166E+02  0.7818608E-02  0.1434452E+00
          2   -1    0    0  502    0  0.00000000000E+00  0.00000000000E+00  0.62729606513E+03  0.62729606513E+03  0.00000000000E+00 0. -1.
          1   -1    0    0  501    0 -0.00000000000E+00 -0.00000000000E+00 -0.45866548481E+03  0.45866548481E+03  0.00000000000E+00 0. -1.
         25    2    1    2    0    0 -0.88387842509E+00 -0.55822863808E+02 -0.40372024258E+00  0.13689765065E+03  0.12499532151E+03 0.  0.
          2    1    1    2  501    0 -0.38789449407E+02  0.57433783942E+02 -0.38622136243E+03  0.39239036904E+03  0.00000000000E+00 0. -1.
          1    1    1    2  502    0  0.39673327832E+02 -0.16109201340E+01  0.55525566299E+03  0.55667353025E+03  0.00000000000E+00 0. -1.
         22    1    3    3    0    0  0.59357085274E+01 -0.91048644687E+02 -0.23509083126E+02  0.94221894083E+02  0.00000000000E+00 0. -1.
         22    1    3    3    0    0 -0.68195869525E+01  0.35225780879E+02  0.23105362883E+02  0.42675756569E+02  0.00000000000E+00 0. -1.
</event>
<event>
 7    1  0.5562528E-006  0.5505964E+02  0.7818608E-02  0.1452195E+00
          2   -1    0    0  502    0  0.00000000000E+00  0.00000000000E+00  0.32831223152E+04  0.32831223152E+04  0.00000000000E+00 0. -1.
          1   -1    0    0  501    0 -0.00000000000E+00 -0.00000000000E+00 -0.10342437496E+04  0.10342437496E+04  0.00000000000E+00 0. -1.
         25    2    1    2    0    0 -0.46302038929E+01  0.12196942931E+02 -0.11204113978E+02  0.12617771566E+03  0.12500031822E+03 0.  0.
          2    1    1    2  501    0 -0.31340125407E+02  0.29682973469E+02 -0.96483402571E+03  0.96579914037E+03  0.00000000000E+00 0. -1.
          1    1    1    2  502    0  0.35970329300E+02 -0.41879916400E+02  0.32249167053E+04  0.32253892088E+04  0.00000000000E+00 0. -1.
         22    1    3    3    0    0  0.24142487700E+02  0.47446022916E+02 -0.44832391005E+02  0.69598333932E+02  0.00000000000E+00 0. -1.
         22    1    3    3    0    0 -0.28772691593E+02 -0.35249079985E+02  0.33628277027E+02  0.56579381731E+02  0.00000000000E+00 0. -1.
</event>
<event>
 7    1  0.5562528E-006  0.1769344E+03  0.7818608E-02  0.1249667E+00
          2   -1    0    0  502    0  0.00000000000E+00  0.00000000000E+00  0.11124007848E+03  0.11124007848E+03  0.00000000000E+00 0. -1.
          1   -1    0    0  501    0 -0.00000000000E+00 -0.00000000000E+00 -0.12845142739E+04  0.12845142739E+04  0.00000000000E+00 0. -1.
         25    2    1    2    0    0 -0.19352960948E+03 -0.38509789541E+02 -0.38580258388E+03  0.45100268522E+03  0.12499229863E+03 0.  0.
          2    1    1    2  501    0  0.22009567696E+02  0.72937959401E+02 -0.76452531884E+03  0.76831200052E+03  0.00000000000E+00 0. -1.
          1    1    1    2  502    0  0.17152004178E+03 -0.34428169859E+02 -0.22946292689E+02  0.17643966663E+03  0.00000000000E+00 0. -1.
         22    1    3    3    0    0  0.11564852799E+02 -0.25380770672E+02 -0.51985224850E+02  0.58994855224E+02  0.00000000000E+00 0. -1.
         22    1    3    3    0    0 -0.20509446227E+03 -0.13129018869E+02 -0.33381735903E+03  0.39200783000E+03  0.00000000000E+00 0. -1.
</event>
<event>
 7    1  0.5562528E-006  0.1402497E+03  0.7818608E-02  0.1327914E+00
          2   -1    0    0  502    0  0.00000000000E+00  0.00000000000E+00  0.42459172748E+04  0.42459172748E+04  0.00000000000E+00 0. -1.
          1   -1    0    0  501    0 -0.00000000000E+00 -0.00000000000E+00 -0.11129188905E+03  0.11129188905E+03  0.00000000000E+00 0. -1.
         25    2    1    2    0    0  0.12973426147E+03  0.96605024755E+02  0.47516277608E+02  0.20987337175E+03  0.12500210449E+03 0.  0.
          2    1    1    2  501    0  0.85235789762E+00 -0.46084810735E+02 -0.10550397623E+02  0.47284745791E+02  0.00000000000E+00 0. -1.
          1    1    1    2  502    0 -0.13058661936E+03 -0.50520214020E+02  0.40976595058E+04  0.41000510463E+04  0.00000000000E+00 0. -1.
         22    1    3    3    0    0  0.10026488144E+03  0.12717506965E+03  0.38713226200E+02  0.16650903481E+03  0.00000000000E+00 0.  1.
         22    1    3    3    0    0  0.29469380027E+02 -0.30570044897E+02  0.88030514082E+01  0.43364336941E+02  0.00000000000E+00 0.  1.
</event>
<event>
 7    1  0.5562528E-006  0.1781899E+03  0.7818608E-02  0.1198811E+00
          2   -1    0    0  502    0  0.00000000000E+00  0.00000000000E+00  0.82327458144E+03  0.82327458144E+03  0.00000000000E+00 0. -1.
          1   -1    0    0  501    0 -0.00000000000E+00 -0.00000000000E+00 -0.89608902850E+03  0.89608902850E+03  0.00000000000E+00 0. -1.
         25    2    1    2    0    0  0.23515591634E+03 -0.13708575739E+03  0.29518489944E+03  0.42053527065E+03  0.12499991655E+03 0.  0.
          2    1    1    2  501    0 -0.12701084996E+03  0.19966471030E+02 -0.81457185595E+03  0.82465612499E+03  0.00000000000E+00 0. -1.
          1    1    1    2  502    0 -0.10814506639E+03  0.11711928635E+03  0.44657250945E+03  0.47417221431E+03  0.00000000000E+00 0. -1.
         22    1    3    3    0    0  0.58791965435E+02  0.16435230502E+02  0.93951862706E+02  0.11204269056E+03  0.00000000000E+00 0. -1.
         22    1    3    3    0    0  0.17636395091E+03 -0.15352098789E+03  0.20123303673E+03  0.30849258010E+03  0.00000000000E+00 0. -1.
</event>
<event>
 7    1  0.5562528E-006  0.1416987E+03  0.7818608E-02  0.1261700E+00
          2   -1    0    0  502    0  0.00000000000E+00  0.00000000000E+00  0.11794426188E+03  0.11794426188E+03  0.00000000000E+00 0. -1.
          1   -1    0    0  501    0 -0.00000000000E+00 -0.00000000000E+00 -0.17757623821E+04  0.17757623821E+04  0.00000000000E+00 0. -1.
         25    2    1    2    0    0  0.15746533319E+03 -0.13396378330E+03 -0.47125149263E+03  0.52957065875E+03  0.12500194764E+03 0.  0.
          2    1    1    2  501    0 -0.81641856202E+02  0.21601013834E+02 -0.12212899720E+04  0.12242063519E+04  0.00000000000E+00 0. -1.
          1    1    1    2  502    0 -0.75823476991E+02  0.11236276946E+03  0.34723344398E+02  0.13992963328E+03  0.00000000000E+00 0. -1.
         22    1    3    3    0    0 -0.31432848968E+00 -0.70913231190E+02 -0.15862171379E+03  0.17375164243E+03  0.00000000000E+00 0. -1.
         22    1    3    3    0    0  0.15777966168E+03 -0.63050552108E+02 -0.31262977884E+03  0.35581901632E+03  0.00000000000E+00 0. -1.
</event>
<event>
 7    1  0.5562528E-006  0.3497817E+02  0.7818608E-02  0.1631507E+00
          2   -1    0    0  502    0  0.00000000000E+00  0.00000000000E+00  0.14874158253E+04  0.14874158253E+04  0.00000000000E+00 0. -1.
          1   -1    0    0  501    0 -0.00000000000E+00 -0.00000000000E+00 -0.57979078435E+03  0.57979078435E+03  0.00000000000E+00 0. -1.
         25    2    1    2    0    0  0.13365548581E+01 -0.16375532713E+02  0.88358547747E+03  0.89253493311E+03  0.12500146551E+03 0.  0.
          2    1    1    2  501    0 -0.20141810319E+01 -0.21026850731E+02 -0.57453807424E+03  0.57492624233E+03  0.00000000000E+00 0. -1.
          1    1    1    2  502    0  0.67762617372E+00  0.37402383445E+02  0.59857763771E+03  0.59974543419E+03  0.00000000000E+00 0. -1.
         22    1    3    3    0    0 -0.47753347079E+02 -0.62647199480E+01  0.71592689066E+03  0.71754507987E+03  0.00000000000E+00 0.  1.
         22    1    3    3    0    0  0.49089901938E+02 -0.10110812765E+02  0.16765858680E+03  0.17498985324E+03  0.00000000000E+00 0.  1.
</event>
<event>
 7    1  0.5562528E-006  0.5232541E+02  0.7818608E-02  0.1503783E+00
          2   -1    0    0  502    0  0.00000000000E+00  0.00000000000E+00  0.48389805114E+03  0.48389805114E+03  0.00000000000E+00 0. -1.
          1   -1    0    0  501    0 -0.00000000000E+00 -0.00000000000E+00 -0.13730255787E+03  0.13730255787E+03  0.00000000000E+00 0. -1.
         25    2    1    2    0    0  0.20317252970E+02  0.27296287268E+02  0.44459107583E+02  0.13697029189E+03  0.12500548207E+03 0.  0.
          2    1    1    2  501    0 -0.40411221115E+01 -0.54282727999E+02 -0.82208223790E+02  0.98595827932E+02  0.00000000000E+00 0. -1.
          1    1    1    2  502    0 -0.16276130859E+02  0.26986440730E+02  0.38434460948E+03  0.38563448919E+03  0.00000000000E+00 0. -1.
         22    1    3    3    0    0  0.11432187084E+02  0.39423436909E+02  0.84640448398E+02  0.94068633370E+02  0.00000000000E+00 0. -1.
         22    1    3    3    0    0  0.88850658862E+01 -0.12127149640E+02 -0.40181340814E+02  0.42901658521E+02  0.00000000000E+00 0. -1.
</event>
<event>
 7    1  0.5562528E-006  0.1096218E+03  0.7818608E-02  0.1330283E+00
          2   -1    0    0  502    0  0.00000000000E+00  0.00000000000E+00  0.87315867937E+02  0.87315867937E+02  0.00000000000E+00 0. -1.
          1   -1    0    0  501    0 -0.00000000000E+00 -0.00000000000E+00 -0.89692685821E+03  0.89692685821E+03  0.00000000000E+00 0. -1.
         25    2    1    2    0    0  0.10389617234E+03  0.70011802081E+02 -0.15778560648E+03  0.23711905359E+03  0.12503231945E+03 0.  0.
          2    1    1    2  501    0  0.33347200473E+01 -0.57656627681E+02 -0.63530711626E+03  0.63792675053E+03  0.00000000000E+00 0. -1.
          1    1    1    2  502    0 -0.10723089239E+03 -0.12355174399E+02 -0.16518267535E+02  0.10919692202E+03  0.00000000000E+00 0. -1.
         22    1    3    3    0    0  0.22100076788E+02 -0.24149072490E+02  0.38436812992E+01  0.32960051306E+02  0.00000000000E+00 0.  1.
         22    1    3    3    0    0  0.81796095552E+02  0.94160874570E+02 -0.16162928777E+03  0.20415900229E+03  0.00000000000E+00 0.  1.
</event>
<event>
 7    1  0.6472671E-006  0.1169625E+03  0.7818608E-02  0.1255607E+00
          2   -1    0    0  502    0  0.00000000000E+00  0.00000000000E+00  0.12072816496E+04  0.12072816496E+04  0.00000000000E+00 0. -1.
          1   -1    0    0  501    0 -0.00000000000E+00 -0.00000000000E+00 -0.18065433350E+04  0.18065433350E+04  0.00000000000E+00 0. -1.
         25    2    1    2    0    0  0.40425634109E+02  0.15820861805E+03 -0.11362072321E+04  0.11546649445E+04  0.12498024253E+03 0.  0.
          2    1    1    2  501    0  0.56511532117E+02 -0.92783890508E+02 -0.65375993432E+03  0.66272502240E+03  0.00000000000E+00 0. -1.
          1    1    1    2  502    0 -0.96937166227E+02 -0.65424727537E+02  0.11907054810E+04  0.11964350177E+04  0.00000000000E+00 0. -1.
         22    1    3    3    0    0  0.37025544457E+02  0.28185587532E+02 -0.99651639763E+02  0.10998076011E+03  0.00000000000E+00 0. -1.
         22    1    3    3    0    0  0.34000896528E+01  0.13002303051E+03 -0.10365555923E+04  0.10446841844E+04  0.00000000000E+00 0. -1.
</event>
<event>
 7    1  0.5562528E-006  0.1102969E+03  0.7818608E-02  0.1388525E+00
          2   -1    0    0  502    0  0.00000000000E+00  0.00000000000E+00  0.11351640663E+04  0.11351640663E+04  0.00000000000E+00 0. -1.
          1   -1    0    0  501    0 -0.00000000000E+00 -0.00000000000E+00 -0.21746126532E+03  0.21746126532E+03  0.00000000000E+00 0. -1.
         25    2    1    2    0    0 -0.60378317369E+02 -0.51916343739E+02  0.73129280646E+03  0.74616019145E+03  0.12500005827E+03 0.  0.
          2    1    1    2  501    0  0.70608317873E+02  0.85556585393E+02 -0.19451377451E+03  0.22392202288E+03  0.00000000000E+00 0. -1.
          1    1    1    2  502    0 -0.10230000504E+02 -0.33640241653E+02  0.38092376902E+03  0.38254311728E+03  0.00000000000E+00 0. -1.
         22    1    3    3    0    0  0.32854582283E+02 -0.80606975469E+01  0.81381796448E+02  0.88132827114E+02  0.00000000000E+00 0.  1.
         22    1    3    3    0    0 -0.93232899652E+02 -0.43855646192E+02  0.64991101001E+03  0.65802736434E+03  0.00000000000E+00 0.  1.
</event>
<event>
 7    1  0.5562528E-006  0.7199233E+02  0.7818608E-02  0.1477112E+00
          2   -1    0    0  502    0  0.00000000000E+00  0.00000000000E+00  0.18890779779E+03  0.18890779779E+03  0.00000000000E+00 0. -1.
          1   -1    0    0  501    0 -0.00000000000E+00 -0.00000000000E+00 -0.17134411265E+04  0.17134411265E+04  0.00000000000E+00 0. -1.
         25    2    1    2    0    0  0.44855762811E+02 -0.85169809721E+02  0.86415906316E+02  0.17989121831E+03  0.12500882215E+03 0.  0.
          2    1    1    2  501    0 -0.42880443296E+02  0.57660835875E+02 -0.16624684954E+04  0.16640207338E+04  0.00000000000E+00 0. -1.
          1    1    1    2  502    0 -0.19753195149E+01  0.27508973846E+02  0.51519260356E+02  0.58436972174E+02  0.00000000000E+00 0. -1.
         22    1    3    3    0    0  0.51142653294E+02 -0.68203659928E+01 -0.12949964439E+02  0.53195770106E+02  0.00000000000E+00 0.  1.
         22    1    3    3    0    0 -0.62868904826E+01 -0.78349443728E+02  0.99365870755E+02  0.12669544820E+03  0.00000000000E+00 0.  1.
</event>
<event>
 7    1  0.5562528E-006  0.7211814E+02  0.7818608E-02  0.1432192E+00
          2   -1    0    0  502    0  0.00000000000E+00  0.00000000000E+00  0.80263355307E+03  0.80263355307E+03  0.00000000000E+00 0. -1.
          1   -1    0    0  501    0 -0.00000000000E+00 -0.00000000000E+00 -0.52085412889E+03  0.52085412889E+03  0.00000000000E+00 0. -1.
         25    2    1    2    0    0  0.24327801148E+01 -0.10892441710E+03 -0.84844343440E+02  0.18626609227E+03  0.12500418975E+03 0.  0.
          2    1    1    2  501    0  0.60554927056E+01  0.37769032156E+02 -0.38263580321E+03  0.38454301018E+03  0.00000000000E+00 0. -1.
          1    1    1    2  502    0 -0.84882728205E+01  0.71155384944E+02  0.74925957082E+03  0.75267857951E+03  0.00000000000E+00 0. -1.
         22    1    3    3    0    0 -0.61353910109E+01 -0.99655411021E+02 -0.11576174786E+03  0.15287127342E+03  0.00000000000E+00 0.  1.
         22    1    3    3    0    0  0.85681711258E+01 -0.92690060779E+01  0.30917404419E+02  0.33394818851E+02  0.00000000000E+00 0.  1.
</event>
<event>
 7    1  0.5562528E-006  0.1394355E+03  0.7818608E-02  0.1268909E+00
          2   -1    0    0  502    0  0.00000000000E+00  0.00000000000E+00  0.23593845206E+03  0.23593845206E+03  0.00000000000E+00 0. -1.
          1   -1    0    0  501    0 -0.00000000000E+00 -0.00000000000E+00 -0.13651398372E+04  0.13651398372E+04  0.00000000000E+00 0. -1.
         25    2    1    2    0    0  0.73143198754E+02  0.14161552815E+02 -0.27422091354E+03  0.31043975486E+03  0.12500101951E+03 0.  0.
          2    1    1    2  501    0  0.69999100276E+02 -0.38732432583E+02 -0.10469038734E+04  0.10499560921E+04  0.00000000000E+00 0. -1.
          1    1    1    2  502    0 -0.14314229903E+03  0.24570879768E+02  0.19192340171E+03  0.24068244230E+03  0.00000000000E+00 0. -1.
         22    1    3    3    0    0  0.36860863836E+02 -0.40988039908E+01 -0.26653206516E+03  0.26910010263E+03  0.00000000000E+00 0. -1.
         22    1    3    3    0    0  0.36282334918E+02  0.18260356805E+02 -0.76888483802E+01  0.41339652238E+02  0.00000000000E+00 0. -1.
</event>
<event>
 7    1  0.5562528E-006  0.8004961E+02  0.7818608E-02  0.1396895E+00
          2   -1    0    0  502    0  0.00000000000E+00  0.00000000000E+00  0.44638038312E+03  0.44638038312E+03  0.00000000000E+00 0. -1.
          1   -1    0    0  501    0 -0.00000000000E+00 -0.00000000000E+00 -0.19174370059E+04  0.19174370059E+04  0.00000000000E+00 0. -1.
         25    2    1    2    0    0 -0.36446580454E+02 -0.25009600784E+02 -0.27465158503E+03  0.30497492204E+03  0.12498950578E+03 0.  0.
          2    1    1    2  501    0  0.81023756005E+02  0.16904236088E+02 -0.16253776995E+04  0.16274837229E+04  0.00000000000E+00 0. -1.
          1    1    1    2  502    0 -0.44577175551E+02  0.81053646960E+01  0.42897266179E+03  0.43135874406E+03  0.00000000000E+00 0. -1.
         22    1    3    3    0    0  0.47759948629E+01  0.43082327820E+01 -0.24746233281E+03  0.24754590919E+03  0.00000000000E+00 0.  1.
         22    1    3    3    0    0 -0.41222575317E+02 -0.29317833566E+02 -0.27189252224E+02  0.57429012853E+02  0.00000000000E+00 0.  1.
</event>
<event>
 7    1  0.5562528E-006  0.1170395E+03  0.7818608E-02  0.1343597E+00
          2   -1    0    0  502    0  0.00000000000E+00  0.00000000000E+00  0.16229730093E+04  0.16229730093E+04  0.00000000000E+00 0. -1.
          1   -1    0    0  501    0 -0.00000000000E+00 -0.00000000000E+00 -0.48776691603E+03  0.48776691603E+03  0.00000000000E+00 0. -1.
         25    2    1    2    0    0  0.60982088140E+02  0.79496363007E+02 -0.16642045750E+03  0.23100158511E+03  0.12500990699E+03 0.  0.
          2    1    1    2  501    0 -0.10738418796E+03 -0.66550717848E+02 -0.27486649242E+03  0.30250942221E+03  0.00000000000E+00 0. -1.
          1    1    1    2  502    0  0.46402099823E+02 -0.12945645160E+02  0.15764930432E+04  0.15772289180E+04  0.00000000000E+00 0. -1.
         22    1    3    3    0    0  0.90498687414E+02  0.32347479483E+02 -0.67259290360E+02  0.11730381065E+03  0.00000000000E+00 0. -1.
         22    1    3    3    0    0 -0.29516599274E+02  0.47148883524E+02 -0.99161167136E+02  0.11369777446E+03  0.00000000000E+00 0. -1.
</event>
<event>
 7    1  0.5562528E-006  0.1042910E+03  0.7818608E-02  0.1301579E+00
          2   -1    0    0  502    0  0.00000000000E+00  0.00000000000E+00  0.49331233445E+03  0.49331233445E+03  0.00000000000E+00 0. -1.
          1   -1    0    0  501    0 -0.00000000000E+00 -0.00000000000E+00 -0.22772615314E+03  0.22772615314E+03  0.00000000000E+00 0. -1.
         25    2    1    2    0    0  0.19381149731E+00  0.12246701093E+03 -0.13341495173E+02  0.17550344481E+03  0.12500102926E+03 0.  0.
          2    1    1    2  501    0  0.66776150369E+02 -0.81358133728E+02 -0.10794304348E+03  0.15076438843E+03  0.00000000000E+00 0. -1.
          1    1    1    2  502    0 -0.66969961866E+02 -0.41108877200E+02  0.38687071996E+03  0.39477065435E+03  0.00000000000E+00 0. -1.
         22    1    3    3    0    0  0.17990014328E+02 -0.22112090167E+02  0.40751932234E+01  0.28795700146E+02  0.00000000000E+00 0.  1.
         22    1    3    3    0    0 -0.17796202830E+02  0.14457910110E+03 -0.17416688396E+02  0.14670774466E+03  0.00000000000E+00 0.  1.
</event>
<event>
 7    1  0.5562528E-006  0.4123533E+02  0.7818608E-02  0.1599858E+00
          2   -1    0    0  502    0  0.00000000000E+00  0.00000000000E+00  0.77621461604E+03  0.77621461604E+03  0.00000000000E+00 0. -1.
          1   -1    0    0  501    0 -0.00000000000E+00 -0.00000000000E+00 -0.33663993498E+03  0.33663993498E+03  0.00000000000E+00 0. -1.
         25    2    1    2    0    0 -0.46909540312E+02  0.35821189242E+02 -0.11994156431E+03  0.18301581037E+03  0.12500058171E+03 0.  0.
          2    1    1    2  501    0  0.21295179721E+02 -0.35830442567E+01 -0.18396003386E+03  0.18522315444E+03  0.00000000000E+00 0. -1.
          1    1    1    2  502    0  0.25614360591E+02 -0.32238144986E+02  0.74347627922E+03  0.74461558620E+03  0.00000000000E+00 0. -1.
         22    1    3    3    0    0 -0.68756920881E+02 -0.21921432452E+02 -0.87013251813E+02  0.11304587282E+03  0.00000000000E+00 0.  1.
         22    1    3    3    0    0  0.21847380569E+02  0.57742621694E+02 -0.32928312494E+02  0.69969937556E+02  0.00000000000E+00 0.  1.
</event>
<event>
 7    1  0.5562528E-006  0.1173364E+03  0.7818608E-02  0.1301781E+00
          2   -1    0    0  502    0  0.00000000000E+00  0.00000000000E+00  0.14636374184E+04  0.14636374184E+04  0.00000000000E+00 0. -1.
          1   -1    0    0  501    0 -0.00000000000E+00 -0.00000000000E+00 -0.16535861908E+03  0.16535861908E+03  0.00000000000E+00 0. -1.
         25    2    1    2    0    0 -0.48844888303E+02 -0.57709473429E+02  0.21931547370E+03  0.26351554962E+03  0.12499984580E+03 0.  0.
          2    1    1    2  501    0  0.11630633061E+03  0.40130263350E+02 -0.11563705583E+03  0.16884765103E+03  0.00000000000E+00 0. -1.
          1    1    1    2  502    0 -0.67461442306E+02  0.17579210079E+02  0.11946003815E+04  0.11966328368E+04  0.00000000000E+00 0. -1.
         22    1    3    3    0    0  0.16629312001E+02 -0.19584837869E+02 -0.55017392122E+01  0.26274874430E+02  0.00000000000E+00 0. -1.
         22    1    3    3    0    0 -0.65474200304E+02 -0.38124635560E+02  0.22481721291E+03  0.23724067519E+03  0.00000000000E+00 0. -1.
</event>
<event>
 7    1  0.5562528E-006  0.5545710E+02  0.7818608E-02  0.1456932E+00
          2   -1    0    0  502    0  0.00000000000E+00  0.00000000000E+00  0.12827876784E+04  0.12827876784E+04  0.00000000000E+00 0. -1.
          1   -1    0    0  501    0 -0.00000000000E+00 -0.00000000000E+00 -0.42135310449E+03  0.42135310449E+03  0.00000000000E+00 0. -1.
         25    2    1    2    0    0 -0.74933529053E+01 -0.93523368835E+02  0.22549489168E+03  0.27436052367E+03  0.12499191941E+03 0.  0.
          2    1    1    2  501    0  0.15594641068E+02  0.52927959906E+02 -0.39458511608E+03  0.39842436623E+03  0.00000000000E+00 0. -1.
          1    1    1    2  502    0 -0.81012881627E+01  0.40595408929E+02  0.10305247983E+04  0.10313558930E+04  0.00000000000E+00 0. -1.
         22    1    3    3    0    0  0.22378226315E+02 -0.59975790930E+02  0.24719638220E+02  0.68621724144E+02  0.00000000000E+00 0.  1.
         22    1    3    3    0    0 -0.29871579220E+02 -0.33547577905E+02  0.20077525346E+03  0.20573879953E+03  0.00000000000E+00 0.  1.
</event>
<event>
 7    1  0.5562528E-006  0.7530360E+02  0.7818608E-02  0.1459563E+00
          2   -1    0    0  502    0  0.00000000000E+00  0.00000000000E+00  0.13293743639E+03  0.13293743639E+03  0.00000000000E+00 0. -1.
          1   -1    0    0  501    0 -0.00000000000E+00 -0.00000000000E+00 -0.62397202046E+03  0.62397202046E+03  0.00000000000E+00 0. -1.
         25    2    1    2    0    0 -0.44038186460E+02 -0.52319009603E+02 -0.83826925647E+02  0.16531373430E+03  0.12500014661E+03 0.  0.
          2    1    1    2  501    0  0.21251777288E+02 -0.21043235147E+02 -0.48285608969E+03  0.48378141669E+03  0.00000000000E+00 0. -1.
          1    1    1    2  502    0  0.22786409172E+02  0.73362244750E+02  0.75648431259E+02  0.10781430587E+03  0.00000000000E+00 0. -1.
         22    1    3    3    0    0  0.32087599766E+02 -0.84813623148E+01 -0.68532857659E+02  0.76146570142E+02  0.00000000000E+00 0. -1.
         22    1    3    3    0    0 -0.76125786226E+02 -0.43837647288E+02 -0.15294067988E+02  0.89167164158E+02  0.00000000000E+00 0. -1.
</event>
<event>
 7    1  0.5562528E-006  0.1087800E+03  0.7818608E-02  0.1332315E+00
          2   -1    0    0  502    0  0.00000000000E+00  0.00000000000E+00  0.31138526195E+04  0.31138526195E+04  0.00000000000E+00 0. -1.
          1   -1    0    0  501    0 -0.00000000000E+00 -0.00000000000E+00 -0.45804153493E+02  0.45804153493E+02  0.00000000000E+00 0. -1.
         25    2    1    2    0    0 -0.66648161800E+02 -0.53591316161E+02  0.13545635657E+04  0.13630050643E+04  0.12500537981E+03 0.  0.
          2    1    1    2  501    0  0.38948913143E+02  0.10360439999E+03  0.33426755971E+02  0.11562109473E+03  0.00000000000E+00 0. -1.
          1    1    1    2  502    0  0.27699248657E+02 -0.50013083828E+02  0.16800581443E+04  0.16810306139E+04  0.00000000000E+00 0. -1.
         22    1    3    3    0    0 -0.86545738619E+02 -0.48939893262E+02  0.13122985092E+04  0.13160595182E+04  0.00000000000E+00 0.  1.
         22    1    3    3    0    0  0.19897576819E+02 -0.46514228987E+01  0.42265056519E+02  0.46945546123E+02  0.00000000000E+00 0.  1.
</event>
<event>
 7    1  0.5562528E-006  0.7311452E+02  0.7818608E-02  0.1405283E+00
          2   -1    0    0  502    0  0.00000000000E+00  0.00000000000E+00  0.18716731901E+04  0.18716731901E+04  0.00000000000E+00 0. -1.
          1   -1    0    0  501    0 -0.00000000000E+00 -0.00000000000E+00 -0.18725175557E+03  0.18725175557E+03  0.00000000000E+00 0. -1.
         25    2    1    2    0    0 -0.66166446424E+02 -0.35110647922E+02 -0.18141835870E+01  0.14573640571E+03  0.12500020983E+03 0.  0.
          2    1    1    2  501    0 -0.62635554257E+01  0.45998819852E+02 -0.10794984275E+03  0.11750868948E+03  0.00000000000E+00 0. -1.
          1    1    1    2  502    0  0.72430001850E+02 -0.10888171930E+02  0.17941854608E+04  0.17956798505E+04  0.00000000000E+00 0. -1.
         22    1    3    3    0    0  0.16057225191E+02 -0.36881322469E+02 -0.38501779777E+02  0.55681715795E+02  0.00000000000E+00 0.  1.
         22    1    3    3    0    0 -0.82223671615E+02  0.17706745469E+01  0.36687596190E+02  0.90054689919E+02  0.00000000000E+00 0.  1.
</event>
<event>
 7    1  0.5562528E-006  0.4998505E+02  0.7818608E-02  0.1453318E+00
          2   -1    0    0  502    0  0.00000000000E+00  0.00000000000E+00  0.73351874028E+03  0.73351874028E+03  0.00000000000E+00 0. -1.
          1   -1    0    0  501    0 -0.00000000000E+00 -0.00000000000E+00 -0.41928850611E+02  0.41928850611E+02  0.00000000000E+00 0. -1.
         25    2    1    2    0    0 -0.79109218934E+01  0.17543174939E+02  0.37263161484E+03  0.39350960232E+03  0.12500056429E+03 0.  0.
          2    1    1    2  501    0  0.42729254594E+02  0.25936767070E+02 -0.76910003204E+01  0.50573279211E+02  0.00000000000E+00 0. -1.
          1    1    1    2  502    0 -0.34818332701E+02 -0.43479942010E+02  0.32664927516E+03  0.33136470936E+03  0.00000000000E+00 0. -1.
         22    1    3    3    0    0  0.33619253696E+02  0.55373163453E+02  0.25577781725E+03  0.26385362088E+03  0.00000000000E+00 0.  1.
         22    1    3    3    0    0 -0.41530175589E+02 -0.37829988514E+02  0.11685379758E+03  0.12965598144E+03  0.00000000000E+00 0.  1.
</event>
<event>
 7    1  0.5562528E-006  0.4972519E+02  0.7818608E-02  0.1481249E+00
          2   -1    0    0  502    0  0.00000000000E+00  0.00000000000E+00  0.42011651065E+03  0.42011651065E+03  0.00000000000E+00 0. -1.
          1   -1    0    0  501    0 -0.00000000000E+00 -0.00000000000E+00 -0.18953101724E+03  0.18953101724E+03  0.00000000000E+00 0. -1.
         25    2    1    2    0    0  0.59912522477E+02 -0.32304288106E+01 -0.80573635911E+02  0.16036545683E+03  0.12500009168E+03 0.  0.
          2    1    1    2  501    0 -0.23577500827E+02 -0.30787912108E+02 -0.61831055611E+02  0.72985433582E+02  0.00000000000E+00 0. -1.
          1    1    1    2  502    0 -0.36335021650E+02  0.34018340919E+02  0.37299018494E+03  0.37629663748E+03  0.00000000000E+00 0. -1.
         22    1    3    3    0    0 -0.36999767231E+02  0.99924036431E+01 -0.95747967824E+01  0.39503261120E+02  0.00000000000E+00 0.  1.
         22    1    3    3    0    0  0.96912289708E+02 -0.13222832454E+02 -0.70998839129E+02  0.12086219571E+03  0.00000000000E+00 0.  1.
</event>
<event>
 7    1  0.5562528E-006  0.7249447E+02  0.7818608E-02  0.1445609E+00
          2   -1    0    0  502    0  0.00000000000E+00  0.00000000000E+00  0.28949502678E+04  0.28949502678E+04  0.00000000000E+00 0. -1.
          1   -1    0    0  501    0 -0.00000000000E+00 -0.00000000000E+00 -0.95309519022E+02  0.95309519022E+02  0.00000000000E+00 0. -1.
         25    2    1    2    0    0  0.23993394444E+02  0.67444113678E+02  0.33424454063E+03  0.36396225133E+03  0.12499886402E+03 0.  0.
          2    1    1    2  501    0  0.29377979843E+02 -0.17929609742E+02 -0.76224485932E+02  0.83634376071E+02  0.00000000000E+00 0. -1.
          1    1    1    2  502    0 -0.53371374287E+02 -0.49514503936E+02  0.25416206941E+04  0.25426631595E+04  0.00000000000E+00 0. -1.
         22    1    3    3    0    0 -0.16450232217E+02  0.38185597211E+02  0.20657653906E+02  0.46427240272E+02  0.00000000000E+00 0. -1.
         22    1    3    3    0    0  0.40443626662E+02  0.29258516467E+02  0.31358688672E+03  0.31753501106E+03  0.00000000000E+00 0. -1.
</event>
<event>
 7    1  0.5562528E-006  0.1714002E+03  0.7818608E-02  0.1353691E+00
          2   -1    0    0  502    0  0.00000000000E+00  0.00000000000E+00  0.12504605900E+04  0.12504605900E+04  0.00000000000E+00 0. -1.
          1   -1    0    0  501    0 -0.00000000000E+00 -0.00000000000E+00 -0.74762163766E+03  0.74762163766E+03  0.00000000000E+00 0. -1.
         25    2    1    2    0    0  0.81626111820E+02  0.15429161747E+03 -0.22048024286E+03  0.30774125275E+03  0.12499766318E+03 0.  0.
          2    1    1    2  501    0  0.23498209908E+02 -0.18931796128E+02 -0.47694683976E+03  0.47790047785E+03  0.00000000000E+00 0. -1.
          1    1    1    2  502    0 -0.10512432173E+03 -0.13535982134E+03  0.12002660350E+04  0.12124404971E+04  0.00000000000E+00 0. -1.
         22    1    3    3    0    0  0.97832394399E+02  0.66552567309E+02 -0.16369161301E+03  0.20197862703E+03  0.00000000000E+00 0.  1.
         22    1    3    3    0    0 -0.16206282580E+02  0.87739050161E+02 -0.56788629853E+02  0.10576262572E+03  0.00000000000E+00 0.  1.
</event>
<event>
 7    1  0.5562528E-006  0.5673734E+02  0.7818608E-02  0.1490346E+00
          2   -1    0    0  502    0  0.00000000000E+00  0.00000000000E+00  0.19711509174E+04  0.19711509174E+04  0.00000000000E+00 0. -1.
          1   -1    0    0  501    0 -0.00000000000E+00 -0.00000000000E+00 -0.14428173673E+03  0.14428173673E+03  0.00000000000E+00 0. -1.
         25    2    1    2    0    0  0.78423519930E+01 -0.78785052630E+02  0.26725228294E+03  0.30548347977E+03  0.12501114621E+03 0.  0.
          2    1    1    2  501    0  0.13146383665E+02  0.54779213108E+02 -0.11866825324E+03  0.13136112027E+03  0.00000000000E+00 0. -1.
          1    1    1    2  502    0 -0.20988735658E+02  0.24005839521E+02  0.16782851510E+04  0.16785880541E+04  0.00000000000E+00 0. -1.
         22    1    3    3    0    0  0.55152259937E+02 -0.34522955370E+02  0.60607088077E+02  0.88920331471E+02  0.00000000000E+00 0.  1.
         22    1    3    3    0    0 -0.47309907944E+02 -0.44262097259E+02  0.20664519486E+03  0.21656314830E+03  0.00000000000E+00 0.  1.
</event>
<event>
 7    1  0.5562528E-006  0.9157245E+02  0.7818608E-02  0.1338106E+00
          2   -1    0    0  502    0  0.00000000000E+00  0.00000000000E+00  0.19066242040E+04  0.19066242040E+04  0.00000000000E+00 0. -1.
          1   -1    0    0  501    0 -0.00000000000E+00 -0.00000000000E+00 -0.20988970647E+04  0.20988970647E+04  0.00000000000E+00 0. -1.
         25    2    1    2    0    0  0.60600872874E+02 -0.18486476169E+02 -0.43891273519E+02  0.14685116517E+03  0.12499842089E+03 0.  0.
          2    1    1    2  501    0 -0.44633836648E+02  0.81048378243E+02 -0.20018951699E+04  0.20040322578E+04  0.00000000000E+00 0. -1.
          1    1    1    2  502    0 -0.15967036226E+02 -0.62561902074E+02  0.18535135827E+04  0.18546378458E+04  0.00000000000E+00 0. -1.
         22    1    3    3    0    0  0.60526694993E+02  0.31738048531E+02 -0.63158288530E+02  0.93057798929E+02  0.00000000000E+00 0. -1.
         22    1    3    3    0    0  0.74177881061E-01 -0.50224524700E+02  0.19267015011E+02  0.53793366237E+02  0.00000000000E+00 0. -1.
</event>
<event>
 7    1  0.5562528E-006  0.4589103E+02  0.7818608E-02  0.1584409E+00
          2   -1    0    0  502    0  0.00000000000E+00  0.00000000000E+00  0.21151995514E+03  0.21151995514E+03  0.00000000000E+00 0. -1.
          1   -1    0    0  501    0 -0.00000000000E+00 -0.00000000000E+00 -0.21977730107E+03  0.21977730107E+03  0.00000000000E+00 0. -1.
         25    2    1    2    0    0  0.10953393280E+02  0.58489673048E+02  0.10822844873E+03  0.17572124013E+03  0.12499415363E+03 0.  0.
          2    1    1    2  501    0  0.84440899283E+01 -0.19569931381E+02 -0.17853672775E+03  0.17980447165E+03  0.00000000000E+00 0. -1.
          1    1    1    2  502    0 -0.19397483209E+02 -0.38919741668E+02  0.62050933095E+02  0.75771544423E+02  0.00000000000E+00 0. -1.
         22    1    3    3    0    0 -0.41427685790E+02  0.71141936011E+02  0.49702435336E+02  0.96165275893E+02  0.00000000000E+00 0. -1.
         22    1    3    3    0    0  0.52381079070E+02 -0.12652262963E+02  0.58526013391E+02  0.79555964239E+02  0.00000000000E+00 0. -1.
</event>
<event>
 7    1  0.5562528E-006  0.1654884E+03  0.7818608E-02  0.1266225E+00
          2   -1    0    0  502    0  0.00000000000E+00  0.00000000000E+00  0.84039036198E+03  0.84039036198E+03  0.00000000000E+00 0. -1.
          1   -1    0    0  501    0 -0.00000000000E+00 -0.00000000000E+00 -0.41353594736E+03  0.41353594736E+03  0.00000000000E+00 0. -1.
         25    2    1    2    0    0 -0.79141914164E+02 -0.20713669553E+03  0.23282822576E+03  0.34496347833E+03  0.12498706115E+03 0.  0.
          2    1    1    2  501    0  0.10905429284E+02  0.68320786828E+02 -0.34310092750E+03  0.35000700672E+03  0.00000000000E+00 0. -1.
          1    1    1    2  502    0  0.68236484880E+02  0.13881590871E+03  0.53712711636E+03  0.55895582429E+03  0.00000000000E+00 0. -1.
         22    1    3    3    0    0 -0.66267629377E+02 -0.22340831640E+03  0.22057010698E+03  0.32086421837E+03  0.00000000000E+00 0. -1.
         22    1    3    3    0    0 -0.12874284787E+02  0.16271620864E+02  0.12258118781E+02  0.24099259955E+02  0.00000000000E+00 0. -1.
</event>
<event>
 7    1  0.5562528E-006  0.9569881E+02  0.7818608E-02  0.1399647E+00
          2   -1    0    0  502    0  0.00000000000E+00  0.00000000000E+00  0.51746200591E+03  0.51746200591E+03  0.00000000000E+00 0. -1.
          1   -1    0    0  501    0 -0.00000000000E+00 -0.00000000000E+00 -0.98441635819E+03  0.98441635819E+03  0.00000000000E+00 0. -1.
         25    2    1    2    0    0 -0.73351822812E+02  0.10585087404E+03 -0.43015557902E+03  0.46609406382E+03  0.12499982688E+03 0.  0.
          2    1    1    2  501    0  0.82477839167E+01 -0.36151359731E+02 -0.53108629251E+03  0.53237918521E+03  0.00000000000E+00 0. -1.
          1    1    1    2  502    0  0.65104038895E+02 -0.69699514313E+02  0.49428751926E+03  0.50340511507E+03  0.00000000000E+00 0. -1.
         22    1    3    3    0    0  0.11061439320E+02 -0.18573301288E+01 -0.18493013486E+03  0.18526996491E+03  0.00000000000E+00 0. -1.
         22    1    3    3    0    0 -0.84413262133E+02  0.10770820417E+03 -0.24522544416E+03  0.28082409892E+03  0.00000000000E+00 0. -1.
</event>
<event>
 7    1  0.5562528E-006  0.7035364E+02  0.7818608E-02  0.1374288E+00
          2   -1    0    0  502    0  0.00000000000E+00  0.00000000000E+00  0.40846960258E+03  0.40846960258E+03  0.00000000000E+00 0. -1.
          1   -1    0    0  501    0 -0.00000000000E+00 -0.00000000000E+00 -0.17341693180E+04  0.17341693180E+04  0.00000000000E+00 0. -1.
         25    2    1    2    0    0 -0.31355487256E+02  0.72062469764E+02  0.33807040963E+02  0.15147225148E+03  0.12499904328E+03 0.  0.
          2    1    1    2  501    0  0.67125982651E+02 -0.21549548521E+02 -0.16715539771E+04  0.16730400411E+04  0.00000000000E+00 0. -1.
          1    1    1    2  502    0 -0.35770495394E+02 -0.50512921243E+02  0.31204722069E+03  0.31812662808E+03  0.00000000000E+00 0. -1.
         22    1    3    3    0    0 -0.48754292179E+02  0.77666121849E+02  0.67006611892E+02  0.11357329583E+03  0.00000000000E+00 0. -1.
         22    1    3    3    0    0  0.17398804923E+02 -0.56036520845E+01 -0.33199570929E+02  0.37898955649E+02  0.00000000000E+00 0. -1.
</event>
<event>
 7    1  0.5562528E-006  0.1539531E+03  0.7818608E-02  0.1252222E+00
          2   -1    0    0  502    0  0.00000000000E+00  0.00000000000E+00  0.21862797040E+04  0.21862797040E+04  0.00000000000E+00 0. -1.
          1   -1    0    0  501    0 -0.00000000000E+00 -0.00000000000E+00 -0.44113761677E+03  0.44113761677E+03  0.00000000000E+00 0. -1.
         25    2    1    2    0    0 -0.11521384078E+03 -0.11423059334E+03 -0.20310473145E+03  0.28844158318E+03  0.12499662958E+03 0.  0.
          2    1    1    2  501    0  0.39045512746E+02  0.15275392593E+03 -0.16255066113E+03  0.22645315495E+03  0.00000000000E+00 0. -1.
          1    1    1    2  502    0  0.76168328035E+02 -0.38523332584E+02  0.21107974798E+04  0.21125225826E+04  0.00000000000E+00 0. -1.
         22    1    3    3    0    0  0.20476590462E+02 -0.48665058560E+00 -0.21226830559E+01  0.20592070539E+02  0.00000000000E+00 0.  1.
         22    1    3    3    0    0 -0.13569043124E+03 -0.11374394276E+03 -0.20098204840E+03  0.26784951264E+03  0.00000000000E+00 0.  1.
</event>
<event>
 7    1  0.5562528E-006  0.1273612E+03  0.7818608E-02  0.1296988E+00
          2   -1    0    0  502    0  0.00000000000E+00  0.00000000000E+00  0.15632551445E+04  0.15632551445E+04  0.00000000000E+00 0. -1.
          1   -1    0    0  501    0 -0.00000000000E+00 -0.00000000000E+00 -0.79509948342E+03  0.79509948342E+03  0.00000000000E+00 0. -1.
         25    2    1    2    0    0 -0.50638431909E+02  0.11499140676E+03  0.33003359229E+02  0.18027441715E+03  0.12498947693E+03 0.  0.
          2    1    1    2  501    0  0.10435288036E+03 -0.74724835960E+02 -0.71497298226E+03  0.72640187921E+03  0.00000000000E+00 0. -1.
          1    1    1    2  502    0 -0.53714448451E+02 -0.40266570800E+02  0.14501252841E+04  0.14516783316E+04  0.00000000000E+00 0. -1.
         22    1    3    3    0    0 -0.23885656065E+02  0.13391977197E+03  0.47974484821E+02  0.14424486502E+03  0.00000000000E+00 0. -1.
         22    1    3    3    0    0 -0.26752775845E+02 -0.18928365211E+02 -0.14971125592E+02  0.36029552127E+02  0.00000000000E+00 0. -1.
</event>
<event>
 7    1  0.5562528E-006  0.3947277E+02  0.7818608E-02  0.1567877E+00
          2   -1    0    0  502    0  0.00000000000E+00  0.00000000000E+00  0.38649633281E+02  0.38649633281E+02  0.00000000000E+00 0. -1.
          1   -1    0    0  501    0 -0.00000000000E+00 -0.00000000000E+00 -0.28241529350E+04  0.28241529350E+04  0.00000000000E+00 0. -1.
         25    2    1    2    0    0 -0.45223251930E+02  0.27284230788E+02 -0.14075495254E+03  0.19551464655E+03  0.12499779433E+03 0.  0.
          2    1    1    2  501    0  0.39437422445E+02 -0.44399109758E+00 -0.26389258763E+04  0.26392205834E+04  0.00000000000E+00 0. -1.
          1    1    1    2  502    0  0.57858294857E+01 -0.26840239691E+02 -0.58224729059E+01  0.28067338318E+02  0.00000000000E+00 0. -1.
         22    1    3    3    0    0 -0.22804978649E+02  0.73892117909E+02 -0.11268948610E+03  0.13667125674E+03  0.00000000000E+00 0. -1.
         22    1    3    3    0    0 -0.22418273282E+02 -0.46607887120E+02 -0.28065466437E+02  0.58843389816E+02  0.00000000000E+00 0. -1.
</event>
<event>
 7    1  0.5562528E-006  0.6237828E+02  0.7818608E-02  0.1447059E+00
          2   -1    0    0  502    0  0.00000000000E+00  0.00000000000E+00  0.37203786932E+03  0.37203786932E+03  0.00000000000E+00 0. -1.
          1   -1    0    0  501    0 -0.00000000000E+00 -0.00000000000E+00 -0.11099305020E+04  0.11099305020E+04  0.00000000000E+00 0. -1.
         25    2    1    2    0    0 -0.70026386245E+02 -0.63479870301E+02  0.21931951844E+03  0.26954715441E+03  0.12498491340E+03 0.  0.
          2    1    1    2  501    0  0.31708288929E+02  0.53599116074E+02 -0.10808307769E+04  0.10826234106E+04  0.00000000000E+00 0. -1.
          1    1    1    2  502    0  0.38318097316E+02  0.98807542270E+01  0.12361862579E+03  0.12979780633E+03  0.00000000000E+00 0. -1.
         22    1    3    3    0    0 -0.55939979120E+00 -0.32252445803E+02  0.18180833598E+03  0.18464778423E+03  0.00000000000E+00 0. -1.
         22    1    3    3    0    0 -0.69466986453E+02 -0.31227424498E+02  0.37511182458E+02  0.84899370181E+02  0.00000000000E+00 0. -1.
</event>
<event>
 7    1  0.5562528E-006  0.9287780E+02  0.7818608E-02  0.1377376E+00
          2   -1    0    0  502    0  0.00000000000E+00  0.00000000000E+00  0.28825880268E+03  0.28825880268E+03  0.00000000000E+00 0. -1.
          1   -1    0    0  501    0 -0.00000000000E+00 -0.00000000000E+00 -0.11574346578E+04  0.11574346578E+04  0.00000000000E+00 0. -1.
         25    2    1    2    0    0  0.52297422866E+02  0.11937175205E+00 -0.77680397607E+03  0.78853293728E+03  0.12499896497E+03 0.  0.
          2    1    1    2  501    0  0.37038533743E+02  0.26790693129E+02 -0.36559733241E+03  0.36844403060E+03  0.00000000000E+00 0. -1.
          1    1    1    2  502    0 -0.89335956609E+02 -0.26910064881E+02  0.27322545336E+03  0.28871649260E+03  0.00000000000E+00 0. -1.
         22    1    3    3    0    0  0.29272304515E+01  0.59065689370E+01 -0.67702980235E+03  0.67706189489E+03  0.00000000000E+00 0. -1.
         22    1    3    3    0    0  0.49370192415E+02 -0.57871971849E+01 -0.99774173718E+02  0.11147104239E+03  0.00000000000E+00 0. -1.
</event>
<event>
 7    1  0.5562528E-006  0.5178277E+02  0.7818608E-02  0.1444499E+00
          2   -1    0    0  502    0  0.00000000000E+00  0.00000000000E+00  0.21547690549E+04  0.21547690549E+04  0.00000000000E+00 0. -1.
          1   -1    0    0  501    0 -0.00000000000E+00 -0.00000000000E+00 -0.60972273859E+03  0.60972273859E+03  0.00000000000E+00 0. -1.
         25    2    1    2    0    0 -0.36444445560E+02  0.57697924503E+02 -0.93236282877E+02  0.17022286077E+03  0.12500227910E+03 0.  0.
          2    1    1    2  501    0 -0.11611512818E+02 -0.50573181513E+02 -0.47630513296E+03  0.47912321338E+03  0.00000000000E+00 0. -1.
          1    1    1    2  502    0  0.48055958378E+02 -0.71247429907E+01  0.21145877321E+04  0.21151457193E+04  0.00000000000E+00 0. -1.
         22    1    3    3    0    0 -0.11644016510E+01  0.73925706154E+02 -0.53366309326E+01  0.74127225034E+02  0.00000000000E+00 0. -1.
         22    1    3    3    0    0 -0.35280043909E+02 -0.16227781651E+02 -0.87899651945E+02  0.96095635736E+02  0.00000000000E+00 0. -1.
</event>
<event>
 7    1  0.5562528E-006  0.2714275E+03  0.7818608E-02  0.1242059E+00
          2   -1    0    0  502    0  0.00000000000E+00  0.00000000000E+00  0.21968463691E+04  0.21968463691E+04  0.00000000000E+00 0. -1.
          1   -1    0    0  501    0 -0.00000000000E+00 -0.00000000000E+00 -0.67601010407E+03  0.67601010407E+03  0.00000000000E+00 0. -1.
         25    2    1    2    0    0 -0.10839887990E+03 -0.23189732755E+03  0.61566304215E+03  0.67837520849E+03  0.12500101734E+03 0.  0.
          2    1    1    2  501    0  0.65672080542E+02  0.26428173866E+03 -0.61540179889E+03  0.67296139089E+03  0.00000000000E+00 0. -1.
          1    1    1    2  502    0  0.42726799356E+02 -0.32384411111E+02  0.15205750217E+04  0.15215198737E+04  0.00000000000E+00 0. -1.
         22    1    3    3    0    0 -0.96787217686E+02 -0.10709450233E+03  0.21827682778E+03  0.26169022046E+03  0.00000000000E+00 0.  1.
         22    1    3    3    0    0 -0.11611662212E+02 -0.12480282522E+03  0.39738621437E+03  0.41668498803E+03  0.00000000000E+00 0.  1.
</event>
<event>
 7    1  0.5562528E-006  0.8761509E+02  0.7818608E-02  0.1430736E+00
          2   -1    0    0  502    0  0.00000000000E+00  0.00000000000E+00  0.14505633475E+03  0.14505633475E+03  0.00000000000E+00 0. -1.
          1   -1    0    0  501    0 -0.00000000000E+00 -0.00000000000E+00 -0.99760927719E+03  0.99760927719E+03  0.00000000000E+00 0. -1.
         25    2    1    2    0    0 -0.45824479509E+02  0.93242480525E+02 -0.68510057344E+02  0.17638727371E+03  0.12499919709E+03 0.  0.
          2    1    1    2  501    0  0.30492046779E+02 -0.91462385494E+01 -0.85474994000E+03  0.85534255040E+03  0.00000000000E+00 0. -1.
          1    1    1    2  502    0  0.15332432730E+02 -0.84096241975E+02  0.70707054909E+02  0.11093578783E+03  0.00000000000E+00 0. -1.
         22    1    3    3    0    0 -0.76525313835E+02  0.55800796733E+02 -0.82909468135E+02  0.12587228639E+03  0.00000000000E+00 0. -1.
         22    1    3    3    0    0  0.30700834326E+02  0.37441683791E+02  0.14399410792E+02  0.50514987326E+02  0.00000000000E+00 0. -1.
</event>
<event>
 7    1  0.5562528E-006  0.1393913E+03  0.7818608E-02  0.1248337E+00
          2   -1    0    0  502    0  0.00000000000E+00  0.00000000000E+00  0.21104182763E+04  0.21104182763E+04  0.00000000000E+00 0. -1.
          1   -1    0    0  501    0 -0.00000000000E+00 -0.00000000000E+00 -0.70053995783E+03  0.70053995783E+03  0.00000000000E+00 0. -1.
         25    2    1    2    0    0  0.12274515868E+03  0.17637283642E+03 -0.58349990108E+03  0.63424824867E+03  0.12499981992E+03 0.  0.
          2    1    1    2  501    0 -0.79824912660E+01 -0.97676535845E+02 -0.62429907977E+02  0.11619775915E+03  0.00000000000E+00 0. -1.
          1    1    1    2  502    0 -0.11476266742E+03 -0.78696300572E+02  0.20558081275E+04  0.20605122263E+04  0.00000000000E+00 0. -1.
         22    1    3    3    0    0  0.67886750236E+02  0.67471515701E+02 -0.11243611627E+03  0.14765803917E+03  0.00000000000E+00 0.  1.
         22    1    3    3    0    0  0.54858408448E+02  0.10890132072E+03 -0.47106378480E+03  0.48659020950E+03  0.00000000000E+00 0.  1.
</event>
<event>
 7    1  0.5562528E-006  0.1809854E+03  0.7818608E-02  0.1172401E+00
          2   -1    0    0  502    0  0.00000000000E+00  0.00000000000E+00  0.11347690690E+04  0.11347690690E+04  0.00000000000E+00 0. -1.
          1   -1    0    0  501    0 -0.00000000000E+00 -0.00000000000E+00 -0.49860827912E+03  0.49860827912E+03  0.00000000000E+00 0. -1.
         25    2    1    2    0    0 -0.19763424305E+02 -0.13026106461E+01  0.14485395423E+03  0.19235391419E+03  0.12500028205E+03 0.  0.
          2    1    1    2  501    0  0.64188933668E+02  0.17675081150E+03 -0.44725106133E+03  0.48517479369E+03  0.00000000000E+00 0. -1.
          1    1    1    2  502    0 -0.44425509364E+02 -0.17544820085E+03  0.93855789699E+03  0.95584864025E+03  0.00000000000E+00 0. -1.
         22    1    3    3    0    0 -0.69844380181E+02  0.19175691086E+02  0.81027474350E+02  0.10868024738E+03  0.00000000000E+00 0.  1.
         22    1    3    3    0    0  0.50080955876E+02 -0.20478301732E+02  0.63826479879E+02  0.83673666808E+02  0.00000000000E+00 0.  1.
</event>
<event>
 7    1  0.5562528E-006  0.8053952E+02  0.7818608E-02  0.1369696E+00
          2   -1    0    0  502    0  0.00000000000E+00  0.00000000000E+00  0.18748692718E+03  0.18748692718E+03  0.00000000000E+00 0. -1.
          1   -1    0    0  501    0 -0.00000000000E+00 -0.00000000000E+00 -0.12433974683E+04  0.12433974683E+04  0.00000000000E+00 0. -1.
         25    2    1    2    0    0 -0.12591236056E+03 -0.43177724814E+02 -0.22958583256E+03  0.29334323786E+03  0.12498944845E+03 0.  0.
          2    1    1    2  501    0  0.48891266506E+02  0.27625324696E+02 -0.97115049149E+03  0.97277273380E+03  0.00000000000E+00 0. -1.
          1    1    1    2  502    0  0.77021094049E+02  0.15552400118E+02  0.14482578294E+03  0.16476842381E+03  0.00000000000E+00 0. -1.
         22    1    3    3    0    0 -0.87854922587E+02  0.14566493518E+02 -0.19841864713E+03  0.21748707935E+03  0.00000000000E+00 0. -1.
         22    1    3    3    0    0 -0.38057437968E+02 -0.57744218331E+02 -0.31167185428E+02  0.75856158504E+02  0.00000000000E+00 0. -1.
</event>
<event>
 7    1  0.5562528E-006  0.7078584E+02  0.7818608E-02  0.1389056E+00
          2   -1    0    0  502    0  0.00000000000E+00  0.00000000000E+00  0.15213443484E+03  0.15213443484E+03  0.00000000000E+00 0. -1.
          1   -1    0    0  501    0 -0.00000000000E+00 -0.00000000000E+00 -0.11503214820E+04  0.11503214820E+04  0.00000000000E+00 0. -1.
         25    2    1    2    0    0  0.98966409855E+02  0.64757999911E+02 -0.67559351895E+03  0.69716559637E+03  0.12500126837E+03 0.  0.
          2    1    1    2  501    0 -0.31759847007E+02 -0.44355786170E+02 -0.45348016649E+03  0.45674980574E+03  0.00000000000E+00 0. -1.
          1    1    1    2  502    0 -0.67206562849E+02 -0.20402213741E+02  0.13088663831E+03  0.14854051469E+03  0.00000000000E+00 0. -1.
         22    1    3    3    0    0  0.36285352491E+02  0.51604139841E+02 -0.10147346173E+03  0.11948421439E+03  0.00000000000E+00 0. -1.
         22    1    3    3    0    0  0.62681057364E+02  0.13153860070E+02 -0.57412005722E+03  0.57768138198E+03  0.00000000000E+00 0. -1.
</event>
<event>
 7    1  0.5562528E-006  0.4676224E+02  0.7818608E-02  0.1570753E+00
          2   -1    0    0  502    0  0.00000000000E+00  0.00000000000E+00  0.40059644333E+03  0.40059644333E+03  0.00000000000E+00 0. -1.
          1   -1    0    0  501    0 -0.00000000000E+00 -0.00000000000E+00 -0.56833804439E+03  0.56833804439E+03  0.00000000000E+00 0. -1.
         25    2    1    2    0    0 -0.42879021420E+02 -0.10273274889E+02 -0.44818020700E+01  0.13262726992E+03  0.12500302205E+03 0.  0.
          2    1    1    2  501    0  0.81016363522E+01 -0.21272550335E+02 -0.49788441904E+03  0.49840450703E+03  0.00000000000E+00 0. -1.
          1    1    1    2  502    0  0.34777385067E+02  0.31545825224E+02  0.33462462005E+03  0.33790271076E+03  0.00000000000E+00 0. -1.
         22    1    3    3    0    0 -0.82193650699E+02 -0.31077468117E+01 -0.27231765417E+02  0.86643080239E+02  0.00000000000E+00 0. -1.
         22    1    3    3    0    0  0.39314629279E+02 -0.71655280773E+01  0.22749963347E+02  0.45984189678E+02  0.00000000000E+00 0. -1.
</event>
<event>
 7    1  0.5562528E-006  0.1107924E+03  0.7818608E-02  0.1353212E+00
          2   -1    0    0  502    0  0.00000000000E+00  0.00000000000E+00  0.19426927132E+04  0.19426927132E+04  0.00000000000E+00 0. -1.
          1   -1    0    0  501    0 -0.00000000000E+00 -0.00000000000E+00 -0.20710535081E+03  0.20710535081E+03  0.00000000000E+00 0. -1.
         25    2    1    2    0    0  0.10326935519E+03 -0.32761039066E+02 -0.36607556689E+02  0.16943236041E+03  0.12501746337E+03 0.  0.
          2    1    1    2  501    0 -0.86097289600E+02  0.76375738862E+02 -0.71881070214E+02  0.13569408616E+03  0.00000000000E+00 0. -1.
          1    1    1    2  502    0 -0.17172065591E+02 -0.43614699796E+02  0.18440759893E+04  0.18446716174E+04  0.00000000000E+00 0. -1.
         22    1    3    3    0    0  0.72169805969E+02  0.14918191222E+02 -0.71486717507E+02  0.10267124282E+03  0.00000000000E+00 0. -1.
         22    1    3    3    0    0  0.31099549222E+02 -0.47679230289E+02  0.34879160818E+02  0.66761117592E+02  0.00000000000E+00 0. -1.
</event>
<event>
 7    1  0.5562528E-006  0.1001070E+03  0.7818608E-02  0.1362650E+00
          2   -1    0    0  502    0  0.00000000000E+00  0.00000000000E+00  0.32121751269E+04  0.32121751269E+04  0.00000000000E+00 0. -1.
          1   -1    0    0  501    0 -0.00000000000E+00 -0.00000000000E+00 -0.84991662581E+02  0.84991662581E+02  0.00000000000E+00 0. -1.
         25    2    1    2    0    0 -0.37991560874E+02 -0.92548300664E+02  0.12593996275E+04  0.12695355213E+04  0.12499788556E+03 0.  0.
          2    1    1    2  501    0 -0.93421872763E+01  0.99952467339E+02 -0.47982572869E+02  0.11126589545E+03  0.00000000000E+00 0. -1.
          1    1    1    2  502    0  0.47333748151E+02 -0.74041666753E+01  0.19157664097E+04  0.19163653727E+04  0.00000000000E+00 0. -1.
         22    1    3    3    0    0  0.20849542162E+02 -0.16642995938E+02  0.78802029305E+03  0.78847173379E+03  0.00000000000E+00 0. -1.
         22    1    3    3    0    0 -0.58841103036E+02 -0.75905304726E+02  0.47137933444E+03  0.48106378749E+03  0.00000000000E+00 0. -1.
</event>
<event>
 7    1  0.5562528E-006  0.1517079E+03  0.7818608E-02  0.1336748E+00
          2   -1    0    0  502    0  0.00000000000E+00  0.00000000000E+00  0.13952412137E+03  0.13952412137E+03  0.00000000000E+00 0. -1.
          1   -1    0    0  501    0 -0.00000000000E+00 -0.00000000000E+00 -0.10622953955E+04  0.10622953955E+04  0.00000000000E+00 0. -1.
         25    2    1    2    0    0 -0.11677327801E+03  0.96146670873E+02 -0.50818283208E+03  0.54475154236E+03  0.12499708520E+03 0.  0.
          2    1    1    2  501    0  0.89842915974E+02 -0.12495619264E+03 -0.52117296505E+03  0.54342162188E+03  0.00000000000E+00 0. -1.
          1    1    1    2  502    0  0.26930362035E+02  0.28809521764E+02  0.10658452295E+03  0.11364635267E+03  0.00000000000E+00 0. -1.
         22    1    3    3    0    0  0.12202401757E+02  0.51314558394E+02 -0.84517369672E+02  0.99625640716E+02  0.00000000000E+00 0. -1.
         22    1    3    3    0    0 -0.12897567977E+03  0.44832112479E+02 -0.42366546240E+03  0.44512590164E+03  0.00000000000E+00 0. -1.
</event>
<event>
 7    1  0.5562528E-006  0.4001299E+02  0.7818608E-02  0.1524617E+00
          2   -1    0    0  502    0  0.00000000000E+00  0.00000000000E+00  0.18470023745E+04  0.18470023745E+04  0.00000000000E+00 0. -1.
          1   -1    0    0  501    0 -0.00000000000E+00 -0.00000000000E+00 -0.72238780070E+01  0.72238780070E+01  0.00000000000E+00 0. -1.
         25    2    1    2    0    0  0.50088213988E+02  0.47849463852E+02  0.11445833227E+04  0.11534705799E+04  0.12499998282E+03 0.  0.
          2    1    1    2  501    0 -0.31835475728E+02 -0.16404461364E+02  0.14488313057E+03  0.14924384540E+03  0.00000000000E+00 0. -1.
          1    1    1    2  502    0 -0.18252738260E+02 -0.31445002488E+02  0.55031204323E+03  0.55151182722E+03  0.00000000000E+00 0. -1.
         22    1    3    3    0    0 -0.17906836709E+02  0.69266081887E+02  0.55413858293E+03  0.55873787592E+03  0.00000000000E+00 0. -1.
         22    1    3    3    0    0  0.67995050697E+02 -0.21416618035E+02  0.59044473979E+03  0.59473270399E+03  0.00000000000E+00 0. -1.
</event>
<event>
 7    1  0.5562528E-006  0.7273058E+02  0.7818608E-02  0.1391962E+00
          2   -1    0    0  502    0  0.00000000000E+00  0.00000000000E+00  0.12500952355E+04  0.12500952355E+04  0.00000000000E+00 0. -1.
          1   -1    0    0  501    0 -0.00000000000E+00 -0.00000000000E+00 -0.12147604438E+03  0.12147604438E+03  0.00000000000E+00 0. -1.
         25    2    1    2    0    0 -0.42099319849E+02  0.17924398447E+02  0.43535916394E+01  0.13318346675E+03  0.12500098105E+03 0.  0.
          2    1    1    2  501    0  0.14016978761E+02  0.49940681388E+02 -0.43876603595E+02  0.67938970364E+02  0.00000000000E+00 0. -1.
          1    1    1    2  502    0  0.28082341088E+02 -0.67865079835E+02  0.11681422031E+04  0.11704488428E+04  0.00000000000E+00 0. -1.
         22    1    3    3    0    0 -0.10321762523E+00 -0.47122292774E+02  0.24596088199E+02  0.53155326025E+02  0.00000000000E+00 0.  1.
         22    1    3    3    0    0 -0.41996102224E+02  0.65046691221E+02 -0.20242496559E+02  0.80028140724E+02  0.00000000000E+00 0.  1.
</event>
<event>
 7    1  0.5562528E-006  0.1091880E+03  0.7818608E-02  0.1378543E+00
          2   -1    0    0  502    0  0.00000000000E+00  0.00000000000E+00  0.16855965108E+04  0.16855965108E+04  0.00000000000E+00 0. -1.
          1   -1    0    0  501    0 -0.00000000000E+00 -0.00000000000E+00 -0.10180420931E+03  0.10180420931E+03  0.00000000000E+00 0. -1.
         25    2    1    2    0    0  0.48208528863E+02 -0.93684675296E+02  0.41201958529E+03  0.44326780274E+03  0.12500130260E+03 0.  0.
          2    1    1    2  501    0 -0.12976815472E+02  0.10924368730E+03 -0.50644420815E+02  0.12110919996E+03  0.00000000000E+00 0. -1.
          1    1    1    2  502    0 -0.35231713391E+02 -0.15559012003E+02  0.12224171370E+04  0.12230237174E+04  0.00000000000E+00 0. -1.
         22    1    3    3    0    0  0.47375256498E+02 -0.80366117983E+02  0.41825890884E+03  0.42853662933E+03  0.00000000000E+00 0. -1.
         22    1    3    3    0    0  0.83327236435E+00 -0.13318557313E+02 -0.62393235594E+01  0.14731173416E+02  0.00000000000E+00 0. -1.
</event>
<event>
 7    1  0.5562528E-006  0.8955251E+02  0.7818608E-02  0.1397810E+00
          2   -1    0    0  502    0  0.00000000000E+00  0.00000000000E+00  0.96218990390E+03  0.96218990390E+03  0.00000000000E+00 0. -1.
          1   -1    0    0  501    0 -0.00000000000E+00 -0.00000000000E+00 -0.16469471179E+03  0.16469471179E+03  0.00000000000E+00 0. -1.
         25    2    1    2    0    0 -0.10559667592E+03  0.18920429397E+02  0.22322451495E+01  0.16473981448E+03  0.12500233175E+03 0.  0.
          2    1    1    2  501    0  0.17986405608E+02 -0.35959533996E+02 -0.76182069368E+02  0.86141201322E+02  0.00000000000E+00 0. -1.
          1    1    1    2  502    0  0.87610270313E+02  0.17039104600E+02  0.87144501632E+03  0.87600359989E+03  0.00000000000E+00 0. -1.
         22    1    3    3    0    0 -0.10217192541E+03  0.43718745731E+02 -0.37919220080E+02  0.11742358503E+03  0.00000000000E+00 0.  1.
         22    1    3    3    0    0 -0.34247505108E+01 -0.24798316334E+02  0.40151465229E+02  0.47316229448E+02  0.00000000000E+00 0.  1.
</event>
<event>
 7    1  0.5562528E-006  0.7790790E+02  0.7818608E-02  0.1453934E+00
          2   -1    0    0  502    0  0.00000000000E+00  0.00000000000E+00  0.80378196546E+03  0.80378196546E+03  0.00000000000E+00 0. -1.
          1   -1    0    0  501    0 -0.00000000000E+00 -0.00000000000E+00 -0.19258837405E+03  0.19258837405E+03  0.00000000000E+00 0. -1.
         25    2    1    2    0    0 -0.33146217394E+02 -0.46760782227E+02 -0.12674891138E+02  0.13809898185E+03  0.12500173375E+03 0.  0.
          2    1    1    2  501    0  0.31519915137E+02  0.76836742832E+02 -0.10213718829E+03  0.13164116124E+03  0.00000000000E+00 0. -1.
          1    1    1    2  502    0  0.16263022569E+01 -0.30075960605E+02  0.72600567085E+03  0.72663019643E+03  0.00000000000E+00 0. -1.
         22    1    3    3    0    0 -0.47152289771E+02 -0.23735309556E+02  0.48225889916E+02  0.71501327321E+02  0.00000000000E+00 0. -1.
         22    1    3    3    0    0  0.14006072377E+02 -0.23025472671E+02 -0.60900781055E+02  0.66597654525E+02  0.00000000000E+00 0. -1.
</event>
<event>
 7    1  0.5562528E-006  0.6870316E+02  0.7818608E-02  0.1436568E+00
          2   -1    0    0  502    0  0.00000000000E+00  0.00000000000E+00  0.79745741637E+03  0.79745741637E+03  0.00000000000E+00 0. -1.
          1   -1    0    0  501    0 -0.00000000000E+00 -0.00000000000E+00 -0.44339236745E+03  0.44339236745E+03  0.00000000000E+00 0. -1.
         25    2    1    2    0    0  0.60351955746E+02  0.58711445253E+02 -0.42710467139E+02  0.15664981543E+03  0.12500235320E+03 0.  0.
          2    1    1    2  501    0 -0.21960065553E+02 -0.64664795881E+02 -0.33980301477E+03  0.34659756080E+03  0.00000000000E+00 0. -1.
          1    1    1    2  502    0 -0.38391890193E+02  0.59533506278E+01  0.73657853083E+03  0.73760240760E+03  0.00000000000E+00 0. -1.
         22    1    3    3    0    0  0.99426090495E+02  0.40202135553E+02 -0.34346403525E+02  0.11261187597E+03  0.00000000000E+00 0.  1.
         22    1    3    3    0    0 -0.39074134749E+02  0.18509309701E+02 -0.83640636137E+01  0.44037939462E+02  0.00000000000E+00 0.  1.
</event>
<event>
 7    1  0.5562528E-006  0.4866600E+02  0.7818608E-02  0.1515918E+00
          2   -1    0    0  502    0  0.00000000000E+00  0.00000000000E+00  0.58237087701E+03  0.58237087701E+03  0.00000000000E+00 0. -1.
          1   -1    0    0  501    0 -0.00000000000E+00 -0.00000000000E+00 -0.17204323590E+03  0.17204323590E+03  0.00000000000E+00 0. -1.
         25    2    1    2    0    0  0.40490595380E+02 -0.64948386013E+02 -0.20285920460E+02  0.14796381825E+03  0.12499596706E+03 0.  0.
          2    1    1    2  501    0 -0.24473661554E+02  0.19365193637E+02 -0.83981130202E+02  0.89592416333E+02  0.00000000000E+00 0. -1.
          1    1    1    2  502    0 -0.16016933826E+02  0.45583192376E+02  0.51459469176E+03  0.51685787833E+03  0.00000000000E+00 0. -1.
         22    1    3    3    0    0  0.50706046194E+02 -0.36992437784E+02  0.44316774726E+02  0.76834367935E+02  0.00000000000E+00 0.  1.
         22    1    3    3    0    0 -0.10215450814E+02 -0.27955948229E+02 -0.64602695186E+02  0.71129450314E+02  0.00000000000E+00 0.  1.
</event>
<event>
 7    1  0.5562528E-006  0.5928475E+02  0.7818608E-02  0.1414206E+00
          2   -1    0    0  502    0  0.00000000000E+00  0.00000000000E+00  0.10225412548E+04  0.10225412548E+04  0.00000000000E+00 0. -1.
          1   -1    0    0  501    0 -0.00000000000E+00 -0.00000000000E+00 -0.87958712864E+02  0.87958712864E+02  0.00000000000E+00 0. -1.
         25    2    1    2    0    0 -0.72451044612E+02 -0.65507246171E+02  0.37776917526E+03  0.40972545238E+03  0.12500017356E+03 0.  0.
          2    1    1    2  501    0  0.56606934918E+02  0.14511142323E+02 -0.58770509743E+02  0.82878773808E+02  0.00000000000E+00 0. -1.
          1    1    1    2  502    0  0.15844109694E+02  0.50996103848E+02  0.61558387642E+03  0.61789574147E+03  0.00000000000E+00 0. -1.
         22    1    3    3    0    0 -0.84616783237E+02 -0.24406706675E+02  0.34418234794E+03  0.35527056728E+03  0.00000000000E+00 0.  1.
         22    1    3    3    0    0  0.12165738624E+02 -0.41100539496E+02  0.33586827314E+02  0.54454885108E+02  0.00000000000E+00 0.  1.
</event>
<event>
 7    1  0.5562528E-006  0.1375575E+03  0.7818608E-02  0.1405060E+00
          2   -1    0    0  502    0  0.00000000000E+00  0.00000000000E+00  0.55395180336E+03  0.55395180336E+03  0.00000000000E+00 0. -1.
          1   -1    0    0  501    0 -0.00000000000E+00 -0.00000000000E+00 -0.20382055190E+03  0.20382055190E+03  0.00000000000E+00 0. -1.
         25    2    1    2    0    0  0.53342548902E+02 -0.14867357579E+03  0.20524072640E+03  0.28757323224E+03  0.12500139385E+03 0.  0.
          2    1    1    2  501    0 -0.54100634144E+02  0.12396705489E+03 -0.13389360895E+03  0.19032132784E+03  0.00000000000E+00 0. -1.
          1    1    1    2  502    0  0.75808524168E+00  0.24706520903E+02  0.27878413400E+03  0.27987779519E+03  0.00000000000E+00 0. -1.
         22    1    3    3    0    0 -0.36517936453E+02 -0.81274955955E+02  0.90189023843E+02  0.12678027516E+03  0.00000000000E+00 0.  1.
         22    1    3    3    0    0  0.89860485355E+02 -0.67398619832E+02  0.11505170256E+03  0.16079295708E+03  0.00000000000E+00 0.  1.
</event>
<event>
 7    1  0.5562528E-006  0.3091254E+03  0.7818608E-02  0.1218932E+00
          2   -1    0    0  502    0  0.00000000000E+00  0.00000000000E+00  0.32020809560E+03  0.32020809560E+03  0.00000000000E+00 0. -1.
          1   -1    0    0  501    0 -0.00000000000E+00 -0.00000000000E+00 -0.75240096265E+03  0.75240096265E+03  0.00000000000E+00 0. -1.
         25    2    1    2    0    0 -0.26916783401E+03 -0.70666143533E+02 -0.11428945136E+03  0.32577965811E+03  0.12500112094E+03 0.  0.
          2    1    1    2  501    0 -0.54929925379E+02  0.23535794908E+02 -0.40383839832E+03  0.40823606198E+03  0.00000000000E+00 0. -1.
          1    1    1    2  502    0  0.32409775939E+03  0.47130348625E+02  0.85934982630E+02  0.33859333816E+03  0.00000000000E+00 0. -1.
         22    1    3    3    0    0 -0.16730635253E+03 -0.55408914440E+01 -0.11802337223E+03  0.20482097907E+03  0.00000000000E+00 0.  1.
         22    1    3    3    0    0 -0.10186148148E+03 -0.65125252089E+02  0.37339208682E+01  0.12095867904E+03  0.00000000000E+00 0.  1.
</event>
<event>
 7    1  0.5562528E-006  0.5502263E+02  0.7818608E-02  0.1484663E+00
          2   -1    0    0  502    0  0.00000000000E+00  0.00000000000E+00  0.77896640606E+03  0.77896640606E+03  0.00000000000E+00 0. -1.
          1   -1    0    0  501    0 -0.00000000000E+00 -0.00000000000E+00 -0.25669355700E+02  0.25669355700E+02  0.00000000000E+00 0. -1.
         25    2    1    2    0    0 -0.28159764411E+02  0.23741256272E+02  0.27564612132E+03  0.30489659502E+03  0.12499811949E+03 0.  0.
          2    1    1    2  501    0  0.12048083927E+02  0.32022111386E+02  0.22606375795E+02  0.41007562358E+02  0.00000000000E+00 0. -1.
          1    1    1    2  502    0  0.16111680484E+02 -0.55763367658E+02  0.45504455325E+03  0.45873160438E+03  0.00000000000E+00 0. -1.
         22    1    3    3    0    0 -0.66020296622E+02  0.21096091527E+00  0.77548399537E+02  0.10184536485E+03  0.00000000000E+00 0. -1.
         22    1    3    3    0    0  0.37860532211E+02  0.23530295356E+02  0.19809772178E+03  0.20305123017E+03  0.00000000000E+00 0. -1.
</event>
<event>
 7    1  0.5562528E-006  0.7105664E+02  0.7818608E-02  0.1391463E+00
          2   -1    0    0  502    0  0.00000000000E+00  0.00000000000E+00  0.17117001926E+03  0.17117001926E+03  0.00000000000E+00 0. -1.
          1   -1    0    0  501    0 -0.00000000000E+00 -0.00000000000E+00 -0.58033836867E+03  0.58033836867E+03  0.00000000000E+00 0. -1.
         25    2    1    2    0    0 -0.11976407639E+03  0.14801543373E+02 -0.80657842833E+02  0.19155510012E+03  0.12500059637E+03 0.  0.
          2    1    1    2  501    0  0.53098458538E+02 -0.46935851510E+01 -0.43263325716E+03  0.43590481901E+03  0.00000000000E+00 0. -1.
          1    1    1    2  502    0  0.66665617853E+02 -0.10107958222E+02  0.10412275058E+03  0.12404846880E+03  0.00000000000E+00 0. -1.
         22    1    3    3    0    0 -0.11813674263E+02  0.26502666308E+02  0.26284569405E+02  0.39151408785E+02  0.00000000000E+00 0.  1.
         22    1    3    3    0    0 -0.10795040213E+03 -0.11701122935E+02 -0.10694241224E+03  0.15240369134E+03  0.00000000000E+00 0.  1.
</event>
<event>
 7    1  0.5993935E-006  0.2021552E+03  0.7818608E-02  0.1193461E+00
          2   -1    0    0  502    0  0.00000000000E+00  0.00000000000E+00  0.15313511803E+04  0.15313511803E+04  0.00000000000E+00 0. -1.
          1   -1    0    0  501    0 -0.00000000000E+00 -0.00000000000E+00 -0.13052722105E+04  0.13052722105E+04  0.00000000000E+00 0. -1.
         25    2    1    2    0    0 -0.40449231691E+02  0.87924910946E+02 -0.28982249938E+03  0.33013468942E+03  0.12499960681E+03 0.  0.
          2    1    1    2  501    0 -0.10768324582E+03  0.53304872029E+02 -0.98469520824E+03  0.99199886287E+03  0.00000000000E+00 0. -1.
          1    1    1    2  502    0  0.14813247751E+03 -0.14122978298E+03  0.15005966775E+04  0.15144898385E+04  0.00000000000E+00 0. -1.
         22    1    3    3    0    0 -0.40099713728E+02  0.10535278852E+03 -0.14207712040E+03  0.18136456443E+03  0.00000000000E+00 0. -1.
         22    1    3    3    0    0 -0.34951796320E+00 -0.17427877571E+02 -0.14774537898E+03  0.14877012499E+03  0.00000000000E+00 0. -1.
</event>
<event>
 7    1  0.5562528E-006  0.2788150E+03  0.7818608E-02  0.1334848E+00
          2   -1    0    0  502    0  0.00000000000E+00  0.00000000000E+00  0.21322221816E+03  0.21322221816E+03  0.00000000000E+00 0. -1.
          1   -1    0    0  501    0 -0.00000000000E+00 -0.00000000000E+00 -0.14669934122E+04  0.14669934122E+04  0.00000000000E+00 0. -1.
         25    2    1    2    0    0 -0.28644358079E+03  0.63326181763E+02 -0.37523932975E+03  0.49243253496E+03  0.12500046648E+03 0.  0.
          2    1    1    2  501    0  0.20753408803E+02  0.67273141376E+01 -0.91085663043E+03  0.91111786391E+03  0.00000000000E+00 0. -1.
          1    1    1    2  502    0  0.26569017199E+03 -0.70053495901E+02  0.32324766190E+02  0.27666523144E+03  0.00000000000E+00 0. -1.
         22    1    3    3    0    0 -0.61929465760E+02  0.35328579053E+02 -0.25165495214E+02  0.75608659402E+02  0.00000000000E+00 0. -1.
         22    1    3    3    0    0 -0.22451411503E+03  0.27997602710E+02 -0.35007383454E+03  0.41682387556E+03  0.00000000000E+00 0. -1.
</event>
<event>
 7    1  0.5562528E-006  0.1782459E+03  0.7818608E-02  0.1196562E+00
          2   -1    0    0  502    0  0.00000000000E+00  0.00000000000E+00  0.62891941971E+03  0.62891941971E+03  0.00000000000E+00 0. -1.
          1   -1    0    0  501    0 -0.00000000000E+00 -0.00000000000E+00 -0.27828408912E+03  0.27828408912E+03  0.00000000000E+00 0. -1.
         25    2    1    2    0    0  0.12249610756E+03 -0.16719334430E+02 -0.10106079780E+02  0.17610490706E+03  0.12500389166E+03 0.  0.
          2    1    1    2  501    0 -0.20426570204E+03  0.11998643565E+03 -0.96098309029E+02  0.25564840459E+03  0.00000000000E+00 0. -1.
          1    1    1    2  502    0  0.81769594479E+02 -0.10326710122E+03  0.45683971941E+03  0.47545019718E+03  0.00000000000E+00 0. -1.
         22    1    3    3    0    0  0.27982344819E+02  0.48224191399E+02  0.16962407761E+02  0.58277847718E+02  0.00000000000E+00 0. -1.
         22    1    3    3    0    0  0.94513762742E+02 -0.64943525829E+02 -0.27068487541E+02  0.11782705934E+03  0.00000000000E+00 0. -1.
</event>
<event>
 7    1  0.5562528E-006  0.1255365E+03  0.7818608E-02  0.1297801E+00
          2   -1    0    0  502    0  0.00000000000E+00  0.00000000000E+00  0.46988277062E+03  0.46988277062E+03  0.00000000000E+00 0. -1.
          1   -1    0    0  501    0 -0.00000000000E+00 -0.00000000000E+00 -0.93579453431E+03  0.93579453431E+03  0.00000000000E+00 0. -1.
         25    2    1    2    0    0  0.10061233570E+03 -0.84579369363E+02 -0.37941576737E+03  0.42054502527E+03  0.12500112774E+03 0.  0.
          2    1    1    2  501    0 -0.12629399964E+03  0.22051344443E+02 -0.52552131102E+03  0.54093353055E+03  0.00000000000E+00 0. -1.
          1    1    1    2  502    0  0.25681663945E+02  0.62528024920E+02  0.43902531470E+03  0.44419874911E+03  0.00000000000E+00 0. -1.
         22    1    3    3    0    0  0.12708170308E+03 -0.64896574030E+02 -0.34251982211E+03  0.37105411077E+03  0.00000000000E+00 0.  1.
         22    1    3    3    0    0 -0.26469367385E+02 -0.19682795333E+02 -0.36895945261E+02  0.49490914505E+02  0.00000000000E+00 0.  1.
</event>
<event>
 7    1  0.5562528E-006  0.2907102E+03  0.7818608E-02  0.1231840E+00
          2   -1    0    0  502    0  0.00000000000E+00  0.00000000000E+00  0.74983270777E+03  0.74983270777E+03  0.00000000000E+00 0. -1.
          1   -1    0    0  501    0 -0.00000000000E+00 -0.00000000000E+00 -0.29681461767E+03  0.29681461767E+03  0.00000000000E+00 0. -1.
         25    2    1    2    0    0  0.70701576893E+02 -0.26812687988E+03  0.35923213286E+03  0.47070532421E+03  0.12500016106E+03 0.  0.
          2    1    1    2  501    0  0.53119715831E+02 -0.16283032943E+02 -0.16365787944E+03  0.17283154479E+03  0.00000000000E+00 0. -1.
          1    1    1    2  502    0 -0.12382129272E+03  0.28440991283E+03  0.25744383669E+03  0.40311045644E+03  0.00000000000E+00 0. -1.
         22    1    3    3    0    0  0.97580987791E+02 -0.23941897843E+03  0.33941084987E+03  0.42666523343E+03  0.00000000000E+00 0.  1.
         22    1    3    3    0    0 -0.26879410898E+02 -0.28707901449E+02  0.19821282993E+02  0.44040090774E+02  0.00000000000E+00 0.  1.
</event>
<event>
 7    1  0.5562528E-006  0.1185646E+03  0.7818608E-02  0.1398708E+00
          2   -1    0    0  502    0  0.00000000000E+00  0.00000000000E+00  0.25180109947E+04  0.25180109947E+04  0.00000000000E+00 0. -1.
          1   -1    0    0  501    0 -0.00000000000E+00 -0.00000000000E+00 -0.31006850592E+04  0.31006850592E+04  0.00000000000E+00 0. -1.
         25    2    1    2    0    0 -0.38893307121E+01 -0.99564638505E+02  0.11907861816E+04  0.12014676646E+04  0.12499829848E+03 0.  0.
          2    1    1    2  501    0 -0.20901626990E+02  0.11672823828E+03 -0.30940363918E+04  0.30963080520E+04  0.00000000000E+00 0. -1.
          1    1    1    2  502    0  0.24790957702E+02 -0.17163599770E+02  0.13205761457E+04  0.13209203372E+04  0.00000000000E+00 0. -1.
         22    1    3    3    0    0 -0.42818816624E+02 -0.67481887783E+02  0.10266069249E+04  0.10297130836E+04  0.00000000000E+00 0.  1.
         22    1    3    3    0    0  0.38929485912E+02 -0.32082750723E+02  0.16417925671E+03  0.17175458102E+03  0.00000000000E+00 0.  1.
</event>
<event>
 7    1  0.5562528E-006  0.2172481E+03  0.7818608E-02  0.1248754E+00
          2   -1    0    0  502    0  0.00000000000E+00  0.00000000000E+00  0.16358655740E+03  0.16358655740E+03  0.00000000000E+00 0. -1.
          1   -1    0    0  501    0 -0.00000000000E+00 -0.00000000000E+00 -0.46598683711E+03  0.46598683711E+03  0.00000000000E+00 0. -1.
         25    2    1    2    0    0  0.18053330515E+03  0.78827818326E+02 -0.77612422930E+02  0.24587579721E+03  0.12500048100E+03 0.  0.
          2    1    1    2  501    0 -0.18321520573E+03 -0.14138844478E+03 -0.22250111656E+03  0.32103777161E+03  0.00000000000E+00 0. -1.
          1    1    1    2  502    0  0.26819005893E+01  0.62560626458E+02 -0.22867402197E+01  0.62659825681E+02  0.00000000000E+00 0. -1.
         22    1    3    3    0    0  0.12504455134E+03  0.63249035135E+01 -0.89361028000E+02  0.15382307223E+03  0.00000000000E+00 0.  1.
         22    1    3    3    0    0  0.55488753802E+02  0.72502914813E+02  0.11748605070E+02  0.92052724978E+02  0.00000000000E+00 0.  1.
</event>
<event>
 7    1  0.5562528E-006  0.1903201E+03  0.7818608E-02  0.1308554E+00
          2   -1    0    0  502    0  0.00000000000E+00  0.00000000000E+00  0.14250752585E+04  0.14250752585E+04  0.00000000000E+00 0. -1.
          1   -1    0    0  501    0 -0.00000000000E+00 -0.00000000000E+00 -0.28354425161E+04  0.28354425161E+04  0.00000000000E+00 0. -1.
         25    2    1    2    0    0 -0.15836176646E+03  0.10763207148E+03 -0.53201867561E+03  0.57907857143E+03  0.12500003524E+03 0.  0.
          2    1    1    2  501    0  0.13169786211E+03 -0.13798271830E+03 -0.22756118099E+04  0.22835920535E+04  0.00000000000E+00 0. -1.
          1    1    1    2  502    0  0.26663904357E+02  0.30350646816E+02  0.13972632279E+04  0.13978471496E+04  0.00000000000E+00 0. -1.
         22    1    3    3    0    0 -0.12146525274E+03  0.11379905733E+03 -0.50812270090E+03  0.53468936051E+03  0.00000000000E+00 0.  1.
         22    1    3    3    0    0 -0.36896513722E+02 -0.61669858503E+01 -0.23895974709E+02  0.44389210926E+02  0.00000000000E+00 0.  1.
</event>
<event>
 7    1  0.5562528E-006  0.1446057E+03  0.7818608E-02  0.1290850E+00
          2   -1    0    0  502    0  0.00000000000E+00  0.00000000000E+00  0.17151803574E+03  0.17151803574E+03  0.00000000000E+00 0. -1.
          1   -1    0    0  501    0 -0.00000000000E+00 -0.00000000000E+00 -0.49738665125E+03  0.49738665125E+03  0.00000000000E+00 0. -1.
         25    2    1    2    0    0 -0.13432378938E+03 -0.35763805648E+02  0.69925896306E+02  0.19959190446E+03  0.12500146865E+03 0.  0.
          2    1    1    2  501    0 -0.37370365076E+02  0.50224008878E+02 -0.19460169286E+03  0.20442312520E+03  0.00000000000E+00 0. -1.
          1    1    1    2  502    0  0.17169415446E+03 -0.14460203229E+02 -0.20119281897E+03  0.26488965732E+03  0.00000000000E+00 0. -1.
         22    1    3    3    0    0 -0.11751426317E+03  0.17775829488E+02  0.12839699472E+02  0.11954262857E+03  0.00000000000E+00 0.  1.
         22    1    3    3    0    0 -0.16809526212E+02 -0.53539635137E+02  0.57086196834E+02  0.80049275893E+02  0.00000000000E+00 0.  1.
</event>
<event>
 7    1  0.5562528E-006  0.1259917E+03  0.7818608E-02  0.1275641E+00
          2   -1    0    0  502    0  0.00000000000E+00  0.00000000000E+00  0.31253628282E+03  0.31253628282E+03  0.00000000000E+00 0. -1.
          1   -1    0    0  501    0 -0.00000000000E+00 -0.00000000000E+00 -0.39620027928E+03  0.39620027928E+03  0.00000000000E+00 0. -1.
         25    2    1    2    0    0 -0.90062795288E+02 -0.60102366042E+01 -0.94323281632E+02  0.18074555418E+03  0.12499857543E+03 0.  0.
          2    1    1    2  501    0 -0.85333310723E+01 -0.82536986750E+02 -0.23480675815E+03  0.24903691613E+03  0.00000000000E+00 0. -1.
          1    1    1    2  502    0  0.98596126361E+02  0.88547223354E+02  0.24546604333E+03  0.27895409179E+03  0.00000000000E+00 0. -1.
         22    1    3    3    0    0 -0.57526504949E+02  0.52258210476E+02 -0.81818464509E+02  0.11284715534E+03  0.00000000000E+00 0. -1.
         22    1    3    3    0    0 -0.32536290340E+02 -0.58268447081E+02 -0.12504817123E+02  0.67898398844E+02  0.00000000000E+00 0. -1.
</event>
<event>
 7    1  0.5562528E-006  0.1546662E+03  0.7818608E-02  0.1342808E+00
          2   -1    0    0  502    0  0.00000000000E+00  0.00000000000E+00  0.12647059088E+04  0.12647059088E+04  0.00000000000E+00 0. -1.
          1   -1    0    0  501    0 -0.00000000000E+00 -0.00000000000E+00 -0.15432598042E+04  0.15432598042E+04  0.00000000000E+00 0. -1.
         25    2    1    2    0    0 -0.13835159925E+03 -0.11471374557E+03  0.15228631881E+03  0.26667670160E+03  0.12499972738E+03 0.  0.
          2    1    1    2  501    0  0.13279705234E+03  0.78433119126E+02 -0.14817417310E+04  0.14897467465E+04  0.00000000000E+00 0. -1.
          1    1    1    2  502    0  0.55545469094E+01  0.36280626444E+02  0.10509015168E+04  0.10515422649E+04  0.00000000000E+00 0. -1.
         22    1    3    3    0    0  0.18206162481E+02 -0.42708417624E+02  0.28105260673E+02  0.54271345715E+02  0.00000000000E+00 0.  1.
         22    1    3    3    0    0 -0.15655776173E+03 -0.72005327946E+02  0.12418105814E+03  0.21240535589E+03  0.00000000000E+00 0.  1.
</event>
<event>
 7    1  0.5562528E-006  0.1035449E+03  0.7818608E-02  0.1419120E+00
          2   -1    0    0  502    0  0.00000000000E+00  0.00000000000E+00  0.43665813773E+03  0.43665813773E+03  0.00000000000E+00 0. -1.
          1   -1    0    0  501    0 -0.00000000000E+00 -0.00000000000E+00 -0.20199751217E+04  0.20199751217E+04  0.00000000000E+00 0. -1.
         25    2    1    2    0    0 -0.13956832765E+02 -0.76053358640E+02  0.92860974321E+02  0.17383981153E+03  0.12497284898E+03 0.  0.
          2    1    1    2  501    0  0.33120271239E+02  0.98396048478E+02 -0.19774065303E+04  0.19801301272E+04  0.00000000000E+00 0. -1.
          1    1    1    2  502    0 -0.19163438474E+02 -0.22342689839E+02  0.30122857193E+03  0.30266332072E+03  0.00000000000E+00 0. -1.
         22    1    3    3    0    0  0.41695174912E+02 -0.46813988054E+02  0.12117008987E+01  0.62701716943E+02  0.00000000000E+00 0.  1.
         22    1    3    3    0    0 -0.55652007677E+02 -0.29239370586E+02  0.91649273422E+02  0.11113809459E+03  0.00000000000E+00 0.  1.
</event>
<event>
 7    1  0.5562528E-006  0.9518209E+02  0.7818608E-02  0.1372106E+00
          2   -1    0    0  502    0  0.00000000000E+00  0.00000000000E+00  0.12234465573E+03  0.12234465573E+03  0.00000000000E+00 0. -1.
          1   -1    0    0  501    0 -0.00000000000E+00 -0.00000000000E+00 -0.17652879686E+04  0.17652879686E+04  0.00000000000E+00 0. -1.
         25    2    1    2    0    0 -0.41313712905E+02 -0.12583115265E+03 -0.51823034949E+03  0.54929626798E+03  0.12499357197E+03 0.  0.
          2    1    1    2  501    0  0.33581167306E+02  0.32280014717E+02 -0.12103656486E+04  0.12112616140E+04  0.00000000000E+00 0. -1.
          1    1    1    2  502    0  0.77325455995E+01  0.93551137931E+02  0.85652685212E+02  0.12707474239E+03  0.00000000000E+00 0. -1.
         22    1    3    3    0    0 -0.64352916632E+01 -0.11001487603E+03 -0.48860315111E+03  0.50087695615E+03  0.00000000000E+00 0.  1.
         22    1    3    3    0    0 -0.34878421242E+02 -0.15816276622E+02 -0.29627198380E+02  0.48419311833E+02  0.00000000000E+00 0.  1.
</event>
<event>
 7    1  0.5562528E-006  0.1717369E+03  0.7818608E-02  0.1193806E+00
          2   -1    0    0  502    0  0.00000000000E+00  0.00000000000E+00  0.45600768432E+03  0.45600768432E+03  0.00000000000E+00 0. -1.
          1   -1    0    0  501    0 -0.00000000000E+00 -0.00000000000E+00 -0.95030928426E+03  0.95030928426E+03  0.00000000000E+00 0. -1.
         25    2    1    2    0    0  0.23992740415E+03  0.40877986920E+02  0.19807736561E+03  0.33777963434E+03  0.12499707808E+03 0.  0.
          2    1    1    2  501    0 -0.10134992351E+03 -0.97884161886E+02 -0.84381424319E+03  0.85549727829E+03  0.00000000000E+00 0. -1.
          1    1    1    2  502    0 -0.13857748064E+03  0.57006174966E+02  0.15143527764E+03  0.21304005595E+03  0.00000000000E+00 0. -1.
         22    1    3    3    0    0  0.97672972080E+02 -0.44797855500E+02  0.82010446726E+02  0.13517607297E+03  0.00000000000E+00 0.  1.
         22    1    3    3    0    0  0.14225443207E+03  0.85675842420E+02  0.11606691888E+03  0.20260356136E+03  0.00000000000E+00 0.  1.
</event>
<event>
 7    1  0.5562528E-006  0.1423607E+03  0.7818608E-02  0.1416263E+00
          2   -1    0    0  502    0  0.00000000000E+00  0.00000000000E+00  0.65431339229E+03  0.65431339229E+03  0.00000000000E+00 0. -1.
          1   -1    0    0  501    0 -0.00000000000E+00 -0.00000000000E+00 -0.10049293080E+04  0.10049293080E+04  0.00000000000E+00 0. -1.
         25    2    1    2    0    0  0.10530133435E+03 -0.10557287243E+03  0.19294660592E+03  0.27401995597E+03  0.12499816447E+03 0.  0.
          2    1    1    2  501    0 -0.11376220378E+03  0.85387625688E+02 -0.95885791647E+03  0.96935101465E+03  0.00000000000E+00 0. -1.
          1    1    1    2  502    0  0.84608694337E+01  0.20185246745E+02  0.41529539488E+03  0.41587172963E+03  0.00000000000E+00 0. -1.
         22    1    3    3    0    0  0.77408116143E+02  0.78173856966E+01  0.76945273899E+02  0.10942441747E+03  0.00000000000E+00 0. -1.
         22    1    3    3    0    0  0.27893218207E+02 -0.11339025813E+03  0.11600133202E+03  0.16459553849E+03  0.00000000000E+00 0. -1.
</event>
<event>
 7    1  0.5562528E-006  0.2185733E+03  0.7818608E-02  0.1234835E+00
          2   -1    0    0  502    0  0.00000000000E+00  0.00000000000E+00  0.12035356643E+04  0.12035356643E+04  0.00000000000E+00 0. -1.
          1   -1    0    0  501    0 -0.00000000000E+00 -0.00000000000E+00 -0.39891829508E+03  0.39891829508E+03  0.00000000000E+00 0. -1.
         25    2    1    2    0    0 -0.21836833786E+03  0.18526544631E+03 -0.10250359488E+03  0.32884127401E+03  0.12498631908E+03 0.  0.
          2    1    1    2  501    0  0.59124966601E+02 -0.40486076965E+02 -0.16511314616E+03  0.17999231966E+03  0.00000000000E+00 0. -1.
          1    1    1    2  502    0  0.15924337126E+03 -0.14477936934E+03  0.10722341102E+04  0.10936203657E+04  0.00000000000E+00 0. -1.
         22    1    3    3    0    0 -0.16713724671E+03  0.82504914553E+02 -0.20022509728E+02  0.18746418607E+03  0.00000000000E+00 0. -1.
         22    1    3    3    0    0 -0.51231091148E+02  0.10276053175E+03 -0.82481085155E+02  0.14137708794E+03  0.00000000000E+00 0. -1.
</event>
<event>
 7    1  0.5562528E-006  0.9818132E+02  0.7818608E-02  0.1445932E+00
          2   -1    0    0  502    0  0.00000000000E+00  0.00000000000E+00  0.28311554598E+03  0.28311554598E+03  0.00000000000E+00 0. -1.
          1   -1    0    0  501    0 -0.00000000000E+00 -0.00000000000E+00 -0.84762458729E+03  0.84762458729E+03  0.00000000000E+00 0. -1.
         25    2    1    2    0    0  0.93190446604E+02  0.51398766731E+02  0.69699516708E+02  0.17834703284E+03  0.12499339556E+03 0.  0.
          2    1    1    2  501    0 -0.21562365001E+02  0.13333381384E+02 -0.77842854855E+03  0.77884126742E+03  0.00000000000E+00 0. -1.
          1    1    1    2  502    0 -0.71628081602E+02 -0.64732148115E+02  0.14421999052E+03  0.17355183301E+03  0.00000000000E+00 0. -1.
         22    1    3    3    0    0 -0.20767710341E+02 -0.16206276773E+02 -0.41293595694E+01  0.26664448431E+02  0.00000000000E+00 0. -1.
         22    1    3    3    0    0  0.11395815695E+03  0.67605043504E+02  0.73828876277E+02  0.15168258441E+03  0.00000000000E+00 0. -1.
</event>
<event>
 7    1  0.5562528E-006  0.9591497E+02  0.7818608E-02  0.1352168E+00
          2   -1    0    0  502    0  0.00000000000E+00  0.00000000000E+00  0.30501653111E+03  0.30501653111E+03  0.00000000000E+00 0. -1.
          1   -1    0    0  501    0 -0.00000000000E+00 -0.00000000000E+00 -0.10062547757E+04  0.10062547757E+04  0.00000000000E+00 0. -1.
         25    2    1    2    0    0  0.79216365980E+02  0.10630433446E+03 -0.10745749144E+03  0.21153658596E+03  0.12499908227E+03 0.  0.
          2    1    1    2  501    0 -0.79043831258E+02 -0.51678162289E+02 -0.84113522675E+03  0.84642012582E+03  0.00000000000E+00 0. -1.
          1    1    1    2  502    0 -0.17253472189E+00 -0.54626172172E+02  0.24735447359E+03  0.25331459504E+03  0.00000000000E+00 0. -1.
         22    1    3    3    0    0 -0.25437704404E+02  0.10835371865E+02  0.80045416394E+01  0.28784627419E+02  0.00000000000E+00 0.  1.
         22    1    3    3    0    0  0.10465407038E+03  0.95468962596E+02 -0.11546203308E+03  0.18275195854E+03  0.00000000000E+00 0.  1.
</event>
<event>
 7    1  0.5562528E-006  0.4214986E+02  0.7818608E-02  0.1504845E+00
          2   -1    0    0  502    0  0.00000000000E+00  0.00000000000E+00  0.15702333562E+04  0.15702333562E+04  0.00000000000E+00 0. -1.
          1   -1    0    0  501    0 -0.00000000000E+00 -0.00000000000E+00 -0.29136704232E+02  0.29136704232E+02  0.00000000000E+00 0. -1.
         25    2    1    2    0    0  0.26141755866E+02 -0.61381866221E+02  0.42913508577E+03  0.45191472280E+03  0.12497547738E+03 0.  0.
          2    1    1    2  501    0 -0.33102805683E+02  0.20316538386E+02  0.43748677998E+01  0.39085763960E+02  0.00000000000E+00 0. -1.
          1    1    1    2  502    0  0.69610498166E+01  0.41065327836E+02  0.11075866984E+04  0.11083695736E+04  0.00000000000E+00 0. -1.
         22    1    3    3    0    0  0.59963497093E+02 -0.40946704869E+02  0.11995268105E+03  0.14021732887E+03  0.00000000000E+00 0. -1.
         22    1    3    3    0    0 -0.33821741227E+02 -0.20435161352E+02  0.30918240472E+03  0.31169739394E+03  0.00000000000E+00 0. -1.
</event>
<event>
 7    1  0.5562528E-006  0.2785395E+03  0.7818608E-02  0.1203630E+00
          2   -1    0    0  502    0  0.00000000000E+00  0.00000000000E+00  0.87967664645E+03  0.87967664645E+03  0.00000000000E+00 0. -1.
          1   -1    0    0  501    0 -0.00000000000E+00 -0.00000000000E+00 -0.13025354471E+04  0.13025354471E+04  0.00000000000E+00 0. -1.
         25    2    1    2    0    0 -0.18456953938E+03  0.11301221220E+03  0.74961748344E+02  0.26092216383E+03  0.12499374742E+03 0.  0.
          2    1    1    2  501    0  0.26260129822E+03 -0.11071775633E+03 -0.11905456103E+04  0.12241800169E+04  0.00000000000E+00 0. -1.
          1    1    1    2  502    0 -0.78031758843E+02 -0.22944558656E+01  0.69272506136E+03  0.69710991282E+03  0.00000000000E+00 0. -1.
         22    1    3    3    0    0 -0.65957592172E+02 -0.96249989441E+01 -0.14591672982E+02  0.68234606250E+02  0.00000000000E+00 0.  1.
         22    1    3    3    0    0 -0.11861194721E+03  0.12263721114E+03  0.89553421326E+02  0.19268755758E+03  0.00000000000E+00 0.  1.
</event>
<event>
 7    1  0.5562528E-006  0.9373690E+02  0.7818608E-02  0.1411043E+00
          2   -1    0    0  502    0  0.00000000000E+00  0.00000000000E+00  0.66828017163E+03  0.66828017163E+03  0.00000000000E+00 0. -1.
          1   -1    0    0  501    0 -0.00000000000E+00 -0.00000000000E+00 -0.47069803249E+04  0.47069803249E+04  0.00000000000E+00 0. -1.
         25    2    1    2    0    0 -0.88459875929E+02  0.41369885718E+02 -0.61849233716E+02  0.17025237098E+03  0.12499570001E+03 0.  0.
          2    1    1    2  501    0  0.93486581475E+02 -0.71225583957E+01 -0.45899626217E+04  0.45909200973E+04  0.00000000000E+00 0. -1.
          1    1    1    2  502    0 -0.50267055462E+01 -0.34247327322E+02  0.61311170209E+03  0.61408802825E+03  0.00000000000E+00 0. -1.
         22    1    3    3    0    0 -0.63592423775E+02 -0.36424157514E+02 -0.11162721804E+02  0.74130438891E+02  0.00000000000E+00 0. -1.
         22    1    3    3    0    0 -0.24867452154E+02  0.77794043232E+02 -0.50686511912E+02  0.96121932090E+02  0.00000000000E+00 0. -1.
</event>
<event>
 7    1  0.5562528E-006  0.8226847E+02  0.7818608E-02  0.1328607E+00
          2   -1    0    0  502    0  0.00000000000E+00  0.00000000000E+00  0.43943517919E+03  0.43943517919E+03  0.00000000000E+00 0. -1.
          1   -1    0    0  501    0 -0.00000000000E+00 -0.00000000000E+00 -0.19220469504E+04  0.19220469504E+04  0.00000000000E+00 0. -1.
         25    2    1    2    0    0  0.10161096305E+02  0.65429502941E+02 -0.80262529342E+03  0.81499404720E+03  0.12499467029E+03 0.  0.
          2    1    1    2  501    0 -0.84864462318E+02 -0.30969268764E+02 -0.11074759991E+04  0.11111544272E+04  0.00000000000E+00 0. -1.
          1    1    1    2  502    0  0.74703366013E+02 -0.34460234178E+02  0.42748952123E+03  0.43533365525E+03  0.00000000000E+00 0. -1.
         22    1    3    3    0    0  0.53480913799E+02  0.21463257732E+02 -0.61012978623E+03  0.61284519711E+03  0.00000000000E+00 0. -1.
         22    1    3    3    0    0 -0.43319817493E+02  0.43966245209E+02 -0.19249550720E+03  0.20214885010E+03  0.00000000000E+00 0. -1.
</event>
<event>
 7    1  0.5562528E-006  0.9110034E+02  0.7818608E-02  0.1335531E+00
          2   -1    0    0  502    0  0.00000000000E+00  0.00000000000E+00  0.18250272624E+04  0.18250272624E+04  0.00000000000E+00 0. -1.
          1   -1    0    0  501    0 -0.00000000000E+00 -0.00000000000E+00 -0.50004365132E+03  0.50004365132E+03  0.00000000000E+00 0. -1.
         25    2    1    2    0    0 -0.11595613485E+03  0.90038789471E+02  0.25968076055E+03  0.32342819248E+03  0.12497555550E+03 0.  0.
          2    1    1    2  501    0  0.33015819932E+02 -0.57579222680E+02 -0.46451569206E+03  0.46923367252E+03  0.00000000000E+00 0. -1.
          1    1    1    2  502    0  0.82940314922E+02 -0.32459566791E+02  0.15298185425E+04  0.15324090487E+04  0.00000000000E+00 0. -1.
         22    1    3    3    0    0 -0.77638039734E+02  0.40743671820E+01  0.19303660658E+03  0.20810429396E+03  0.00000000000E+00 0. -1.
         22    1    3    3    0    0 -0.38318095120E+02  0.85964422289E+02  0.66644153969E+02  0.11532389853E+03  0.00000000000E+00 0. -1.
</event>
<event>
 7    1  0.5562528E-006  0.9578801E+02  0.7818608E-02  0.1396661E+00
          2   -1    0    0  502    0  0.00000000000E+00  0.00000000000E+00  0.23065323521E+03  0.23065323521E+03  0.00000000000E+00 0. -1.
          1   -1    0    0  501    0 -0.00000000000E+00 -0.00000000000E+00 -0.52466852335E+03  0.52466852335E+03  0.00000000000E+00 0. -1.
         25    2    1    2    0    0 -0.90863450260E+02 -0.90247632550E+02  0.18999022861E+01  0.17896552907E+03  0.12499699674E+03 0.  0.
          2    1    1    2  501    0  0.55840428789E+02  0.75673388426E+02 -0.42837219781E+03  0.43857422982E+03  0.00000000000E+00 0. -1.
          1    1    1    2  502    0  0.35023021472E+02  0.14574244124E+02  0.13245700739E+03  0.13778199967E+03  0.00000000000E+00 0. -1.
         22    1    3    3    0    0 -0.68245294057E+02 -0.49543329690E+02  0.60739270551E+02  0.10392892121E+03  0.00000000000E+00 0. -1.
         22    1    3    3    0    0 -0.22618156204E+02 -0.40704302860E+02 -0.58839368265E+02  0.75036607860E+02  0.00000000000E+00 0. -1.
</event>
<event>
 7    1  0.5562528E-006  0.1911739E+03  0.7818608E-02  0.1292555E+00
          2   -1    0    0  502    0  0.00000000000E+00  0.00000000000E+00  0.70993107670E+03  0.70993107670E+03  0.00000000000E+00 0. -1.
          1   -1    0    0  501    0 -0.00000000000E+00 -0.00000000000E+00 -0.43270631451E+03  0.43270631451E+03  0.00000000000E+00 0. -1.
         25    2    1    2    0    0 -0.13502064181E+03  0.15329587696E+03  0.15285692057E+03  0.28411441738E+03  0.12500225754E+03 0.  0.
          2    1    1    2  501    0  0.44916195020E+02  0.12430835854E+02 -0.34736204670E+03  0.35047450940E+03  0.00000000000E+00 0. -1.
          1    1    1    2  502    0  0.90104446789E+02 -0.16572671281E+03  0.47172988832E+03  0.50804846443E+03  0.00000000000E+00 0. -1.
         22    1    3    3    0    0 -0.51441865425E+01 -0.21189076489E+02  0.17107559494E+02  0.27714765189E+02  0.00000000000E+00 0. -1.
         22    1    3    3    0    0 -0.12987645527E+03  0.17448495345E+03  0.13574936108E+03  0.25639965219E+03  0.00000000000E+00 0. -1.
</event>
<event>
 7    1  0.5562528E-006  0.8696655E+02  0.7818608E-02  0.1394050E+00
          2   -1    0    0  502    0  0.00000000000E+00  0.00000000000E+00  0.83625672479E+02  0.83625672479E+02  0.00000000000E+00 0. -1.
          1   -1    0    0  501    0 -0.00000000000E+00 -0.00000000000E+00 -0.35696890781E+04  0.35696890781E+04  0.00000000000E+00 0. -1.
         25    2    1    2    0    0  0.37431721852E+02 -0.73841621845E+02 -0.42285195897E+03  0.44864540443E+03  0.12500080320E+03 0.  0.
          2    1    1    2  501    0  0.35081635958E+02  0.24274661421E+02 -0.31064675035E+04  0.31067604237E+04  0.00000000000E+00 0. -1.
          1    1    1    2  502    0 -0.72513357811E+02  0.49566960424E+02  0.43256056850E+02  0.97908922376E+02  0.00000000000E+00 0. -1.
         22    1    3    3    0    0  0.79614347342E+02 -0.21633308192E+02 -0.21876137772E+03  0.23380116490E+03  0.00000000000E+00 0. -1.
         22    1    3    3    0    0 -0.42182625489E+02 -0.52208313653E+02 -0.20409058125E+03  0.21484423954E+03  0.00000000000E+00 0. -1.
</event>
<event>
 7    1  0.5562528E-006  0.5261373E+02  0.7818608E-02  0.1558580E+00
          2   -1    0    0  502    0  0.00000000000E+00  0.00000000000E+00  0.37959279100E+03  0.37959279100E+03  0.00000000000E+00 0. -1.
          1   -1    0    0  501    0 -0.00000000000E+00 -0.00000000000E+00 -0.91654228632E+02  0.91654228632E+02  0.00000000000E+00 0. -1.
         25    2    1    2    0    0 -0.58815176763E+02 -0.29919491936E+02  0.12204906718E+03  0.18674881715E+03  0.12499897956E+03 0.  0.
          2    1    1    2  501    0  0.21173735505E+02 -0.53697105750E+01 -0.54202784170E+02  0.58438879855E+02  0.00000000000E+00 0. -1.
          1    1    1    2  502    0  0.37641441258E+02  0.35289202511E+02  0.22009227936E+03  0.22605932263E+03  0.00000000000E+00 0. -1.
         22    1    3    3    0    0  0.35602224927E+02 -0.14570380067E+02  0.64542256189E+02  0.75136657025E+02  0.00000000000E+00 0.  1.
         22    1    3    3    0    0 -0.94417401690E+02 -0.15349111869E+02  0.57506810990E+02  0.11161216012E+03  0.00000000000E+00 0.  1.
</event>
<event>
 7    1  0.5562528E-006  0.2439417E+03  0.7818608E-02  0.1234779E+00
          2   -1    0    0  502    0  0.00000000000E+00  0.00000000000E+00  0.15680050647E+04  0.15680050647E+04  0.00000000000E+00 0. -1.
          1   -1    0    0  501    0 -0.00000000000E+00 -0.00000000000E+00 -0.10383593763E+04  0.10383593763E+04  0.00000000000E+00 0. -1.
         25    2    1    2    0    0  0.27507910999E+03  0.13188363415E+03  0.69741903327E+03  0.77141474770E+03  0.12500238111E+03 0.  0.
          2    1    1    2  501    0 -0.21252251703E+03 -0.11726032549E+03 -0.98537402897E+03  0.10148289418E+04  0.00000000000E+00 0. -1.
          1    1    1    2  502    0 -0.62556592968E+02 -0.14623308661E+02  0.81760068409E+03  0.82012075154E+03  0.00000000000E+00 0. -1.
         22    1    3    3    0    0  0.86157161966E+02  0.27746184318E+01  0.30707404012E+03  0.31894391542E+03  0.00000000000E+00 0.  1.
         22    1    3    3    0    0  0.18892194803E+03  0.12910901572E+03  0.39034499315E+03  0.45247083228E+03  0.00000000000E+00 0.  1.
</event>
<event>
 7    1  0.5562528E-006  0.9144041E+02  0.7818608E-02  0.1415309E+00
          2   -1    0    0  502    0  0.00000000000E+00  0.00000000000E+00  0.12393060551E+03  0.12393060551E+03  0.00000000000E+00 0. -1.
          1   -1    0    0  501    0 -0.00000000000E+00 -0.00000000000E+00 -0.55055207959E+03  0.55055207959E+03  0.00000000000E+00 0. -1.
         25    2    1    2    0    0  0.23754938821E+02  0.61928869398E+02 -0.19339914358E+03  0.23964058356E+03  0.12499959427E+03 0.  0.
          2    1    1    2  501    0  0.30995177036E+02  0.14753084027E+02 -0.31086321909E+03  0.31275277052E+03  0.00000000000E+00 0. -1.
          1    1    1    2  502    0 -0.54750115856E+02 -0.76681953424E+02  0.77640888592E+02  0.12208933102E+03  0.00000000000E+00 0. -1.
         22    1    3    3    0    0  0.18006141200E+02  0.10065167161E+03 -0.14402873814E+03  0.17663311561E+03  0.00000000000E+00 0. -1.
         22    1    3    3    0    0  0.57487976202E+01 -0.38722802208E+02 -0.49370405439E+02  0.63007467955E+02  0.00000000000E+00 0. -1.
</event>
<event>
 7    1  0.5562528E-006  0.2440402E+03  0.7818608E-02  0.1202063E+00
          2   -1    0    0  502    0  0.00000000000E+00  0.00000000000E+00  0.30095080862E+03  0.30095080862E+03  0.00000000000E+00 0. -1.
          1   -1    0    0  501    0 -0.00000000000E+00 -0.00000000000E+00 -0.19516142627E+04  0.19516142627E+04  0.00000000000E+00 0. -1.
         25    2    1    2    0    0 -0.80545756912E+02  0.19663173963E+03  0.85246776759E+01  0.24667601633E+03  0.12499890765E+03 0.  0.
          2    1    1    2  501    0  0.16955541471E+03 -0.17960675785E+03 -0.18117133586E+04  0.18284728381E+04  0.00000000000E+00 0. -1.
          1    1    1    2  502    0 -0.89009657797E+02 -0.17024981786E+02  0.15252522683E+03  0.17741621686E+03  0.00000000000E+00 0. -1.
         22    1    3    3    0    0  0.80843609478E+01 -0.37081479792E+01 -0.23640184273E+02  0.25257980241E+02  0.00000000000E+00 0. -1.
         22    1    3    3    0    0 -0.88630117860E+02  0.20033988761E+03  0.32164861949E+02  0.22141803609E+03  0.00000000000E+00 0. -1.
</event>
<event>
 7    1  0.5562528E-006  0.1647380E+03  0.7818608E-02  0.1218654E+00
          2   -1    0    0  502    0  0.00000000000E+00  0.00000000000E+00  0.22685464684E+04  0.22685464684E+04  0.00000000000E+00 0. -1.
          1   -1    0    0  501    0 -0.00000000000E+00 -0.00000000000E+00 -0.85835844148E+03  0.85835844148E+03  0.00000000000E+00 0. -1.
         25    2    1    2    0    0 -0.16805903050E+03 -0.17578940094E+03 -0.52165648062E+03  0.58898101565E+03  0.12500960687E+03 0.  0.
          2    1    1    2  501    0  0.83713487211E+02  0.10139732317E+03 -0.28728505947E+03  0.31594630949E+03  0.00000000000E+00 0. -1.
          1    1    1    2  502    0  0.84345543293E+02  0.74392077762E+02  0.22191295670E+04  0.22219775847E+04  0.00000000000E+00 0. -1.
         22    1    3    3    0    0 -0.42535218756E+02 -0.11850508980E+02 -0.24145301762E+02  0.50325689214E+02  0.00000000000E+00 0.  1.
         22    1    3    3    0    0 -0.12552381175E+03 -0.16393889196E+03 -0.49751117886E+03  0.53865532644E+03  0.00000000000E+00 0.  1.
</event>
<event>
 7    1  0.5562528E-006  0.3451936E+02  0.7818608E-02  0.1560965E+00
          2   -1    0    0  502    0  0.00000000000E+00  0.00000000000E+00  0.78793860184E+03  0.78793860184E+03  0.00000000000E+00 0. -1.
          1   -1    0    0  501    0 -0.00000000000E+00 -0.00000000000E+00 -0.47166739995E+03  0.47166739995E+03  0.00000000000E+00 0. -1.
         25    2    1    2    0    0  0.52262080093E+02 -0.41390305813E+02 -0.11975716550E+03  0.18550642604E+03  0.12500549180E+03 0.  0.
          2    1    1    2  501    0 -0.22781084496E+02  0.23590255263E+02 -0.31779869583E+03  0.31948628926E+03  0.00000000000E+00 0. -1.
          1    1    1    2  502    0 -0.29480995596E+02  0.17800050550E+02  0.75382706322E+03  0.75461328649E+03  0.00000000000E+00 0. -1.
         22    1    3    3    0    0  0.43017536645E+02 -0.39696888175E+02 -0.14617882226E+03  0.15746300983E+03  0.00000000000E+00 0. -1.
         22    1    3    3    0    0  0.92445434476E+01 -0.16934176377E+01  0.26421656753E+02  0.28043416205E+02  0.00000000000E+00 0. -1.
</event>
<event>
 7    1  0.5562528E-006  0.1509649E+03  0.7818608E-02  0.1300279E+00
          2   -1    0    0  502    0  0.00000000000E+00  0.00000000000E+00  0.12709818066E+04  0.12709818066E+04  0.00000000000E+00 0. -1.
          1   -1    0    0  501    0 -0.00000000000E+00 -0.00000000000E+00 -0.47465019874E+03  0.47465019874E+03  0.00000000000E+00 0. -1.
         25    2    1    2    0    0 -0.13497091180E+03 -0.12479004319E+02  0.99206472527E+02  0.20937869756E+03  0.12499856887E+03 0.  0.
          2    1    1    2  501    0 -0.26490186721E+01 -0.54875173797E+02 -0.41247849626E+03  0.41612115048E+03  0.00000000000E+00 0. -1.
          1    1    1    2  502    0  0.13761993047E+03  0.67354178116E+02  0.11096036316E+04  0.11201321573E+04  0.00000000000E+00 0. -1.
         22    1    3    3    0    0 -0.10174969156E+03 -0.14693063292E+02  0.12882424699E+03  0.16481678450E+03  0.00000000000E+00 0.  1.
         22    1    3    3    0    0 -0.33221220239E+02  0.22140589732E+01 -0.29617774461E+02  0.44561913057E+02  0.00000000000E+00 0.  1.
</event>
<event>
 7    1  0.5562528E-006  0.4750506E+02  0.7818608E-02  0.1500432E+00
          2   -1    0    0  502    0  0.00000000000E+00  0.00000000000E+00  0.13602782113E+03  0.13602782113E+03  0.00000000000E+00 0. -1.
          1   -1    0    0  501    0 -0.00000000000E+00 -0.00000000000E+00 -0.58970555717E+03  0.58970555717E+03  0.00000000000E+00 0. -1.
         25    2    1    2    0    0 -0.15591883784E+02 -0.38711828502E+01  0.30718728009E+02  0.12971417370E+03  0.12499613479E+03 0.  0.
          2    1    1    2  501    0  0.32925358307E+02  0.34873473355E+02 -0.53336961150E+03  0.53552159698E+03  0.00000000000E+00 0. -1.
          1    1    1    2  502    0 -0.17333474523E+02 -0.31002290505E+02  0.48973147449E+02  0.60497607611E+02  0.00000000000E+00 0. -1.
         22    1    3    3    0    0  0.50226090237E+02  0.15243195511E+02 -0.44571095564E+01  0.52677139021E+02  0.00000000000E+00 0.  1.
         22    1    3    3    0    0 -0.65817974021E+02 -0.19114378361E+02  0.35175837565E+02  0.77037034683E+02  0.00000000000E+00 0.  1.
</event>
<event>
 7    1  0.5562528E-006  0.6284829E+02  0.7818608E-02  0.1453944E+00
          2   -1    0    0  502    0  0.00000000000E+00  0.00000000000E+00  0.71722670850E+02  0.71722670850E+02  0.00000000000E+00 0. -1.
          1   -1    0    0  501    0 -0.00000000000E+00 -0.00000000000E+00 -0.22652009804E+04  0.22652009804E+04  0.00000000000E+00 0. -1.
         25    2    1    2    0    0  0.20261363857E+02  0.31794387395E+02 -0.65669838815E+02  0.14614745496E+03  0.12500057970E+03 0.  0.
          2    1    1    2  501    0  0.31321982826E+02  0.20317213430E+02 -0.21162110479E+04  0.21165403504E+04  0.00000000000E+00 0. -1.
          1    1    1    2  502    0 -0.51583346683E+02 -0.52111600825E+02 -0.11597422849E+02  0.74235845872E+02  0.00000000000E+00 0. -1.
         22    1    3    3    0    0  0.33610821530E+02  0.75137348405E+02 -0.56607973196E+02  0.99898804190E+02  0.00000000000E+00 0.  1.
         22    1    3    3    0    0 -0.13349457673E+02 -0.43342961010E+02 -0.90618656186E+01  0.46248650767E+02  0.00000000000E+00 0.  1.
</event>
<event>
 7    1  0.5562528E-006  0.8734936E+02  0.7818608E-02  0.1348960E+00
          2   -1    0    0  502    0  0.00000000000E+00  0.00000000000E+00  0.39503477386E+03  0.39503477386E+03  0.00000000000E+00 0. -1.
          1   -1    0    0  501    0 -0.00000000000E+00 -0.00000000000E+00 -0.11748376878E+04  0.11748376878E+04  0.00000000000E+00 0. -1.
         25    2    1    2    0    0  0.12800213045E+03  0.46103115253E+02 -0.59491228141E+03  0.62294105293E+03  0.12499956089E+03 0.  0.
          2    1    1    2  501    0 -0.40986986948E+02 -0.46046827906E+02 -0.55922708477E+03  0.56261458904E+03  0.00000000000E+00 0. -1.
          1    1    1    2  502    0 -0.87015143500E+02 -0.56287346200E-01  0.37433645228E+03  0.38431681965E+03  0.00000000000E+00 0. -1.
         22    1    3    3    0    0  0.49552644378E+01  0.55148817516E+02 -0.11828023392E+03  0.13059923604E+03  0.00000000000E+00 0.  1.
         22    1    3    3    0    0  0.12304686601E+03 -0.90457022631E+01 -0.47663204749E+03  0.49234181689E+03  0.00000000000E+00 0.  1.
</event>
<event>
 7    1  0.5562528E-006  0.1375830E+03  0.7818608E-02  0.1306910E+00
          2   -1    0    0  502    0  0.00000000000E+00  0.00000000000E+00  0.71540748643E+02  0.71540748643E+02  0.00000000000E+00 0. -1.
          1   -1    0    0  501    0 -0.00000000000E+00 -0.00000000000E+00 -0.79595407907E+03  0.79595407907E+03  0.00000000000E+00 0. -1.
         25    2    1    2    0    0  0.10878635074E+03  0.43221176034E+02 -0.15763236334E+03  0.23275792048E+03  0.12500298961E+03 0.  0.
          2    1    1    2  501    0 -0.10431201457E+03 -0.99772375969E+02 -0.55917044892E+03  0.57750074834E+03  0.00000000000E+00 0. -1.
          1    1    1    2  502    0 -0.44743361704E+01  0.56551199935E+02 -0.76105181731E+01  0.57236158895E+02  0.00000000000E+00 0. -1.
         22    1    3    3    0    0  0.59849998711E+02 -0.41832937870E+02 -0.71338766619E+02  0.10208445846E+03  0.00000000000E+00 0. -1.
         22    1    3    3    0    0  0.48936352026E+02  0.85054113904E+02 -0.86293596718E+02  0.13067346202E+03  0.00000000000E+00 0. -1.
</event>
<event>
 7    1  0.5562528E-006  0.7132000E+02  0.7818608E-02  0.1362547E+00
          2   -1    0    0  502    0  0.00000000000E+00  0.00000000000E+00  0.35483042508E+03  0.35483042508E+03  0.00000000000E+00 0. -1.
          1   -1    0    0  501    0 -0.00000000000E+00 -0.00000000000E+00 -0.75300601726E+02  0.75300601726E+02  0.00000000000E+00 0. -1.
         25    2    1    2    0    0  0.34492729027E+02 -0.70596447002E+02  0.21445212182E+03  0.26035972813E+03  0.12499547509E+03 0.  0.
          2    1    1    2  501    0 -0.72704953669E+02  0.15190977515E+02 -0.26045361686E+01  0.74320654562E+02  0.00000000000E+00 0. -1.
          1    1    1    2  502    0  0.38212224643E+02  0.55405469487E+02  0.67682237700E+02  0.95450644111E+02  0.00000000000E+00 0. -1.
         22    1    3    3    0    0 -0.45570604232E+02 -0.35014493144E+02  0.62098706260E+02  0.84610543193E+02  0.00000000000E+00 0.  1.
         22    1    3    3    0    0  0.80063333259E+02 -0.35581953859E+02  0.15235341556E+03  0.17574918494E+03  0.00000000000E+00 0.  1.
</event>
<event>
 7    1  0.5562528E-006  0.1018802E+03  0.7818608E-02  0.1384210E+00
          2   -1    0    0  502    0  0.00000000000E+00  0.00000000000E+00  0.48367402710E+03  0.48367402710E+03  0.00000000000E+00 0. -1.
          1   -1    0    0  501    0 -0.00000000000E+00 -0.00000000000E+00 -0.15571025413E+03  0.15571025413E+03  0.00000000000E+00 0. -1.
         25    2    1    2    0    0 -0.11940934496E+03 -0.43386282208E+02 -0.46670091986E+02  0.18424020488E+03  0.12500157783E+03 0.  0.
          2    1    1    2  501    0  0.36768494103E+02 -0.14203279559E+02 -0.22533444024E+02  0.45402768730E+02  0.00000000000E+00 0. -1.
          1    1    1    2  502    0  0.82640850853E+02  0.57589561767E+02  0.39716730897E+03  0.40974130762E+03  0.00000000000E+00 0. -1.
         22    1    3    3    0    0 -0.13306846931E+03 -0.65018724611E+02 -0.53977524001E+02  0.15763319819E+03  0.00000000000E+00 0.  1.
         22    1    3    3    0    0  0.13659124351E+02  0.21632442403E+02  0.73074320150E+01  0.26607006690E+02  0.00000000000E+00 0.  1.
</event>
<event>
 7    1  0.5562528E-006  0.6077083E+02  0.7818608E-02  0.1455697E+00
          2   -1    0    0  502    0  0.00000000000E+00  0.00000000000E+00  0.64806104010E+03  0.64806104010E+03  0.00000000000E+00 0. -1.
          1   -1    0    0  501    0 -0.00000000000E+00 -0.00000000000E+00 -0.14402783634E+04  0.14402783634E+04  0.00000000000E+00 0. -1.
         25    2    1    2    0    0 -0.58418774007E+02  0.42236462484E+02 -0.35413721542E+03  0.38240505038E+03  0.12499513307E+03 0.  0.
          2    1    1    2  501    0  0.22949380375E+02 -0.56198536779E+02 -0.10705736123E+04  0.10722932477E+04  0.00000000000E+00 0. -1.
          1    1    1    2  502    0  0.35469393632E+02  0.13962074294E+02  0.63249350442E+03  0.63364110547E+03  0.00000000000E+00 0. -1.
         22    1    3    3    0    0 -0.23736333840E+02  0.77452273702E+02 -0.29188076526E+03  0.30291360051E+03  0.00000000000E+00 0. -1.
         22    1    3    3    0    0 -0.34682440167E+02 -0.35215811218E+02 -0.62256450160E+02  0.79491449868E+02  0.00000000000E+00 0. -1.
</event>
<event>
 7    1  0.5562528E-006  0.6228035E+02  0.7818608E-02  0.1391579E+00
          2   -1    0    0  502    0  0.00000000000E+00  0.00000000000E+00  0.13714321947E+03  0.13714321947E+03  0.00000000000E+00 0. -1.
          1   -1    0    0  501    0 -0.00000000000E+00 -0.00000000000E+00 -0.68225644669E+03  0.68225644669E+03  0.00000000000E+00 0. -1.
         25    2    1    2    0    0 -0.46047741290E+02  0.46103605080E+02 -0.11901087147E+03  0.18448177529E+03  0.12499600396E+03 0.  0.
          2    1    1    2  501    0  0.58457684211E+02  0.16568551042E+02 -0.51879459687E+03  0.52234055124E+03  0.00000000000E+00 0. -1.
          1    1    1    2  502    0 -0.12409942921E+02 -0.62672156122E+02  0.92692241119E+02  0.11257733964E+03  0.00000000000E+00 0. -1.
         22    1    3    3    0    0  0.87758954416E-01 -0.19188296070E+02  0.17703519814E+02  0.26107719577E+02  0.00000000000E+00 0. -1.
         22    1    3    3    0    0 -0.46135500245E+02  0.65291901151E+02 -0.13671439128E+03  0.15837405571E+03  0.00000000000E+00 0. -1.
</event>
<event>
 7    1  0.5562528E-006  0.1966683E+03  0.7818608E-02  0.1363277E+00
          2   -1    0    0  502    0  0.00000000000E+00  0.00000000000E+00  0.14252282797E+03  0.14252282797E+03  0.00000000000E+00 0. -1.
          1   -1    0    0  501    0 -0.00000000000E+00 -0.00000000000E+00 -0.66936890171E+03  0.66936890171E+03  0.00000000000E+00 0. -1.
         25    2    1    2    0    0  0.18836196378E+03  0.90280879463E+02 -0.15334225358E+03  0.28769729821E+03  0.12500008827E+03 0.  0.
          2    1    1    2  501    0 -0.16573902856E+03 -0.99038459809E+02 -0.42525860336E+03  0.46703631747E+03  0.00000000000E+00 0. -1.
          1    1    1    2  502    0 -0.22622935214E+02  0.87575803454E+01  0.51754783201E+02  0.57158113994E+02  0.00000000000E+00 0. -1.
         22    1    3    3    0    0  0.62174912556E+02 -0.51925515501E+01 -0.10518380785E+03  0.12229601701E+03  0.00000000000E+00 0.  1.
         22    1    3    3    0    0  0.12618705122E+03  0.95473431014E+02 -0.48158445731E+02  0.16540128120E+03  0.00000000000E+00 0.  1.
</event>
<event>
 7    1  0.5562528E-006  0.1753802E+03  0.7818608E-02  0.1227163E+00
          2   -1    0    0  502    0  0.00000000000E+00  0.00000000000E+00  0.14032364619E+04  0.14032364619E+04  0.00000000000E+00 0. -1.
          1   -1    0    0  501    0 -0.00000000000E+00 -0.00000000000E+00 -0.81675419981E+02  0.81675419981E+02  0.00000000000E+00 0. -1.
         25    2    1    2    0    0  0.42983791215E+02 -0.96017265188E+02  0.50128624487E+03  0.52723861338E+03  0.12500293846E+03 0.  0.
          2    1    1    2  501    0 -0.37252691117E+02  0.19250211887E+03  0.81063972210E+02  0.21217020609E+03  0.00000000000E+00 0. -1.
          1    1    1    2  502    0 -0.57311000980E+01 -0.96484853677E+02  0.73921082488E+03  0.74550306244E+03  0.00000000000E+00 0. -1.
         22    1    3    3    0    0  0.43941242489E+02 -0.11326450132E+03  0.49360125990E+03  0.50833245403E+03  0.00000000000E+00 0. -1.
         22    1    3    3    0    0 -0.95745127369E+00  0.17247236133E+02  0.76849849670E+01  0.18906159344E+02  0.00000000000E+00 0. -1.
</event>
<event>
 7    1  0.5562528E-006  0.6699291E+02  0.7818608E-02  0.1417332E+00
          2   -1    0    0  502    0  0.00000000000E+00  0.00000000000E+00  0.76559797070E+03  0.76559797070E+03  0.00000000000E+00 0. -1.
          1   -1    0    0  501    0 -0.00000000000E+00 -0.00000000000E+00 -0.51925643722E+03  0.51925643722E+03  0.00000000000E+00 0. -1.
         25    2    1    2    0    0 -0.55941312144E+02  0.96649606311E+02  0.16487763559E+03  0.23511762976E+03  0.12500035320E+03 0.  0.
          2    1    1    2  501    0  0.39306607544E+02 -0.53626537111E+02 -0.48090486504E+03  0.48547945796E+03  0.00000000000E+00 0. -1.
          1    1    1    2  502    0  0.16634704600E+02 -0.43023069201E+02  0.56236876293E+03  0.56425732020E+03  0.00000000000E+00 0. -1.
         22    1    3    3    0    0 -0.63380300145E+02  0.46138944646E+02  0.16650366104E+03  0.18403622959E+03  0.00000000000E+00 0. -1.
         22    1    3    3    0    0  0.74389880012E+01  0.50510661666E+02 -0.16260254573E+01  0.51081400169E+02  0.00000000000E+00 0. -1.
</event>
<event>
 7    1  0.5562528E-006  0.3117723E+02  0.7818608E-02  0.1628024E+00
          2   -1    0    0  502    0  0.00000000000E+00  0.00000000000E+00  0.30860108846E+03  0.30860108846E+03  0.00000000000E+00 0. -1.
          1   -1    0    0  501    0 -0.00000000000E+00 -0.00000000000E+00 -0.98820758296E+03  0.98820758296E+03  0.00000000000E+00 0. -1.
         25    2    1    2    0    0  0.22576683117E+02  0.26838366827E+01 -0.17896854283E+03  0.21947814012E+03  0.12499602021E+03 0.  0.
          2    1    1    2  501    0 -0.17254937632E+02 -0.26272238557E+02 -0.78816346774E+03  0.78878996904E+03  0.00000000000E+00 0. -1.
          1    1    1    2  502    0 -0.53217454849E+01  0.23588401874E+02  0.28752551606E+03  0.28854056225E+03  0.00000000000E+00 0. -1.
         22    1    3    3    0    0  0.44142255687E+02  0.37359037504E+02 -0.30265753709E+02  0.65270607994E+02  0.00000000000E+00 0. -1.
         22    1    3    3    0    0 -0.21565572571E+02 -0.34675200822E+02 -0.14870278912E+03  0.15420753212E+03  0.00000000000E+00 0. -1.
</event>
<event>
 7    1  0.5562528E-006  0.7146209E+02  0.7818608E-02  0.1406561E+00
          2   -1    0    0  502    0  0.00000000000E+00  0.00000000000E+00  0.15526660385E+04  0.15526660385E+04  0.00000000000E+00 0. -1.
          1   -1    0    0  501    0 -0.00000000000E+00 -0.00000000000E+00 -0.36568371664E+03  0.36568371664E+03  0.00000000000E+00 0. -1.
         25    2    1    2    0    0 -0.96650562969E+02  0.34488050011E+02  0.98722831660E+03  0.10003875961E+04  0.12499934563E+03 0.  0.
          2    1    1    2  501    0  0.46718488237E+02  0.53395087568E+01 -0.35572688720E+03  0.35882132848E+03  0.00000000000E+00 0. -1.
          1    1    1    2  502    0  0.49932074732E+02 -0.39827558768E+02  0.55548089246E+03  0.55914083057E+03  0.00000000000E+00 0. -1.
         22    1    3    3    0    0 -0.11544726367E+03 -0.55115538742E+01  0.63932759692E+03  0.64969086810E+03  0.00000000000E+00 0. -1.
         22    1    3    3    0    0  0.18796700705E+02  0.39999603885E+02  0.34790071968E+03  0.35069672799E+03  0.00000000000E+00 0. -1.
</event>
<event>
 7    1  0.5562528E-006  0.1068238E+03  0.7818608E-02  0.1324043E+00
          2   -1    0    0  502    0  0.00000000000E+00  0.00000000000E+00  0.25789099345E+04  0.25789099345E+04  0.00000000000E+00 0. -1.
          1   -1    0    0  501    0 -0.00000000000E+00 -0.00000000000E+00 -0.20513009517E+04  0.20513009517E+04  0.00000000000E+00 0. -1.
         25    2    1    2    0    0 -0.72132210203E+02 -0.11679204012E+03  0.35216986413E+03  0.39811143048E+03  0.12500264594E+03 0.  0.
          2    1    1    2  501    0  0.90350798110E+02  0.56875870900E+02 -0.20264798058E+04  0.20292901554E+04  0.00000000000E+00 0. -1.
          1    1    1    2  502    0 -0.18218587907E+02  0.59916169223E+02  0.22019189244E+04  0.22028093004E+04  0.00000000000E+00 0. -1.
         22    1    3    3    0    0  0.24359949554E+02  0.85422472103E+01  0.33003363532E+02  0.41899870335E+02  0.00000000000E+00 0.  1.
         22    1    3    3    0    0 -0.96492159758E+02 -0.12533428733E+03  0.31916650060E+03  0.35621156015E+03  0.00000000000E+00 0.  1.
</event>
<event>
 7    1  0.5562528E-006  0.7979564E+02  0.7818608E-02  0.1503807E+00
          2   -1    0    0  502    0  0.00000000000E+00  0.00000000000E+00  0.32409794191E+04  0.32409794191E+04  0.00000000000E+00 0. -1.
          1   -1    0    0  501    0 -0.00000000000E+00 -0.00000000000E+00 -0.76994157926E+03  0.76994157926E+03  0.00000000000E+00 0. -1.
         25    2    1    2    0    0 -0.49712311108E+02 -0.33109477962E+02 -0.37043926147E+03  0.39549662557E+03  0.12499913199E+03 0.  0.
          2    1    1    2  501    0 -0.19646838451E+02 -0.63976059304E+01 -0.38620404267E+03  0.38675637059E+03  0.00000000000E+00 0. -1.
          1    1    1    2  502    0  0.69359149559E+02  0.39507083892E+02  0.32276811439E+04  0.32286680022E+04  0.00000000000E+00 0. -1.
         22    1    3    3    0    0 -0.81356457584E+02  0.12621796798E+02 -0.20282873812E+03  0.21890107344E+03  0.00000000000E+00 0.  1.
         22    1    3    3    0    0  0.31644146476E+02 -0.45731274760E+02 -0.16761052335E+03  0.17659555213E+03  0.00000000000E+00 0.  1.
</event>
<event>
 7    1  0.5562528E-006  0.7496931E+02  0.7818608E-02  0.1432883E+00
          2   -1    0    0  502    0  0.00000000000E+00  0.00000000000E+00  0.60791776485E+03  0.60791776485E+03  0.00000000000E+00 0. -1.
          1   -1    0    0  501    0 -0.00000000000E+00 -0.00000000000E+00 -0.17162401644E+03  0.17162401644E+03  0.00000000000E+00 0. -1.
         25    2    1    2    0    0  0.42797534349E+01 -0.41471507199E+02  0.87429628832E+02  0.15813623578E+03  0.12499970747E+03 0.  0.
          2    1    1    2  501    0 -0.31823393110E+01 -0.36466403446E+02 -0.13060722683E+03  0.13563986717E+03  0.00000000000E+00 0. -1.
          1    1    1    2  502    0 -0.10974141239E+01  0.77937910644E+02  0.47947134641E+03  0.48576567835E+03  0.00000000000E+00 0. -1.
         22    1    3    3    0    0  0.54582310950E+02  0.13867066603E+02  0.45495249813E+02  0.72397112928E+02  0.00000000000E+00 0. -1.
         22    1    3    3    0    0 -0.50302557515E+02 -0.55338573801E+02  0.41934379019E+02  0.85739122847E+02  0.00000000000E+00 0. -1.
</event>
<event>
 7    1  0.5562528E-006  0.1177828E+03  0.7818608E-02  0.1301481E+00
          2   -1    0    0  502    0  0.00000000000E+00  0.00000000000E+00  0.26434505187E+03  0.26434505187E+03  0.00000000000E+00 0. -1.
          1   -1    0    0  501    0 -0.00000000000E+00 -0.00000000000E+00 -0.76475499877E+03  0.76475499877E+03  0.00000000000E+00 0. -1.
         25    2    1    2    0    0  0.14944588113E+03  0.25584542880E+02 -0.16762535327E+03  0.25828634250E+03  0.12499974176E+03 0.  0.
          2    1    1    2  501    0 -0.11043492878E+03  0.32105731109E+02 -0.54005056740E+03  0.55216054442E+03  0.00000000000E+00 0. -1.
          1    1    1    2  502    0 -0.39010952352E+02 -0.57690273988E+02  0.20726597378E+03  0.21865316372E+03  0.00000000000E+00 0. -1.
         22    1    3    3    0    0  0.60202062011E+02  0.22347977730E+02 -0.15540698510E+03  0.16815187004E+03  0.00000000000E+00 0.  1.
         22    1    3    3    0    0  0.89243819117E+02  0.32365651499E+01 -0.12218368171E+02  0.90134472458E+02  0.00000000000E+00 0.  1.
</event>
<event>
 7    1  0.5562528E-006  0.3638332E+03  0.7818608E-02  0.1263371E+00
          2   -1    0    0  502    0  0.00000000000E+00  0.00000000000E+00  0.19307119674E+04  0.19307119674E+04  0.00000000000E+00 0. -1.
          1   -1    0    0  501    0 -0.00000000000E+00 -0.00000000000E+00 -0.25384019011E+03  0.25384019011E+03  0.00000000000E+00 0. -1.
         25    2    1    2    0    0  0.17524262421E+03 -0.29172521130E+03  0.14418529336E+04  0.14867339193E+04  0.12499715366E+03 0.  0.
          2    1    1    2  501    0 -0.17105744333E+03  0.32381019158E+03 -0.85178007563E+02  0.37599066752E+03  0.00000000000E+00 0. -1.
          1    1    1    2  502    0 -0.41851808811E+01 -0.32084980284E+02  0.32019685126E+03  0.32182757068E+03  0.00000000000E+00 0. -1.
         22    1    3    3    0    0  0.75178777738E+02 -0.67468016079E+02  0.24608088476E+03  0.26600673612E+03  0.00000000000E+00 0.  1.
         22    1    3    3    0    0  0.10006384648E+03 -0.22425719522E+03  0.11957720488E+04  0.12207271831E+04  0.00000000000E+00 0.  1.
</event>
<event>
 7    1  0.5562528E-006  0.2083531E+03  0.7818608E-02  0.1328625E+00
          2   -1    0    0  502    0  0.00000000000E+00  0.00000000000E+00  0.27353697468E+02  0.27353697468E+02  0.00000000000E+00 0. -1.
          1   -1    0    0  501    0 -0.00000000000E+00 -0.00000000000E+00 -0.36773962186E+04  0.36773962186E+04  0.00000000000E+00 0. -1.
         25    2    1    2    0    0  0.86471479228E+02  0.19808417107E+03 -0.74536052079E+03  0.78606751064E+03  0.12500067912E+03 0.  0.
          2    1    1    2  501    0  0.10606997170E+02 -0.28950811880E+02 -0.15223621757E+04  0.15226743749E+04  0.00000000000E+00 0. -1.
          1    1    1    2  502    0 -0.97078476398E+02 -0.16913335919E+03 -0.13823198246E+04  0.13960080305E+04  0.00000000000E+00 0. -1.
         22    1    3    3    0    0  0.15191263335E+02  0.15330707560E+03 -0.35927890317E+03  0.39091580190E+03  0.00000000000E+00 0. -1.
         22    1    3    3    0    0  0.71280215894E+02  0.44777095470E+02 -0.38608161761E+03  0.39515170873E+03  0.00000000000E+00 0. -1.
</event>
<event>
 7    1  0.5562528E-006  0.5593216E+02  0.7818608E-02  0.1532650E+00
          2   -1    0    0  502    0  0.00000000000E+00  0.00000000000E+00  0.57830723677E+02  0.57830723677E+02  0.00000000000E+00 0. -1.
          1   -1    0    0  501    0 -0.00000000000E+00 -0.00000000000E+00 -0.96004902634E+03  0.96004902634E+03  0.00000000000E+00 0. -1.
         25    2    1    2    0    0  0.31133525657E+02 -0.22850879974E+02 -0.45496623510E+03  0.47340407251E+03  0.12500272657E+03 0.  0.
          2    1    1    2  501    0  0.24571084288E+00 -0.24294315191E+02 -0.47895624012E+03  0.47957205306E+03  0.00000000000E+00 0. -1.
          1    1    1    2  502    0 -0.31379236500E+02  0.47145195165E+02  0.31704172553E+02  0.64903624458E+02  0.00000000000E+00 0. -1.
         22    1    3    3    0    0 -0.43419975965E+02  0.10183298673E+02 -0.22579832776E+03  0.23016054985E+03  0.00000000000E+00 0. -1.
         22    1    3    3    0    0  0.74553501622E+02 -0.33034178647E+02 -0.22916790734E+03  0.24324352266E+03  0.00000000000E+00 0. -1.
</event>
<event>
 7    1  0.5562528E-006  0.9199051E+02  0.7818608E-02  0.1329460E+00
          2   -1    0    0  502    0  0.00000000000E+00  0.00000000000E+00  0.16608194617E+04  0.16608194617E+04  0.00000000000E+00 0. -1.
          1   -1    0    0  501    0 -0.00000000000E+00 -0.00000000000E+00 -0.20218418495E+03  0.20218418495E+03  0.00000000000E+00 0. -1.
         25    2    1    2    0    0  0.40585728082E+02  0.14102894127E+03  0.16283684571E+03  0.25234320816E+03  0.12499957113E+03 0.  0.
          2    1    1    2  501    0  0.51778919792E+01 -0.88958624654E+02 -0.14392045100E+03  0.16927357644E+03  0.00000000000E+00 0. -1.
          1    1    1    2  502    0 -0.45763620062E+02 -0.52070316620E+02  0.14397188820E+04  0.14413868620E+04  0.00000000000E+00 0. -1.
         22    1    3    3    0    0  0.85630151566E+02  0.99256057181E+02  0.11680157051E+03  0.17557589418E+03  0.00000000000E+00 0. -1.
         22    1    3    3    0    0 -0.45044423484E+02  0.41772884092E+02  0.46035275207E+02  0.76767313981E+02  0.00000000000E+00 0. -1.
</event>
<event>
 7    1  0.5562528E-006  0.6095412E+02  0.7818608E-02  0.1410802E+00
          2   -1    0    0  502    0  0.00000000000E+00  0.00000000000E+00  0.18224543407E+03  0.18224543407E+03  0.00000000000E+00 0. -1.
          1   -1    0    0  501    0 -0.00000000000E+00 -0.00000000000E+00 -0.10964810011E+04  0.10964810011E+04  0.00000000000E+00 0. -1.
         25    2    1    2    0    0  0.58814031385E+01  0.90368985478E+02 -0.25023550336E+03  0.29401091389E+03  0.12499386346E+03 0.  0.
          2    1    1    2  501    0  0.30853544946E+02 -0.51707296292E+02 -0.81878738404E+03  0.82099839585E+03  0.00000000000E+00 0. -1.
          1    1    1    2  502    0 -0.36734948085E+02 -0.38661689186E+02  0.15478732035E+03  0.16371712544E+03  0.00000000000E+00 0. -1.
         22    1    3    3    0    0 -0.25229624934E+02  0.11228011389E+03 -0.20304734815E+03  0.23339148129E+03  0.00000000000E+00 0. -1.
         22    1    3    3    0    0  0.31111028073E+02 -0.21911128410E+02 -0.47188155210E+02  0.60619432594E+02  0.00000000000E+00 0. -1.
</event>
<event>
 7    1  0.5562528E-006  0.9550379E+02  0.7818608E-02  0.1315190E+00
          2   -1    0    0  502    0  0.00000000000E+00  0.00000000000E+00  0.14622792219E+04  0.14622792219E+04  0.00000000000E+00 0. -1.
          1   -1    0    0  501    0 -0.00000000000E+00 -0.00000000000E+00 -0.13653698126E+03  0.13653698126E+03  0.00000000000E+00 0. -1.
         25    2    1    2    0    0 -0.16724327153E+02  0.28778212904E+02  0.25826491408E+03  0.28884952505E+03  0.12500157447E+03 0.  0.
          2    1    1    2  501    0  0.26101056708E+01  0.75771998593E+02 -0.10679161826E+03  0.13096815702E+03  0.00000000000E+00 0. -1.
          1    1    1    2  502    0  0.14114221482E+02 -0.10455021150E+03  0.11742689449E+04  0.11789985211E+04  0.00000000000E+00 0. -1.
         22    1    3    3    0    0  0.30440915251E+02  0.32032788805E+02  0.22905002134E+03  0.23327379012E+03  0.00000000000E+00 0. -1.
         22    1    3    3    0    0 -0.47165242403E+02 -0.32545759009E+01  0.29214892739E+02  0.55575734930E+02  0.00000000000E+00 0. -1.
</event>
<event>
 7    1  0.5562528E-006  0.1088256E+03  0.7818608E-02  0.1402966E+00
          2   -1    0    0  502    0  0.00000000000E+00  0.00000000000E+00  0.20899982846E+04  0.20899982846E+04  0.00000000000E+00 0. -1.
          1   -1    0    0  501    0 -0.00000000000E+00 -0.00000000000E+00 -0.59408753307E+03  0.59408753307E+03  0.00000000000E+00 0. -1.
         25    2    1    2    0    0 -0.44801353707E+02 -0.68674118064E+02  0.42491395979E+03  0.45044506961E+03  0.12500236690E+03 0.  0.
          2    1    1    2  501    0  0.74593409517E+02  0.79689827579E+02 -0.57604355799E+03  0.58629414637E+03  0.00000000000E+00 0. -1.
          1    1    1    2  502    0 -0.29792055810E+02 -0.11015709515E+02  0.16470403497E+04  0.16473466017E+04  0.00000000000E+00 0. -1.
         22    1    3    3    0    0 -0.19790844290E+02 -0.10364033845E+03  0.27719150404E+03  0.29659421300E+03  0.00000000000E+00 0.  1.
         22    1    3    3    0    0 -0.25010509417E+02  0.34966220385E+02  0.14772245574E+03  0.15385085661E+03  0.00000000000E+00 0.  1.
</event>
<event>
 7    1  0.5562528E-006  0.1107504E+03  0.7818608E-02  0.1378924E+00
          2   -1    0    0  502    0  0.00000000000E+00  0.00000000000E+00  0.85283352290E+03  0.85283352290E+03  0.00000000000E+00 0. -1.
          1   -1    0    0  501    0 -0.00000000000E+00 -0.00000000000E+00 -0.12727936423E+03  0.12727936423E+03  0.00000000000E+00 0. -1.
         25    2    1    2    0    0  0.12072770654E+03  0.77563717055E+02  0.17116983681E+03  0.25596990816E+03  0.12502068437E+03 0.  0.
          2    1    1    2  501    0 -0.88205371820E+02 -0.58195188996E+02 -0.51167336236E+02  0.11740938607E+03  0.00000000000E+00 0. -1.
          1    1    1    2  502    0 -0.32522334721E+02 -0.19368528059E+02  0.60555165810E+03  0.60673359291E+03  0.00000000000E+00 0. -1.
         22    1    3    3    0    0  0.29639886469E+02 -0.62004570455E+01 -0.13916191009E+02  0.33326099527E+02  0.00000000000E+00 0.  1.
         22    1    3    3    0    0  0.91087820071E+02  0.83764174100E+02  0.18508602782E+03  0.22264380863E+03  0.00000000000E+00 0.  1.
</event>
<event>
 7    1  0.5562528E-006  0.1082883E+03  0.7818608E-02  0.1413699E+00
          2   -1    0    0  502    0  0.00000000000E+00  0.00000000000E+00  0.18434923559E+04  0.18434923559E+04  0.00000000000E+00 0. -1.
          1   -1    0    0  501    0 -0.00000000000E+00 -0.00000000000E+00 -0.37089852084E+03  0.37089852084E+03  0.00000000000E+00 0. -1.
         25    2    1    2    0    0 -0.55854327055E+02  0.69785324144E+02  0.17551650430E+02  0.15467301935E+03  0.12500394060E+03 0.  0.
          2    1    1    2  501    0  0.83939522324E+01  0.28124618627E+02 -0.29993667054E+03  0.30136930657E+03  0.00000000000E+00 0. -1.
          1    1    1    2  502    0  0.47460374823E+02 -0.97909942771E+02  0.17549788552E+04  0.17583485509E+04  0.00000000000E+00 0. -1.
         22    1    3    3    0    0  0.24915930297E+02  0.58418264104E+02  0.33131283792E+02  0.71632249226E+02  0.00000000000E+00 0.  1.
         22    1    3    3    0    0 -0.80770257352E+02  0.11367060040E+02 -0.15579633362E+02  0.83040770121E+02  0.00000000000E+00 0.  1.
</event>
<event>
 7    1  0.5562528E-006  0.9437394E+02  0.7818608E-02  0.1461667E+00
          2   -1    0    0  502    0  0.00000000000E+00  0.00000000000E+00  0.35710814965E+03  0.35710814965E+03  0.00000000000E+00 0. -1.
          1   -1    0    0  501    0 -0.00000000000E+00 -0.00000000000E+00 -0.53722431306E+03  0.53722431306E+03  0.00000000000E+00 0. -1.
         25    2    1    2    0    0 -0.99219850433E+02 -0.12291566515E+02 -0.45733597454E+00  0.16006431811E+03  0.12499886179E+03 0.  0.
          2    1    1    2  501    0  0.88201263628E+02  0.33050855865E+02 -0.45159756330E+03  0.46131570660E+03  0.00000000000E+00 0. -1.
          1    1    1    2  502    0  0.11018586805E+02 -0.20759289349E+02  0.27193873586E+03  0.27295243800E+03  0.00000000000E+00 0. -1.
         22    1    3    3    0    0 -0.41605467628E+02  0.52760565925E+02  0.21295510010E+02  0.70485395649E+02  0.00000000000E+00 0.  1.
         22    1    3    3    0    0 -0.57614382804E+02 -0.65052132440E+02 -0.21752845984E+02  0.89578922461E+02  0.00000000000E+00 0.  1.
</event>
<event>
 7    1  0.5562528E-006  0.8692627E+02  0.7818608E-02  0.1434935E+00
          2   -1    0    0  502    0  0.00000000000E+00  0.00000000000E+00  0.11268995416E+04  0.11268995416E+04  0.00000000000E+00 0. -1.
          1   -1    0    0  501    0 -0.00000000000E+00 -0.00000000000E+00 -0.17108019858E+03  0.17108019858E+03  0.00000000000E+00 0. -1.
         25    2    1    2    0    0 -0.27604342471E+02  0.86112755944E+02 -0.56831505800E+02  0.16440905470E+03  0.12499244280E+03 0.  0.
          2    1    1    2  501    0 -0.25734532796E+02 -0.17436608317E+02 -0.54575548036E+02  0.62807578613E+02  0.00000000000E+00 0. -1.
          1    1    1    2  502    0  0.53338875267E+02 -0.68676147627E+02  0.10672263969E+04  0.10707631069E+04  0.00000000000E+00 0. -1.
         22    1    3    3    0    0 -0.35123162444E+02 -0.97485601560E+01 -0.57700170369E+02  0.68249400186E+02  0.00000000000E+00 0. -1.
         22    1    3    3    0    0  0.75188199734E+01  0.95861316100E+02  0.86866456909E+00  0.96159654514E+02  0.00000000000E+00 0. -1.
</event>
<event>
 7    1  0.5562528E-006  0.7016396E+02  0.7818608E-02  0.1491373E+00
          2   -1    0    0  502    0  0.00000000000E+00  0.00000000000E+00  0.16894259314E+04  0.16894259314E+04  0.00000000000E+00 0. -1.
          1   -1    0    0  501    0 -0.00000000000E+00 -0.00000000000E+00 -0.17896861375E+04  0.17896861375E+04  0.00000000000E+00 0. -1.
         25    2    1    2    0    0  0.49657881860E+02 -0.78885399132E+02 -0.99051220685E+02  0.18472857323E+03  0.12499876008E+03 0.  0.
          2    1    1    2  501    0 -0.29337105874E+02  0.63312588771E+02 -0.16469578987E+04  0.16484354612E+04  0.00000000000E+00 0. -1.
          1    1    1    2  502    0 -0.20320775986E+02  0.15572810361E+02  0.16457489133E+04  0.16459480344E+04  0.00000000000E+00 0. -1.
         22    1    3    3    0    0  0.83142269015E+01  0.20277903631E+02  0.16134980338E+02  0.27215020396E+02  0.00000000000E+00 0.  1.
         22    1    3    3    0    0  0.41343654958E+02 -0.99163302763E+02 -0.11518620102E+03  0.15751355283E+03  0.00000000000E+00 0.  1.
</event>
<event>
 7    1  0.5562528E-006  0.7824196E+02  0.7818608E-02  0.1414441E+00
          2   -1    0    0  502    0  0.00000000000E+00  0.00000000000E+00  0.26240117941E+03  0.26240117941E+03  0.00000000000E+00 0. -1.
          1   -1    0    0  501    0 -0.00000000000E+00 -0.00000000000E+00 -0.13707638353E+03  0.13707638353E+03  0.00000000000E+00 0. -1.
         25    2    1    2    0    0  0.10319706886E+03 -0.25321929635E+02  0.27281383125E+02  0.16631264971E+03  0.12499915379E+03 0.  0.
          2    1    1    2  501    0 -0.38358526500E+02 -0.12643286599E+02 -0.51713444121E+02  0.65616381751E+02  0.00000000000E+00 0. -1.
          1    1    1    2  502    0 -0.64838542355E+02  0.37965216234E+02  0.14975685687E+03  0.16754853147E+03  0.00000000000E+00 0. -1.
         22    1    3    3    0    0  0.74949385892E+02  0.45299808770E+02  0.86450099084E+01  0.88001246107E+02  0.00000000000E+00 0. -1.
         22    1    3    3    0    0  0.28247682964E+02 -0.70621738405E+02  0.18636373217E+02  0.78311403606E+02  0.00000000000E+00 0. -1.
</event>
<event>
 7    1  0.5562528E-006  0.6889809E+02  0.7818608E-02  0.1449849E+00
          2   -1    0    0  502    0  0.00000000000E+00  0.00000000000E+00  0.18905957465E+04  0.18905957465E+04  0.00000000000E+00 0. -1.
          1   -1    0    0  501    0 -0.00000000000E+00 -0.00000000000E+00 -0.40814808036E+03  0.40814808036E+03  0.00000000000E+00 0. -1.
         25    2    1    2    0    0  0.46247947321E+02 -0.34927002505E+01  0.27840499491E+03  0.30868461187E+03  0.12500310728E+03 0.  0.
          2    1    1    2  501    0 -0.58953039042E+02  0.36208782947E+02 -0.38976878120E+03  0.39586138934E+03  0.00000000000E+00 0. -1.
          1    1    1    2  502    0  0.12705091721E+02 -0.32716082697E+02  0.15938114524E+04  0.15941978256E+04  0.00000000000E+00 0. -1.
         22    1    3    3    0    0 -0.35414855088E+02 -0.16522435706E+02  0.15700204500E+03  0.16179259864E+03  0.00000000000E+00 0.  1.
         22    1    3    3    0    0  0.81662802409E+02  0.13029735455E+02  0.12140294991E+03  0.14689201323E+03  0.00000000000E+00 0.  1.
</event>
<event>
 7    1  0.5562528E-006  0.7479448E+02  0.7818608E-02  0.1407482E+00
          2   -1    0    0  502    0  0.00000000000E+00  0.00000000000E+00  0.29287591854E+03  0.29287591854E+03  0.00000000000E+00 0. -1.
          1   -1    0    0  501    0 -0.00000000000E+00 -0.00000000000E+00 -0.12391142630E+03  0.12391142630E+03  0.00000000000E+00 0. -1.
         25    2    1    2    0    0 -0.17760220967E+02 -0.42434611604E+02  0.92908877566E+02  0.16238971662E+03  0.12498895480E+03 0.  0.
          2    1    1    2  501    0  0.13678536553E+02 -0.42455334925E+02 -0.71409254661E+02  0.84195246167E+02  0.00000000000E+00 0. -1.
          1    1    1    2  502    0  0.40816844147E+01  0.84889946530E+02  0.14746486934E+03  0.17020238206E+03  0.00000000000E+00 0. -1.
         22    1    3    3    0    0 -0.39028048651E+02 -0.23393578901E+02 -0.17197093750E+02  0.48643480023E+02  0.00000000000E+00 0.  1.
         22    1    3    3    0    0  0.21267827683E+02 -0.19041032704E+02  0.11010597132E+03  0.11374623660E+03  0.00000000000E+00 0.  1.
</event>
<event>
 7    1  0.5562528E-006  0.1315816E+03  0.7818608E-02  0.1313866E+00
          2   -1    0    0  502    0  0.00000000000E+00  0.00000000000E+00  0.44166096272E+04  0.44166096272E+04  0.00000000000E+00 0. -1.
          1   -1    0    0  501    0 -0.00000000000E+00 -0.00000000000E+00 -0.36626932778E+03  0.36626932778E+03  0.00000000000E+00 0. -1.
         25    2    1    2    0    0  0.12270522970E+02  0.15151982882E+03  0.68242752553E+03  0.71024060718E+03  0.12500227289E+03 0.  0.
          2    1    1    2  501    0 -0.57025171383E+02 -0.11837856880E+03 -0.33989671651E+03  0.36441066617E+03  0.00000000000E+00 0. -1.
          1    1    1    2  502    0  0.44754648413E+02 -0.33141260021E+02  0.37078094904E+04  0.37082276816E+04  0.00000000000E+00 0. -1.
         22    1    3    3    0    0 -0.48474644504E+02  0.10117878406E+03  0.48107110110E+03  0.49398010266E+03  0.00000000000E+00 0. -1.
         22    1    3    3    0    0  0.60745167474E+02  0.50341044755E+02  0.20135642442E+03  0.21626050452E+03  0.00000000000E+00 0. -1.
</event>
<event>
 7    1  0.5562528E-006  0.5368776E+02  0.7818608E-02  0.1497463E+00
          2   -1    0    0  502    0  0.00000000000E+00  0.00000000000E+00  0.17452000713E+03  0.17452000713E+03  0.00000000000E+00 0. -1.
          1   -1    0    0  501    0 -0.00000000000E+00 -0.00000000000E+00 -0.55193108890E+03  0.55193108890E+03  0.00000000000E+00 0. -1.
         25    2    1    2    0    0 -0.19859912555E+02 -0.57534569641E+02 -0.67551027099E+02  0.15457136777E+03  0.12499809455E+03 0.  0.
          2    1    1    2  501    0 -0.21789403810E+02  0.23540728636E+02 -0.43473867932E+03  0.43592047821E+03  0.00000000000E+00 0. -1.
          1    1    1    2  502    0  0.41649316365E+02  0.33993841005E+02  0.12487862466E+03  0.13595925006E+03  0.00000000000E+00 0. -1.
         22    1    3    3    0    0 -0.55079115876E+02  0.16042244902E+02 -0.30635763854E+02  0.65035472275E+02  0.00000000000E+00 0. -1.
         22    1    3    3    0    0  0.35219203321E+02 -0.73576814543E+02 -0.36915263245E+02  0.89535895491E+02  0.00000000000E+00 0. -1.
</event>
<event>
 7    1  0.5562528E-006  0.8898760E+02  0.7818608E-02  0.1394638E+00
          2   -1    0    0  502    0  0.00000000000E+00  0.00000000000E+00  0.37673359332E+03  0.37673359332E+03  0.00000000000E+00 0. -1.
          1   -1    0    0  501    0 -0.00000000000E+00 -0.00000000000E+00 -0.20851095123E+03  0.20851095123E+03  0.00000000000E+00 0. -1.
         25    2    1    2    0    0  0.80533856180E+02 -0.21396310137E+02  0.23423258687E+03  0.27826895006E+03  0.12500079894E+03 0.  0.
          2    1    1    2  501    0 -0.66246779611E+02  0.60356312046E+02 -0.17156227281E+03  0.19355912188E+03  0.00000000000E+00 0. -1.
          1    1    1    2  502    0 -0.14287076569E+02 -0.38960001909E+02  0.10555232803E+03  0.11341647261E+03  0.00000000000E+00 0. -1.
         22    1    3    3    0    0  0.18732611588E+01 -0.52468470572E+01  0.18285142533E+03  0.18293627923E+03  0.00000000000E+00 0. -1.
         22    1    3    3    0    0  0.78660595021E+02 -0.16149463079E+02  0.51381161537E+02  0.95332670831E+02  0.00000000000E+00 0. -1.
</event>
<event>
 7    1  0.5562528E-006  0.1211841E+03  0.7818608E-02  0.1254651E+00
          2   -1    0    0  502    0  0.00000000000E+00  0.00000000000E+00  0.55431647959E+02  0.55431647959E+02  0.00000000000E+00 0. -1.
          1   -1    0    0  501    0 -0.00000000000E+00 -0.00000000000E+00 -0.29634507415E+04  0.29634507415E+04  0.00000000000E+00 0. -1.
         25    2    1    2    0    0  0.53270801176E+02  0.80532675195E+01 -0.12142919977E+04  0.12218970643E+04  0.12499898656E+03 0.  0.
          2    1    1    2  501    0 -0.13935403349E+03 -0.93348484558E+02 -0.16637037156E+04  0.16721374165E+04  0.00000000000E+00 0. -1.
          1    1    1    2  502    0  0.86083232315E+02  0.85295217039E+02 -0.30023380159E+02  0.12484790864E+03  0.00000000000E+00 0. -1.
         22    1    3    3    0    0 -0.41247556535E+02  0.53294322395E+00 -0.35349732073E+03  0.35589605324E+03  0.00000000000E+00 0. -1.
         22    1    3    3    0    0  0.94518357711E+02  0.75203242955E+01 -0.86079467700E+03  0.86600101107E+03  0.00000000000E+00 0. -1.
</event>
<event>
 7    1  0.5562528E-006  0.4075387E+02  0.7818608E-02  0.1561002E+00
          2   -1    0    0  502    0  0.00000000000E+00  0.00000000000E+00  0.13970208555E+04  0.13970208555E+04  0.00000000000E+00 0. -1.
          1   -1    0    0  501    0 -0.00000000000E+00 -0.00000000000E+00 -0.14827778912E+02  0.14827778912E+02  0.00000000000E+00 0. -1.
         25    2    1    2    0    0 -0.31675870250E+02 -0.36178966734E+02  0.44920397590E+03  0.46874470430E+03  0.12500042983E+03 0.  0.
          2    1    1    2  501    0 -0.79866160665E+01  0.26597818732E+02  0.37386471287E+02  0.46572290397E+02  0.00000000000E+00 0. -1.
          1    1    1    2  502    0  0.39662486316E+02  0.95811480013E+01  0.89560262943E+03  0.89653163974E+03  0.00000000000E+00 0. -1.
         22    1    3    3    0    0 -0.64729638638E+02 -0.59631042481E+02  0.23946698823E+03  0.25512786166E+03  0.00000000000E+00 0.  1.
         22    1    3    3    0    0  0.33053768389E+02  0.23452075747E+02  0.20973698766E+03  0.21361684263E+03  0.00000000000E+00 0.  1.
</event>
<event>
 7    1  0.5562528E-006  0.1873804E+03  0.7818608E-02  0.1284936E+00
          2   -1    0    0  502    0  0.00000000000E+00  0.00000000000E+00  0.22918829616E+03  0.22918829616E+03  0.00000000000E+00 0. -1.
          1   -1    0    0  501    0 -0.00000000000E+00 -0.00000000000E+00 -0.12724520942E+04  0.12724520942E+04  0.00000000000E+00 0. -1.
         25    2    1    2    0    0  0.20986880258E+03 -0.94668479176E+02 -0.25513909938E+03  0.36568672345E+03  0.12499513763E+03 0.  0.
          2    1    1    2  501    0 -0.40458699119E+02  0.31167204603E+02 -0.91408058761E+03  0.91550621059E+03  0.00000000000E+00 0. -1.
          1    1    1    2  502    0 -0.16941010346E+03  0.63501274573E+02  0.12595588896E+03  0.22044745631E+03  0.00000000000E+00 0. -1.
         22    1    3    3    0    0  0.19916447400E+03 -0.11275536749E+03 -0.19069069956E+03  0.29789797499E+03  0.00000000000E+00 0. -1.
         22    1    3    3    0    0  0.10704328579E+02  0.18086888318E+02 -0.64448399818E+02  0.67788748465E+02  0.00000000000E+00 0. -1.
</event>
<event>
 7    1  0.5562528E-006  0.2668497E+02  0.7818608E-02  0.1641075E+00
          2   -1    0    0  502    0  0.00000000000E+00  0.00000000000E+00  0.14016895543E+04  0.14016895543E+04  0.00000000000E+00 0. -1.
          1   -1    0    0  501    0 -0.00000000000E+00 -0.00000000000E+00 -0.65491481226E+03  0.65491481226E+03  0.00000000000E+00 0. -1.
         25    2    1    2    0    0  0.40574364426E+02 -0.29172965091E+02  0.17739524655E+02  0.13574853052E+03  0.12496252184E+03 0.  0.
          2    1    1    2  501    0 -0.25443558880E+02  0.77750572281E+01 -0.59548367156E+03  0.59607770408E+03  0.00000000000E+00 0. -1.
          1    1    1    2  502    0 -0.15130805546E+02  0.21397907863E+02  0.13245188889E+04  0.13247781319E+04  0.00000000000E+00 0. -1.
         22    1    3    3    0    0  0.17329716993E+02  0.16969261931E+01  0.69221110891E+02  0.71377593421E+02  0.00000000000E+00 0.  1.
         22    1    3    3    0    0  0.23244647433E+02 -0.30869891284E+02 -0.51481586235E+02  0.64370937103E+02  0.00000000000E+00 0.  1.
</event>
<event>
 7    1  0.5562528E-006  0.1868463E+03  0.7818608E-02  0.1342163E+00
          2   -1    0    0  502    0  0.00000000000E+00  0.00000000000E+00  0.22206672726E+04  0.22206672726E+04  0.00000000000E+00 0. -1.
          1   -1    0    0  501    0 -0.00000000000E+00 -0.00000000000E+00 -0.13419053960E+04  0.13419053960E+04  0.00000000000E+00 0. -1.
         25    2    1    2    0    0 -0.18983821856E+03 -0.81913778445E+02 -0.23287104139E+02  0.24272431760E+03  0.12499755521E+03 0.  0.
          2    1    1    2  501    0  0.11439600405E+02  0.28329036060E+02 -0.12045964053E+04  0.12049837751E+04  0.00000000000E+00 0. -1.
          1    1    1    2  502    0  0.17839861816E+03  0.53584742385E+02  0.21066453860E+04  0.21148645758E+04  0.00000000000E+00 0. -1.
         22    1    3    3    0    0 -0.19574746811E+03 -0.48909550978E+02  0.23810749312E+00  0.20176538886E+03  0.00000000000E+00 0.  1.
         22    1    3    3    0    0  0.59092495455E+01 -0.33004227467E+02 -0.23525211632E+02  0.40958928736E+02  0.00000000000E+00 0.  1.
</event>
<event>
 7    1  0.5562528E-006  0.3759611E+02  0.7818608E-02  0.1589904E+00
          2   -1    0    0  502    0  0.00000000000E+00  0.00000000000E+00  0.55642857091E+03  0.55642857091E+03  0.00000000000E+00 0. -1.
          1   -1    0    0  501    0 -0.00000000000E+00 -0.00000000000E+00 -0.31383724204E+03  0.31383724204E+03  0.00000000000E+00 0. -1.
         25    2    1    2    0    0 -0.57053995256E+02 -0.98649328160E+01 -0.34062023849E+02  0.14189824201E+03  0.12498965694E+03 0.  0.
          2    1    1    2  501    0  0.23957143720E+02 -0.76750009782E+01 -0.22445543766E+03  0.22586078427E+03  0.00000000000E+00 0. -1.
          1    1    1    2  502    0  0.33096851535E+02  0.17539933794E+02  0.50110879038E+03  0.50250678667E+03  0.00000000000E+00 0. -1.
         22    1    3    3    0    0  0.26727143675E+02  0.42094783068E+00  0.26786623611E+02  0.37842312437E+02  0.00000000000E+00 0.  1.
         22    1    3    3    0    0 -0.83781138931E+02 -0.10285880647E+02 -0.60848647460E+02  0.10405592957E+03  0.00000000000E+00 0.  1.
</event>
<event>
 7    1  0.5562528E-006  0.1712449E+03  0.7818608E-02  0.1308683E+00
          2   -1    0    0  502    0  0.00000000000E+00  0.00000000000E+00  0.65754491183E+03  0.65754491183E+03  0.00000000000E+00 0. -1.
          1   -1    0    0  501    0 -0.00000000000E+00 -0.00000000000E+00 -0.39999466438E+03  0.39999466438E+03  0.00000000000E+00 0. -1.
         25    2    1    2    0    0 -0.19659283671E+03 -0.34686752003E+02 -0.10747101862E+03  0.25889545677E+03  0.12499969393E+03 0.  0.
          2    1    1    2  501    0  0.37670785956E+02 -0.24334176833E+02 -0.20195041258E+03  0.20687003025E+03  0.00000000000E+00 0. -1.
          1    1    1    2  502    0  0.15892205075E+03  0.59020928836E+02  0.56697167864E+03  0.59177408919E+03  0.00000000000E+00 0. -1.
         22    1    3    3    0    0 -0.12245669628E+03  0.21145245251E+02 -0.10567071820E+02  0.12471738799E+03  0.00000000000E+00 0. -1.
         22    1    3    3    0    0 -0.74136140426E+02 -0.55831997254E+02 -0.96903946799E+02  0.13417806877E+03  0.00000000000E+00 0. -1.
</event>
<event>
 7    1  0.5562528E-006  0.1047261E+03  0.7818608E-02  0.1420733E+00
          2   -1    0    0  502    0  0.00000000000E+00  0.00000000000E+00  0.12394615864E+04  0.12394615864E+04  0.00000000000E+00 0. -1.
          1   -1    0    0  501    0 -0.00000000000E+00 -0.00000000000E+00 -0.73006453602E+03  0.73006453602E+03  0.00000000000E+00 0. -1.
         25    2    1    2    0    0  0.11831021115E+03 -0.15884512355E+02  0.14093905844E+03  0.22302137825E+03  0.12500037266E+03 0.  0.
          2    1    1    2  501    0 -0.10407289824E+03 -0.90863267842E+01 -0.68486632703E+03  0.69278829045E+03  0.00000000000E+00 0. -1.
          1    1    1    2  502    0 -0.14237312909E+02  0.24970839139E+02  0.10533243190E+04  0.10537164537E+04  0.00000000000E+00 0. -1.
         22    1    3    3    0    0  0.75863487879E+02  0.12725331436E+02  0.42258297142E+01  0.77039343780E+02  0.00000000000E+00 0. -1.
         22    1    3    3    0    0  0.42446723273E+02 -0.28609843791E+02  0.13671322873E+03  0.14598203447E+03  0.00000000000E+00 0. -1.
</event>
<event>
 7    1  0.5562528E-006  0.5170413E+02  0.7818608E-02  0.1490495E+00
          2   -1    0    0  502    0  0.00000000000E+00  0.00000000000E+00  0.14087510959E+03  0.14087510959E+03  0.00000000000E+00 0. -1.
          1   -1    0    0  501    0 -0.00000000000E+00 -0.00000000000E+00 -0.72007482440E+03  0.72007482440E+03  0.00000000000E+00 0. -1.
         25    2    1    2    0    0  0.26637291346E+02  0.38377859761E+02 -0.60404732233E+02  0.14648145554E+03  0.12500271889E+03 0.  0.
          2    1    1    2  501    0 -0.50512776451E+02 -0.12846990270E+02 -0.61236674586E+03  0.61458084674E+03  0.00000000000E+00 0. -1.
          1    1    1    2  502    0  0.23875485105E+02 -0.25530869491E+02  0.93571763281E+02  0.99887631714E+02  0.00000000000E+00 0. -1.
         22    1    3    3    0    0  0.19734244731E+02 -0.40943932376E+02 -0.47638711728E+02  0.65842940917E+02  0.00000000000E+00 0.  1.
         22    1    3    3    0    0  0.69030466145E+01  0.79321792137E+02 -0.12766020505E+02  0.80638514619E+02  0.00000000000E+00 0.  1.
</event>
<event>
 7    1  0.5562528E-006  0.1122059E+03  0.7818608E-02  0.1328525E+00
          2   -1    0    0  502    0  0.00000000000E+00  0.00000000000E+00  0.10463456067E+04  0.10463456067E+04  0.00000000000E+00 0. -1.
          1   -1    0    0  501    0 -0.00000000000E+00 -0.00000000000E+00 -0.19061826144E+03  0.19061826144E+03  0.00000000000E+00 0. -1.
         25    2    1    2    0    0  0.11237744403E+03 -0.12480857187E+03  0.61990665222E+03  0.65430521752E+03  0.12500076268E+03 0.  0.
          2    1    1    2  501    0 -0.74133931216E+02  0.82134220418E+02 -0.15345757539E+03  0.18918535188E+03  0.00000000000E+00 0. -1.
          1    1    1    2  502    0 -0.38243512816E+02  0.42674351451E+02  0.38927826847E+03  0.39347329878E+03  0.00000000000E+00 0. -1.
         22    1    3    3    0    0  0.22097756684E+02  0.25595949522E+02  0.92134575750E+02  0.98143993861E+02  0.00000000000E+00 0. -1.
         22    1    3    3    0    0  0.90279687348E+02 -0.15040452139E+03  0.52777207647E+03  0.55616122366E+03  0.00000000000E+00 0. -1.
</event>
<event>
 7    1  0.5562528E-006  0.6079588E+02  0.7818608E-02  0.1411503E+00
          2   -1    0    0  502    0  0.00000000000E+00  0.00000000000E+00  0.56899725845E+03  0.56899725845E+03  0.00000000000E+00 0. -1.
          1   -1    0    0  501    0 -0.00000000000E+00 -0.00000000000E+00 -0.16567578755E+04  0.16567578755E+04  0.00000000000E+00 0. -1.
         25    2    1    2    0    0 -0.43926770781E+02  0.16639522403E+02  0.31339581026E+03  0.34067356108E+03  0.12504041920E+03 0.  0.
          2    1    1    2  501    0 -0.19000697919E+02 -0.49668259632E+02 -0.16374594887E+04  0.16383227825E+04  0.00000000000E+00 0. -1.
          1    1    1    2  502    0  0.62927468700E+02  0.33028737229E+02  0.23630306139E+03  0.24675879037E+03  0.00000000000E+00 0. -1.
         22    1    3    3    0    0 -0.47288332190E+02  0.53569914401E+02  0.93528283384E+02  0.11770073017E+03  0.00000000000E+00 0. -1.
         22    1    3    3    0    0  0.33615614090E+01 -0.36930391999E+02  0.21986752687E+03  0.22297283090E+03  0.00000000000E+00 0. -1.
</event>
<event>
 7    1  0.5562528E-006  0.3035445E+03  0.7818608E-02  0.1252997E+00
          2   -1    0    0  502    0  0.00000000000E+00  0.00000000000E+00  0.13317602533E+04  0.13317602533E+04  0.00000000000E+00 0. -1.
          1   -1    0    0  501    0 -0.00000000000E+00 -0.00000000000E+00 -0.78862659975E+03  0.78862659975E+03  0.00000000000E+00 0. -1.
         25    2    1    2    0    0 -0.26728194599E+03  0.21344071850E+03 -0.45417137398E+03  0.58214766592E+03  0.12501075564E+03 0.  0.
          2    1    1    2  501    0  0.40857966230E+02 -0.13270257288E+02 -0.25060223817E+03  0.25425765457E+03  0.00000000000E+00 0. -1.
          1    1    1    2  502    0  0.22642397976E+03 -0.20017046121E+03  0.12479072657E+04  0.12839815325E+04  0.00000000000E+00 0. -1.
         22    1    3    3    0    0 -0.19686447794E+03  0.18395866576E+03 -0.26395988481E+03  0.37718859232E+03  0.00000000000E+00 0.  1.
         22    1    3    3    0    0 -0.70417468044E+02  0.29482052738E+02 -0.19021148917E+03  0.20495907360E+03  0.00000000000E+00 0.  1.
</event>
<event>
 7    1  0.5562528E-006  0.2516594E+03  0.7818608E-02  0.1233014E+00
          2   -1    0    0  502    0  0.00000000000E+00  0.00000000000E+00  0.14498757230E+04  0.14498757230E+04  0.00000000000E+00 0. -1.
          1   -1    0    0  501    0 -0.00000000000E+00 -0.00000000000E+00 -0.20322776106E+04  0.20322776106E+04  0.00000000000E+00 0. -1.
         25    2    1    2    0    0  0.13898466020E+03 -0.23368189176E+03 -0.14795341972E+04  0.15094934274E+04  0.12500001763E+03 0.  0.
          2    1    1    2  501    0 -0.14299186926E+03  0.17039836716E+03 -0.51401760004E+03  0.56008603924E+03  0.00000000000E+00 0. -1.
          1    1    1    2  502    0  0.40072090620E+01  0.63283524595E+02  0.14111499096E+04  0.14125738670E+04  0.00000000000E+00 0. -1.
         22    1    3    3    0    0 -0.48664650905E+01 -0.10213029210E+03 -0.42799926651E+03  0.44004278335E+03  0.00000000000E+00 0.  1.
         22    1    3    3    0    0  0.14385112529E+03 -0.13155159966E+03 -0.10515349307E+04  0.10694506440E+04  0.00000000000E+00 0.  1.
</event>
<event>
 7    1  0.5562528E-006  0.7674274E+02  0.7818608E-02  0.1374723E+00
          2   -1    0    0  502    0  0.00000000000E+00  0.00000000000E+00  0.75073212183E+03  0.75073212183E+03  0.00000000000E+00 0. -1.
          1   -1    0    0  501    0 -0.00000000000E+00 -0.00000000000E+00 -0.12911852404E+04  0.12911852404E+04  0.00000000000E+00 0. -1.
         25    2    1    2    0    0 -0.37862997692E+02  0.11892606745E+02 -0.65509677056E+03  0.66809530213E+03  0.12499805294E+03 0.  0.
          2    1    1    2  501    0 -0.30091546317E+02 -0.47867373918E+02 -0.62632644376E+03  0.62887327881E+03  0.00000000000E+00 0. -1.
          1    1    1    2  502    0  0.67954544009E+02  0.35974767173E+02  0.74097009576E+03  0.74494878128E+03  0.00000000000E+00 0. -1.
         22    1    3    3    0    0  0.39371766136E+02 -0.22159064870E+02 -0.27975176294E+03  0.28337644396E+03  0.00000000000E+00 0.  1.
         22    1    3    3    0    0 -0.77234763828E+02  0.34051671615E+02 -0.37534500762E+03  0.38471885817E+03  0.00000000000E+00 0.  1.
</event>
<event>
 7    1  0.5562528E-006  0.6968182E+02  0.7818608E-02  0.1392946E+00
          2   -1    0    0  502    0  0.00000000000E+00  0.00000000000E+00  0.13090690908E+04  0.13090690908E+04  0.00000000000E+00 0. -1.
          1   -1    0    0  501    0 -0.00000000000E+00 -0.00000000000E+00 -0.35584784084E+04  0.35584784084E+04  0.00000000000E+00 0. -1.
         25    2    1    2    0    0 -0.91046268832E+01  0.47574578128E+02 -0.16947688741E+03  0.21608817330E+03  0.12500179424E+03 0.  0.
          2    1    1    2  501    0 -0.44136375339E+02 -0.54697155688E+02 -0.33647677182E+04  0.33655016856E+04  0.00000000000E+00 0. -1.
          1    1    1    2  502    0  0.53241002222E+02  0.71225775597E+01  0.12848352880E+04  0.12859576403E+04  0.00000000000E+00 0. -1.
         22    1    3    3    0    0 -0.40375124892E+02  0.72990089801E+02 -0.14930386134E+03  0.17102440449E+03  0.00000000000E+00 0. -1.
         22    1    3    3    0    0  0.31270498009E+02 -0.25415511674E+02 -0.20173026068E+02  0.45063768818E+02  0.00000000000E+00 0. -1.
</event>
<event>
 7    1  0.5562528E-006  0.1030687E+03  0.7818608E-02  0.1274890E+00
          2   -1    0    0  502    0  0.00000000000E+00  0.00000000000E+00  0.36116590289E+04  0.36116590289E+04  0.00000000000E+00 0. -1.
          1   -1    0    0  501    0 -0.00000000000E+00 -0.00000000000E+00 -0.12829254264E+03  0.12829254264E+03  0.00000000000E+00 0. -1.
         25    2    1    2    0    0  0.19550039563E+02  0.79262783351E+00  0.51716146311E+03  0.53241185263E+03  0.12499427822E+03 0.  0.
          2    1    1    2  501    0  0.51605769951E+02  0.89218835103E+02 -0.97386576152E+02  0.14180021595E+03  0.00000000000E+00 0. -1.
          1    1    1    2  502    0 -0.71155809514E+02 -0.90011462936E+02  0.30635915993E+04  0.30657395029E+04  0.00000000000E+00 0. -1.
         22    1    3    3    0    0  0.58625861309E+02  0.12434469801E+02  0.44903211517E+03  0.45301373943E+03  0.00000000000E+00 0.  1.
         22    1    3    3    0    0 -0.39075821746E+02 -0.11641841968E+02  0.68129347938E+02  0.79398113202E+02  0.00000000000E+00 0.  1.
</event>
<event>
 7    1  0.5562528E-006  0.8234779E+02  0.7818608E-02  0.1492722E+00
          2   -1    0    0  502    0  0.00000000000E+00  0.00000000000E+00  0.86209046037E+02  0.86209046037E+02  0.00000000000E+00 0. -1.
          1   -1    0    0  501    0 -0.00000000000E+00 -0.00000000000E+00 -0.49432620663E+03  0.49432620663E+03  0.00000000000E+00 0. -1.
         25    2    1    2    0    0 -0.38710887352E+02  0.74984353301E+02 -0.31540599481E+03  0.34960908547E+03  0.12499754014E+03 0.  0.
          2    1    1    2  501    0  0.20909225175E+02  0.54601915237E+01 -0.13610271856E+03  0.13780768987E+03  0.00000000000E+00 0. -1.
          1    1    1    2  502    0  0.17801662178E+02 -0.80444544825E+02  0.43391552771E+02  0.93118477330E+02  0.00000000000E+00 0. -1.
         22    1    3    3    0    0 -0.52377829787E+01 -0.21306708983E+02 -0.44749579678E+01  0.22392754789E+02  0.00000000000E+00 0.  1.
         22    1    3    3    0    0 -0.33473104374E+02  0.96291062284E+02 -0.31093103684E+03  0.32721633068E+03  0.00000000000E+00 0.  1.
</event>
<event>
 7    1  0.5562528E-006  0.1059268E+03  0.7818608E-02  0.1352297E+00
          2   -1    0    0  502    0  0.00000000000E+00  0.00000000000E+00  0.17465091865E+04  0.17465091865E+04  0.00000000000E+00 0. -1.
          1   -1    0    0  501    0 -0.00000000000E+00 -0.00000000000E+00 -0.12825744609E+03  0.12825744609E+03  0.00000000000E+00 0. -1.
         25    2    1    2    0    0  0.11652703285E+03 -0.75573167540E+02  0.26942311827E+03  0.32787689900E+03  0.12499836478E+03 0.  0.
          2    1    1    2  501    0 -0.99154398716E+02  0.29319289023E+02 -0.71493716830E+02  0.12570826162E+03  0.00000000000E+00 0. -1.
          1    1    1    2  502    0 -0.17372634136E+02  0.46253878517E+02  0.14203223389E+04  0.14211814719E+04  0.00000000000E+00 0. -1.
         22    1    3    3    0    0  0.13590367329E+03 -0.70714837490E+02  0.26689777985E+03  0.30774148492E+03  0.00000000000E+00 0.  1.
         22    1    3    3    0    0 -0.19376640442E+02 -0.48583300507E+01  0.25253384275E+01  0.20135414072E+02  0.00000000000E+00 0.  1.
</event>
<event>
 7    1  0.5562528E-006  0.1162730E+03  0.7818608E-02  0.1303940E+00
          2   -1    0    0  502    0  0.00000000000E+00  0.00000000000E+00  0.72367488540E+03  0.72367488540E+03  0.00000000000E+00 0. -1.
          1   -1    0    0  501    0 -0.00000000000E+00 -0.00000000000E+00 -0.15403458747E+04  0.15403458747E+04  0.00000000000E+00 0. -1.
         25    2    1    2    0    0  0.15556575694E+03 -0.30547075319E+02 -0.32577433828E+03  0.38325963416E+03  0.12500079660E+03 0.  0.
          2    1    1    2  501    0 -0.94462484545E+02  0.62539189256E+02 -0.11814011398E+04  0.11868205274E+04  0.00000000000E+00 0. -1.
          1    1    1    2  502    0 -0.61103272398E+02 -0.31992113937E+02  0.69050448878E+03  0.69394059852E+03  0.00000000000E+00 0. -1.
         22    1    3    3    0    0  0.13992094110E+03 -0.22752503185E+01 -0.15241169633E+03  0.20691150693E+03  0.00000000000E+00 0.  1.
         22    1    3    3    0    0  0.15644815839E+02 -0.28271825001E+02 -0.17336264195E+03  0.17634812722E+03  0.00000000000E+00 0.  1.
</event>
<event>
 7    1  0.5562528E-006  0.7888760E+02  0.7818608E-02  0.1377954E+00
          2   -1    0    0  502    0  0.00000000000E+00  0.00000000000E+00  0.47809264857E+03  0.47809264857E+03  0.00000000000E+00 0. -1.
          1   -1    0    0  501    0 -0.00000000000E+00 -0.00000000000E+00 -0.63795915788E+02  0.63795915788E+02  0.00000000000E+00 0. -1.
         25    2    1    2    0    0  0.33780083332E+02 -0.39053007859E+02  0.20778560410E+03  0.24792441515E+03  0.12500170760E+03 0.  0.
          2    1    1    2  501    0 -0.11174937615E+02 -0.52386311178E+02 -0.12980586542E+02  0.55115337761E+02  0.00000000000E+00 0. -1.
          1    1    1    2  502    0 -0.22605145717E+02  0.91439319037E+02  0.21949171522E+03  0.23884881145E+03  0.00000000000E+00 0. -1.
         22    1    3    3    0    0 -0.40996290108E+02  0.86888613428E+01  0.39018089312E+02  0.57259090175E+02  0.00000000000E+00 0. -1.
         22    1    3    3    0    0  0.74776373440E+02 -0.47741869202E+02  0.16876751479E+03  0.19066532497E+03  0.00000000000E+00 0. -1.
</event>
<event>
 7    1  0.5562528E-006  0.2617416E+02  0.7818608E-02  0.1673940E+00
          2   -1    0    0  502    0  0.00000000000E+00  0.00000000000E+00  0.11081964838E+04  0.11081964838E+04  0.00000000000E+00 0. -1.
          1   -1    0    0  501    0 -0.00000000000E+00 -0.00000000000E+00 -0.29896895235E+02  0.29896895235E+02  0.00000000000E+00 0. -1.
         25    2    1    2    0    0 -0.47689115218E+01 -0.42787810085E+01  0.73899335474E+03  0.74951937929E+03  0.12500828409E+03 0.  0.
          2    1    1    2  501    0 -0.10031288963E+02 -0.19839278617E+02 -0.18944057734E+02  0.29207893757E+02  0.00000000000E+00 0. -1.
          1    1    1    2  502    0  0.14800200485E+02  0.24118059626E+02  0.35825029159E+03  0.35936610603E+03  0.00000000000E+00 0. -1.
         22    1    3    3    0    0 -0.23851263392E+02 -0.22487263514E+02  0.70826630444E+03  0.70902448321E+03  0.00000000000E+00 0. -1.
         22    1    3    3    0    0  0.19082351870E+02  0.18208482505E+02  0.30727050300E+02  0.40494896076E+02  0.00000000000E+00 0. -1.
</event>
<event>
 7    1  0.5562528E-006  0.1081188E+03  0.7818608E-02  0.1265895E+00
          2   -1    0    0  502    0  0.00000000000E+00  0.00000000000E+00  0.11842814323E+04  0.11842814323E+04  0.00000000000E+00 0. -1.
          1   -1    0    0  501    0 -0.00000000000E+00 -0.00000000000E+00 -0.21107955978E+03  0.21107955978E+03  0.00000000000E+00 0. -1.
         25    2    1    2    0    0 -0.10519234958E+03  0.14747221943E+03  0.56163431504E+03  0.60321786958E+03  0.12500083375E+03 0.  0.
          2    1    1    2  501    0  0.98509829498E+02 -0.41445940741E+02 -0.17008120720E+03  0.20087202283E+03  0.00000000000E+00 0. -1.
          1    1    1    2  502    0  0.66825200794E+01 -0.10602627869E+03  0.58164876469E+03  0.59127109967E+03  0.00000000000E+00 0. -1.
         22    1    3    3    0    0 -0.29397665630E+01  0.16332157143E+02  0.24509429932E+03  0.24565544395E+03  0.00000000000E+00 0. -1.
         22    1    3    3    0    0 -0.10225258301E+03  0.13114006229E+03  0.31654001572E+03  0.35756242563E+03  0.00000000000E+00 0. -1.
</event>
<event>
 7    1  0.5562528E-006  0.1222701E+03  0.7818608E-02  0.1412070E+00
          2   -1    0    0  502    0  0.00000000000E+00  0.00000000000E+00  0.29132827461E+04  0.29132827461E+04  0.00000000000E+00 0. -1.
          1   -1    0    0  501    0 -0.00000000000E+00 -0.00000000000E+00 -0.24076358562E+03  0.24076358562E+03  0.00000000000E+00 0. -1.
         25    2    1    2    0    0 -0.10609117802E+03  0.15497560915E+02  0.23222258438E+04  0.23280576338E+04  0.12499585707E+03 0.  0.
          2    1    1    2  501    0  0.11565519129E+03 -0.40024176732E+02 -0.22178160437E+03  0.25330838524E+03  0.00000000000E+00 0. -1.
          1    1    1    2  502    0 -0.95640132717E+01  0.24526615816E+02  0.57207492106E+03  0.57268031269E+03  0.00000000000E+00 0. -1.
         22    1    3    3    0    0 -0.24006339167E+02  0.55554397824E+02  0.51836499092E+03  0.52188586803E+03  0.00000000000E+00 0.  1.
         22    1    3    3    0    0 -0.82084838855E+02 -0.40056836909E+02  0.18038608528E+04  0.18061717658E+04  0.00000000000E+00 0.  1.
</event>
<event>
 7    1  0.5562528E-006  0.8375751E+02  0.7818608E-02  0.1374687E+00
          2   -1    0    0  502    0  0.00000000000E+00  0.00000000000E+00  0.88318435510E+03  0.88318435510E+03  0.00000000000E+00 0. -1.
          1   -1    0    0  501    0 -0.00000000000E+00 -0.00000000000E+00 -0.11535606433E+04  0.11535606433E+04  0.00000000000E+00 0. -1.
         25    2    1    2    0    0  0.94331800793E+02  0.17885839232E+02 -0.92989063212E+03  0.94315416015E+03  0.12499916085E+03 0.  0.
          2    1    1    2  501    0 -0.56645208147E+02 -0.53453819541E+02 -0.20925400306E+03  0.22327836489E+03  0.00000000000E+00 0. -1.
          1    1    1    2  502    0 -0.37686592646E+02  0.35567980309E+02  0.86876834701E+03  0.87031247334E+03  0.00000000000E+00 0. -1.
         22    1    3    3    0    0  0.10490635428E+03  0.45581625949E+02 -0.85487386892E+03  0.86249194753E+03  0.00000000000E+00 0. -1.
         22    1    3    3    0    0 -0.10574553484E+02 -0.27695786717E+02 -0.75016763201E+02  0.80662212618E+02  0.00000000000E+00 0. -1.
</event>
<event>
 7    1  0.5562528E-006  0.6546398E+02  0.7818608E-02  0.1417639E+00
          2   -1    0    0  502    0  0.00000000000E+00  0.00000000000E+00  0.40877206267E+02  0.40877206267E+02  0.00000000000E+00 0. -1.
          1   -1    0    0  501    0 -0.00000000000E+00 -0.00000000000E+00 -0.81427933834E+03  0.81427933834E+03  0.00000000000E+00 0. -1.
         25    2    1    2    0    0  0.46392085238E+02  0.24479326556E+02 -0.26542433859E+03  0.29803696516E+03  0.12499796031E+03 0.  0.
          2    1    1    2  501    0 -0.66823132637E+02  0.17950258250E+02 -0.50523115232E+03  0.50994711500E+03  0.00000000000E+00 0. -1.
          1    1    1    2  502    0  0.20431047400E+02 -0.42429584806E+02 -0.27466411658E+01  0.47172464451E+02  0.00000000000E+00 0. -1.
         22    1    3    3    0    0  0.23691543143E+02 -0.16317989893E+02 -0.23417199343E+00  0.28768400150E+02  0.00000000000E+00 0. -1.
         22    1    3    3    0    0  0.22700542095E+02  0.40797316449E+02 -0.26519016660E+03  0.26926856501E+03  0.00000000000E+00 0. -1.
</event>
<event>
 7    1  0.5562528E-006  0.1021915E+03  0.7818608E-02  0.1350285E+00
          2   -1    0    0  502    0  0.00000000000E+00  0.00000000000E+00  0.76286045783E+03  0.76286045783E+03  0.00000000000E+00 0. -1.
          1   -1    0    0  501    0 -0.00000000000E+00 -0.00000000000E+00 -0.22328593676E+04  0.22328593676E+04  0.00000000000E+00 0. -1.
         25    2    1    2    0    0  0.47985457090E+02  0.76699960985E+02 -0.40031148046E+02  0.15941009507E+03  0.12499438984E+03 0.  0.
          2    1    1    2  501    0 -0.91081934457E+02 -0.47424059137E+02 -0.21309355841E+04  0.21334084053E+04  0.00000000000E+00 0. -1.
          1    1    1    2  502    0  0.43096477366E+02 -0.29275901847E+02  0.70096782238E+03  0.70290132508E+03  0.00000000000E+00 0. -1.
         22    1    3    3    0    0  0.54794701831E+02  0.18239341697E+02 -0.72105871230E+02  0.92381760105E+02  0.00000000000E+00 0. -1.
         22    1    3    3    0    0 -0.68092447411E+01  0.58460619287E+02  0.32074723183E+02  0.67028334969E+02  0.00000000000E+00 0. -1.
</event>
<event>
 7    1  0.5562528E-006  0.9643509E+02  0.7818608E-02  0.1339507E+00
          2   -1    0    0  502    0  0.00000000000E+00  0.00000000000E+00  0.24302458190E+03  0.24302458190E+03  0.00000000000E+00 0. -1.
          1   -1    0    0  501    0 -0.00000000000E+00 -0.00000000000E+00 -0.24858971365E+04  0.24858971365E+04  0.00000000000E+00 0. -1.
         25    2    1    2    0    0 -0.84675712785E+02 -0.13419208295E+02 -0.12864063265E+03  0.19879426813E+03  0.12498278756E+03 0.  0.
          2    1    1    2  501    0  0.85070612381E+02 -0.47150240168E+02 -0.23167267918E+04  0.23187675998E+04  0.00000000000E+00 0. -1.
          1    1    1    2  502    0 -0.39489959612E+00  0.60569448463E+02  0.20249486988E+03  0.21135985040E+03  0.00000000000E+00 0. -1.
         22    1    3    3    0    0 -0.78268392663E+02  0.44731665173E+02 -0.58538718724E+02  0.10748788187E+03  0.00000000000E+00 0. -1.
         22    1    3    3    0    0 -0.64073201213E+01 -0.58150873468E+02 -0.70101913923E+02  0.91306386260E+02  0.00000000000E+00 0. -1.
</event>
<event>
 7    1  0.5562528E-006  0.1218020E+03  0.7818608E-02  0.1358874E+00
          2   -1    0    0  502    0  0.00000000000E+00  0.00000000000E+00  0.98924648409E+03  0.98924648409E+03  0.00000000000E+00 0. -1.
          1   -1    0    0  501    0 -0.00000000000E+00 -0.00000000000E+00 -0.11268561928E+03  0.11268561928E+03  0.00000000000E+00 0. -1.
         25    2    1    2    0    0 -0.15375676682E+03  0.20609942396E+02  0.51553498223E+03  0.55269100143E+03  0.12500044837E+03 0.  0.
          2    1    1    2  501    0  0.11950754876E+03  0.12737366126E+01 -0.54767908762E+02  0.13146558655E+03  0.00000000000E+00 0. -1.
          1    1    1    2  502    0  0.34249218055E+02 -0.21883679009E+02  0.41579379134E+03  0.41777551539E+03  0.00000000000E+00 0. -1.
         22    1    3    3    0    0 -0.17247697449E+03  0.30741031236E+01  0.46609036990E+03  0.49698892317E+03  0.00000000000E+00 0.  1.
         22    1    3    3    0    0  0.18720207672E+02  0.17535839272E+02  0.49444612328E+02  0.55702078261E+02  0.00000000000E+00 0.  1.
</event>
<event>
 7    1  0.5562528E-006  0.1147761E+03  0.7818608E-02  0.1340200E+00
          2   -1    0    0  502    0  0.00000000000E+00  0.00000000000E+00  0.38594370905E+03  0.38594370905E+03  0.00000000000E+00 0. -1.
          1   -1    0    0  501    0 -0.00000000000E+00 -0.00000000000E+00 -0.59962424222E+03  0.59962424222E+03  0.00000000000E+00 0. -1.
         25    2    1    2    0    0 -0.24516020110E+02  0.12897468626E+03  0.11229759715E+03  0.21323978298E+03  0.12499979913E+03 0.  0.
          2    1    1    2  501    0 -0.36638346697E+02 -0.34881027879E+02 -0.53377408998E+03  0.53616586397E+03  0.00000000000E+00 0. -1.
          1    1    1    2  502    0  0.61154366807E+02 -0.94093658382E+02  0.20779595966E+03  0.23616230431E+03  0.00000000000E+00 0. -1.
         22    1    3    3    0    0  0.25367398013E+02  0.10209963855E+03  0.11582053276E+03  0.15646800594E+03  0.00000000000E+00 0. -1.
         22    1    3    3    0    0 -0.49883418123E+02  0.26875047711E+02 -0.35229356101E+01  0.56771777041E+02  0.00000000000E+00 0. -1.
</event>
<event>
 7    1  0.5562528E-006  0.1021018E+03  0.7818608E-02  0.1386048E+00
          2   -1    0    0  502    0  0.00000000000E+00  0.00000000000E+00  0.22472990032E+04  0.22472990032E+04  0.00000000000E+00 0. -1.
          1   -1    0    0  501    0 -0.00000000000E+00 -0.00000000000E+00 -0.34107998998E+03  0.34107998998E+03  0.00000000000E+00 0. -1.
         25    2    1    2    0    0 -0.11768884543E+03 -0.47509283915E+02  0.46499083010E+02  0.18410762820E+03  0.12500263055E+03 0.  0.
          2    1    1    2  501    0  0.16729244396E+02  0.34953017772E+02 -0.26967630856E+03  0.27244612764E+03  0.00000000000E+00 0. -1.
          1    1    1    2  502    0  0.10095960104E+03  0.12556266143E+02  0.21293962388E+04  0.21318252374E+04  0.00000000000E+00 0. -1.
         22    1    3    3    0    0 -0.12954876427E+03 -0.36794748765E+02 -0.28044686350E+00  0.13467299102E+03  0.00000000000E+00 0.  1.
         22    1    3    3    0    0  0.11859918836E+02 -0.10714535151E+02  0.46779529874E+02  0.49434637184E+02  0.00000000000E+00 0.  1.
</event>
<event>
 7    1  0.5562528E-006  0.1864114E+03  0.7818608E-02  0.1361962E+00
          2   -1    0    0  502    0  0.00000000000E+00  0.00000000000E+00  0.11069042801E+04  0.11069042801E+04  0.00000000000E+00 0. -1.
          1   -1    0    0  501    0 -0.00000000000E+00 -0.00000000000E+00 -0.56242858165E+03  0.56242858165E+03  0.00000000000E+00 0. -1.
         25    2    1    2    0    0  0.16081001501E+03 -0.27611744135E+02  0.14564480065E+03  0.25190908065E+03  0.12499403032E+03 0.  0.
          2    1    1    2  501    0 -0.18465649725E+03  0.37659567561E+02 -0.49166807243E+03  0.52654891364E+03  0.00000000000E+00 0. -1.
          1    1    1    2  502    0  0.23846482238E+02 -0.10047823427E+02  0.89049897026E+03  0.89087486748E+03  0.00000000000E+00 0. -1.
         22    1    3    3    0    0  0.59066837298E+01 -0.40515775621E+02  0.31940811965E+01  0.41068468946E+02  0.00000000000E+00 0. -1.
         22    1    3    3    0    0  0.15490333128E+03  0.12904031486E+02  0.14245071946E+03  0.21084061171E+03  0.00000000000E+00 0. -1.
</event>
<event>
 7    1  0.5562528E-006  0.5307446E+02  0.7818608E-02  0.1459551E+00
          2   -1    0    0  502    0  0.00000000000E+00  0.00000000000E+00  0.10049905571E+04  0.10049905571E+04  0.00000000000E+00 0. -1.
          1   -1    0    0  501    0 -0.00000000000E+00 -0.00000000000E+00 -0.25523364272E+02  0.25523364272E+02  0.00000000000E+00 0. -1.
         25    2    1    2    0    0  0.11054864015E+02  0.18717454301E+02  0.20274531312E+03  0.23917579059E+03  0.12500737457E+03 0.  0.
          2    1    1    2  501    0  0.25201924356E+02 -0.57477529057E+02  0.15313386804E+03  0.16549557359E+03  0.00000000000E+00 0. -1.
          1    1    1    2  502    0 -0.36256788371E+02  0.38760074756E+02  0.62358801164E+03  0.62584255716E+03  0.00000000000E+00 0. -1.
         22    1    3    3    0    0  0.83282389023E+01  0.18010693307E+02  0.22040321103E+03  0.22129464537E+03  0.00000000000E+00 0. -1.
         22    1    3    3    0    0  0.27266251128E+01  0.70676099418E+00 -0.17657897911E+02  0.17881145216E+02  0.00000000000E+00 0. -1.
</event>
<event>
 7    1  0.5562528E-006  0.9398914E+02  0.7818608E-02  0.1317803E+00
          2   -1    0    0  502    0  0.00000000000E+00  0.00000000000E+00  0.94399843912E+03  0.94399843912E+03  0.00000000000E+00 0. -1.
          1   -1    0    0  501    0 -0.00000000000E+00 -0.00000000000E+00 -0.31125344566E+03  0.31125344566E+03  0.00000000000E+00 0. -1.
         25    2    1    2    0    0 -0.27740320021E+02  0.84334001777E-01 -0.11611969805E+03  0.17285323652E+03  0.12499969853E+03 0.  0.
          2    1    1    2  501    0  0.79847968608E+02  0.78138114321E+02 -0.14531278379E+03  0.18329503030E+03  0.00000000000E+00 0. -1.
          1    1    1    2  502    0 -0.52107648587E+02 -0.78222448322E+02  0.89417747531E+03  0.89910361795E+03  0.00000000000E+00 0. -1.
         22    1    3    3    0    0 -0.14345614159E+02  0.92844733065E+01 -0.14160268821E+03  0.14263000876E+03  0.00000000000E+00 0. -1.
         22    1    3    3    0    0 -0.13394705862E+02 -0.92001393047E+01  0.25482990161E+02  0.30223227755E+02  0.00000000000E+00 0. -1.
</event>
<event>
 7    1  0.5562528E-006  0.6876535E+02  0.7818608E-02  0.1440011E+00
          2   -1    0    0  502    0  0.00000000000E+00  0.00000000000E+00  0.21345191813E+03  0.21345191813E+03  0.00000000000E+00 0. -1.
          1   -1    0    0  501    0 -0.00000000000E+00 -0.00000000000E+00 -0.13141166458E+04  0.13141166458E+04  0.00000000000E+00 0. -1.
         25    2    1    2    0    0  0.83795458340E+01  0.31814815391E+02 -0.18876279851E+03  0.22877654981E+03  0.12499966550E+03 0.  0.
          2    1    1    2  501    0  0.20443288932E+02  0.31827257129E+02 -0.10987027646E+04  0.10993537498E+04  0.00000000000E+00 0. -1.
          1    1    1    2  502    0 -0.28822834766E+02 -0.63642072519E+02  0.18680083536E+03  0.19943826436E+03  0.00000000000E+00 0. -1.
         22    1    3    3    0    0  0.30361784819E+02 -0.34920129923E+01  0.46755745289E+01  0.30917521397E+02  0.00000000000E+00 0. -1.
         22    1    3    3    0    0 -0.21982238985E+02  0.35306828383E+02 -0.19343837303E+03  0.19785902841E+03  0.00000000000E+00 0. -1.
</event>
<event>
 7    1  0.5562528E-006  0.4011661E+02  0.7818608E-02  0.1548861E+00
          2   -1    0    0  502    0  0.00000000000E+00  0.00000000000E+00  0.48552532412E+02  0.48552532412E+02  0.00000000000E+00 0. -1.
          1   -1    0    0  501    0 -0.00000000000E+00 -0.00000000000E+00 -0.17613723606E+04  0.17613723606E+04  0.00000000000E+00 0. -1.
         25    2    1    2    0    0 -0.47955502932E+02  0.15580604055E+01 -0.32801958056E+03  0.35428814685E+03  0.12498435082E+03 0.  0.
          2    1    1    2  501    0  0.31934272878E+02  0.24377342292E+02 -0.14133201034E+04  0.14138910026E+04  0.00000000000E+00 0. -1.
          1    1    1    2  502    0  0.16021230054E+02 -0.25935402697E+02  0.28519855816E+02  0.41745743510E+02  0.00000000000E+00 0. -1.
         22    1    3    3    0    0 -0.18964755236E+01  0.42559198899E+02 -0.35839587625E+02  0.55671878642E+02  0.00000000000E+00 0. -1.
         22    1    3    3    0    0 -0.46059027408E+02 -0.41001138494E+02 -0.29217999294E+03  0.29861626820E+03  0.00000000000E+00 0. -1.
</event>
<event>
 7    1  0.5562528E-006  0.7501797E+02  0.7818608E-02  0.1362774E+00
          2   -1    0    0  502    0  0.00000000000E+00  0.00000000000E+00  0.25039706834E+04  0.25039706834E+04  0.00000000000E+00 0. -1.
          1   -1    0    0  501    0 -0.00000000000E+00 -0.00000000000E+00 -0.22169517954E+03  0.22169517954E+03  0.00000000000E+00 0. -1.
         25    2    1    2    0    0 -0.10916853859E+02 -0.12672965753E+03 -0.43885842333E+02  0.18364938988E+03  0.12498618903E+03 0.  0.
          2    1    1    2  501    0  0.32348415825E+02  0.55067550998E+02 -0.97851782127E+02  0.11684958898E+03  0.00000000000E+00 0. -1.
          1    1    1    2  502    0 -0.21431561967E+02  0.71662106535E+02  0.24240131283E+04  0.24251668841E+04  0.00000000000E+00 0. -1.
         22    1    3    3    0    0 -0.28828341244E+02 -0.52245516047E+02 -0.79307684349E+02  0.99249060463E+02  0.00000000000E+00 0.  1.
         22    1    3    3    0    0  0.17911487385E+02 -0.74484141486E+02  0.35421842016E+02  0.84400329413E+02  0.00000000000E+00 0.  1.
</event>
<event>
 7    1  0.5562528E-006  0.4324842E+02  0.7818608E-02  0.1515723E+00
          2   -1    0    0  502    0  0.00000000000E+00  0.00000000000E+00  0.22399218036E+04  0.22399218036E+04  0.00000000000E+00 0. -1.
          1   -1    0    0  501    0 -0.00000000000E+00 -0.00000000000E+00 -0.48588332259E+03  0.48588332259E+03  0.00000000000E+00 0. -1.
         25    2    1    2    0    0 -0.59082031790E+01 -0.10040680074E+02  0.33925224695E+03  0.36173688918E+03  0.12500307121E+03 0.  0.
          2    1    1    2  501    0  0.40753755263E+02  0.14762774841E+02 -0.47348737082E+03  0.47546724221E+03  0.00000000000E+00 0. -1.
          1    1    1    2  502    0 -0.34845552084E+02 -0.47220947664E+01  0.18882736049E+04  0.18886009948E+04  0.00000000000E+00 0. -1.
         22    1    3    3    0    0  0.49859198317E+02  0.28523081719E+02  0.16813572063E+03  0.17767702834E+03  0.00000000000E+00 0.  1.
         22    1    3    3    0    0 -0.55767401496E+02 -0.38563761793E+02  0.17111652631E+03  0.18405986083E+03  0.00000000000E+00 0.  1.
</event>
<event>
 7    1  0.5562528E-006  0.1414711E+03  0.7818608E-02  0.1372783E+00
          2   -1    0    0  502    0  0.00000000000E+00  0.00000000000E+00  0.10010100163E+04  0.10010100163E+04  0.00000000000E+00 0. -1.
          1   -1    0    0  501    0 -0.00000000000E+00 -0.00000000000E+00 -0.19039648046E+03  0.19039648046E+03  0.00000000000E+00 0. -1.
         25    2    1    2    0    0  0.12246751943E+03  0.77339626196E+02  0.29794414611E+03  0.35408545966E+03  0.12500434972E+03 0.  0.
          2    1    1    2  501    0 -0.10054258738E+03 -0.99487763093E+02 -0.13106467858E+03  0.19283302843E+03  0.00000000000E+00 0. -1.
          1    1    1    2  502    0 -0.21924932044E+02  0.22148136896E+02  0.64373406830E+03  0.64448800866E+03  0.00000000000E+00 0. -1.
         22    1    3    3    0    0  0.12123795579E+03  0.18038555966E+02  0.24763265215E+03  0.27630773032E+03  0.00000000000E+00 0. -1.
         22    1    3    3    0    0  0.12295636418E+01  0.59301070231E+02  0.50311493959E+02  0.77777729342E+02  0.00000000000E+00 0. -1.
</event>
<event>
 7    1  0.1054602E-005  0.9303970E+02  0.7818608E-02  0.1315902E+00
          2   -1    0    0  502    0  0.00000000000E+00  0.00000000000E+00  0.27107660517E+04  0.27107660517E+04  0.00000000000E+00 0. -1.
          1   -1    0    0  501    0 -0.00000000000E+00 -0.00000000000E+00 -0.84581118016E+03  0.84581118016E+03  0.00000000000E+00 0. -1.
         25    2    1    2    0    0 -0.11636246625E+03  0.10859482764E+03 -0.17748914213E+03  0.26918584148E+03  0.12500224612E+03 0.  0.
          2    1    1    2  501    0  0.72552586958E+02 -0.26752011582E+02 -0.61925988028E+03  0.62406918473E+03  0.00000000000E+00 0. -1.
          1    1    1    2  502    0  0.43809879291E+02 -0.81842816060E+02  0.26617038939E+04  0.26633222056E+04  0.00000000000E+00 0. -1.
         22    1    3    3    0    0 -0.11475000718E+03  0.33667484239E+02 -0.14377000818E+03  0.18700502371E+03  0.00000000000E+00 0.  1.
         22    1    3    3    0    0 -0.16124590736E+01  0.74927343403E+02 -0.33719133949E+02  0.82180817761E+02  0.00000000000E+00 0.  1.
</event>
<event>
 7    1  0.5562528E-006  0.7501763E+02  0.7818608E-02  0.1353901E+00
          2   -1    0    0  502    0  0.00000000000E+00  0.00000000000E+00  0.12574158317E+03  0.12574158317E+03  0.00000000000E+00 0. -1.
          1   -1    0    0  501    0 -0.00000000000E+00 -0.00000000000E+00 -0.11076874406E+04  0.11076874406E+04  0.00000000000E+00 0. -1.
         25    2    1    2    0    0  0.89625543370E+02 -0.56020384339E+00 -0.50961151594E+03  0.53231718768E+03  0.12499855706E+03 0.  0.
          2    1    1    2  501    0 -0.39189600355E+02  0.56575561825E+02 -0.57201526242E+03  0.57614067676E+03  0.00000000000E+00 0. -1.
          1    1    1    2  502    0 -0.50435943015E+02 -0.56015357981E+02  0.99680920910E+02  0.12497115936E+03  0.00000000000E+00 0. -1.
         22    1    3    3    0    0  0.85028043798E+02  0.29918330131E+02 -0.18039792714E+03  0.20166379652E+03  0.00000000000E+00 0. -1.
         22    1    3    3    0    0  0.45974995716E+01 -0.30478533974E+02 -0.32921358880E+03  0.33065339116E+03  0.00000000000E+00 0. -1.
</event>
<event>
 7    1  0.5562528E-006  0.5201642E+02  0.7818608E-02  0.1479834E+00
          2   -1    0    0  502    0  0.00000000000E+00  0.00000000000E+00  0.16506975318E+04  0.16506975318E+04  0.00000000000E+00 0. -1.
          1   -1    0    0  501    0 -0.00000000000E+00 -0.00000000000E+00 -0.57939857285E+03  0.57939857285E+03  0.00000000000E+00 0. -1.
         25    2    1    2    0    0  0.94847593689E+00 -0.30870169838E+02  0.36340504569E+00  0.12876170533E+03  0.12500231080E+03 0.  0.
          2    1    1    2  501    0 -0.36756068459E+02 -0.71375132929E+01 -0.51408859202E+03  0.51545032070E+03  0.00000000000E+00 0. -1.
          1    1    1    2  502    0  0.35807592522E+02  0.38007683131E+02  0.15850241459E+04  0.15858840786E+04  0.00000000000E+00 0. -1.
         22    1    3    3    0    0 -0.24384483886E+02 -0.11528687782E+02  0.57401423928E+02  0.63422686519E+02  0.00000000000E+00 0.  1.
         22    1    3    3    0    0  0.25332959823E+02 -0.19341482056E+02 -0.57038018882E+02  0.65339018813E+02  0.00000000000E+00 0.  1.
</event>
<event>
 7    1  0.5562528E-006  0.8949484E+02  0.7818608E-02  0.1352008E+00
          2   -1    0    0  502    0  0.00000000000E+00  0.00000000000E+00  0.80451708144E+03  0.80451708144E+03  0.00000000000E+00 0. -1.
          1   -1    0    0  501    0 -0.00000000000E+00 -0.00000000000E+00 -0.17862364575E+04  0.17862364575E+04  0.00000000000E+00 0. -1.
         25    2    1    2    0    0  0.42556891590E+02  0.12754238292E+03 -0.16978394315E+03  0.25005930860E+03  0.12499968802E+03 0.  0.
          2    1    1    2  501    0  0.12202602756E+02 -0.57340943189E+02 -0.15731744220E+04  0.15742663845E+04  0.00000000000E+00 0. -1.
          1    1    1    2  502    0 -0.54759494347E+02 -0.70201439728E+02  0.76123898910E+03  0.76642784584E+03  0.00000000000E+00 0. -1.
         22    1    3    3    0    0  0.13572604270E+02  0.69831154385E+02 -0.29915940668E+01  0.71200809999E+02  0.00000000000E+00 0.  1.
         22    1    3    3    0    0  0.28984287321E+02  0.57711228532E+02 -0.16679234908E+03  0.17885849860E+03  0.00000000000E+00 0.  1.
</event>
<event>
 7    1  0.5562528E-006  0.1092997E+03  0.7818608E-02  0.1319549E+00
          2   -1    0    0  502    0  0.00000000000E+00  0.00000000000E+00  0.10704265329E+04  0.10704265329E+04  0.00000000000E+00 0. -1.
          1   -1    0    0  501    0 -0.00000000000E+00 -0.00000000000E+00 -0.10349816779E+03  0.10349816779E+03  0.00000000000E+00 0. -1.
         25    2    1    2    0    0 -0.82935549457E+02 -0.64548319021E+02  0.77155019542E+02  0.18061910847E+03  0.12500229778E+03 0.  0.
          2    1    1    2  501    0  0.11710800971E+03  0.10782383461E+02  0.17722938164E+02  0.11893127540E+03  0.00000000000E+00 0. -1.
          1    1    1    2  502    0 -0.34172460256E+02  0.53765935560E+02  0.87205040739E+03  0.87437431681E+03  0.00000000000E+00 0. -1.
         22    1    3    3    0    0 -0.11557259511E+03 -0.59410570131E+02  0.65994387119E+02  0.14574601097E+03  0.00000000000E+00 0. -1.
         22    1    3    3    0    0  0.32637045653E+02 -0.51377488908E+01  0.11160632424E+02  0.34873097493E+02  0.00000000000E+00 0. -1.
</event>
<event>
 7    1  0.5562528E-006  0.4581941E+02  0.7818608E-02  0.1521342E+00
          2   -1    0    0  502    0  0.00000000000E+00  0.00000000000E+00  0.14217039360E+04  0.14217039360E+04  0.00000000000E+00 0. -1.
          1   -1    0    0  501    0 -0.00000000000E+00 -0.00000000000E+00 -0.37148174135E+03  0.37148174135E+03  0.00000000000E+00 0. -1.
         25    2    1    2    0    0  0.97725576769E+01 -0.37449090359E+02  0.33693060086E+02  0.13512056661E+03  0.12499763186E+03 0.  0.
          2    1    1    2  501    0 -0.39049442540E+02  0.24619692041E+02 -0.31891490464E+03  0.32223858335E+03  0.00000000000E+00 0. -1.
          1    1    1    2  502    0  0.29276884863E+02  0.12829398318E+02  0.13354440392E+04  0.13358265274E+04  0.00000000000E+00 0. -1.
         22    1    3    3    0    0 -0.49013052220E+02  0.96488129629E+01 -0.54173074355E+01  0.50246652619E+02  0.00000000000E+00 0. -1.
         22    1    3    3    0    0  0.58785609897E+02 -0.47097903322E+02  0.39110367521E+02  0.84873913990E+02  0.00000000000E+00 0. -1.
</event>
<event>
 7    1  0.5562528E-006  0.1350948E+03  0.7818608E-02  0.1251536E+00
          2   -1    0    0  502    0  0.00000000000E+00  0.00000000000E+00  0.13698242665E+04  0.13698242665E+04  0.00000000000E+00 0. -1.
          1   -1    0    0  501    0 -0.00000000000E+00 -0.00000000000E+00 -0.85934416613E+02  0.85934416613E+02  0.00000000000E+00 0. -1.
         25    2    1    2    0    0  0.48843360211E+02 -0.53578552556E+02  0.19213143413E+03  0.24040787508E+03  0.12500049315E+03 0.  0.
          2    1    1    2  501    0 -0.11522067275E+03  0.12559169050E+03  0.62642446402E+02  0.18158511019E+03  0.00000000000E+00 0. -1.
          1    1    1    2  502    0  0.66377312541E+02 -0.72013137941E+02  0.10291159693E+04  0.10337656978E+04  0.00000000000E+00 0. -1.
         22    1    3    3    0    0 -0.15024053127E+01  0.30484255946E+02  0.75667107154E+01  0.31445225287E+02  0.00000000000E+00 0.  1.
         22    1    3    3    0    0  0.50345765524E+02 -0.84062808502E+02  0.18456472341E+03  0.20896264979E+03  0.00000000000E+00 0.  1.
</event>
<event>
 7    1  0.5562528E-006  0.8417606E+02  0.7818608E-02  0.1421656E+00
          2   -1    0    0  502    0  0.00000000000E+00  0.00000000000E+00  0.27068925087E+04  0.27068925087E+04  0.00000000000E+00 0. -1.
          1   -1    0    0  501    0 -0.00000000000E+00 -0.00000000000E+00 -0.16122919142E+02  0.16122919142E+02  0.00000000000E+00 0. -1.
         25    2    1    2    0    0  0.49332918728E+02  0.70578885222E+02  0.21447170151E+04  0.21500816607E+04  0.12499982682E+03 0.  0.
          2    1    1    2  501    0 -0.16055162689E+02 -0.82968634498E+02  0.12802859968E+03  0.15340431837E+03  0.00000000000E+00 0. -1.
          1    1    1    2  502    0 -0.33277756039E+02  0.12389749277E+02  0.41802397476E+03  0.41952944880E+03  0.00000000000E+00 0. -1.
         22    1    3    3    0    0  0.26117860607E+02 -0.23966286530E+02  0.11650897242E+04  0.11656288393E+04  0.00000000000E+00 0.  1.
         22    1    3    3    0    0  0.23215058121E+02  0.94545171752E+02  0.97962729091E+03  0.98445282138E+03  0.00000000000E+00 0.  1.
</event>
<event>
 7    1  0.5562528E-006  0.9347565E+02  0.7818608E-02  0.1371790E+00
          2   -1    0    0  502    0  0.00000000000E+00  0.00000000000E+00  0.16088801107E+03  0.16088801107E+03  0.00000000000E+00 0. -1.
          1   -1    0    0  501    0 -0.00000000000E+00 -0.00000000000E+00 -0.86450938574E+03  0.86450938574E+03  0.00000000000E+00 0. -1.
         25    2    1    2    0    0  0.69678519655E+02  0.94907995297E+01 -0.28767452884E+02  0.14628063721E+03  0.12500114839E+03 0.  0.
          2    1    1    2  501    0 -0.76379503975E+02 -0.56570550883E+02 -0.76835817195E+03  0.77421465774E+03  0.00000000000E+00 0. -1.
          1    1    1    2  502    0  0.67009843202E+01  0.47079751353E+02  0.93504250158E+02  0.10490210187E+03  0.00000000000E+00 0. -1.
         22    1    3    3    0    0  0.69837445258E+02  0.25922898392E+02  0.33646570782E+02  0.81739569039E+02  0.00000000000E+00 0.  1.
         22    1    3    3    0    0 -0.15892560314E+00 -0.16432098862E+02 -0.62414023666E+02  0.64541068170E+02  0.00000000000E+00 0.  1.
</event>
<event>
 7    1  0.5562528E-006  0.1925155E+03  0.7818608E-02  0.1294117E+00
          2   -1    0    0  502    0  0.00000000000E+00  0.00000000000E+00  0.11537699195E+04  0.11537699195E+04  0.00000000000E+00 0. -1.
          1   -1    0    0  501    0 -0.00000000000E+00 -0.00000000000E+00 -0.39635493419E+03  0.39635493419E+03  0.00000000000E+00 0. -1.
         25    2    1    2    0    0 -0.12953295013E+02 -0.23061182322E+03  0.15700733794E+03  0.30598352114E+03  0.12500004072E+03 0.  0.
          2    1    1    2  501    0 -0.32669001885E+01  0.18798221038E+03 -0.29378046911E+03  0.34879069381E+03  0.00000000000E+00 0. -1.
          1    1    1    2  502    0  0.16220195202E+02  0.42629612842E+02  0.89418811647E+03  0.89535063872E+03  0.00000000000E+00 0. -1.
         22    1    3    3    0    0  0.29061669925E+02 -0.21462635058E+03  0.14014244608E+03  0.25797084373E+03  0.00000000000E+00 0. -1.
         22    1    3    3    0    0 -0.42014964938E+02 -0.15985472639E+02  0.16864891868E+02  0.48012677409E+02  0.00000000000E+00 0. -1.
</event>
<event>
 7    1  0.5562528E-006  0.5813964E+02  0.7818608E-02  0.1457774E+00
          2   -1    0    0  502    0  0.00000000000E+00  0.00000000000E+00  0.13634763870E+04  0.13634763870E+04  0.00000000000E+00 0. -1.
          1   -1    0    0  501    0 -0.00000000000E+00 -0.00000000000E+00 -0.67486255366E+03  0.67486255366E+03  0.00000000000E+00 0. -1.
         25    2    1    2    0    0  0.37044213672E+02 -0.52619210464E+02  0.36547816184E+03  0.39158605875E+03  0.12499719816E+03 0.  0.
          2    1    1    2  501    0 -0.55339141904E+02  0.17900062466E+02 -0.66013855008E+03  0.66269581118E+03  0.00000000000E+00 0. -1.
          1    1    1    2  502    0  0.18294928232E+02  0.34719147998E+02  0.98327422161E+03  0.98405707077E+03  0.00000000000E+00 0. -1.
         22    1    3    3    0    0  0.36502313718E+02 -0.40788217480E+02  0.44919283453E+02  0.70808471371E+02  0.00000000000E+00 0.  1.
         22    1    3    3    0    0  0.54189995372E+00 -0.11830992984E+02  0.32055887838E+03  0.32077758737E+03  0.00000000000E+00 0.  1.
</event>
<event>
 7    1  0.5562528E-006  0.6545860E+02  0.7818608E-02  0.1432503E+00
          2   -1    0    0  502    0  0.00000000000E+00  0.00000000000E+00  0.72078696832E+03  0.72078696832E+03  0.00000000000E+00 0. -1.
          1   -1    0    0  501    0 -0.00000000000E+00 -0.00000000000E+00 -0.73155819020E+02  0.73155819020E+02  0.00000000000E+00 0. -1.
         25    2    1    2    0    0 -0.16286713099E+02  0.65341115046E+02  0.21955595533E+02  0.14366973624E+03  0.12499690635E+03 0.  0.
          2    1    1    2  501    0  0.41781639556E+02 -0.46896036610E+01  0.31675800138E+02  0.52640802623E+02  0.00000000000E+00 0. -1.
          1    1    1    2  502    0 -0.25494926457E+02 -0.60651511385E+02  0.59399975363E+03  0.59763224848E+03  0.00000000000E+00 0. -1.
         22    1    3    3    0    0 -0.44393953276E+02  0.90668596329E+02  0.29318861800E+02  0.10512475020E+03  0.00000000000E+00 0. -1.
         22    1    3    3    0    0  0.28107240177E+02 -0.25327481283E+02 -0.73632662676E+01  0.38544986037E+02  0.00000000000E+00 0. -1.
</event>
<event>
 7    1  0.5562528E-006  0.1621547E+03  0.7818608E-02  0.1227741E+00
          2   -1    0    0  502    0  0.00000000000E+00  0.00000000000E+00  0.16123937594E+04  0.16123937594E+04  0.00000000000E+00 0. -1.
          1   -1    0    0  501    0 -0.00000000000E+00 -0.00000000000E+00 -0.11342296246E+04  0.11342296246E+04  0.00000000000E+00 0. -1.
         25    2    1    2    0    0 -0.28943668385E+02 -0.14909718547E+03 -0.42141596500E+03  0.46506221148E+03  0.12499495322E+03 0.  0.
          2    1    1    2  501    0  0.12937378572E+03  0.12241480629E+03 -0.67777513854E+03  0.70078677189E+03  0.00000000000E+00 0. -1.
          1    1    1    2  502    0 -0.10043011733E+03  0.26682379186E+02  0.15773552383E+04  0.15807744006E+04  0.00000000000E+00 0. -1.
         22    1    3    3    0    0 -0.62934691373E+02 -0.97655839674E+02 -0.35898736703E+03  0.37731865589E+03  0.00000000000E+00 0. -1.
         22    1    3    3    0    0  0.33991022989E+02 -0.51441345799E+02 -0.62428597975E+02  0.87743555584E+02  0.00000000000E+00 0. -1.
</event>
<event>
 7    1  0.5562528E-006  0.7161311E+02  0.7818608E-02  0.1506065E+00
          2   -1    0    0  502    0  0.00000000000E+00  0.00000000000E+00  0.50800950121E+03  0.50800950121E+03  0.00000000000E+00 0. -1.
          1   -1    0    0  501    0 -0.00000000000E+00 -0.00000000000E+00 -0.13449481421E+04  0.13449481421E+04  0.00000000000E+00 0. -1.
         25    2    1    2    0    0  0.22505893951E+01 -0.56251208302E+02  0.24078053477E+03  0.27707236155E+03  0.12499825607E+03 0.  0.
          2    1    1    2  501    0  0.15848887985E+02  0.69903457389E+02 -0.13253159131E+04  0.13272527830E+04  0.00000000000E+00 0. -1.
          1    1    1    2  502    0 -0.18099477380E+02 -0.13652249086E+02  0.24759673748E+03  0.24863249867E+03  0.00000000000E+00 0. -1.
         22    1    3    3    0    0  0.56666269109E+02 -0.39526058097E+02  0.18453764483E+03  0.19704699359E+03  0.00000000000E+00 0. -1.
         22    1    3    3    0    0 -0.54415679714E+02 -0.16725150205E+02  0.56242889948E+02  0.80025367964E+02  0.00000000000E+00 0. -1.
</event>
<event>
 7    1  0.5562528E-006  0.8153499E+02  0.7818608E-02  0.1387249E+00
          2   -1    0    0  502    0  0.00000000000E+00  0.00000000000E+00  0.23381160647E+04  0.23381160647E+04  0.00000000000E+00 0. -1.
          1   -1    0    0  501    0 -0.00000000000E+00 -0.00000000000E+00 -0.11197995157E+03  0.11197995157E+03  0.00000000000E+00 0. -1.
         25    2    1    2    0    0 -0.13440226352E+02 -0.54823752762E+02  0.16951822384E+03  0.21805063335E+03  0.12499346759E+03 0.  0.
          2    1    1    2  501    0 -0.48054293685E+02 -0.43992295212E+00 -0.80271552905E+02  0.93557099568E+02  0.00000000000E+00 0. -1.
          1    1    1    2  502    0  0.61494520037E+02  0.55263675714E+02  0.21368894422E+04  0.21384882834E+04  0.00000000000E+00 0. -1.
         22    1    3    3    0    0  0.53420466249E+02 -0.32941916965E+02  0.53988721190E+02  0.82787064952E+02  0.00000000000E+00 0. -1.
         22    1    3    3    0    0 -0.66860692602E+02 -0.21881835797E+02  0.11552950265E+03  0.13526356840E+03  0.00000000000E+00 0. -1.
</event>
<event>
 7    1  0.5562528E-006  0.2930154E+02  0.7818608E-02  0.1620940E+00
          2   -1    0    0  502    0  0.00000000000E+00  0.00000000000E+00  0.65188480076E+03  0.65188480076E+03  0.00000000000E+00 0. -1.
          1   -1    0    0  501    0 -0.00000000000E+00 -0.00000000000E+00 -0.28249022720E+03  0.28249022720E+03  0.00000000000E+00 0. -1.
         25    2    1    2    0    0  0.30994014520E+01 -0.31175729141E+02  0.13268841773E+03  0.18497773625E+03  0.12501605630E+03 0.  0.
          2    1    1    2  501    0  0.21344422914E+02  0.20152773097E+02 -0.25513878865E+03  0.25682196192E+03  0.00000000000E+00 0. -1.
          1    1    1    2  502    0 -0.24443824366E+02  0.11022956045E+02  0.49184494447E+03  0.49257532978E+03  0.00000000000E+00 0. -1.
         22    1    3    3    0    0  0.34303672931E+02 -0.26560069583E+02  0.14482208871E+03  0.15118074167E+03  0.00000000000E+00 0.  1.
         22    1    3    3    0    0 -0.31204271479E+02 -0.46156595582E+01 -0.12133670976E+02  0.33796994586E+02  0.00000000000E+00 0.  1.
</event>
<event>
 7    1  0.5562528E-006  0.9787340E+02  0.7818608E-02  0.1344877E+00
          2   -1    0    0  502    0  0.00000000000E+00  0.00000000000E+00  0.68253293656E+02  0.68253293656E+02  0.00000000000E+00 0. -1.
          1   -1    0    0  501    0 -0.00000000000E+00 -0.00000000000E+00 -0.10940108325E+04  0.10940108325E+04  0.00000000000E+00 0. -1.
         25    2    1    2    0    0 -0.85226771743E+02  0.21140599761E+01 -0.21329423490E+03  0.26152696220E+03  0.12503539276E+03 0.  0.
          2    1    1    2  501    0 -0.69793669561E+00  0.56972781169E+02 -0.79252218916E+03  0.79456768448E+03  0.00000000000E+00 0. -1.
          1    1    1    2  502    0  0.85924708439E+02 -0.59086841145E+02 -0.19941114796E+02  0.10616947949E+03  0.00000000000E+00 0. -1.
         22    1    3    3    0    0 -0.10058759470E+03  0.39127335084E+02 -0.17779813417E+03  0.20799276207E+03  0.00000000000E+00 0.  1.
         22    1    3    3    0    0  0.15360822957E+02 -0.37013275108E+02 -0.35496100728E+02  0.53534200125E+02  0.00000000000E+00 0.  1.
</event>
<event>
 7    1  0.5562528E-006  0.8365263E+02  0.7818608E-02  0.1371038E+00
          2   -1    0    0  502    0  0.00000000000E+00  0.00000000000E+00  0.97994179748E+02  0.97994179748E+02  0.00000000000E+00 0. -1.
          1   -1    0    0  501    0 -0.00000000000E+00 -0.00000000000E+00 -0.29289820982E+04  0.29289820982E+04  0.00000000000E+00 0. -1.
         25    2    1    2    0    0  0.17240690618E+02 -0.68705795552E+02 -0.59904391633E+03  0.61603205247E+03  0.12499659281E+03 0.  0.
          2    1    1    2  501    0 -0.52866047081E+02 -0.80099867652E+01 -0.23010794053E+04  0.23017005471E+04  0.00000000000E+00 0. -1.
          1    1    1    2  502    0  0.35625356463E+02  0.76715782317E+02  0.69135403246E+02  0.10924367836E+03  0.00000000000E+00 0. -1.
         22    1    3    3    0    0  0.15671140566E+02 -0.10063286562E+03 -0.53319313439E+03  0.54283282588E+03  0.00000000000E+00 0. -1.
         22    1    3    3    0    0  0.15695500515E+01  0.31927070070E+02 -0.65850781943E+02  0.73199226588E+02  0.00000000000E+00 0. -1.
</event>
<event>
 7    1  0.5562528E-006  0.1048571E+03  0.7818608E-02  0.1329600E+00
          2   -1    0    0  502    0  0.00000000000E+00  0.00000000000E+00  0.10711897432E+04  0.10711897432E+04  0.00000000000E+00 0. -1.
          1   -1    0    0  501    0 -0.00000000000E+00 -0.00000000000E+00 -0.15983648336E+03  0.15983648336E+03  0.00000000000E+00 0. -1.
         25    2    1    2    0    0 -0.12338575581E+03  0.38240913258E+02  0.26560891478E+03  0.32071237113E+03  0.12498766819E+03 0.  0.
          2    1    1    2  501    0  0.49955183284E+02  0.34554203170E+02 -0.12165715622E+03  0.13597785464E+03  0.00000000000E+00 0. -1.
          1    1    1    2  502    0  0.73430572522E+02 -0.72795116428E+02  0.76740150133E+03  0.77433600084E+03  0.00000000000E+00 0. -1.
         22    1    3    3    0    0 -0.66985675795E+02 -0.27904593139E+02  0.19710139688E+03  0.21003501549E+03  0.00000000000E+00 0.  1.
         22    1    3    3    0    0 -0.56400080011E+02  0.66145506398E+02  0.68507517909E+02  0.11067735564E+03  0.00000000000E+00 0.  1.
</event>
<event>
 7    1  0.5562528E-006  0.3450325E+02  0.7818608E-02  0.1605931E+00
          2   -1    0    0  502    0  0.00000000000E+00  0.00000000000E+00  0.25803433484E+03  0.25803433484E+03  0.00000000000E+00 0. -1.
          1   -1    0    0  501    0 -0.00000000000E+00 -0.00000000000E+00 -0.12889897826E+04  0.12889897826E+04  0.00000000000E+00 0. -1.
         25    2    1    2    0    0  0.82459067255E+01 -0.75391316510E+01 -0.19699153489E+03  0.23357029547E+03  0.12499833850E+03 0.  0.
          2    1    1    2  501    0  0.24669631231E+02 -0.32693020261E+01 -0.10723121578E+04  0.10726008777E+04  0.00000000000E+00 0. -1.
          1    1    1    2  502    0 -0.32915537957E+02  0.10808433677E+02  0.23834824496E+03  0.24085294425E+03  0.00000000000E+00 0. -1.
         22    1    3    3    0    0 -0.38138926761E+02  0.28932677343E+02 -0.30083987496E+02  0.56539577788E+02  0.00000000000E+00 0.  1.
         22    1    3    3    0    0  0.46384833487E+02 -0.36471808994E+02 -0.16690754739E+03  0.17703071769E+03  0.00000000000E+00 0.  1.
</event>
<event>
 7    1  0.5562528E-006  0.3980596E+02  0.7818608E-02  0.1591799E+00
          2   -1    0    0  502    0  0.00000000000E+00  0.00000000000E+00  0.15070136150E+02  0.15070136150E+02  0.00000000000E+00 0. -1.
          1   -1    0    0  501    0 -0.00000000000E+00 -0.00000000000E+00 -0.11000174166E+04  0.11000174166E+04  0.00000000000E+00 0. -1.
         25    2    1    2    0    0  0.30434723446E+00  0.20209867097E+02 -0.55797570626E+03  0.57216348472E+03  0.12500253244E+03 0.  0.
          2    1    1    2  501    0  0.13188800120E+02  0.19435006920E+02 -0.47762696454E+03  0.47820412085E+03  0.00000000000E+00 0. -1.
          1    1    1    2  502    0 -0.13493147354E+02 -0.39644874017E+02 -0.49344609653E+02  0.64719947181E+02  0.00000000000E+00 0. -1.
         22    1    3    3    0    0 -0.24120361243E+02  0.67779636468E+02 -0.28028041203E+03  0.28936651554E+03  0.00000000000E+00 0.  1.
         22    1    3    3    0    0  0.24424708477E+02 -0.47569769371E+02 -0.27769529423E+03  0.28279696918E+03  0.00000000000E+00 0.  1.
</event>
<event>
 7    1  0.5562528E-006  0.6464301E+02  0.7818608E-02  0.1400836E+00
          2   -1    0    0  502    0  0.00000000000E+00  0.00000000000E+00  0.18837367984E+03  0.18837367984E+03  0.00000000000E+00 0. -1.
          1   -1    0    0  501    0 -0.00000000000E+00 -0.00000000000E+00 -0.11799981376E+04  0.11799981376E+04  0.00000000000E+00 0. -1.
         25    2    1    2    0    0  0.12997710353E+02  0.41695391349E+02 -0.19162304257E+03  0.23291945937E+03  0.12499855189E+03 0.  0.
          2    1    1    2  501    0  0.40100523539E+02 -0.53433732062E+02 -0.96213009161E+03  0.96444674756E+03  0.00000000000E+00 0. -1.
          1    1    1    2  502    0 -0.53098233892E+02  0.11738340713E+02  0.16212867645E+03  0.17100561047E+03  0.00000000000E+00 0. -1.
         22    1    3    3    0    0  0.57607316228E+02 -0.15119418031E+02 -0.75520134497E+02  0.96179469738E+02  0.00000000000E+00 0.  1.
         22    1    3    3    0    0 -0.44609605876E+02  0.56814809380E+02 -0.11610290807E+03  0.13673998963E+03  0.00000000000E+00 0.  1.
</event>
<event>
 7    1  0.5562528E-006  0.2027014E+03  0.7818608E-02  0.1159591E+00
          2   -1    0    0  502    0  0.00000000000E+00  0.00000000000E+00  0.22943562593E+03  0.22943562593E+03  0.00000000000E+00 0. -1.
          1   -1    0    0  501    0 -0.00000000000E+00 -0.00000000000E+00 -0.12442230890E+04  0.12442230890E+04  0.00000000000E+00 0. -1.
         25    2    1    2    0    0  0.78721353505E+02 -0.16559052123E+02 -0.57731206531E+02  0.15946598118E+03  0.12500101296E+03 0.  0.
          2    1    1    2  501    0 -0.16551583991E+03  0.16939859123E+03 -0.10761353076E+04  0.11018886406E+04  0.00000000000E+00 0. -1.
          1    1    1    2  502    0  0.86794486401E+02 -0.15283953910E+03  0.11907905105E+03  0.21230409318E+03  0.00000000000E+00 0. -1.
         22    1    3    3    0    0  0.63051533130E+02 -0.46286216438E+02 -0.85494909081E+02  0.11587618021E+03  0.00000000000E+00 0. -1.
         22    1    3    3    0    0  0.15669820375E+02  0.29727164315E+02  0.27763702550E+02  0.43589800964E+02  0.00000000000E+00 0. -1.
</event>
<event>
 7    1  0.5562528E-006  0.1507979E+03  0.7818608E-02  0.1329449E+00
          2   -1    0    0  502    0  0.00000000000E+00  0.00000000000E+00  0.11355045401E+04  0.11355045401E+04  0.00000000000E+00 0. -1.
          1   -1    0    0  501    0 -0.00000000000E+00 -0.00000000000E+00 -0.57147545817E+03  0.57147545817E+03  0.00000000000E+00 0. -1.
         25    2    1    2    0    0  0.45128465607E+02  0.17558258792E+03  0.71220699385E+03  0.74547285652E+03  0.12500061651E+03 0.  0.
          2    1    1    2  501    0 -0.11472988628E+02 -0.14997068386E+03 -0.54350048232E+03  0.56392872756E+03  0.00000000000E+00 0. -1.
          1    1    1    2  502    0 -0.33655476979E+02 -0.25611904065E+02  0.39532257038E+03  0.39757841416E+03  0.00000000000E+00 0. -1.
         22    1    3    3    0    0  0.29515429808E+02  0.19277929072E+03  0.60046603200E+03  0.63134338605E+03  0.00000000000E+00 0. -1.
         22    1    3    3    0    0  0.15613035799E+02 -0.17196702793E+02  0.11174096185E+03  0.11412947046E+03  0.00000000000E+00 0. -1.
</event>
<event>
 7    1  0.5562528E-006  0.6836832E+02  0.7818608E-02  0.1503879E+00
          2   -1    0    0  502    0  0.00000000000E+00  0.00000000000E+00  0.39904471302E+03  0.39904471302E+03  0.00000000000E+00 0. -1.
          1   -1    0    0  501    0 -0.00000000000E+00 -0.00000000000E+00 -0.10434222054E+04  0.10434222054E+04  0.00000000000E+00 0. -1.
         25    2    1    2    0    0  0.17646194304E+02 -0.41574592351E+02  0.13201710766E+03  0.18733138069E+03  0.12499877830E+03 0.  0.
          2    1    1    2  501    0 -0.33295556859E+02  0.59907419696E+02 -0.10139984862E+04  0.10163121681E+04  0.00000000000E+00 0. -1.
          1    1    1    2  502    0  0.15649362555E+02 -0.18332827345E+02  0.23760388621E+03  0.23882336956E+03  0.00000000000E+00 0. -1.
         22    1    3    3    0    0  0.48302813362E+02 -0.59122451581E+02  0.13143936874E+03  0.15200307140E+03  0.00000000000E+00 0. -1.
         22    1    3    3    0    0 -0.30656619058E+02  0.17547859230E+02  0.57773892063E+00  0.35328309298E+02  0.00000000000E+00 0. -1.
</event>
<event>
 7    1  0.5562528E-006  0.5472188E+02  0.7818608E-02  0.1486482E+00
          2   -1    0    0  502    0  0.00000000000E+00  0.00000000000E+00  0.85740966509E+03  0.85740966509E+03  0.00000000000E+00 0. -1.
          1   -1    0    0  501    0 -0.00000000000E+00 -0.00000000000E+00 -0.54324457055E+02  0.54324457055E+02  0.00000000000E+00 0. -1.
         25    2    1    2    0    0  0.39946471683E+02 -0.34503401306E+02  0.71327238366E+03  0.72606399954E+03  0.12500093134E+03 0.  0.
          2    1    1    2  501    0 -0.22823270734E+02 -0.25155050630E+02 -0.33444400999E+02  0.47667664275E+02  0.00000000000E+00 0. -1.
          1    1    1    2  502    0 -0.17123200949E+02  0.59658451936E+02  0.12325722538E+03  0.13800245834E+03  0.00000000000E+00 0. -1.
         22    1    3    3    0    0 -0.40782217648E+02 -0.17906727543E+02  0.38651960312E+03  0.38907742643E+03  0.00000000000E+00 0. -1.
         22    1    3    3    0    0  0.80728689331E+02 -0.16596673762E+02  0.32675278054E+03  0.33698657310E+03  0.00000000000E+00 0. -1.
</event>
<event>
 7    1  0.5562528E-006  0.1076043E+03  0.7818608E-02  0.1420089E+00
          2   -1    0    0  502    0  0.00000000000E+00  0.00000000000E+00  0.50810508356E+03  0.50810508356E+03  0.00000000000E+00 0. -1.
          1   -1    0    0  501    0 -0.00000000000E+00 -0.00000000000E+00 -0.36426452770E+04  0.36426452770E+04  0.00000000000E+00 0. -1.
         25    2    1    2    0    0  0.82414118454E+02  0.60609692324E+02 -0.73492263286E+03  0.75246454196E+03  0.12500395551E+03 0.  0.
          2    1    1    2  501    0 -0.67931126225E+02 -0.84706633883E+02 -0.28975382720E+04  0.28995720184E+04  0.00000000000E+00 0. -1.
          1    1    1    2  502    0 -0.14482992229E+02  0.24096941559E+02  0.49792071146E+03  0.49871380025E+03  0.00000000000E+00 0. -1.
         22    1    3    3    0    0  0.44853591248E+01  0.17739561512E+02 -0.77478285084E+01  0.19870564555E+02  0.00000000000E+00 0. -1.
         22    1    3    3    0    0  0.77928759329E+02  0.42870130812E+02 -0.72717480435E+03  0.73259397740E+03  0.00000000000E+00 0. -1.
</event>
<event>
 7    1  0.5562528E-006  0.3649583E+02  0.7818608E-02  0.1543058E+00
          2   -1    0    0  502    0  0.00000000000E+00  0.00000000000E+00  0.37361565362E+03  0.37361565362E+03  0.00000000000E+00 0. -1.
          1   -1    0    0  501    0 -0.00000000000E+00 -0.00000000000E+00 -0.19832639898E+03  0.19832639898E+03  0.00000000000E+00 0. -1.
         25    2    1    2    0    0 -0.22019238722E+02 -0.33233957681E+00  0.27146325727E+03  0.29967040394E+03  0.12500037452E+03 0.  0.
          2    1    1    2  501    0 -0.74406819078E+01 -0.33983869880E+02 -0.17660392140E+03  0.17999781169E+03  0.00000000000E+00 0. -1.
          1    1    1    2  502    0  0.29459920629E+02  0.34316209457E+02  0.80429918766E+02  0.92273836961E+02  0.00000000000E+00 0. -1.
         22    1    3    3    0    0 -0.74085559946E+02 -0.70676418603E+01  0.16023877361E+03  0.17667791691E+03  0.00000000000E+00 0. -1.
         22    1    3    3    0    0  0.52066321224E+02  0.67353022835E+01  0.11122448366E+03  0.12299248704E+03  0.00000000000E+00 0. -1.
</event>
<event>
 7    1  0.5562528E-006  0.1879394E+03  0.7818608E-02  0.1351000E+00
          2   -1    0    0  502    0  0.00000000000E+00  0.00000000000E+00  0.21054390377E+04  0.21054390377E+04  0.00000000000E+00 0. -1.
          1   -1    0    0  501    0 -0.00000000000E+00 -0.00000000000E+00 -0.45036647899E+02  0.45036647899E+02  0.00000000000E+00 0. -1.
         25    2    1    2    0    0 -0.94357112744E+02  0.13754708908E+03  0.41275818566E+03  0.46240293007E+03  0.12499873384E+03 0.  0.
          2    1    1    2  501    0 -0.48754614487E+01  0.27731674721E+02 -0.10203553020E+01  0.28175468623E+02  0.00000000000E+00 0. -1.
          1    1    1    2  502    0  0.99232574193E+02 -0.16527876380E+03  0.16486645595E+04  0.16598972870E+04  0.00000000000E+00 0. -1.
         22    1    3    3    0    0 -0.54548966850E+01  0.10774338741E+02  0.19408835768E+03  0.19446370577E+03  0.00000000000E+00 0. -1.
         22    1    3    3    0    0 -0.88902216059E+02  0.12677275034E+03  0.21866982798E+03  0.26793922430E+03  0.00000000000E+00 0. -1.
</event>
<event>
 7    1  0.5562528E-006  0.7846095E+02  0.7818608E-02  0.1409391E+00
          2   -1    0    0  502    0  0.00000000000E+00  0.00000000000E+00  0.15454944151E+04  0.15454944151E+04  0.00000000000E+00 0. -1.
          1   -1    0    0  501    0 -0.00000000000E+00 -0.00000000000E+00 -0.20408274594E+04  0.20408274594E+04  0.00000000000E+00 0. -1.
         25    2    1    2    0    0 -0.91546275945E+02  0.66061068362E+02 -0.94393052517E+02  0.19307724959E+03  0.12499596214E+03 0.  0.
          2    1    1    2  501    0  0.72450655288E+02 -0.28776704674E+02 -0.18959979576E+04  0.18975999187E+04  0.00000000000E+00 0. -1.
          1    1    1    2  502    0  0.19095620658E+02 -0.37284363688E+02  0.14950579657E+04  0.14956447063E+04  0.00000000000E+00 0. -1.
         22    1    3    3    0    0  0.26461229614E+01  0.43414026121E+02 -0.85332268647E+02  0.95777741168E+02  0.00000000000E+00 0. -1.
         22    1    3    3    0    0 -0.94192398907E+02  0.22647042241E+02 -0.90607838698E+01  0.97299508418E+02  0.00000000000E+00 0. -1.
</event>
<event>
 7    1  0.5562528E-006  0.6965576E+02  0.7818608E-02  0.1413270E+00
          2   -1    0    0  502    0  0.00000000000E+00  0.00000000000E+00  0.37606320450E+03  0.37606320450E+03  0.00000000000E+00 0. -1.
          1   -1    0    0  501    0 -0.00000000000E+00 -0.00000000000E+00 -0.14278827938E+04  0.14278827938E+04  0.00000000000E+00 0. -1.
         25    2    1    2    0    0  0.29351531788E+02  0.46050959792E+01 -0.97267613621E+02  0.16114892445E+03  0.12500107146E+03 0.  0.
          2    1    1    2  501    0  0.29282706802E+02  0.35191569808E+02 -0.12946173917E+04  0.12954266148E+04  0.00000000000E+00 0. -1.
          1    1    1    2  502    0 -0.58634238590E+02 -0.39796665787E+02  0.34006541608E+03  0.34737045896E+03  0.00000000000E+00 0. -1.
         22    1    3    3    0    0  0.48009750398E+02  0.56014949169E+02 -0.54507995784E+02  0.91726398970E+02  0.00000000000E+00 0. -1.
         22    1    3    3    0    0 -0.18658218610E+02 -0.51409853190E+02 -0.42759617838E+02  0.69422525482E+02  0.00000000000E+00 0. -1.
</event>
<event>
 7    1  0.5562528E-006  0.1193666E+03  0.7818608E-02  0.1277124E+00
          2   -1    0    0  502    0  0.00000000000E+00  0.00000000000E+00  0.18070077781E+04  0.18070077781E+04  0.00000000000E+00 0. -1.
          1   -1    0    0  501    0 -0.00000000000E+00 -0.00000000000E+00 -0.48700946767E+03  0.48700946767E+03  0.00000000000E+00 0. -1.
         25    2    1    2    0    0  0.89121045048E+02 -0.11794731559E+03  0.38690670400E+03  0.43263708775E+03  0.12499568863E+03 0.  0.
          2    1    1    2  501    0 -0.27835619537E+01  0.11931154434E+03 -0.45510894516E+03  0.47049670008E+03  0.00000000000E+00 0. -1.
          1    1    1    2  502    0 -0.86337483094E+02 -0.13642287519E+01  0.13882005516E+04  0.13908834579E+04  0.00000000000E+00 0. -1.
         22    1    3    3    0    0  0.11856837475E+02 -0.11291600400E+03  0.26394411459E+03  0.28732752075E+03  0.00000000000E+00 0. -1.
         22    1    3    3    0    0  0.77264207572E+02 -0.50313115827E+01  0.12296258940E+03  0.14530956700E+03  0.00000000000E+00 0. -1.
</event>
<event>
 7    1  0.5562528E-006  0.2713339E+03  0.7818608E-02  0.1150308E+00
          2   -1    0    0  502    0  0.00000000000E+00  0.00000000000E+00  0.30935970505E+03  0.30935970505E+03  0.00000000000E+00 0. -1.
          1   -1    0    0  501    0 -0.00000000000E+00 -0.00000000000E+00 -0.14606514638E+04  0.14606514638E+04  0.00000000000E+00 0. -1.
         25    2    1    2    0    0 -0.14516996179E+03  0.24952500659E+02  0.70295544271E+02  0.20558118783E+03  0.12500086460E+03 0.  0.
          2    1    1    2  501    0  0.28452729543E+03  0.20005629706E+02 -0.13437773551E+04  0.13737152497E+04  0.00000000000E+00 0. -1.
          1    1    1    2  502    0 -0.13935733363E+03 -0.44958130364E+02  0.12219005209E+03  0.19071473135E+03  0.00000000000E+00 0. -1.
         22    1    3    3    0    0  0.14483195044E+02 -0.18851922345E+02  0.23761666786E+02  0.33612121671E+02  0.00000000000E+00 0. -1.
         22    1    3    3    0    0 -0.15965315684E+03  0.43804423003E+02  0.46533877484E+02  0.17196906616E+03  0.00000000000E+00 0. -1.
</event>
<event>
 7    1  0.5562528E-006  0.1489422E+03  0.7818608E-02  0.1381139E+00
          2   -1    0    0  502    0  0.00000000000E+00  0.00000000000E+00  0.46825755742E+03  0.46825755742E+03  0.00000000000E+00 0. -1.
          1   -1    0    0  501    0 -0.00000000000E+00 -0.00000000000E+00 -0.90354325376E+03  0.90354325376E+03  0.00000000000E+00 0. -1.
         25    2    1    2    0    0 -0.11048414401E+03  0.10279574677E+03 -0.70165068752E+02  0.20814014970E+03  0.12500189364E+03 0.  0.
          2    1    1    2  501    0  0.88641590423E+02 -0.11973779195E+03 -0.75663981721E+03  0.77116683238E+03  0.00000000000E+00 0. -1.
          1    1    1    2  502    0  0.21842553584E+02  0.16942045181E+02  0.39151918962E+03  0.39249382911E+03  0.00000000000E+00 0. -1.
         22    1    3    3    0    0 -0.41847616453E+02  0.87721052986E+02 -0.92731785119E+02  0.13433313110E+03  0.00000000000E+00 0. -1.
         22    1    3    3    0    0 -0.68636527554E+02  0.15074693781E+02  0.22566716367E+02  0.73807018601E+02  0.00000000000E+00 0. -1.
</event>
<event>
 7    1  0.5562528E-006  0.1577367E+03  0.7818608E-02  0.1412681E+00
          2   -1    0    0  502    0  0.00000000000E+00  0.00000000000E+00  0.12698075755E+04  0.12698075755E+04  0.00000000000E+00 0. -1.
          1   -1    0    0  501    0 -0.00000000000E+00 -0.00000000000E+00 -0.14727641266E+03  0.14727641266E+03  0.00000000000E+00 0. -1.
         25    2    1    2    0    0  0.11688461100E+03 -0.79427909103E+02  0.48394192664E+03  0.51941922602E+03  0.12500295584E+03 0.  0.
          2    1    1    2  501    0 -0.12600407281E+03  0.97574855108E+02 -0.80323668413E+02  0.17846503978E+03  0.00000000000E+00 0. -1.
          1    1    1    2  502    0  0.91194618177E+01 -0.18146946005E+02  0.71891290458E+03  0.71919972233E+03  0.00000000000E+00 0. -1.
         22    1    3    3    0    0  0.13280008276E+03 -0.84532114348E+02  0.34193452377E+03  0.37643161249E+03  0.00000000000E+00 0. -1.
         22    1    3    3    0    0 -0.15915471765E+02  0.51042052454E+01  0.14200740287E+03  0.14298761353E+03  0.00000000000E+00 0. -1.
</event>
<event>
 7    1  0.5562528E-006  0.5523718E+02  0.7818608E-02  0.1440264E+00
          2   -1    0    0  502    0  0.00000000000E+00  0.00000000000E+00  0.71345241623E+03  0.71345241623E+03  0.00000000000E+00 0. -1.
          1   -1    0    0  501    0 -0.00000000000E+00 -0.00000000000E+00 -0.10940953564E+03  0.10940953564E+03  0.00000000000E+00 0. -1.
         25    2    1    2    0    0 -0.14048394925E+02 -0.42604547561E+02  0.39520423399E+02  0.13856554153E+03  0.12500416217E+03 0.  0.
          2    1    1    2  501    0  0.55748617292E+02  0.20917678970E+02 -0.43952577933E+02  0.74008693614E+02  0.00000000000E+00 0. -1.
          1    1    1    2  502    0 -0.41700222367E+02  0.21686868591E+02  0.60847503513E+03  0.61028771673E+03  0.00000000000E+00 0. -1.
         22    1    3    3    0    0 -0.10925755811E+02 -0.81569867242E+02  0.52215823494E+02  0.97465417483E+02  0.00000000000E+00 0. -1.
         22    1    3    3    0    0 -0.31226391139E+01  0.38965319681E+02 -0.12695400096E+02  0.41100124045E+02  0.00000000000E+00 0. -1.
</event>
<event>
 7    1  0.5562528E-006  0.1820106E+03  0.7818608E-02  0.1366798E+00
          2   -1    0    0  502    0  0.00000000000E+00  0.00000000000E+00  0.53345562877E+03  0.53345562877E+03  0.00000000000E+00 0. -1.
          1   -1    0    0  501    0 -0.00000000000E+00 -0.00000000000E+00 -0.51613671751E+03  0.51613671751E+03  0.00000000000E+00 0. -1.
         25    2    1    2    0    0  0.14052129901E+03 -0.83504243168E+02 -0.22951502973E+01  0.20579749774E+03  0.12501259239E+03 0.  0.
          2    1    1    2  501    0  0.25451699528E+02  0.34401233314E+00 -0.39170086990E+03  0.39252704217E+03  0.00000000000E+00 0. -1.
          1    1    1    2  502    0 -0.16597299854E+03  0.83160230835E+02  0.41131493145E+03  0.45126780638E+03  0.00000000000E+00 0. -1.
         22    1    3    3    0    0  0.78404097751E+02  0.14231917643E+02 -0.32594554521E+02  0.86093873233E+02  0.00000000000E+00 0. -1.
         22    1    3    3    0    0  0.62117201260E+02 -0.97736160812E+02  0.30299404223E+02  0.11970362450E+03  0.00000000000E+00 0. -1.
</event>
<event>
 7    1  0.5562528E-006  0.6788568E+02  0.7818608E-02  0.1495686E+00
          2   -1    0    0  502    0  0.00000000000E+00  0.00000000000E+00  0.25283086921E+03  0.25283086921E+03  0.00000000000E+00 0. -1.
          1   -1    0    0  501    0 -0.00000000000E+00 -0.00000000000E+00 -0.20215792158E+04  0.20215792158E+04  0.00000000000E+00 0. -1.
         25    2    1    2    0    0 -0.78773905398E+02 -0.12195165019E+02 -0.11899720387E+03  0.19010642916E+03  0.12500427856E+03 0.  0.
          2    1    1    2  501    0  0.11989401096E+02  0.22711094815E+02 -0.18616775398E+04  0.18618546672E+04  0.00000000000E+00 0. -1.
          1    1    1    2  502    0  0.66784504302E+02 -0.10515929796E+02  0.21192639706E+03  0.22244898868E+03  0.00000000000E+00 0. -1.
         22    1    3    3    0    0  0.21049187135E+02 -0.34480555541E+02 -0.12126302065E+02  0.42178480191E+02  0.00000000000E+00 0. -1.
         22    1    3    3    0    0 -0.99823092532E+02  0.22285390521E+02 -0.10687090181E+03  0.14792794897E+03  0.00000000000E+00 0. -1.
</event>
<event>
 7    1  0.5562528E-006  0.6033064E+02  0.7818608E-02  0.1447759E+00
          2   -1    0    0  502    0  0.00000000000E+00  0.00000000000E+00  0.93982802059E+03  0.93982802059E+03  0.00000000000E+00 0. -1.
          1   -1    0    0  501    0 -0.00000000000E+00 -0.00000000000E+00 -0.69786657977E+03  0.69786657977E+03  0.00000000000E+00 0. -1.
         25    2    1    2    0    0 -0.75435410552E+02 -0.21632720531E+02  0.52892632262E+03  0.54913243093E+03  0.12499958473E+03 0.  0.
          2    1    1    2  501    0  0.58338550457E+02 -0.15305939432E+02 -0.68540240921E+03  0.68805095800E+03  0.00000000000E+00 0. -1.
          1    1    1    2  502    0  0.17096860094E+02  0.36938659963E+02  0.39843752742E+03  0.40051121143E+03  0.00000000000E+00 0. -1.
         22    1    3    3    0    0 -0.16289954761E+01  0.30310165261E+02  0.32114298047E+02  0.44189228138E+02  0.00000000000E+00 0. -1.
         22    1    3    3    0    0 -0.73806415076E+02 -0.51942885792E+02  0.49681202457E+03  0.50494320279E+03  0.00000000000E+00 0. -1.
</event>
<event>
 7    1  0.5562528E-006  0.5748574E+02  0.7818608E-02  0.1424787E+00
          2   -1    0    0  502    0  0.00000000000E+00  0.00000000000E+00  0.68132033852E+03  0.68132033852E+03  0.00000000000E+00 0. -1.
          1   -1    0    0  501    0 -0.00000000000E+00 -0.00000000000E+00 -0.85996598974E+02  0.85996598974E+02  0.00000000000E+00 0. -1.
         25    2    1    2    0    0  0.10091770603E+02 -0.57761887961E+01  0.13462069461E+03  0.18407164255E+03  0.12499771991E+03 0.  0.
          2    1    1    2  501    0 -0.58783117640E+02  0.20136190742E+02 -0.43909771926E+02  0.76085407061E+02  0.00000000000E+00 0. -1.
          1    1    1    2  502    0  0.48691347037E+02 -0.14360001946E+02  0.50461281686E+03  0.50715988788E+03  0.00000000000E+00 0. -1.
         22    1    3    3    0    0  0.45861117188E+02 -0.10395760688E+02  0.24718696533E+01  0.47089532272E+02  0.00000000000E+00 0. -1.
         22    1    3    3    0    0 -0.35769346585E+02  0.46195718916E+01  0.13214882496E+03  0.13698211028E+03  0.00000000000E+00 0. -1.
</event>
<event>
 7    1  0.5562528E-006  0.1021723E+03  0.7818608E-02  0.1382735E+00
          2   -1    0    0  502    0  0.00000000000E+00  0.00000000000E+00  0.21517743756E+02  0.21517743756E+02  0.00000000000E+00 0. -1.
          1   -1    0    0  501    0 -0.00000000000E+00 -0.00000000000E+00 -0.31225258793E+04  0.31225258793E+04  0.00000000000E+00 0. -1.
         25    2    1    2    0    0  0.11199502882E+03 -0.10517421380E+01 -0.35783570207E+03  0.39524448764E+03  0.12501129026E+03 0.  0.
          2    1    1    2  501    0 -0.29410158560E+02  0.26781503310E+02 -0.20314668721E+04  0.20318562594E+04  0.00000000000E+00 0. -1.
          1    1    1    2  502    0 -0.82584870258E+02 -0.25729761172E+02 -0.71170556133E+03  0.71694287599E+03  0.00000000000E+00 0. -1.
         22    1    3    3    0    0 -0.20442872575E+02 -0.18720928501E+02 -0.11272055635E+03  0.11607888708E+03  0.00000000000E+00 0. -1.
         22    1    3    3    0    0  0.13243790139E+03  0.17669186363E+02 -0.24511514573E+03  0.27916560056E+03  0.00000000000E+00 0. -1.
</event>
<event>
 7    1  0.5562528E-006  0.5884312E+02  0.7818608E-02  0.1413808E+00
          2   -1    0    0  502    0  0.00000000000E+00  0.00000000000E+00  0.19749125254E+04  0.19749125254E+04  0.00000000000E+00 0. -1.
          1   -1    0    0  501    0 -0.00000000000E+00 -0.00000000000E+00 -0.17333888737E+03  0.17333888737E+03  0.00000000000E+00 0. -1.
         25    2    1    2    0    0 -0.20371455005E+02  0.21443023639E+02  0.95292700873E+03  0.96154545577E+03  0.12499992043E+03 0.  0.
          2    1    1    2  501    0  0.46035726150E+02  0.36650024537E+02 -0.16288226032E+03  0.17318528548E+03  0.00000000000E+00 0. -1.
          1    1    1    2  502    0 -0.25664271145E+02 -0.58093048176E+02  0.10115288897E+04  0.10135206716E+04  0.00000000000E+00 0. -1.
         22    1    3    3    0    0 -0.25060390934E+02 -0.48133520343E+02  0.54562160552E+03  0.54831359219E+03  0.00000000000E+00 0.  1.
         22    1    3    3    0    0  0.46889359293E+01  0.69576543982E+02  0.40730540321E+03  0.41323186357E+03  0.00000000000E+00 0.  1.
</event>
<event>
 7    1  0.5562528E-006  0.4205449E+02  0.7818608E-02  0.1558071E+00
          2   -1    0    0  502    0  0.00000000000E+00  0.00000000000E+00  0.23604261162E+03  0.23604261162E+03  0.00000000000E+00 0. -1.
          1   -1    0    0  501    0 -0.00000000000E+00 -0.00000000000E+00 -0.36348593032E+03  0.36348593032E+03  0.00000000000E+00 0. -1.
         25    2    1    2    0    0  0.67118809764E+02 -0.37932824720E+01  0.62628601862E+02  0.15513479474E+03  0.12500055660E+03 0.  0.
          2    1    1    2  501    0 -0.27296286625E+02 -0.25715802228E+01 -0.31342185119E+03  0.31461874880E+03  0.00000000000E+00 0. -1.
          1    1    1    2  502    0 -0.39822523139E+02  0.63648626947E+01  0.12334993063E+03  0.12977499841E+03  0.00000000000E+00 0. -1.
         22    1    3    3    0    0  0.78571048041E+02  0.29538005321E+02  0.77328427321E+00  0.83943441180E+02  0.00000000000E+00 0. -1.
         22    1    3    3    0    0 -0.11452238277E+02 -0.33331287793E+02  0.61855317589E+02  0.71191353559E+02  0.00000000000E+00 0. -1.
</event>
<event>
 7    1  0.5562528E-006  0.1598958E+03  0.7818608E-02  0.1289663E+00
          2   -1    0    0  502    0  0.00000000000E+00  0.00000000000E+00  0.16107264521E+04  0.16107264521E+04  0.00000000000E+00 0. -1.
          1   -1    0    0  501    0 -0.00000000000E+00 -0.00000000000E+00 -0.28559308296E+03  0.28559308296E+03  0.00000000000E+00 0. -1.
         25    2    1    2    0    0  0.15666157787E+03 -0.26995772777E+02  0.25056154378E+03  0.32199083078E+03  0.12500154461E+03 0.  0.
          2    1    1    2  501    0 -0.15796030215E+03 -0.30237201530E+02 -0.22330362447E+03  0.27519130458E+03  0.00000000000E+00 0. -1.
          1    1    1    2  502    0  0.12987242847E+01  0.57232974307E+02  0.12978754498E+04  0.12991373997E+04  0.00000000000E+00 0. -1.
         22    1    3    3    0    0 -0.18339264471E+02 -0.11578931434E+01  0.56448572188E+02  0.59364220200E+02  0.00000000000E+00 0.  1.
         22    1    3    3    0    0  0.17500084234E+03 -0.25837879634E+02  0.19411297159E+03  0.26262661058E+03  0.00000000000E+00 0.  1.
</event>
<event>
 7    1  0.5562528E-006  0.1320010E+03  0.7818608E-02  0.1258585E+00
          2   -1    0    0  502    0  0.00000000000E+00  0.00000000000E+00  0.16952969987E+03  0.16952969987E+03  0.00000000000E+00 0. -1.
          1   -1    0    0  501    0 -0.00000000000E+00 -0.00000000000E+00 -0.90749320929E+03  0.90749320929E+03  0.00000000000E+00 0. -1.
         25    2    1    2    0    0  0.67419124386E+02 -0.12222591134E+03 -0.28197019258E+03  0.33855112897E+03  0.12500066274E+03 0.  0.
          2    1    1    2  501    0 -0.92974567732E+02 -0.96427031353E+01 -0.56052672172E+03  0.56826706550E+03  0.00000000000E+00 0. -1.
          1    1    1    2  502    0  0.25555443346E+02  0.13186861447E+03  0.10453340488E+03  0.17020471469E+03  0.00000000000E+00 0. -1.
         22    1    3    3    0    0  0.54839946674E+02 -0.14739004624E+03 -0.25490595724E+03  0.29951342627E+03  0.00000000000E+00 0.  1.
         22    1    3    3    0    0  0.12579177712E+02  0.25164134900E+02 -0.27064235343E+02  0.39037702697E+02  0.00000000000E+00 0.  1.
</event>
<event>
 7    1  0.5562528E-006  0.6445257E+02  0.7818608E-02  0.1516005E+00
          2   -1    0    0  502    0  0.00000000000E+00  0.00000000000E+00  0.19215777938E+03  0.19215777938E+03  0.00000000000E+00 0. -1.
          1   -1    0    0  501    0 -0.00000000000E+00 -0.00000000000E+00 -0.66043487762E+03  0.66043487762E+03  0.00000000000E+00 0. -1.
         25    2    1    2    0    0  0.61690396156E+02  0.41112183528E+02 -0.51151636629E+03  0.53176110088E+03  0.12499983526E+03 0.  0.
          2    1    1    2  501    0  0.25291043444E+00 -0.23549324476E+02 -0.13202821121E+03  0.13411220378E+03  0.00000000000E+00 0. -1.
          1    1    1    2  502    0 -0.61943306591E+02 -0.17562859052E+02  0.17526747927E+03  0.18671935234E+03  0.00000000000E+00 0. -1.
         22    1    3    3    0    0  0.86912013328E+02  0.57073245934E+02 -0.46506796428E+03  0.47654933098E+03  0.00000000000E+00 0. -1.
         22    1    3    3    0    0 -0.25221617172E+02 -0.15961062405E+02 -0.46448402016E+02  0.55211769902E+02  0.00000000000E+00 0. -1.
</event>
<event>
 7    1  0.5562528E-006  0.5509931E+02  0.7818608E-02  0.1550911E+00
          2   -1    0    0  502    0  0.00000000000E+00  0.00000000000E+00  0.43208920144E+03  0.43208920144E+03  0.00000000000E+00 0. -1.
          1   -1    0    0  501    0 -0.00000000000E+00 -0.00000000000E+00 -0.27917219849E+04  0.27917219849E+04  0.00000000000E+00 0. -1.
         25    2    1    2    0    0 -0.49788226895E+02  0.90319988653E+01  0.92817742773E+01  0.13518230076E+03  0.12501063380E+03 0.  0.
          2    1    1    2  501    0  0.53691730574E+02  0.12522309577E+02 -0.27281596071E+04  0.27287166309E+04  0.00000000000E+00 0. -1.
          1    1    1    2  502    0 -0.39035036792E+01 -0.21554308442E+02  0.35924504936E+03  0.35991225465E+03  0.00000000000E+00 0. -1.
         22    1    3    3    0    0 -0.87379335687E+02 -0.15837530979E+02 -0.15873305314E+01  0.88817201660E+02  0.00000000000E+00 0.  1.
         22    1    3    3    0    0  0.37591108792E+02  0.24869529844E+02  0.10869104809E+02  0.46365099096E+02  0.00000000000E+00 0.  1.
</event>
<event>
 7    1  0.5562528E-006  0.6922273E+02  0.7818608E-02  0.1476320E+00
          2   -1    0    0  502    0  0.00000000000E+00  0.00000000000E+00  0.46755762164E+03  0.46755762164E+03  0.00000000000E+00 0. -1.
          1   -1    0    0  501    0 -0.00000000000E+00 -0.00000000000E+00 -0.28716012712E+03  0.28716012712E+03  0.00000000000E+00 0. -1.
         25    2    1    2    0    0  0.64965356285E+02 -0.16138415560E+01 -0.12959725854E+03  0.19142383959E+03  0.12499813975E+03 0.  0.
          2    1    1    2  501    0 -0.11267645473E+01  0.28822875385E+02 -0.12220263785E+03  0.12556079181E+03  0.00000000000E+00 0. -1.
          1    1    1    2  502    0 -0.63838591738E+02 -0.27209033829E+02  0.43219739091E+03  0.43773311735E+03  0.00000000000E+00 0. -1.
         22    1    3    3    0    0  0.64523147401E+02  0.54354065760E+02 -0.69562417160E+02  0.10934592309E+03  0.00000000000E+00 0.  1.
         22    1    3    3    0    0  0.44220888427E+00 -0.55967907316E+02 -0.60034841381E+02  0.82077916504E+02  0.00000000000E+00 0.  1.
</event>
<event>
 7    1  0.5562528E-006  0.1252152E+03  0.7818608E-02  0.1386285E+00
          2   -1    0    0  502    0  0.00000000000E+00  0.00000000000E+00  0.13564842322E+04  0.13564842322E+04  0.00000000000E+00 0. -1.
          1   -1    0    0  501    0 -0.00000000000E+00 -0.00000000000E+00 -0.10164367327E+03  0.10164367327E+03  0.00000000000E+00 0. -1.
         25    2    1    2    0    0  0.19094638774E+02 -0.13917993504E+03  0.32547202632E+03  0.37588837103E+03  0.12499747202E+03 0.  0.
          2    1    1    2  501    0  0.80503840324E+01  0.12312616613E+03 -0.26208884695E+02  0.12614185311E+03  0.00000000000E+00 0. -1.
          1    1    1    2  502    0 -0.27145022807E+02  0.16053768906E+02  0.95557741728E+03  0.95609768130E+03  0.00000000000E+00 0. -1.
         22    1    3    3    0    0 -0.29052314257E+02 -0.26426060485E+02  0.14921228953E+02  0.42012101946E+02  0.00000000000E+00 0. -1.
         22    1    3    3    0    0  0.48146953031E+02 -0.11275387456E+03  0.31055079736E+03  0.33387626908E+03  0.00000000000E+00 0. -1.
</event>
<event>
 7    1  0.5562528E-006  0.3097161E+02  0.7818608E-02  0.1629395E+00
          2   -1    0    0  502    0  0.00000000000E+00  0.00000000000E+00  0.92452639715E+03  0.92452639715E+03  0.00000000000E+00 0. -1.
          1   -1    0    0  501    0 -0.00000000000E+00 -0.00000000000E+00 -0.64158828688E+03  0.64158828688E+03  0.00000000000E+00 0. -1.
         25    2    1    2    0    0  0.48167167807E+02  0.21531737520E+02  0.20055507972E+00  0.13567770643E+03  0.12499883209E+03 0.  0.
          2    1    1    2  501    0 -0.30413926124E+02 -0.51609563989E+01 -0.57326471426E+03  0.57409413425E+03  0.00000000000E+00 0. -1.
          1    1    1    2  502    0 -0.17753241683E+02 -0.16370781121E+02  0.85600226944E+03  0.85634284335E+03  0.00000000000E+00 0. -1.
         22    1    3    3    0    0  0.87086033887E+02 -0.32801888891E+01  0.12175698609E+02  0.87994230344E+02  0.00000000000E+00 0. -1.
         22    1    3    3    0    0 -0.38918866080E+02  0.24811926409E+02 -0.11975143529E+02  0.47683476086E+02  0.00000000000E+00 0. -1.
</event>
<event>
 7    1  0.5562528E-006  0.5470037E+02  0.7818608E-02  0.1516120E+00
          2   -1    0    0  502    0  0.00000000000E+00  0.00000000000E+00  0.11732765448E+04  0.11732765448E+04  0.00000000000E+00 0. -1.
          1   -1    0    0  501    0 -0.00000000000E+00 -0.00000000000E+00 -0.60015876670E+02  0.60015876670E+02  0.00000000000E+00 0. -1.
         25    2    1    2    0    0  0.39556808616E+02 -0.40896195251E+02  0.84987101359E+03  0.86089917218E+03  0.12501761887E+03 0.  0.
          2    1    1    2  501    0 -0.24539844888E+02 -0.12908647803E+02 -0.48323910371E+02  0.55713889550E+02  0.00000000000E+00 0. -1.
          1    1    1    2  502    0 -0.15016963728E+02  0.53804843054E+02  0.31171356493E+03  0.31667935976E+03  0.00000000000E+00 0. -1.
         22    1    3    3    0    0 -0.11083895279E+02 -0.51298443860E+02  0.14625242321E+03  0.15538389354E+03  0.00000000000E+00 0.  1.
         22    1    3    3    0    0  0.50640703895E+02  0.10402248608E+02  0.70361859038E+03  0.70551527864E+03  0.00000000000E+00 0.  1.
</event>
<event>
 7    1  0.5562528E-006  0.6954875E+02  0.7818608E-02  0.1456880E+00
          2   -1    0    0  502    0  0.00000000000E+00  0.00000000000E+00  0.19025241081E+03  0.19025241081E+03  0.00000000000E+00 0. -1.
          1   -1    0    0  501    0 -0.00000000000E+00 -0.00000000000E+00 -0.11327285136E+04  0.11327285136E+04  0.00000000000E+00 0. -1.
         25    2    1    2    0    0  0.44096496811E+02  0.60547878393E+02 -0.24014398898E+03  0.28089637336E+03  0.12499236182E+03 0.  0.
          2    1    1    2  501    0 -0.61600091280E+02 -0.32547768703E+02 -0.86919652449E+03  0.87198424681E+03  0.00000000000E+00 0. -1.
          1    1    1    2  502    0  0.17503594470E+02 -0.28000109689E+02  0.16686441066E+03  0.17010030426E+03  0.00000000000E+00 0. -1.
         22    1    3    3    0    0 -0.22822318522E+02  0.53043661470E+02 -0.41394345047E+02  0.71049138255E+02  0.00000000000E+00 0. -1.
         22    1    3    3    0    0  0.66918815333E+02  0.75042169222E+01 -0.19874964393E+03  0.20984723510E+03  0.00000000000E+00 0. -1.
</event>
<event>
 7    1  0.8156045E-006  0.4424409E+02  0.7818608E-02  0.1520200E+00
          2   -1    0    0  502    0  0.00000000000E+00  0.00000000000E+00  0.18181181743E+04  0.18181181743E+04  0.00000000000E+00 0. -1.
          1   -1    0    0  501    0 -0.00000000000E+00 -0.00000000000E+00 -0.90680037166E+03  0.90680037166E+03  0.00000000000E+00 0. -1.
         25    2    1    2    0    0 -0.34266530436E+02 -0.55616698465E+02 -0.18662729501E+03  0.23392467361E+03  0.12499437357E+03 0.  0.
          2    1    1    2  501    0  0.31012046352E+01  0.43727279879E+02 -0.69567942169E+03  0.69705921573E+03  0.00000000000E+00 0. -1.
          1    1    1    2  502    0  0.31165325801E+02  0.11889418586E+02  0.17936245194E+04  0.17939346567E+04  0.00000000000E+00 0. -1.
         22    1    3    3    0    0 -0.75219755150E+02 -0.29434522808E+02 -0.67508072152E+02  0.10526985563E+03  0.00000000000E+00 0.  1.
         22    1    3    3    0    0  0.40953224714E+02 -0.26182175657E+02 -0.11911922286E+03  0.12865481799E+03  0.00000000000E+00 0.  1.
</event>
<event>
 7    1  0.5562528E-006  0.3077750E+03  0.7818608E-02  0.1169086E+00
          2   -1    0    0  502    0  0.00000000000E+00  0.00000000000E+00  0.25357794316E+03  0.25357794316E+03  0.00000000000E+00 0. -1.
          1   -1    0    0  501    0 -0.00000000000E+00 -0.00000000000E+00 -0.31420613135E+04  0.31420613135E+04  0.00000000000E+00 0. -1.
         25    2    1    2    0    0  0.18720451346E+03 -0.14309660256E+03 -0.55970141994E+03  0.62000970131E+03  0.12499673081E+03 0.  0.
          2    1    1    2  501    0  0.10369641228E+03  0.28020150462E+01 -0.24338078078E+04  0.24360174963E+04  0.00000000000E+00 0. -1.
          1    1    1    2  502    0 -0.29090092574E+03  0.14029458751E+03  0.10502585742E+03  0.33961205899E+03  0.00000000000E+00 0. -1.
         22    1    3    3    0    0  0.19996559342E+02 -0.96300183628E+01 -0.20195713615E+03  0.20317304073E+03  0.00000000000E+00 0. -1.
         22    1    3    3    0    0  0.16720795412E+03 -0.13346658420E+03 -0.35774428379E+03  0.41683666058E+03  0.00000000000E+00 0. -1.
</event>
<event>
 7    1  0.5562528E-006  0.3121501E+02  0.7818608E-02  0.1651170E+00
          2   -1    0    0  502    0  0.00000000000E+00  0.00000000000E+00  0.19501552136E+03  0.19501552136E+03  0.00000000000E+00 0. -1.
          1   -1    0    0  501    0 -0.00000000000E+00 -0.00000000000E+00 -0.27300374772E+03  0.27300374772E+03  0.00000000000E+00 0. -1.
         25    2    1    2    0    0 -0.26009539093E+02 -0.44560636982E+02 -0.69054707929E+02  0.15183668065E+03  0.12499471353E+03 0.  0.
          2    1    1    2  501    0  0.16499824856E+02  0.25661770073E+02 -0.16038482118E+03  0.16326071643E+03  0.00000000000E+00 0. -1.
          1    1    1    2  502    0  0.95097142376E+01  0.18898866908E+02  0.15145130274E+03  0.15292187200E+03  0.00000000000E+00 0. -1.
         22    1    3    3    0    0  0.32766509179E+02  0.10254453273E+02 -0.62362018492E+02  0.71188617672E+02  0.00000000000E+00 0.  1.
         22    1    3    3    0    0 -0.58776048272E+02 -0.54815090255E+02 -0.66926894366E+01  0.80648062977E+02  0.00000000000E+00 0.  1.
</event>
<event>
 7    1  0.5562528E-006  0.8434926E+02  0.7818608E-02  0.1350188E+00
          2   -1    0    0  502    0  0.00000000000E+00  0.00000000000E+00  0.14502863796E+04  0.14502863796E+04  0.00000000000E+00 0. -1.
          1   -1    0    0  501    0 -0.00000000000E+00 -0.00000000000E+00 -0.10731393862E+04  0.10731393862E+04  0.00000000000E+00 0. -1.
         25    2    1    2    0    0 -0.59058359535E+02 -0.11049160674E+03  0.31786681349E+03  0.36381370573E+03  0.12499926545E+03 0.  0.
          2    1    1    2  501    0  0.16177360031E+01  0.84198124438E+02 -0.10475755572E+04  0.10509550368E+04  0.00000000000E+00 0. -1.
          1    1    1    2  502    0  0.57440623532E+02  0.26293482306E+02  0.11068557371E+04  0.11086570233E+04  0.00000000000E+00 0. -1.
         22    1    3    3    0    0 -0.21411566031E+02 -0.12605758746E+03  0.28160836748E+03  0.30927696835E+03  0.00000000000E+00 0. -1.
         22    1    3    3    0    0 -0.37646793504E+02  0.15565980712E+02  0.36258446011E+02  0.54536737378E+02  0.00000000000E+00 0. -1.
</event>
<event>
 7    1  0.5562528E-006  0.7138192E+02  0.7818608E-02  0.1497303E+00
          2   -1    0    0  502    0  0.00000000000E+00  0.00000000000E+00  0.26424810447E+03  0.26424810447E+03  0.00000000000E+00 0. -1.
          1   -1    0    0  501    0 -0.00000000000E+00 -0.00000000000E+00 -0.16476944132E+04  0.16476944132E+04  0.00000000000E+00 0. -1.
         25    2    1    2    0    0  0.60611958323E+02  0.55185641925E+02 -0.58170985194E+02  0.16040041295E+03  0.12500065756E+03 0.  0.
          2    1    1    2  501    0 -0.23553230298E+02  0.53463767570E+01 -0.15324020848E+04  0.15325924076E+04  0.00000000000E+00 0. -1.
          1    1    1    2  502    0 -0.37058728025E+02 -0.60532018682E+02  0.20712676129E+03  0.21894969708E+03  0.00000000000E+00 0. -1.
         22    1    3    3    0    0 -0.89234328697E+01  0.60156213699E+02 -0.66589989878E+02  0.90181064824E+02  0.00000000000E+00 0. -1.
         22    1    3    3    0    0  0.69535391193E+02 -0.49705717736E+01  0.84190046836E+01  0.70219348131E+02  0.00000000000E+00 0. -1.
</event>
<event>
 7    1  0.5562528E-006  0.8998901E+02  0.7818608E-02  0.1348645E+00
          2   -1    0    0  502    0  0.00000000000E+00  0.00000000000E+00  0.14249799623E+04  0.14249799623E+04  0.00000000000E+00 0. -1.
          1   -1    0    0  501    0 -0.00000000000E+00 -0.00000000000E+00 -0.22736205092E+04  0.22736205092E+04  0.00000000000E+00 0. -1.
         25    2    1    2    0    0 -0.13022353386E+03  0.32403177533E+02  0.96777259290E+03  0.98499581902E+03  0.12499934892E+03 0.  0.
          2    1    1    2  501    0  0.57898099752E+02 -0.15738035085E+02 -0.22615383291E+04  0.22623340800E+04  0.00000000000E+00 0. -1.
          1    1    1    2  502    0  0.72325434105E+02 -0.16665142447E+02  0.44512518930E+03  0.45127057243E+03  0.00000000000E+00 0. -1.
         22    1    3    3    0    0 -0.10551737846E+03 -0.18235229080E+02  0.38842737011E+03  0.40291719073E+03  0.00000000000E+00 0. -1.
         22    1    3    3    0    0 -0.24706155399E+02  0.50638406613E+02  0.57934522279E+03  0.58207862828E+03  0.00000000000E+00 0. -1.
</event>
<event>
 7    1  0.5562528E-006  0.1214547E+03  0.7818608E-02  0.1252486E+00
          2   -1    0    0  502    0  0.00000000000E+00  0.00000000000E+00  0.44347798828E+03  0.44347798828E+03  0.00000000000E+00 0. -1.
          1   -1    0    0  501    0 -0.00000000000E+00 -0.00000000000E+00 -0.71291811117E+03  0.71291811117E+03  0.00000000000E+00 0. -1.
         25    2    1    2    0    0 -0.78619419547E+02 -0.32083937837E+02  0.12695805912E+03  0.19736994641E+03  0.12500461901E+03 0.  0.
          2    1    1    2  501    0  0.99945387106E+02 -0.73699045619E+02 -0.66136794641E+03  0.67292510004E+03  0.00000000000E+00 0. -1.
          1    1    1    2  502    0 -0.21325967559E+02  0.10578298346E+03  0.26496976440E+03  0.28610105300E+03  0.00000000000E+00 0. -1.
         22    1    3    3    0    0 -0.93221989999E+02 -0.93105691860E+01  0.32576827185E+02  0.99188082890E+02  0.00000000000E+00 0.  1.
         22    1    3    3    0    0  0.14602570452E+02 -0.22773368651E+02  0.94381231933E+02  0.98181863522E+02  0.00000000000E+00 0.  1.
</event>
<event>
 7    1  0.5562528E-006  0.5374986E+02  0.7818608E-02  0.1478157E+00
          2   -1    0    0  502    0  0.00000000000E+00  0.00000000000E+00  0.25412250690E+03  0.25412250690E+03  0.00000000000E+00 0. -1.
          1   -1    0    0  501    0 -0.00000000000E+00 -0.00000000000E+00 -0.71106468601E+03  0.71106468601E+03  0.00000000000E+00 0. -1.
         25    2    1    2    0    0 -0.65386801340E+02  0.61603187838E+02 -0.24846180331E+03  0.29228168363E+03  0.12499971337E+03 0.  0.
          2    1    1    2  501    0  0.24732912459E+02 -0.27070258428E+02 -0.43685148360E+03  0.43838765330E+03  0.00000000000E+00 0. -1.
          1    1    1    2  502    0  0.40653888880E+02 -0.34532929410E+02  0.22837110780E+03  0.23451785597E+03  0.00000000000E+00 0. -1.
         22    1    3    3    0    0 -0.48334529860E+01  0.33209175178E+02  0.14353450727E+01  0.33589757356E+02  0.00000000000E+00 0. -1.
         22    1    3    3    0    0 -0.60553348354E+02  0.28394012660E+02 -0.24989714838E+03  0.25869192628E+03  0.00000000000E+00 0. -1.
</event>
<event>
 7    1  0.5562528E-006  0.1222710E+03  0.7818608E-02  0.1380422E+00
          2   -1    0    0  502    0  0.00000000000E+00  0.00000000000E+00  0.24751393279E+03  0.24751393279E+03  0.00000000000E+00 0. -1.
          1   -1    0    0  501    0 -0.00000000000E+00 -0.00000000000E+00 -0.68331385013E+03  0.68331385013E+03  0.00000000000E+00 0. -1.
         25    2    1    2    0    0  0.89055878875E+02  0.49006731268E+02 -0.24254493428E+03  0.29117698117E+03  0.12499351961E+03 0.  0.
          2    1    1    2  501    0 -0.12284501265E+03 -0.46668693319E+02 -0.40470487124E+03  0.42550546046E+03  0.00000000000E+00 0. -1.
          1    1    1    2  502    0  0.33789133774E+02 -0.23380379489E+01  0.21144988819E+03  0.21414534130E+03  0.00000000000E+00 0. -1.
         22    1    3    3    0    0  0.19322051430E+02  0.68552026292E+02 -0.54543813817E+02  0.89709250392E+02  0.00000000000E+00 0.  1.
         22    1    3    3    0    0  0.69733827445E+02 -0.19545295024E+02 -0.18800112047E+03  0.20146773078E+03  0.00000000000E+00 0.  1.
</event>
<event>
 7    1  0.5562528E-006  0.7268409E+02  0.7818608E-02  0.1501863E+00
          2   -1    0    0  502    0  0.00000000000E+00  0.00000000000E+00  0.16552060168E+04  0.16552060168E+04  0.00000000000E+00 0. -1.
          1   -1    0    0  501    0 -0.00000000000E+00 -0.00000000000E+00 -0.29361496994E+02  0.29361496994E+02  0.00000000000E+00 0. -1.
         25    2    1    2    0    0  0.54858650922E+02  0.58555099373E+02  0.11182567802E+04  0.11280779323E+04  0.12499369433E+03 0.  0.
          2    1    1    2  501    0 -0.32699334366E+02 -0.64670292347E+02  0.30134048913E+02  0.78482826682E+02  0.00000000000E+00 0. -1.
          1    1    1    2  502    0 -0.22159316556E+02  0.61151929736E+01  0.47745369064E+03  0.47800675477E+03  0.00000000000E+00 0. -1.
         22    1    3    3    0    0  0.49307096273E+02  0.97138366848E+02  0.77615077282E+03  0.78375830088E+03  0.00000000000E+00 0. -1.
         22    1    3    3    0    0  0.55515546488E+01 -0.38583267475E+02  0.34210600739E+03  0.34431963142E+03  0.00000000000E+00 0. -1.
</event>
<event>
 7    1  0.5562528E-006  0.3279046E+02  0.7818608E-02  0.1637888E+00
          2   -1    0    0  502    0  0.00000000000E+00  0.00000000000E+00  0.52011187664E+03  0.52011187664E+03  0.00000000000E+00 0. -1.
          1   -1    0    0  501    0 -0.00000000000E+00 -0.00000000000E+00 -0.66654123419E+03  0.66654123419E+03  0.00000000000E+00 0. -1.
         25    2    1    2    0    0 -0.37392451942E+01 -0.10525277465E+02  0.23077185581E+03  0.26268906594E+03  0.12500053004E+03 0.  0.
          2    1    1    2  501    0  0.82869030642E+01  0.31763640327E+02 -0.64973620600E+03  0.65056493834E+03  0.00000000000E+00 0. -1.
          1    1    1    2  502    0 -0.45476578700E+01 -0.21238362862E+02  0.27253499264E+03  0.27339910655E+03  0.00000000000E+00 0. -1.
         22    1    3    3    0    0 -0.39638805283E+02  0.39036673290E+02  0.62706412890E+02  0.83828342244E+02  0.00000000000E+00 0. -1.
         22    1    3    3    0    0  0.35899560089E+02 -0.49561950755E+02  0.16806544292E+03  0.17886072370E+03  0.00000000000E+00 0. -1.
</event>
<event>
 7    1  0.5562528E-006  0.9167624E+02  0.7818608E-02  0.1364842E+00
          2   -1    0    0  502    0  0.00000000000E+00  0.00000000000E+00  0.19901401741E+04  0.19901401741E+04  0.00000000000E+00 0. -1.
          1   -1    0    0  501    0 -0.00000000000E+00 -0.00000000000E+00 -0.87541340200E+03  0.87541340200E+03  0.00000000000E+00 0. -1.
         25    2    1    2    0    0 -0.36339033081E+02 -0.90310597147E+02  0.26550052696E+02  0.16064333035E+03  0.12499938002E+03 0.  0.
          2    1    1    2  501    0 -0.15025277333E+02  0.90667014517E+02 -0.80540522490E+03  0.81063175535E+03  0.00000000000E+00 0. -1.
          1    1    1    2  502    0  0.51364310413E+02 -0.35641736945E+00  0.18935819443E+04  0.18942784904E+04  0.00000000000E+00 0. -1.
         22    1    3    3    0    0 -0.94024622533E+01  0.30328994301E+02 -0.70950087924E+01  0.32536031434E+02  0.00000000000E+00 0. -1.
         22    1    3    3    0    0 -0.26936570827E+02 -0.12063959145E+03  0.33645061489E+02  0.12810729892E+03  0.00000000000E+00 0. -1.
</event>
<event>
 7    1  0.5562528E-006  0.9898297E+02  0.7818608E-02  0.1349930E+00
          2   -1    0    0  502    0  0.00000000000E+00  0.00000000000E+00  0.37166128782E+03  0.37166128782E+03  0.00000000000E+00 0. -1.
          1   -1    0    0  501    0 -0.00000000000E+00 -0.00000000000E+00 -0.73626626927E+03  0.73626626927E+03  0.00000000000E+00 0. -1.
         25    2    1    2    0    0 -0.13194396537E+03 -0.47661860969E+01 -0.64314654552E+00  0.18181762954E+03  0.12500124098E+03 0.  0.
          2    1    1    2  501    0  0.92559361685E+02 -0.32107259713E+02 -0.63867683180E+03  0.64614720230E+03  0.00000000000E+00 0. -1.
          1    1    1    2  502    0  0.39384603687E+02  0.36873445810E+02  0.27471499690E+03  0.27996272526E+03  0.00000000000E+00 0. -1.
         22    1    3    3    0    0  0.58558621438E+01 -0.30926489944E+02  0.23776232116E+02  0.39446775728E+02  0.00000000000E+00 0. -1.
         22    1    3    3    0    0 -0.13779982752E+03  0.26160303848E+02 -0.24419378661E+02  0.14237085381E+03  0.00000000000E+00 0. -1.
</event>
<event>
 7    1  0.5562528E-006  0.2099332E+03  0.7818608E-02  0.1309798E+00
          2   -1    0    0  502    0  0.00000000000E+00  0.00000000000E+00  0.22370466803E+03  0.22370466803E+03  0.00000000000E+00 0. -1.
          1   -1    0    0  501    0 -0.00000000000E+00 -0.00000000000E+00 -0.14951940047E+04  0.14951940047E+04  0.00000000000E+00 0. -1.
         25    2    1    2    0    0 -0.19156995158E+03 -0.26157896973E+02 -0.23770720126E+03  0.33093234019E+03  0.12501287266E+03 0.  0.
          2    1    1    2  501    0  0.21363714489E+03 -0.25553722145E+01 -0.11994789720E+04  0.12183583889E+04  0.00000000000E+00 0. -1.
          1    1    1    2  502    0 -0.22067193311E+02  0.28713269187E+02  0.16569683663E+03  0.16960794356E+03  0.00000000000E+00 0. -1.
         22    1    3    3    0    0  0.28012614842E+00 -0.35009859759E+02 -0.58936934550E+02  0.68551666683E+02  0.00000000000E+00 0. -1.
         22    1    3    3    0    0 -0.19185007773E+03  0.88519627860E+01 -0.17877026671E+03  0.26238067351E+03  0.00000000000E+00 0. -1.
</event>
<event>
 7    1  0.5562528E-006  0.7989747E+02  0.7818608E-02  0.1474035E+00
          2   -1    0    0  502    0  0.00000000000E+00  0.00000000000E+00  0.42946103175E+03  0.42946103175E+03  0.00000000000E+00 0. -1.
          1   -1    0    0  501    0 -0.00000000000E+00 -0.00000000000E+00 -0.19924652202E+04  0.19924652202E+04  0.00000000000E+00 0. -1.
         25    2    1    2    0    0 -0.84866148116E+02 -0.62019431964E+02  0.73203503911E+02  0.17897547529E+03  0.12499917892E+03 0.  0.
          2    1    1    2  501    0  0.64905559075E+02  0.46311077493E+02 -0.19382264597E+04  0.19398657831E+04  0.00000000000E+00 0. -1.
          1    1    1    2  502    0  0.19960589041E+02  0.15708354470E+02  0.30201876731E+03  0.30308499356E+03  0.00000000000E+00 0. -1.
         22    1    3    3    0    0 -0.27306211184E+02 -0.82291567130E+02  0.79489662525E+02  0.11762711268E+03  0.00000000000E+00 0. -1.
         22    1    3    3    0    0 -0.57559936932E+02  0.20272135166E+02 -0.62861586140E+01  0.61348362602E+02  0.00000000000E+00 0. -1.
</event>
<event>
 7    1  0.5562528E-006  0.6839857E+02  0.7818608E-02  0.1443898E+00
          2   -1    0    0  502    0  0.00000000000E+00  0.00000000000E+00  0.42587169381E+04  0.42587169381E+04  0.00000000000E+00 0. -1.
          1   -1    0    0  501    0 -0.00000000000E+00 -0.00000000000E+00 -0.37964269838E+03  0.37964269838E+03  0.00000000000E+00 0. -1.
         25    2    1    2    0    0 -0.31602314598E+02  0.32436116819E+02  0.66430565482E+03  0.67747975532E+03  0.12500403148E+03 0.  0.
          2    1    1    2  501    0 -0.35079589555E+02 -0.11588491313E+02 -0.37179995460E+03  0.37363093686E+03  0.00000000000E+00 0. -1.
          1    1    1    2  502    0  0.66681904153E+02 -0.20847625507E+02  0.35865685395E+04  0.35872489443E+04  0.00000000000E+00 0. -1.
         22    1    3    3    0    0  0.40394816024E+01  0.75213781161E+02  0.32330604786E+03  0.33196420119E+03  0.00000000000E+00 0. -1.
         22    1    3    3    0    0 -0.35641796200E+02 -0.42777664341E+02  0.34099960695E+03  0.34551555413E+03  0.00000000000E+00 0. -1.
</event>
<event>
 7    1  0.5562528E-006  0.5100163E+02  0.7818608E-02  0.1464078E+00
          2   -1    0    0  502    0  0.00000000000E+00  0.00000000000E+00  0.31291903302E+03  0.31291903302E+03  0.00000000000E+00 0. -1.
          1   -1    0    0  501    0 -0.00000000000E+00 -0.00000000000E+00 -0.13793609628E+04  0.13793609628E+04  0.00000000000E+00 0. -1.
         25    2    1    2    0    0 -0.13260348822E+02  0.89286199545E+02 -0.43995852061E+03  0.46618842457E+03  0.12498113885E+03 0.  0.
          2    1    1    2  501    0 -0.12691109098E+01 -0.49094769291E+02 -0.92410909386E+03  0.92541316414E+03  0.00000000000E+00 0. -1.
          1    1    1    2  502    0  0.14529459732E+02 -0.40191430255E+02  0.29762568473E+03  0.30067840706E+03  0.00000000000E+00 0. -1.
         22    1    3    3    0    0  0.34821520258E+02 -0.15629230228E+02 -0.12786098638E+03  0.13343628797E+03  0.00000000000E+00 0.  1.
         22    1    3    3    0    0 -0.48081869079E+02  0.10491542977E+03 -0.31209753423E+03  0.33275213660E+03  0.00000000000E+00 0.  1.
</event>
<event>
 7    1  0.5562528E-006  0.1785807E+03  0.7818608E-02  0.1248646E+00
          2   -1    0    0  502    0  0.00000000000E+00  0.00000000000E+00  0.20096477205E+04  0.20096477205E+04  0.00000000000E+00 0. -1.
          1   -1    0    0  501    0 -0.00000000000E+00 -0.00000000000E+00 -0.50662793840E+02  0.50662793840E+02  0.00000000000E+00 0. -1.
         25    2    1    2    0    0 -0.14751582922E+03 -0.16956209151E+03  0.66160558546E+03  0.70983023673E+03  0.12499916605E+03 0.  0.
          2    1    1    2  501    0  0.75786520898E+02  0.14367156894E+03  0.23676830169E+03  0.28713123334E+03  0.00000000000E+00 0. -1.
          1    1    1    2  502    0  0.71729308327E+02  0.25890522574E+02  0.10606110395E+04  0.10633490442E+04  0.00000000000E+00 0. -1.
         22    1    3    3    0    0  0.71001209164E+01 -0.19386645711E+02  0.89479712854E+01  0.22501554148E+02  0.00000000000E+00 0. -1.
         22    1    3    3    0    0 -0.15461595014E+03 -0.15017544580E+03  0.65265761417E+03  0.68732868258E+03  0.00000000000E+00 0. -1.
</event>
<event>
 7    1  0.5562528E-006  0.1299747E+03  0.7818608E-02  0.1255249E+00
          2   -1    0    0  502    0  0.00000000000E+00  0.00000000000E+00  0.14366551316E+04  0.14366551316E+04  0.00000000000E+00 0. -1.
          1   -1    0    0  501    0 -0.00000000000E+00 -0.00000000000E+00 -0.11489634175E+04  0.11489634175E+04  0.00000000000E+00 0. -1.
         25    2    1    2    0    0  0.17489023083E+03 -0.95741813415E+02 -0.69270776319E+02  0.24531431175E+03  0.12501033325E+03 0.  0.
          2    1    1    2  501    0 -0.46263477101E+02  0.86517249491E+02 -0.98614838309E+03  0.99101673914E+03  0.00000000000E+00 0. -1.
          1    1    1    2  502    0 -0.12862675373E+03  0.92245639242E+01  0.13431108735E+04  0.13492874982E+04  0.00000000000E+00 0. -1.
         22    1    3    3    0    0  0.12157795361E+03 -0.37276273822E+01 -0.64584500270E+01  0.12180642670E+03  0.00000000000E+00 0. -1.
         22    1    3    3    0    0  0.53312277222E+02 -0.92014186033E+02 -0.62812326292E+02  0.12350788504E+03  0.00000000000E+00 0. -1.
</event>
<event>
 7    1  0.5562528E-006  0.7419257E+02  0.7818608E-02  0.1433254E+00
          2   -1    0    0  502    0  0.00000000000E+00  0.00000000000E+00  0.38280325333E+03  0.38280325333E+03  0.00000000000E+00 0. -1.
          1   -1    0    0  501    0 -0.00000000000E+00 -0.00000000000E+00 -0.11078517730E+04  0.11078517730E+04  0.00000000000E+00 0. -1.
         25    2    1    2    0    0 -0.10237307398E+03  0.30717421647E+02 -0.41428433687E+02  0.16963074998E+03  0.12503787407E+03 0.  0.
          2    1    1    2  501    0  0.30013757067E+02 -0.21439643181E+02 -0.99780225486E+03  0.99848376237E+03  0.00000000000E+00 0. -1.
          1    1    1    2  502    0  0.72359316917E+02 -0.92777784655E+01  0.31418216888E+03  0.32254051398E+03  0.00000000000E+00 0. -1.
         22    1    3    3    0    0 -0.77341067906E+02  0.73479061763E+02 -0.26551586392E+01  0.10671393147E+03  0.00000000000E+00 0.  1.
         22    1    3    3    0    0 -0.25032006078E+02 -0.42761640117E+02 -0.38773275048E+02  0.62916818512E+02  0.00000000000E+00 0.  1.
</event>
<event>
 7    1  0.5562528E-006  0.1699597E+03  0.7818608E-02  0.1352625E+00
          2   -1    0    0  502    0  0.00000000000E+00  0.00000000000E+00  0.17721106728E+04  0.17721106728E+04  0.00000000000E+00 0. -1.
          1   -1    0    0  501    0 -0.00000000000E+00 -0.00000000000E+00 -0.47718664412E+03  0.47718664412E+03  0.00000000000E+00 0. -1.
         25    2    1    2    0    0 -0.10502728899E+03  0.16537032533E+03  0.23683225131E+03  0.33180269015E+03  0.12500173597E+03 0.  0.
          2    1    1    2  501    0  0.24402333141E+02 -0.18641961394E+02 -0.42443502257E+03  0.42554445710E+03  0.00000000000E+00 0. -1.
          1    1    1    2  502    0  0.80624955850E+02 -0.14672836393E+03  0.14825267999E+04  0.14919501697E+04  0.00000000000E+00 0. -1.
         22    1    3    3    0    0 -0.10691324227E+03  0.57546032631E+02  0.15232802231E+03  0.19479685219E+03  0.00000000000E+00 0.  1.
         22    1    3    3    0    0  0.18859532747E+01  0.10782429269E+03  0.84504229008E+02  0.13700583796E+03  0.00000000000E+00 0.  1.
</event>
<event>
 7    1  0.5562528E-006  0.1677109E+03  0.7818608E-02  0.1378727E+00
          2   -1    0    0  502    0  0.00000000000E+00  0.00000000000E+00  0.16931991434E+04  0.16931991434E+04  0.00000000000E+00 0. -1.
          1   -1    0    0  501    0 -0.00000000000E+00 -0.00000000000E+00 -0.45986901204E+03  0.45986901204E+03  0.00000000000E+00 0. -1.
         25    2    1    2    0    0 -0.58056000772E+02 -0.13331311590E+03 -0.22625891295E+03  0.29658202061E+03  0.12499965264E+03 0.  0.
          2    1    1    2  501    0  0.15622546046E+01 -0.24988187222E+02 -0.19337977022E+03  0.19499380931E+03  0.00000000000E+00 0. -1.
          1    1    1    2  502    0  0.56493746168E+02  0.15830130312E+03  0.16529688146E+04  0.16614923256E+04  0.00000000000E+00 0. -1.
         22    1    3    3    0    0 -0.79336607727E+02 -0.31022752351E+02 -0.12355474119E+03  0.15007492315E+03  0.00000000000E+00 0.  1.
         22    1    3    3    0    0  0.21280606955E+02 -0.10229036355E+03 -0.10270417176E+03  0.14650709745E+03  0.00000000000E+00 0.  1.
</event>
<event>
 7    1  0.5562528E-006  0.8715115E+02  0.7818608E-02  0.1335818E+00
          2   -1    0    0  502    0  0.00000000000E+00  0.00000000000E+00  0.26909337508E+03  0.26909337508E+03  0.00000000000E+00 0. -1.
          1   -1    0    0  501    0 -0.00000000000E+00 -0.00000000000E+00 -0.67009453478E+03  0.67009453478E+03  0.00000000000E+00 0. -1.
         25    2    1    2    0    0 -0.35105865576E+02  0.17774979713E+02 -0.89832990220E+02  0.15888111711E+03  0.12499948616E+03 0.  0.
          2    1    1    2  501    0 -0.51908717364E+02 -0.45772981136E+02 -0.53451602031E+03  0.53897778869E+03  0.00000000000E+00 0. -1.
          1    1    1    2  502    0  0.87014582940E+02  0.27998001422E+02  0.22334785082E+03  0.24132900405E+03  0.00000000000E+00 0. -1.
         22    1    3    3    0    0 -0.48113873492E+02  0.45884074790E+02 -0.10508929268E+03  0.12435454386E+03  0.00000000000E+00 0.  1.
         22    1    3    3    0    0  0.13008007916E+02 -0.28109095077E+02  0.15256302460E+02  0.34526573255E+02  0.00000000000E+00 0.  1.
</event>
<event>
 7    1  0.5562528E-006  0.8813607E+02  0.7818608E-02  0.1349232E+00
          2   -1    0    0  502    0  0.00000000000E+00  0.00000000000E+00  0.36336141091E+03  0.36336141091E+03  0.00000000000E+00 0. -1.
          1   -1    0    0  501    0 -0.00000000000E+00 -0.00000000000E+00 -0.82931113709E+03  0.82931113709E+03  0.00000000000E+00 0. -1.
         25    2    1    2    0    0  0.11804247619E+03  0.80373082632E+02  0.25032988410E+02  0.19142904383E+03  0.12499827885E+03 0.  0.
          2    1    1    2  501    0 -0.43100197058E+02 -0.43101295698E+02 -0.73795795669E+03  0.74047099506E+03  0.00000000000E+00 0. -1.
          1    1    1    2  502    0 -0.74942279134E+02 -0.37271786933E+02  0.24697524210E+03  0.26077250912E+03  0.00000000000E+00 0. -1.
         22    1    3    3    0    0  0.10530803694E+03  0.21777885265E+02 -0.28280220193E+02  0.11119275959E+03  0.00000000000E+00 0. -1.
         22    1    3    3    0    0  0.12734439256E+02  0.58595197366E+02  0.53313208602E+02  0.80236284242E+02  0.00000000000E+00 0. -1.
</event>
<event>
 7    1  0.5562528E-006  0.1915428E+03  0.7818608E-02  0.1262160E+00
          2   -1    0    0  502    0  0.00000000000E+00  0.00000000000E+00  0.23465187466E+04  0.23465187466E+04  0.00000000000E+00 0. -1.
          1   -1    0    0  501    0 -0.00000000000E+00 -0.00000000000E+00 -0.53071167830E+03  0.53071167830E+03  0.00000000000E+00 0. -1.
         25    2    1    2    0    0 -0.15533260877E+03  0.77771221493E+02 -0.10827557618E+03  0.23984556871E+03  0.12500285675E+03 0.  0.
          2    1    1    2  501    0  0.14592926458E+03 -0.13925001976E+03 -0.32766794988E+03  0.38477552371E+03  0.00000000000E+00 0. -1.
          1    1    1    2  502    0  0.94033441898E+01  0.61478798264E+02  0.22517505944E+04  0.22526093325E+04  0.00000000000E+00 0. -1.
         22    1    3    3    0    0 -0.56606859226E+02  0.43888243208E+02 -0.11474590882E+03  0.13526691389E+03  0.00000000000E+00 0. -1.
         22    1    3    3    0    0 -0.98725749541E+02  0.33882978285E+02  0.64703326354E+01  0.10457865482E+03  0.00000000000E+00 0. -1.
</event>
<event>
 7    1  0.5562528E-006  0.8617870E+02  0.7818608E-02  0.1347510E+00
          2   -1    0    0  502    0  0.00000000000E+00  0.00000000000E+00  0.67973999990E+03  0.67973999990E+03  0.00000000000E+00 0. -1.
          1   -1    0    0  501    0 -0.00000000000E+00 -0.00000000000E+00 -0.36392501203E+03  0.36392501203E+03  0.00000000000E+00 0. -1.
         25    2    1    2    0    0  0.44814814476E+02  0.85602518152E+02  0.14551544451E+03  0.21479301674E+03  0.12500054696E+03 0.  0.
          2    1    1    2  501    0  0.35785801148E+02 -0.52168932761E+02 -0.32237799169E+03  0.32852669699E+03  0.00000000000E+00 0. -1.
          1    1    1    2  502    0 -0.80600615623E+02 -0.33433585391E+02  0.49267753506E+03  0.50034529819E+03  0.00000000000E+00 0. -1.
         22    1    3    3    0    0  0.19459230838E+02  0.11466243993E+03  0.89350730064E+02  0.14666182107E+03  0.00000000000E+00 0.  1.
         22    1    3    3    0    0  0.25355583637E+02 -0.29059921780E+02  0.56164714443E+02  0.68131195673E+02  0.00000000000E+00 0.  1.
</event>
<event>
 7    1  0.5562528E-006  0.8331118E+02  0.7818608E-02  0.1361336E+00
          2   -1    0    0  502    0  0.00000000000E+00  0.00000000000E+00  0.14331800401E+04  0.14331800401E+04  0.00000000000E+00 0. -1.
          1   -1    0    0  501    0 -0.00000000000E+00 -0.00000000000E+00 -0.21141456527E+02  0.21141456527E+02  0.00000000000E+00 0. -1.
         25    2    1    2    0    0  0.54125102722E+02 -0.31268317731E+02  0.30138918127E+03  0.33221746080E+03  0.12500307291E+03 0.  0.
          2    1    1    2  501    0  0.32604430296E+02  0.48215923333E+02  0.23895285948E+03  0.24593961290E+03  0.00000000000E+00 0. -1.
          1    1    1    2  502    0 -0.86729533018E+02 -0.16947605602E+02  0.87169654279E+03  0.87616442290E+03  0.00000000000E+00 0. -1.
         22    1    3    3    0    0 -0.21753713117E+02 -0.32033824362E+02  0.20948916746E+03  0.21303779294E+03  0.00000000000E+00 0.  1.
         22    1    3    3    0    0  0.75878815839E+02  0.76550663149E+00  0.91900013802E+02  0.11917966786E+03  0.00000000000E+00 0.  1.
</event>
<event>
 7    1  0.5562528E-006  0.6052882E+02  0.7818608E-02  0.1544023E+00
          2   -1    0    0  502    0  0.00000000000E+00  0.00000000000E+00  0.39286732593E+02  0.39286732593E+02  0.00000000000E+00 0. -1.
          1   -1    0    0  501    0 -0.00000000000E+00 -0.00000000000E+00 -0.95752313787E+03  0.95752313787E+03  0.00000000000E+00 0. -1.
         25    2    1    2    0    0  0.12760735354E+02  0.45300051291E+02 -0.35520311288E+03  0.37948542346E+03  0.12500001684E+03 0.  0.
          2    1    1    2  501    0 -0.31735194927E+02 -0.53930966907E+02 -0.58424388040E+03  0.58758538407E+03  0.00000000000E+00 0. -1.
          1    1    1    2  502    0  0.18974459572E+02  0.86309156156E+01  0.21210588002E+02  0.29739062927E+02  0.00000000000E+00 0. -1.
         22    1    3    3    0    0  0.44948250145E+02 -0.23125823602E+02 -0.20728357370E+03  0.21335798282E+03  0.00000000000E+00 0. -1.
         22    1    3    3    0    0 -0.32187514791E+02  0.68425874893E+02 -0.14791953918E+03  0.16612744064E+03  0.00000000000E+00 0. -1.
</event>
<event>
 7    1  0.5562528E-006  0.1661827E+03  0.7818608E-02  0.1305137E+00
          2   -1    0    0  502    0  0.00000000000E+00  0.00000000000E+00  0.75211141856E+03  0.75211141856E+03  0.00000000000E+00 0. -1.
          1   -1    0    0  501    0 -0.00000000000E+00 -0.00000000000E+00 -0.38635866416E+03  0.38635866416E+03  0.00000000000E+00 0. -1.
         25    2    1    2    0    0  0.18912015195E+03  0.88981507634E+02  0.27964839206E+03  0.37082444263E+03  0.12499361381E+03 0.  0.
          2    1    1    2  501    0 -0.15314614806E+03 -0.57609649427E+02 -0.31964951202E+03  0.35909389428E+03  0.00000000000E+00 0. -1.
          1    1    1    2  502    0 -0.35974003891E+02 -0.31371858207E+02  0.40575387436E+03  0.40855174581E+03  0.00000000000E+00 0. -1.
         22    1    3    3    0    0  0.83815143717E+02  0.43288765403E+02  0.35059954868E+02  0.10063844177E+03  0.00000000000E+00 0. -1.
         22    1    3    3    0    0  0.10530500823E+03  0.45692742231E+02  0.24458843719E+03  0.27018600086E+03  0.00000000000E+00 0. -1.
</event>
<event>
 7    1  0.5562528E-006  0.5403373E+02  0.7818608E-02  0.1437717E+00
          2   -1    0    0  502    0  0.00000000000E+00  0.00000000000E+00  0.35092838988E+03  0.35092838988E+03  0.00000000000E+00 0. -1.
          1   -1    0    0  501    0 -0.00000000000E+00 -0.00000000000E+00 -0.14269607289E+04  0.14269607289E+04  0.00000000000E+00 0. -1.
         25    2    1    2    0    0 -0.40395521090E+01  0.17959669702E+02 -0.14285768236E+03  0.19071631026E+03  0.12500210347E+03 0.  0.
          2    1    1    2  501    0 -0.48809186517E+02 -0.40135024527E+01 -0.12574097004E+04  0.12583630635E+04  0.00000000000E+00 0. -1.
          1    1    1    2  502    0  0.52848738626E+02 -0.13946167249E+02  0.32423504380E+03  0.32880974497E+03  0.00000000000E+00 0. -1.
         22    1    3    3    0    0  0.42947418018E+02 -0.25999536809E+02 -0.10417042264E+03  0.11563707702E+03  0.00000000000E+00 0. -1.
         22    1    3    3    0    0 -0.46986970127E+02  0.43959206511E+02 -0.38687259715E+02  0.75079233234E+02  0.00000000000E+00 0. -1.
</event>
<event>
 7    1  0.5562528E-006  0.1812299E+03  0.7818608E-02  0.1267310E+00
          2   -1    0    0  502    0  0.00000000000E+00  0.00000000000E+00  0.19572404922E+03  0.19572404922E+03  0.00000000000E+00 0. -1.
          1   -1    0    0  501    0 -0.00000000000E+00 -0.00000000000E+00 -0.44818015973E+03  0.44818015973E+03  0.00000000000E+00 0. -1.
         25    2    1    2    0    0  0.14042391314E+03 -0.55010295069E+02 -0.18290513514E+03  0.26800028164E+03  0.12499941822E+03 0.  0.
          2    1    1    2  501    0  0.10809440422E+02 -0.61571344483E+02 -0.15468042212E+03  0.16683497071E+03  0.00000000000E+00 0. -1.
          1    1    1    2  502    0 -0.15123335356E+03  0.11658163955E+03  0.85129446745E+02  0.20906895660E+03  0.00000000000E+00 0. -1.
         22    1    3    3    0    0  0.69558927372E+02  0.33354018309E+02 -0.10596264006E+03  0.13106874533E+03  0.00000000000E+00 0.  1.
         22    1    3    3    0    0  0.70864985769E+02 -0.88364313378E+02 -0.76942495077E+02  0.13693153631E+03  0.00000000000E+00 0.  1.
</event>
<event>
 7    1  0.5562528E-006  0.1559848E+03  0.7818608E-02  0.1279787E+00
          2   -1    0    0  502    0  0.00000000000E+00  0.00000000000E+00  0.62681460637E+03  0.62681460637E+03  0.00000000000E+00 0. -1.
          1   -1    0    0  501    0 -0.00000000000E+00 -0.00000000000E+00 -0.97400078057E+03  0.97400078057E+03  0.00000000000E+00 0. -1.
         25    2    1    2    0    0 -0.37685350818E+02 -0.17457871240E+03  0.99122163073E+02  0.23947288367E+03  0.12499658519E+03 0.  0.
          2    1    1    2  501    0  0.60294222389E+02  0.22683142060E+02 -0.88974137758E+03  0.89207042164E+03  0.00000000000E+00 0. -1.
          1    1    1    2  502    0 -0.22608871571E+02  0.15189557034E+03  0.44343304031E+03  0.46927208163E+03  0.00000000000E+00 0. -1.
         22    1    3    3    0    0 -0.30248060876E+02 -0.14880403163E+03  0.16661786461E+02  0.15275863362E+03  0.00000000000E+00 0.  1.
         22    1    3    3    0    0 -0.74372899419E+01 -0.25774680769E+02  0.82460376612E+02  0.86714250048E+02  0.00000000000E+00 0.  1.
</event>
<event>
 7    1  0.5562528E-006  0.7623414E+02  0.7818608E-02  0.1442215E+00
          2   -1    0    0  502    0  0.00000000000E+00  0.00000000000E+00  0.97804016964E+03  0.97804016964E+03  0.00000000000E+00 0. -1.
          1   -1    0    0  501    0 -0.00000000000E+00 -0.00000000000E+00 -0.34948624867E+03  0.34948624867E+03  0.00000000000E+00 0. -1.
         25    2    1    2    0    0 -0.40379359254E+02  0.99524764432E+02  0.19990382190E+03  0.25907991070E+03  0.12500076292E+03 0.  0.
          2    1    1    2  501    0  0.16773480923E+02 -0.29073030520E+02 -0.31716668437E+03  0.31893776265E+03  0.00000000000E+00 0. -1.
          1    1    1    2  502    0  0.23605878331E+02 -0.70451733912E+02  0.74581678344E+03  0.74950874496E+03  0.00000000000E+00 0. -1.
         22    1    3    3    0    0 -0.69526081650E+02  0.11298648466E+03  0.16306880733E+03  0.21021716788E+03  0.00000000000E+00 0.  1.
         22    1    3    3    0    0  0.29146722396E+02 -0.13461720233E+02  0.36835014570E+02  0.48862742826E+02  0.00000000000E+00 0.  1.
</event>
<event>
 7    1  0.5562528E-006  0.1280866E+03  0.7818608E-02  0.1304323E+00
          2   -1    0    0  502    0  0.00000000000E+00  0.00000000000E+00  0.29076976435E+03  0.29076976435E+03  0.00000000000E+00 0. -1.
          1   -1    0    0  501    0 -0.00000000000E+00 -0.00000000000E+00 -0.47158067011E+03  0.47158067011E+03  0.00000000000E+00 0. -1.
         25    2    1    2    0    0  0.45687566239E+01 -0.93596682239E+02 -0.33871777260E+03  0.37300992636E+03  0.12500185290E+03 0.  0.
          2    1    1    2  501    0  0.59172425618E+02 -0.19780793257E+02 -0.89926080978E+02  0.10945024338E+03  0.00000000000E+00 0. -1.
          1    1    1    2  502    0 -0.63741182242E+02  0.11337747550E+03  0.24783294781E+03  0.27989026472E+03  0.00000000000E+00 0. -1.
         22    1    3    3    0    0 -0.14289163348E+02  0.12757361434E+02 -0.18446570895E+01  0.19244043747E+02  0.00000000000E+00 0. -1.
         22    1    3    3    0    0  0.18857919972E+02 -0.10635404367E+03 -0.33687311551E+03  0.35376588262E+03  0.00000000000E+00 0. -1.
</event>
<event>
 7    1  0.5562528E-006  0.1268429E+03  0.7818608E-02  0.1418779E+00
          2   -1    0    0  502    0  0.00000000000E+00  0.00000000000E+00  0.27695737476E+03  0.27695737476E+03  0.00000000000E+00 0. -1.
          1   -1    0    0  501    0 -0.00000000000E+00 -0.00000000000E+00 -0.14240629303E+04  0.14240629303E+04  0.00000000000E+00 0. -1.
         25    2    1    2    0    0 -0.10238216070E+03  0.61237751078E+02 -0.10199236760E+04  0.10344610857E+04  0.12503305096E+03 0.  0.
          2    1    1    2  501    0 -0.16759132637E+02 -0.17307491774E+02 -0.38152216690E+03  0.38228207078E+03  0.00000000000E+00 0. -1.
          1    1    1    2  502    0  0.11914129334E+03 -0.43930259305E+02  0.25434028737E+03  0.28427714864E+03  0.00000000000E+00 0. -1.
         22    1    3    3    0    0 -0.13154657157E+03  0.54710897751E+02 -0.81268758141E+03  0.82508114013E+03  0.00000000000E+00 0.  1.
         22    1    3    3    0    0  0.29164410868E+02  0.65268533274E+01 -0.20723609464E+03  0.20937994555E+03  0.00000000000E+00 0.  1.
</event>
<event>
 7    1  0.5562528E-006  0.2370395E+03  0.7818608E-02  0.1221735E+00
          2   -1    0    0  502    0  0.00000000000E+00  0.00000000000E+00  0.36076306478E+04  0.36076306478E+04  0.00000000000E+00 0. -1.
          1   -1    0    0  501    0 -0.00000000000E+00 -0.00000000000E+00 -0.12728074178E+03  0.12728074178E+03  0.00000000000E+00 0. -1.
         25    2    1    2    0    0  0.13166567736E+03  0.26871123002E+03  0.20940353124E+04  0.21189974050E+04  0.12499814910E+03 0.  0.
          2    1    1    2  501    0 -0.13165664730E+03 -0.19303662473E+03  0.62156090762E+01  0.23374183421E+03  0.00000000000E+00 0. -1.
          1    1    1    2  502    0 -0.90300620559E-02 -0.75674605292E+02  0.13800989846E+04  0.13821721504E+04  0.00000000000E+00 0. -1.
         22    1    3    3    0    0  0.14431053521E+03  0.26354546696E+03  0.20668207403E+04  0.20885472741E+04  0.00000000000E+00 0.  1.
         22    1    3    3    0    0 -0.12644857856E+02  0.51657630623E+01  0.27214572069E+02  0.30450130889E+02  0.00000000000E+00 0.  1.
</event>
<event>
 7    1  0.5562528E-006  0.6018837E+02  0.7818608E-02  0.1416171E+00
          2   -1    0    0  502    0  0.00000000000E+00  0.00000000000E+00  0.89237698403E+03  0.89237698403E+03  0.00000000000E+00 0. -1.
          1   -1    0    0  501    0 -0.00000000000E+00 -0.00000000000E+00 -0.47590270965E+03  0.47590270965E+03  0.00000000000E+00 0. -1.
         25    2    1    2    0    0  0.19677565029E+02 -0.10856416485E+03 -0.30087917146E+02  0.16942260729E+03  0.12500141059E+03 0.  0.
          2    1    1    2  501    0 -0.94850106479E+01  0.57772111443E+02 -0.37304661748E+03  0.37761271311E+03  0.00000000000E+00 0. -1.
          1    1    1    2  502    0 -0.10192554381E+02  0.50792053406E+02  0.81960880901E+03  0.82124437329E+03  0.00000000000E+00 0. -1.
         22    1    3    3    0    0 -0.17047848590E+02 -0.44595193016E+02  0.43964717368E+02  0.64901901012E+02  0.00000000000E+00 0.  1.
         22    1    3    3    0    0  0.36725413619E+02 -0.63968971833E+02 -0.74052634514E+02  0.10452070628E+03  0.00000000000E+00 0.  1.
</event>
<event>
 7    1  0.5562528E-006  0.3417781E+02  0.7818608E-02  0.1558626E+00
          2   -1    0    0  502    0  0.00000000000E+00  0.00000000000E+00  0.16987287337E+03  0.16987287337E+03  0.00000000000E+00 0. -1.
          1   -1    0    0  501    0 -0.00000000000E+00 -0.00000000000E+00 -0.19761173190E+04  0.19761173190E+04  0.00000000000E+00 0. -1.
         25    2    1    2    0    0 -0.77244834854E+01  0.36861482178E+00  0.58420190074E+01  0.12537360367E+03  0.12499843115E+03 0.  0.
          2    1    1    2  501    0 -0.23279058134E+01 -0.34098440288E+02 -0.19132243483E+04  0.19135295999E+04  0.00000000000E+00 0. -1.
          1    1    1    2  502    0  0.10052389299E+02  0.33729825466E+02  0.10113788366E+03  0.10708698879E+03  0.00000000000E+00 0. -1.
         22    1    3    3    0    0  0.39450537584E+02  0.18211334937E+02  0.44220634761E+02  0.61995662546E+02  0.00000000000E+00 0. -1.
         22    1    3    3    0    0 -0.47175021070E+02 -0.17842720115E+02 -0.38378615754E+02  0.63377941125E+02  0.00000000000E+00 0. -1.
</event>
<event>
 7    1  0.5562528E-006  0.6210517E+02  0.7818608E-02  0.1440636E+00
          2   -1    0    0  502    0  0.00000000000E+00  0.00000000000E+00  0.18285771502E+04  0.18285771502E+04  0.00000000000E+00 0. -1.
          1   -1    0    0  501    0 -0.00000000000E+00 -0.00000000000E+00 -0.36481258418E+03  0.36481258418E+03  0.00000000000E+00 0. -1.
         25    2    1    2    0    0  0.37077768040E+02 -0.44360628681E+02  0.52186741729E+03  0.53973459280E+03  0.12500081270E+03 0.  0.
          2    1    1    2  501    0  0.25471035551E+02  0.33002608449E+02 -0.35387618412E+03  0.35632330755E+03  0.00000000000E+00 0. -1.
          1    1    1    2  502    0 -0.62548803591E+02  0.11358020231E+02  0.12957733328E+04  0.12973318340E+04  0.00000000000E+00 0. -1.
         22    1    3    3    0    0  0.36720684685E+01  0.15054426192E+02  0.22414371402E+01  0.15657071095E+02  0.00000000000E+00 0. -1.
         22    1    3    3    0    0  0.33405699572E+02 -0.59415054873E+02  0.51962598015E+03  0.52407752170E+03  0.00000000000E+00 0. -1.
</event>
<event>
 7    1  0.5562528E-006  0.6611539E+02  0.7818608E-02  0.1485867E+00
          2   -1    0    0  502    0  0.00000000000E+00  0.00000000000E+00  0.26984594404E+04  0.26984594404E+04  0.00000000000E+00 0. -1.
          1   -1    0    0  501    0 -0.00000000000E+00 -0.00000000000E+00 -0.23684789736E+03  0.23684789736E+03  0.00000000000E+00 0. -1.
         25    2    1    2    0    0  0.62970282457E+02  0.95674488708E+01  0.23496451634E+04  0.23538296970E+04  0.12500022559E+03 0.  0.
          2    1    1    2  501    0 -0.63444137729E+02  0.18662519032E+02 -0.22950396923E+03  0.23884204010E+03  0.00000000000E+00 0. -1.
          1    1    1    2  502    0  0.47385527187E+00 -0.28229967903E+02  0.34147034892E+03  0.34263560062E+03  0.00000000000E+00 0. -1.
         22    1    3    3    0    0 -0.16949320192E+01 -0.40658461913E+02  0.14207899678E+04  0.14213726168E+04  0.00000000000E+00 0. -1.
         22    1    3    3    0    0  0.64665214476E+02  0.50225910783E+02  0.92885519558E+03  0.93245708021E+03  0.00000000000E+00 0. -1.
</event>
<event>
 7    1  0.5562528E-006  0.1142824E+03  0.7818608E-02  0.1293426E+00
          2   -1    0    0  502    0  0.00000000000E+00  0.00000000000E+00  0.14971628840E+03  0.14971628840E+03  0.00000000000E+00 0. -1.
          1   -1    0    0  501    0 -0.00000000000E+00 -0.00000000000E+00 -0.57401892229E+03  0.57401892229E+03  0.00000000000E+00 0. -1.
         25    2    1    2    0    0 -0.16445204079E+03  0.68807869681E+02 -0.20346782082E+03  0.29799724522E+03  0.12499682956E+03 0.  0.
          2    1    1    2  501    0  0.89133200033E+02 -0.51283614911E+02 -0.29875532331E+03  0.31595803473E+03  0.00000000000E+00 0. -1.
          1    1    1    2  502    0  0.75318840754E+02 -0.17524254771E+02  0.77920510236E+02  0.10977993074E+03  0.00000000000E+00 0. -1.
         22    1    3    3    0    0 -0.44757591475E+02 -0.31909715720E+02 -0.87241765386E+02  0.10311448773E+03  0.00000000000E+00 0.  1.
         22    1    3    3    0    0 -0.11969444931E+03  0.10071758540E+03 -0.11622605543E+03  0.19488275749E+03  0.00000000000E+00 0.  1.
</event>
<event>
 7    1  0.5562528E-006  0.6578475E+02  0.7818608E-02  0.1384754E+00
          2   -1    0    0  502    0  0.00000000000E+00  0.00000000000E+00  0.20929555726E+04  0.20929555726E+04  0.00000000000E+00 0. -1.
          1   -1    0    0  501    0 -0.00000000000E+00 -0.00000000000E+00 -0.71559276860E+03  0.71559276860E+03  0.00000000000E+00 0. -1.
         25    2    1    2    0    0 -0.67730950862E+02  0.93476854443E+02  0.45081389513E+02  0.17601824299E+03  0.12499874465E+03 0.  0.
          2    1    1    2  501    0  0.53023364404E+02 -0.29701673028E+02 -0.64816220233E+03  0.65100530496E+03  0.00000000000E+00 0. -1.
          1    1    1    2  502    0  0.14707586458E+02 -0.63775181416E+02  0.19804436168E+04  0.19815247932E+04  0.00000000000E+00 0. -1.
         22    1    3    3    0    0 -0.18903280418E+01 -0.56273835068E+01 -0.33113690952E+02  0.33641600939E+02  0.00000000000E+00 0.  1.
         22    1    3    3    0    0 -0.65840622820E+02  0.99104237950E+02  0.78195080465E+02  0.14237664205E+03  0.00000000000E+00 0.  1.
</event>
<event>
 7    1  0.5562528E-006  0.6691845E+02  0.7818608E-02  0.1386869E+00
          2   -1    0    0  502    0  0.00000000000E+00  0.00000000000E+00  0.29297977037E+03  0.29297977037E+03  0.00000000000E+00 0. -1.
          1   -1    0    0  501    0 -0.00000000000E+00 -0.00000000000E+00 -0.36607735609E+03  0.36607735609E+03  0.00000000000E+00 0. -1.
         25    2    1    2    0    0  0.82728890713E+01  0.11487743551E+02 -0.35950104406E+02  0.13083415872E+03  0.12499903253E+03 0.  0.
          2    1    1    2  501    0  0.56732303791E+02  0.15197600110E+02 -0.27448664782E+03  0.28069991303E+03  0.00000000000E+00 0. -1.
          1    1    1    2  502    0 -0.65005192862E+02 -0.26685343661E+02  0.23733916650E+03  0.24752305472E+03  0.00000000000E+00 0. -1.
         22    1    3    3    0    0  0.34066054503E+02 -0.36282016709E+02  0.19296474833E+02  0.53378223527E+02  0.00000000000E+00 0.  1.
         22    1    3    3    0    0 -0.25793165432E+02  0.47769760260E+02 -0.55246579239E+02  0.77455935189E+02  0.00000000000E+00 0.  1.
</event>
<event>
 7    1  0.5562528E-006  0.1295041E+03  0.7818608E-02  0.1371461E+00
          2   -1    0    0  502    0  0.00000000000E+00  0.00000000000E+00  0.41599217478E+03  0.41599217478E+03  0.00000000000E+00 0. -1.
          1   -1    0    0  501    0 -0.00000000000E+00 -0.00000000000E+00 -0.14425645180E+04  0.14425645180E+04  0.00000000000E+00 0. -1.
         25    2    1    2    0    0 -0.96110392028E+02 -0.22483921040E+02 -0.64001283844E+02  0.17165105740E+03  0.12500074805E+03 0.  0.
          2    1    1    2  501    0  0.13019594618E+03  0.17711790717E+02 -0.13206530417E+04  0.13271733679E+04  0.00000000000E+00 0. -1.
          1    1    1    2  502    0 -0.34085554157E+02  0.47721303227E+01  0.35808198230E+03  0.35973226750E+03  0.00000000000E+00 0. -1.
         22    1    3    3    0    0 -0.32950352188E+02  0.43255262287E+02 -0.59168143025E+02  0.80359271860E+02  0.00000000000E+00 0. -1.
         22    1    3    3    0    0 -0.63160039840E+02 -0.65739183327E+02 -0.48331408190E+01  0.91291785541E+02  0.00000000000E+00 0. -1.
</event>
<event>
 7    1  0.5562528E-006  0.1185839E+03  0.7818608E-02  0.1318831E+00
          2   -1    0    0  502    0  0.00000000000E+00  0.00000000000E+00  0.20016489239E+03  0.20016489239E+03  0.00000000000E+00 0. -1.
          1   -1    0    0  501    0 -0.00000000000E+00 -0.00000000000E+00 -0.30707617898E+04  0.30707617898E+04  0.00000000000E+00 0. -1.
         25    2    1    2    0    0  0.91166266782E+02  0.14884210002E+03 -0.38143106903E+03  0.43769881405E+03  0.12500132984E+03 0.  0.
          2    1    1    2  501    0 -0.54539156354E+02 -0.10246401124E+03 -0.26548156403E+04  0.26573519672E+04  0.00000000000E+00 0. -1.
          1    1    1    2  502    0 -0.36627110429E+02 -0.46378088775E+02  0.16564981197E+03  0.17587590098E+03  0.00000000000E+00 0. -1.
         22    1    3    3    0    0  0.90114667445E+02  0.78848050173E+02 -0.32936949126E+03  0.35045959836E+03  0.00000000000E+00 0.  1.
         22    1    3    3    0    0  0.10515993374E+01  0.69994049846E+02 -0.52061577763E+02  0.87239215690E+02  0.00000000000E+00 0.  1.
</event>
<event>
 7    1  0.5562528E-006  0.1589004E+03  0.7818608E-02  0.1346772E+00
          2   -1    0    0  502    0  0.00000000000E+00  0.00000000000E+00  0.14055628175E+04  0.14055628175E+04  0.00000000000E+00 0. -1.
          1   -1    0    0  501    0 -0.00000000000E+00 -0.00000000000E+00 -0.12152774394E+04  0.12152774394E+04  0.00000000000E+00 0. -1.
         25    2    1    2    0    0  0.14665494744E+03 -0.11933947427E+03  0.42455325759E+03  0.48126873109E+03  0.12499815704E+03 0.  0.
          2    1    1    2  501    0 -0.11312427219E+03  0.11110007885E+03 -0.11813083992E+04  0.11919017839E+04  0.00000000000E+00 0. -1.
          1    1    1    2  502    0 -0.33530675254E+02  0.82393954201E+01  0.94704051971E+03  0.94766974195E+03  0.00000000000E+00 0. -1.
         22    1    3    3    0    0  0.11838655041E+03 -0.13538158692E+03  0.40550205182E+03  0.44359380454E+03  0.00000000000E+00 0. -1.
         22    1    3    3    0    0  0.28268397034E+02  0.16042112652E+02  0.19051205771E+02  0.37674926550E+02  0.00000000000E+00 0. -1.
</event>
<event>
 7    1  0.5562528E-006  0.2248818E+03  0.7818608E-02  0.1312248E+00
          2   -1    0    0  502    0  0.00000000000E+00  0.00000000000E+00  0.18022288393E+04  0.18022288393E+04  0.00000000000E+00 0. -1.
          1   -1    0    0  501    0 -0.00000000000E+00 -0.00000000000E+00 -0.15146078482E+04  0.15146078482E+04  0.00000000000E+00 0. -1.
         25    2    1    2    0    0  0.91370989630E+02 -0.17621745136E+03 -0.16687476435E+03  0.28786223670E+03  0.12496492481E+03 0.  0.
          2    1    1    2  501    0 -0.11668473663E+03  0.19748860760E+03 -0.12768612718E+04  0.12973017325E+04  0.00000000000E+00 0. -1.
          1    1    1    2  502    0  0.25313747002E+02 -0.21271156242E+02  0.17313570271E+04  0.17316727183E+04  0.00000000000E+00 0. -1.
         22    1    3    3    0    0  0.11558473631E+03 -0.11897027013E+03 -0.14954894431E+03  0.22333527081E+03  0.00000000000E+00 0. -1.
         22    1    3    3    0    0 -0.24213746682E+02 -0.57247181230E+02 -0.17325820037E+02  0.64526965891E+02  0.00000000000E+00 0. -1.
</event>
<event>
 7    1  0.5562528E-006  0.7324081E+02  0.7818608E-02  0.1455653E+00
          2   -1    0    0  502    0  0.00000000000E+00  0.00000000000E+00  0.15014731635E+04  0.15014731635E+04  0.00000000000E+00 0. -1.
          1   -1    0    0  501    0 -0.00000000000E+00 -0.00000000000E+00 -0.43852771656E+02  0.43852771656E+02  0.00000000000E+00 0. -1.
         25    2    1    2    0    0 -0.39101646756E+02 -0.27535907177E+02  0.55013732095E+03  0.56618260630E+03  0.12499802723E+03 0.  0.
          2    1    1    2  501    0 -0.18977365197E+02 -0.25315366799E+02 -0.26862170007E+02  0.41504028280E+02  0.00000000000E+00 0. -1.
          1    1    1    2  502    0  0.58079011953E+02  0.52851273976E+02  0.93434524088E+03  0.93763930055E+03  0.00000000000E+00 0. -1.
         22    1    3    3    0    0  0.64850903024E+00 -0.27896313256E+02  0.19461981878E+02  0.34020487884E+02  0.00000000000E+00 0. -1.
         22    1    3    3    0    0 -0.39750155786E+02  0.36040607904E+00  0.53067533907E+03  0.53216211842E+03  0.00000000000E+00 0. -1.
</event>
<event>
 7    1  0.5562528E-006  0.1713075E+03  0.7818608E-02  0.1297441E+00
          2   -1    0    0  502    0  0.00000000000E+00  0.00000000000E+00  0.29628363332E+03  0.29628363332E+03  0.00000000000E+00 0. -1.
          1   -1    0    0  501    0 -0.00000000000E+00 -0.00000000000E+00 -0.38890268824E+03  0.38890268824E+03  0.00000000000E+00 0. -1.
         25    2    1    2    0    0  0.13276221879E+03  0.11829856924E+03 -0.28733558927E+03  0.36028707270E+03  0.12499870267E+03 0.  0.
          2    1    1    2  501    0 -0.14150738270E+03 -0.69373066727E+02  0.40281809312E+02  0.16266402770E+03  0.00000000000E+00 0. -1.
          1    1    1    2  502    0  0.87451639133E+01 -0.48925502513E+02  0.15443472504E+03  0.16223522116E+03  0.00000000000E+00 0. -1.
         22    1    3    3    0    0  0.69362592346E+02  0.10432334116E+02 -0.18759094970E+03  0.20027572799E+03  0.00000000000E+00 0. -1.
         22    1    3    3    0    0  0.63399626443E+02  0.10786623512E+03 -0.99744639574E+02  0.16001134471E+03  0.00000000000E+00 0. -1.
</event>
<event>
 7    1  0.5562528E-006  0.8634314E+02  0.7818608E-02  0.1419281E+00
          2   -1    0    0  502    0  0.00000000000E+00  0.00000000000E+00  0.13169145234E+04  0.13169145234E+04  0.00000000000E+00 0. -1.
          1   -1    0    0  501    0 -0.00000000000E+00 -0.00000000000E+00 -0.24290574729E+03  0.24290574729E+03  0.00000000000E+00 0. -1.
         25    2    1    2    0    0 -0.12754852085E+02 -0.11664844879E+03  0.40251956894E+02  0.17611284570E+03  0.12500387006E+03 0.  0.
          2    1    1    2  501    0 -0.95766123200E+01  0.33930168569E+02 -0.17166323354E+03  0.17524620849E+03  0.00000000000E+00 0. -1.
          1    1    1    2  502    0  0.22331464405E+02  0.82718280223E+02  0.12054200527E+04  0.12084612165E+04  0.00000000000E+00 0. -1.
         22    1    3    3    0    0 -0.38928173523E+02 -0.11379713897E+03 -0.86415172366E+01  0.12058137232E+03  0.00000000000E+00 0.  1.
         22    1    3    3    0    0  0.26173321438E+02 -0.28513098253E+01  0.48893474130E+02  0.55531473376E+02  0.00000000000E+00 0.  1.
</event>
<event>
 7    1  0.5562528E-006  0.7110886E+02  0.7818608E-02  0.1419571E+00
          2   -1    0    0  502    0  0.00000000000E+00  0.00000000000E+00  0.12646558490E+04  0.12646558490E+04  0.00000000000E+00 0. -1.
          1   -1    0    0  501    0 -0.00000000000E+00 -0.00000000000E+00 -0.18416095196E+03  0.18416095196E+03  0.00000000000E+00 0. -1.
         25    2    1    2    0    0 -0.74708588221E+02 -0.68390027928E+02  0.80751407669E+03  0.82338505058E+03  0.12500155361E+03 0.  0.
          2    1    1    2  501    0  0.39683046914E+02  0.15801932773E+02 -0.17136908962E+03  0.17661203291E+03  0.00000000000E+00 0. -1.
          1    1    1    2  502    0  0.35025541308E+02  0.52588095154E+02  0.44434990997E+03  0.44881971747E+03  0.00000000000E+00 0. -1.
         22    1    3    3    0    0 -0.47953035365E+02  0.57107079543E-01  0.88774062156E+02  0.10089762620E+03  0.00000000000E+00 0.  1.
         22    1    3    3    0    0 -0.26755552856E+02 -0.68447135007E+02  0.71874001453E+03  0.72248742438E+03  0.00000000000E+00 0.  1.
</event>
<event>
 7    1  0.5562528E-006  0.4849599E+02  0.7818608E-02  0.1507835E+00
          2   -1    0    0  502    0  0.00000000000E+00  0.00000000000E+00  0.16558658649E+04  0.16558658649E+04  0.00000000000E+00 0. -1.
          1   -1    0    0  501    0 -0.00000000000E+00 -0.00000000000E+00 -0.34553306972E+02  0.34553306972E+02  0.00000000000E+00 0. -1.
         25    2    1    2    0    0  0.33517510172E+00  0.74737015478E+02  0.99024933339E+03  0.10009019663E+04  0.12500108006E+03 0.  0.
          2    1    1    2  501    0 -0.11192478229E+02 -0.31125783876E+02 -0.18837150673E+02  0.38064737439E+02  0.00000000000E+00 0. -1.
          1    1    1    2  502    0  0.10857303127E+02 -0.43611231601E+02  0.64990037525E+03  0.65145246818E+03  0.00000000000E+00 0. -1.
         22    1    3    3    0    0  0.21728041583E+01  0.53374041406E+02  0.13219676868E+03  0.14258153815E+03  0.00000000000E+00 0. -1.
         22    1    3    3    0    0 -0.18376290566E+01  0.21362974072E+02  0.85805256472E+03  0.85832042814E+03  0.00000000000E+00 0. -1.
</event>
<event>
 7    1  0.5562528E-006  0.6426130E+02  0.7818608E-02  0.1473451E+00
          2   -1    0    0  502    0  0.00000000000E+00  0.00000000000E+00  0.13292308511E+04  0.13292308511E+04  0.00000000000E+00 0. -1.
          1   -1    0    0  501    0 -0.00000000000E+00 -0.00000000000E+00 -0.14597964694E+04  0.14597964694E+04  0.00000000000E+00 0. -1.
         25    2    1    2    0    0 -0.37641806412E+02  0.45506579669E+02  0.16639786346E+02  0.13924578602E+03  0.12499900820E+03 0.  0.
          2    1    1    2  501    0 -0.22489619566E+02 -0.22358379733E+02 -0.13974839936E+04  0.13978437654E+04  0.00000000000E+00 0. -1.
          1    1    1    2  502    0  0.60131425978E+02 -0.23148199936E+02  0.12502785890E+04  0.12519377691E+04  0.00000000000E+00 0. -1.
         22    1    3    3    0    0 -0.30087160955E+01  0.36482941077E+02  0.67657895075E+02  0.76926251229E+02  0.00000000000E+00 0.  1.
         22    1    3    3    0    0 -0.34633090316E+02  0.90236385914E+01 -0.51018108729E+02  0.62319534790E+02  0.00000000000E+00 0.  1.
</event>
<event>
 7    1  0.5562528E-006  0.8061996E+02  0.7818608E-02  0.1414178E+00
          2   -1    0    0  502    0  0.00000000000E+00  0.00000000000E+00  0.30712884321E+03  0.30712884321E+03  0.00000000000E+00 0. -1.
          1   -1    0    0  501    0 -0.00000000000E+00 -0.00000000000E+00 -0.33279756587E+03  0.33279756587E+03  0.00000000000E+00 0. -1.
         25    2    1    2    0    0  0.17202068409E+02 -0.68251068679E+02 -0.17932664442E+03  0.22966037284E+03  0.12502688478E+03 0.  0.
          2    1    1    2  501    0  0.38238550079E+02  0.89731910236E+01 -0.11924623101E+03  0.12554827151E+03  0.00000000000E+00 0. -1.
          1    1    1    2  502    0 -0.55440618488E+02  0.59277877655E+02  0.27290415277E+03  0.28471776473E+03  0.00000000000E+00 0. -1.
         22    1    3    3    0    0 -0.54024333079E+01 -0.10222173126E+03 -0.12124489840E+03  0.15867827203E+03  0.00000000000E+00 0. -1.
         22    1    3    3    0    0  0.22604501717E+02  0.33970662578E+02 -0.58081746022E+02  0.70982100806E+02  0.00000000000E+00 0. -1.
</event>
<event>
 7    1  0.5562528E-006  0.6547788E+02  0.7818608E-02  0.1435601E+00
          2   -1    0    0  502    0  0.00000000000E+00  0.00000000000E+00  0.18694045799E+04  0.18694045799E+04  0.00000000000E+00 0. -1.
          1   -1    0    0  501    0 -0.00000000000E+00 -0.00000000000E+00 -0.17964009546E+02  0.17964009546E+02  0.00000000000E+00 0. -1.
         25    2    1    2    0    0  0.68330258760E+01 -0.51406926904E+02  0.72782838757E+03  0.74030292855E+03  0.12499960756E+03 0.  0.
          2    1    1    2  501    0  0.33290395134E+02  0.60134313869E+02  0.93038689870E+02  0.11567447396E+03  0.00000000000E+00 0. -1.
          1    1    1    2  502    0 -0.40123421010E+02 -0.87273869659E+01  0.10305734929E+04  0.10313911869E+04  0.00000000000E+00 0. -1.
         22    1    3    3    0    0  0.46768790708E+02  0.18238601497E+02  0.38164368438E+03  0.38493099148E+03  0.00000000000E+00 0. -1.
         22    1    3    3    0    0 -0.39935764832E+02 -0.69645528401E+02  0.34618470319E+03  0.35537193707E+03  0.00000000000E+00 0. -1.
</event>
<event>
 7    1  0.5562528E-006  0.1947511E+03  0.7818608E-02  0.1319732E+00
          2   -1    0    0  502    0  0.00000000000E+00  0.00000000000E+00  0.17948033911E+04  0.17948033911E+04  0.00000000000E+00 0. -1.
          1   -1    0    0  501    0 -0.00000000000E+00 -0.00000000000E+00 -0.26529568183E+03  0.26529568183E+03  0.00000000000E+00 0. -1.
         25    2    1    2    0    0 -0.89610210985E+02 -0.13316954080E+03 -0.57712123422E+02  0.21146965946E+03  0.12499844468E+03 0.  0.
          2    1    1    2  501    0 -0.21233523357E+02 -0.28693199757E+02 -0.12254946876E+03  0.12764221293E+03  0.00000000000E+00 0. -1.
          1    1    1    2  502    0  0.11084373434E+03  0.16186274056E+03  0.17097693015E+04  0.17209872006E+04  0.00000000000E+00 0. -1.
         22    1    3    3    0    0 -0.10168580724E+03 -0.44629306567E+02 -0.13798292184E+02  0.11190250786E+03  0.00000000000E+00 0.  1.
         22    1    3    3    0    0  0.12075596258E+02 -0.88540234231E+02 -0.43913831238E+02  0.99567151594E+02  0.00000000000E+00 0.  1.
</event>
<event>
 7    1  0.5562528E-006  0.1994932E+03  0.7818608E-02  0.1280831E+00
          2   -1    0    0  502    0  0.00000000000E+00  0.00000000000E+00  0.13691983505E+04  0.13691983505E+04  0.00000000000E+00 0. -1.
          1   -1    0    0  501    0 -0.00000000000E+00 -0.00000000000E+00 -0.68947291067E+03  0.68947291067E+03  0.00000000000E+00 0. -1.
         25    2    1    2    0    0  0.14412634419E+03  0.98794984102E+02  0.47754614362E+03  0.52364091093E+03  0.12496652487E+03 0.  0.
          2    1    1    2  501    0 -0.18668341347E+03 -0.72791487706E+02 -0.65061907769E+03  0.68077491273E+03  0.00000000000E+00 0. -1.
          1    1    1    2  502    0  0.42557069278E+02 -0.26003496396E+02  0.85279837387E+03  0.85425543747E+03  0.00000000000E+00 0. -1.
         22    1    3    3    0    0 -0.10967696194E+02  0.19968504268E+02  0.10197987906E+02  0.24960578516E+02  0.00000000000E+00 0.  1.
         22    1    3    3    0    0  0.15509404039E+03  0.78826479834E+02  0.46734815571E+03  0.49868033241E+03  0.00000000000E+00 0.  1.
</event>
<event>
 7    1  0.5562528E-006  0.7452532E+02  0.7818608E-02  0.1415803E+00
          2   -1    0    0  502    0  0.00000000000E+00  0.00000000000E+00  0.88292764141E+03  0.88292764141E+03  0.00000000000E+00 0. -1.
          1   -1    0    0  501    0 -0.00000000000E+00 -0.00000000000E+00 -0.13523763886E+03  0.13523763886E+03  0.00000000000E+00 0. -1.
         25    2    1    2    0    0 -0.41259087991E+02 -0.27065039666E+02  0.36556364170E+03  0.38948324940E+03  0.12500238686E+03 0.  0.
          2    1    1    2  501    0 -0.40084469898E+02  0.12397459721E+02 -0.11620218204E+03  0.12354516925E+03  0.00000000000E+00 0. -1.
          1    1    1    2  502    0  0.81343557889E+02  0.14667579945E+02  0.49832854288E+03  0.50513686162E+03  0.00000000000E+00 0. -1.
         22    1    3    3    0    0 -0.45129861430E+02 -0.71434502023E+02  0.28692698815E+03  0.29910982765E+03  0.00000000000E+00 0. -1.
         22    1    3    3    0    0  0.38707734391E+01  0.44369462357E+02  0.78636653554E+02  0.90373421751E+02  0.00000000000E+00 0. -1.
</event>
<event>
 7    1  0.5562528E-006  0.1298098E+03  0.7818608E-02  0.1262685E+00
          2   -1    0    0  502    0  0.00000000000E+00  0.00000000000E+00  0.10572901517E+04  0.10572901517E+04  0.00000000000E+00 0. -1.
          1   -1    0    0  501    0 -0.00000000000E+00 -0.00000000000E+00 -0.12049905777E+03  0.12049905777E+03  0.00000000000E+00 0. -1.
         25    2    1    2    0    0 -0.23420634156E+02 -0.73993450138E+02  0.45814569815E+03  0.48119139122E+03  0.12499646986E+03 0.  0.
          2    1    1    2  501    0  0.11472048143E+03  0.73657722436E+02 -0.60947941939E+02  0.14933486050E+03  0.00000000000E+00 0. -1.
          1    1    1    2  502    0 -0.91299847272E+02  0.33572770229E+00  0.53959333773E+03  0.54726295777E+03  0.00000000000E+00 0. -1.
         22    1    3    3    0    0 -0.25669735114E+02 -0.10433241116E+02  0.37735374532E+03  0.37836970932E+03  0.00000000000E+00 0.  1.
         22    1    3    3    0    0  0.22491009582E+01 -0.63560209022E+02  0.80791952831E+02  0.10282168190E+03  0.00000000000E+00 0.  1.
</event>
<event>
 7    1  0.5562528E-006  0.9521448E+02  0.7818608E-02  0.1330251E+00
          2   -1    0    0  502    0  0.00000000000E+00  0.00000000000E+00  0.38646539541E+03  0.38646539541E+03  0.00000000000E+00 0. -1.
          1   -1    0    0  501    0 -0.00000000000E+00 -0.00000000000E+00 -0.17989234703E+04  0.17989234703E+04  0.00000000000E+00 0. -1.
         25    2    1    2    0    0  0.15322326321E+02 -0.37171043758E+02 -0.12824855918E+03  0.18354630236E+03  0.12500036800E+03 0.  0.
          2    1    1    2  501    0  0.12355382237E+02  0.97649220315E+02 -0.16384542837E+04  0.16414080741E+04  0.00000000000E+00 0. -1.
          1    1    1    2  502    0 -0.27677708559E+02 -0.60478176557E+02  0.35424476803E+03  0.36043448929E+03  0.00000000000E+00 0. -1.
         22    1    3    3    0    0 -0.18247672661E+01  0.25999415035E+02 -0.11349327206E+03  0.11644750818E+03  0.00000000000E+00 0. -1.
         22    1    3    3    0    0  0.17147093587E+02 -0.63170458793E+02 -0.14755287116E+02  0.67098794181E+02  0.00000000000E+00 0. -1.
</event>
<event>
 7    1  0.5917693E-006  0.9664616E+02  0.7818608E-02  0.1299631E+00
          2   -1    0    0  502    0  0.00000000000E+00  0.00000000000E+00  0.12623904586E+04  0.12623904586E+04  0.00000000000E+00 0. -1.
          1   -1    0    0  501    0 -0.00000000000E+00 -0.00000000000E+00 -0.39986232065E+03  0.39986232065E+03  0.00000000000E+00 0. -1.
         25    2    1    2    0    0 -0.56255953169E+02 -0.28502083447E+02 -0.53053792742E+02  0.14971141112E+03  0.12498680198E+03 0.  0.
          2    1    1    2  501    0  0.97132289938E+02 -0.47538901927E+02 -0.28708621961E+03  0.30677862774E+03  0.00000000000E+00 0. -1.
          1    1    1    2  502    0 -0.40876336769E+02  0.76040985374E+02  0.12026681503E+04  0.12057627404E+04  0.00000000000E+00 0. -1.
         22    1    3    3    0    0 -0.36152488984E+01 -0.64764058199E+02 -0.56039960040E+02  0.85720069880E+02  0.00000000000E+00 0. -1.
         22    1    3    3    0    0 -0.52640704270E+02  0.36261974753E+02  0.29861672978E+01  0.63991341244E+02  0.00000000000E+00 0. -1.
</event>
<event>
 7    1  0.5562528E-006  0.5740404E+02  0.7818608E-02  0.1447147E+00
          2   -1    0    0  502    0  0.00000000000E+00  0.00000000000E+00  0.17803311972E+04  0.17803311972E+04  0.00000000000E+00 0. -1.
          1   -1    0    0  501    0 -0.00000000000E+00 -0.00000000000E+00 -0.19782626867E+03  0.19782626867E+03  0.00000000000E+00 0. -1.
         25    2    1    2    0    0 -0.35282646262E+02  0.23082375590E+02  0.58240643071E+02  0.14420316211E+03  0.12499967307E+03 0.  0.
          2    1    1    2  501    0  0.57324495622E+02  0.13806512022E+02 -0.14894590288E+03  0.16019238296E+03  0.00000000000E+00 0. -1.
          1    1    1    2  502    0 -0.22041849360E+02 -0.36888887613E+02  0.16732101884E+04  0.16737619208E+04  0.00000000000E+00 0. -1.
         22    1    3    3    0    0  0.10937357056E+02  0.39718628326E+02  0.80379497759E+02  0.90321973381E+02  0.00000000000E+00 0. -1.
         22    1    3    3    0    0 -0.46220003318E+02 -0.16636252736E+02 -0.22138854688E+02  0.53881188727E+02  0.00000000000E+00 0. -1.
</event>
<event>
 7    1  0.5562528E-006  0.4687167E+02  0.7818608E-02  0.1485129E+00
          2   -1    0    0  502    0  0.00000000000E+00  0.00000000000E+00  0.11728208540E+04  0.11728208540E+04  0.00000000000E+00 0. -1.
          1   -1    0    0  501    0 -0.00000000000E+00 -0.00000000000E+00 -0.66832997556E+03  0.66832997556E+03  0.00000000000E+00 0. -1.
         25    2    1    2    0    0 -0.20724303458E+02  0.61652753883E+02  0.66100428600E+02  0.15564277901E+03  0.12499939672E+03 0.  0.
          2    1    1    2  501    0 -0.15329534011E+02 -0.44254241062E+02 -0.62230127888E+03  0.62406114617E+03  0.00000000000E+00 0. -1.
          1    1    1    2  502    0  0.36053837469E+02 -0.17398512821E+02  0.10606917287E+04  0.10614469044E+04  0.00000000000E+00 0. -1.
         22    1    3    3    0    0 -0.50618555186E+02  0.30882078861E+02  0.89052929105E+02  0.10698768670E+03  0.00000000000E+00 0.  1.
         22    1    3    3    0    0  0.29894251728E+02  0.30770675022E+02 -0.22952500505E+02  0.48655092304E+02  0.00000000000E+00 0.  1.
</event>
<event>
 7    1  0.5562528E-006  0.6223226E+02  0.7818608E-02  0.1474432E+00
          2   -1    0    0  502    0  0.00000000000E+00  0.00000000000E+00  0.24027055852E+04  0.24027055852E+04  0.00000000000E+00 0. -1.
          1   -1    0    0  501    0 -0.00000000000E+00 -0.00000000000E+00 -0.72254164604E+02  0.72254164604E+02  0.00000000000E+00 0. -1.
         25    2    1    2    0    0  0.24443450099E+02  0.21523832548E+02  0.36075862374E+03  0.38318397052E+03  0.12498965172E+03 0.  0.
          2    1    1    2  501    0 -0.55587013502E+02 -0.30879907925E+02 -0.44314156328E+02  0.77506317385E+02  0.00000000000E+00 0. -1.
          1    1    1    2  502    0  0.31143563403E+02  0.93560753775E+01  0.20140069532E+04  0.20142694619E+04  0.00000000000E+00 0. -1.
         22    1    3    3    0    0  0.34301449706E+02 -0.20962994395E+02  0.32300872540E+03  0.32550065018E+03  0.00000000000E+00 0.  1.
         22    1    3    3    0    0 -0.98579996063E+01  0.42486826943E+02  0.37749898346E+02  0.57683320336E+02  0.00000000000E+00 0.  1.
</event>
<event>
 7    1  0.5562528E-006  0.1492766E+03  0.7818608E-02  0.1319350E+00
          2   -1    0    0  502    0  0.00000000000E+00  0.00000000000E+00  0.71495505268E+03  0.71495505268E+03  0.00000000000E+00 0. -1.
          1   -1    0    0  501    0 -0.00000000000E+00 -0.00000000000E+00 -0.12446427968E+03  0.12446427968E+03  0.00000000000E+00 0. -1.
         25    2    1    2    0    0 -0.11836246973E+03 -0.51614824652E+02  0.31999797414E+03  0.36700798628E+03  0.12498957627E+03 0.  0.
          2    1    1    2  501    0 -0.44301023041E+02  0.14866184936E+02 -0.75234901936E+02  0.88565651165E+02  0.00000000000E+00 0. -1.
          1    1    1    2  502    0  0.16266349277E+03  0.36748639716E+02  0.34572770080E+03  0.38384569491E+03  0.00000000000E+00 0. -1.
         22    1    3    3    0    0 -0.43716272482E+02 -0.84195388946E+02  0.13631355704E+03  0.16607637349E+03  0.00000000000E+00 0.  1.
         22    1    3    3    0    0 -0.74646197246E+02  0.32580564293E+02  0.18368441710E+03  0.20093161279E+03  0.00000000000E+00 0.  1.
</event>
<event>
 7    1  0.5562528E-006  0.7430217E+02  0.7818608E-02  0.1444866E+00
          2   -1    0    0  502    0  0.00000000000E+00  0.00000000000E+00  0.99172774743E+03  0.99172774743E+03  0.00000000000E+00 0. -1.
          1   -1    0    0  501    0 -0.00000000000E+00 -0.00000000000E+00 -0.10527410896E+04  0.10527410896E+04  0.00000000000E+00 0. -1.
         25    2    1    2    0    0  0.38331025507E+02  0.97416220784E+02  0.23668995466E+02  0.16475519522E+03  0.12499946167E+03 0.  0.
          2    1    1    2  501    0 -0.12677844209E+01 -0.33741589741E+02 -0.98039486979E+03  0.98097614796E+03  0.00000000000E+00 0. -1.
          1    1    1    2  502    0 -0.37063241086E+02 -0.63674631043E+02  0.89571253218E+03  0.89873749382E+03  0.00000000000E+00 0. -1.
         22    1    3    3    0    0  0.47018004129E+02 -0.49830130388E+01 -0.22178900562E+02  0.52224771530E+02  0.00000000000E+00 0. -1.
         22    1    3    3    0    0 -0.86869786217E+01  0.10239923382E+03  0.45847896029E+02  0.11253042369E+03  0.00000000000E+00 0. -1.
</event>
<event>
 7    1  0.5562528E-006  0.5410901E+02  0.7818608E-02  0.1554831E+00
          2   -1    0    0  502    0  0.00000000000E+00  0.00000000000E+00  0.13336544895E+04  0.13336544895E+04  0.00000000000E+00 0. -1.
          1   -1    0    0  501    0 -0.00000000000E+00 -0.00000000000E+00 -0.16983766034E+03  0.16983766034E+03  0.00000000000E+00 0. -1.
         25    2    1    2    0    0 -0.51784956916E+02  0.33561337221E+02  0.70858991343E+03  0.72216695715E+03  0.12496961017E+03 0.  0.
          2    1    1    2  501    0 -0.24917957673E+00 -0.21751888827E+02 -0.16116586185E+03  0.16262730947E+03  0.00000000000E+00 0. -1.
          1    1    1    2  502    0  0.52034136493E+02 -0.11809448394E+02  0.61639277754E+03  0.61869788317E+03  0.00000000000E+00 0. -1.
         22    1    3    3    0    0 -0.61233561377E+02 -0.17651007614E+01  0.65147293286E+03  0.65434673291E+03  0.00000000000E+00 0. -1.
         22    1    3    3    0    0  0.94486044601E+01  0.35326437982E+02  0.57116980567E+02  0.67820224239E+02  0.00000000000E+00 0. -1.
</event>
<event>
 7    1  0.5562528E-006  0.6004687E+02  0.7818608E-02  0.1478338E+00
          2   -1    0    0  502    0  0.00000000000E+00  0.00000000000E+00  0.68598714305E+03  0.68598714305E+03  0.00000000000E+00 0. -1.
          1   -1    0    0  501    0 -0.00000000000E+00 -0.00000000000E+00 -0.19201700016E+03  0.19201700016E+03  0.00000000000E+00 0. -1.
         25    2    1    2    0    0  0.49631230732E+02 -0.24377449120E+02  0.27070044968E+03  0.30325161219E+03  0.12500115100E+03 0.  0.
          2    1    1    2  501    0 -0.59908828820E+02 -0.67499900117E+01 -0.16986871915E+03  0.18024985958E+03  0.00000000000E+00 0. -1.
          1    1    1    2  502    0  0.10277598088E+02  0.31127439132E+02  0.39313841236E+03  0.39450267143E+03  0.00000000000E+00 0. -1.
         22    1    3    3    0    0  0.26886231348E+02 -0.69658898566E+02  0.21668030174E+03  0.22918460845E+03  0.00000000000E+00 0. -1.
         22    1    3    3    0    0  0.22744999384E+02  0.45281449446E+02  0.54020147937E+02  0.74067003747E+02  0.00000000000E+00 0. -1.
</event>
<event>
 7    1  0.5562528E-006  0.6310002E+02  0.7818608E-02  0.1461488E+00
          2   -1    0    0  502    0  0.00000000000E+00  0.00000000000E+00  0.34808330512E+03  0.34808330512E+03  0.00000000000E+00 0. -1.
          1   -1    0    0  501    0 -0.00000000000E+00 -0.00000000000E+00 -0.18824388971E+04  0.18824388971E+04  0.00000000000E+00 0. -1.
         25    2    1    2    0    0  0.40449028556E+02  0.32556754072E+02  0.42366000705E+02  0.14184061967E+03  0.12501126840E+03 0.  0.
          2    1    1    2  501    0 -0.20169794116E+02  0.28843824734E+02 -0.18284459239E+04  0.18287846466E+04  0.00000000000E+00 0. -1.
          1    1    1    2  502    0 -0.20279234441E+02 -0.61400578806E+02  0.25172433120E+03  0.25989693601E+03  0.00000000000E+00 0. -1.
         22    1    3    3    0    0  0.72164530900E+02  0.41822744188E+02  0.61526708100E+02  0.10364553662E+03  0.00000000000E+00 0.  1.
         22    1    3    3    0    0 -0.31715502344E+02 -0.92659901163E+01 -0.19160707395E+02  0.38195083056E+02  0.00000000000E+00 0.  1.
</event>
<event>
 7    1  0.5562528E-006  0.1009355E+03  0.7818608E-02  0.1367470E+00
          2   -1    0    0  502    0  0.00000000000E+00  0.00000000000E+00  0.33325912966E+04  0.33325912966E+04  0.00000000000E+00 0. -1.
          1   -1    0    0  501    0 -0.00000000000E+00 -0.00000000000E+00 -0.12769501480E+04  0.12769501480E+04  0.00000000000E+00 0. -1.
         25    2    1    2    0    0 -0.56684595655E+02 -0.55412667542E+02  0.15135929601E+04  0.15208141098E+04  0.12501280169E+03 0.  0.
          2    1    1    2  501    0 -0.45183693676E+02  0.64644117280E+01 -0.12711705750E+04  0.12719897741E+04  0.00000000000E+00 0. -1.
          1    1    1    2  502    0  0.10186828933E+03  0.48948255814E+02  0.18132187635E+04  0.18167375607E+04  0.00000000000E+00 0. -1.
         22    1    3    3    0    0 -0.17710408693E+02 -0.64490971219E+02  0.33869122978E+03  0.34523107200E+03  0.00000000000E+00 0. -1.
         22    1    3    3    0    0 -0.38974186962E+02  0.90783036774E+01  0.11749017303E+04  0.11755830378E+04  0.00000000000E+00 0. -1.
</event>
<event>
 7    1  0.5562528E-006  0.8306892E+02  0.7818608E-02  0.1491818E+00
          2   -1    0    0  502    0  0.00000000000E+00  0.00000000000E+00  0.70212539013E+02  0.70212539013E+02  0.00000000000E+00 0. -1.
          1   -1    0    0  501    0 -0.00000000000E+00 -0.00000000000E+00 -0.65960460484E+03  0.65960460484E+03  0.00000000000E+00 0. -1.
         25    2    1    2    0    0 -0.79186697215E+02  0.55637176114E+01 -0.40283466389E+03  0.42918634322E+03  0.12499465109E+03 0.  0.
          2    1    1    2  501    0  0.84785971798E+02  0.15254064899E+02 -0.23354879241E+03  0.24893048417E+03  0.00000000000E+00 0. -1.
          1    1    1    2  502    0 -0.55992745837E+01 -0.20817782511E+02  0.46991390477E+02  0.51700316474E+02  0.00000000000E+00 0. -1.
         22    1    3    3    0    0  0.29129427958E+02  0.16959736084E+02 -0.15257368374E+03  0.15625263259E+03  0.00000000000E+00 0.  1.
         22    1    3    3    0    0 -0.10831612517E+03 -0.11396018472E+02 -0.25026098015E+03  0.27293371063E+03  0.00000000000E+00 0.  1.
</event>
<event>
 7    1  0.5562528E-006  0.5685903E+02  0.7818608E-02  0.1547194E+00
          2   -1    0    0  502    0  0.00000000000E+00  0.00000000000E+00  0.22730005187E+03  0.22730005187E+03  0.00000000000E+00 0. -1.
          1   -1    0    0  501    0 -0.00000000000E+00 -0.00000000000E+00 -0.33221078715E+04  0.33221078715E+04  0.00000000000E+00 0. -1.
         25    2    1    2    0    0 -0.56954329723E+02 -0.10407321908E+02 -0.18793706935E+04  0.18844130459E+04  0.12500486337E+03 0.  0.
          2    1    1    2  501    0  0.12231937172E+01  0.21706140965E+02 -0.14365359856E+04  0.14367004875E+04  0.00000000000E+00 0. -1.
          1    1    1    2  502    0  0.55731136006E+02 -0.11298819057E+02  0.22109885950E+03  0.22829438999E+03  0.00000000000E+00 0. -1.
         22    1    3    3    0    0  0.38984954715E+02  0.64086131079E+01 -0.64215738110E+03  0.64337158713E+03  0.00000000000E+00 0.  1.
         22    1    3    3    0    0 -0.95939284438E+02 -0.16815935016E+02 -0.12372133124E+04  0.12410414588E+04  0.00000000000E+00 0.  1.
</event>
<event>
 7    1  0.5562528E-006  0.6093797E+02  0.7818608E-02  0.1411832E+00
          2   -1    0    0  502    0  0.00000000000E+00  0.00000000000E+00  0.15992025149E+03  0.15992025149E+03  0.00000000000E+00 0. -1.
          1   -1    0    0  501    0 -0.00000000000E+00 -0.00000000000E+00 -0.18553485167E+03  0.18553485167E+03  0.00000000000E+00 0. -1.
         25    2    1    2    0    0  0.87178663375E+02  0.64141328401E+02 -0.14430883793E+02  0.16597371179E+03  0.12499917297E+03 0.  0.
          2    1    1    2  501    0 -0.45713348079E+02 -0.31262307319E+02 -0.77114131965E+02  0.94940146409E+02  0.00000000000E+00 0. -1.
          1    1    1    2  502    0 -0.41465315296E+02 -0.32879021082E+02  0.65930415583E+02  0.84541244957E+02  0.00000000000E+00 0. -1.
         22    1    3    3    0    0  0.56535347051E+02 -0.65946183117E+01  0.41747237925E+02  0.70587295820E+02  0.00000000000E+00 0. -1.
         22    1    3    3    0    0  0.30643316324E+02  0.70735946713E+02 -0.56178121718E+02  0.95386415975E+02  0.00000000000E+00 0. -1.
</event>
<event>
 7    1  0.5562528E-006  0.1094521E+03  0.7818608E-02  0.1371966E+00
          2   -1    0    0  502    0  0.00000000000E+00  0.00000000000E+00  0.26867556994E+03  0.26867556994E+03  0.00000000000E+00 0. -1.
          1   -1    0    0  501    0 -0.00000000000E+00 -0.00000000000E+00 -0.34081295741E+04  0.34081295741E+04  0.00000000000E+00 0. -1.
         25    2    1    2    0    0  0.11739582826E+03  0.84759898259E+02 -0.10845508919E+04  0.11012921341E+04  0.12501082600E+03 0.  0.
          2    1    1    2  501    0 -0.82466671597E+02 -0.64154545060E+02 -0.23124417553E+04  0.23148009481E+04  0.00000000000E+00 0. -1.
          1    1    1    2  502    0 -0.34929156662E+02 -0.20605353199E+02  0.25753864303E+03  0.26071206190E+03  0.00000000000E+00 0. -1.
         22    1    3    3    0    0 -0.16986139724E+02  0.20327209840E+02 -0.55409053445E+02  0.61415695113E+02  0.00000000000E+00 0. -1.
         22    1    3    3    0    0  0.13438196798E+03  0.64432688419E+02 -0.10291418385E+04  0.10398764390E+04  0.00000000000E+00 0. -1.
</event>
<event>
 7    1  0.5562528E-006  0.3103322E+02  0.7818608E-02  0.1623036E+00
          2   -1    0    0  502    0  0.00000000000E+00  0.00000000000E+00  0.68351991748E+03  0.68351991748E+03  0.00000000000E+00 0. -1.
          1   -1    0    0  501    0 -0.00000000000E+00 -0.00000000000E+00 -0.20129537585E+04  0.20129537585E+04  0.00000000000E+00 0. -1.
         25    2    1    2    0    0  0.28198168484E+02  0.18697792036E+02 -0.19510593185E+03  0.23417150323E+03  0.12500089659E+03 0.  0.
          2    1    1    2  501    0 -0.22083131301E+02  0.11739281649E+02 -0.17978651359E+04  0.17980390770E+04  0.00000000000E+00 0. -1.
          1    1    1    2  502    0 -0.61150371832E+01 -0.30437073685E+02  0.66353722674E+03  0.66426309577E+03  0.00000000000E+00 0. -1.
         22    1    3    3    0    0 -0.68340131453E+01  0.23874133596E+02 -0.19714255780E+03  0.19870044309E+03  0.00000000000E+00 0.  1.
         22    1    3    3    0    0  0.35032181629E+02 -0.51763415597E+01  0.20366259508E+01  0.35471060132E+02  0.00000000000E+00 0.  1.
</event>
<event>
 7    1  0.5562528E-006  0.2688815E+03  0.7818608E-02  0.1213733E+00
          2   -1    0    0  502    0  0.00000000000E+00  0.00000000000E+00  0.12972433628E+04  0.12972433628E+04  0.00000000000E+00 0. -1.
          1   -1    0    0  501    0 -0.00000000000E+00 -0.00000000000E+00 -0.10698392397E+04  0.10698392397E+04  0.00000000000E+00 0. -1.
         25    2    1    2    0    0  0.19646717996E+03 -0.93447538126E+02 -0.13991400341E+03  0.28728511372E+03  0.12500005213E+03 0.  0.
          2    1    1    2  501    0  0.67833042344E+02  0.25824109309E+02 -0.83944696617E+03  0.84257902613E+03  0.00000000000E+00 0. -1.
          1    1    1    2  502    0 -0.26430022230E+03  0.67623428817E+02  0.12067650926E+04  0.12372184627E+04  0.00000000000E+00 0. -1.
         22    1    3    3    0    0  0.13505792364E+03 -0.69731282411E+02 -0.23856801265E+02  0.15385786120E+03  0.00000000000E+00 0. -1.
         22    1    3    3    0    0  0.61409256316E+02 -0.23716255715E+02 -0.11605720214E+03  0.13342725252E+03  0.00000000000E+00 0. -1.
</event>
<event>
 7    1  0.5562528E-006  0.7504710E+02  0.7818608E-02  0.1387756E+00
          2   -1    0    0  502    0  0.00000000000E+00  0.00000000000E+00  0.70294085096E+03  0.70294085096E+03  0.00000000000E+00 0. -1.
          1   -1    0    0  501    0 -0.00000000000E+00 -0.00000000000E+00 -0.12128644466E+03  0.12128644466E+03  0.00000000000E+00 0. -1.
         25    2    1    2    0    0 -0.31393747970E+02  0.50843287406E+02  0.16508182770E+03  0.21551770882E+03  0.12500106275E+03 0.  0.
          2    1    1    2  501    0  0.74444614372E+02 -0.21681957001E+02 -0.78837693000E+02  0.11057798020E+03  0.00000000000E+00 0. -1.
          1    1    1    2  502    0 -0.43050866403E+02 -0.29161330405E+02  0.49541027159E+03  0.49813160660E+03  0.00000000000E+00 0. -1.
         22    1    3    3    0    0 -0.23041769355E+02 -0.26674861052E+02  0.12083367348E+03  0.12586996462E+03  0.00000000000E+00 0.  1.
         22    1    3    3    0    0 -0.83519786145E+01  0.77518148458E+02  0.44248154228E+02  0.89647744198E+02  0.00000000000E+00 0.  1.
</event>
<event>
 7    1  0.5562528E-006  0.2418620E+03  0.7818608E-02  0.1272533E+00
          2   -1    0    0  502    0  0.00000000000E+00  0.00000000000E+00  0.56676980355E+03  0.56676980355E+03  0.00000000000E+00 0. -1.
          1   -1    0    0  501    0 -0.00000000000E+00 -0.00000000000E+00 -0.12771236355E+04  0.12771236355E+04  0.00000000000E+00 0. -1.
         25    2    1    2    0    0  0.20331175652E+03 -0.13000943045E+03 -0.18268248826E+03  0.32746797618E+03  0.12499704622E+03 0.  0.
          2    1    1    2  501    0 -0.22491228677E+03  0.91064179275E+02 -0.10065987555E+04  0.10354319273E+04  0.00000000000E+00 0. -1.
          1    1    1    2  502    0  0.21600530257E+02  0.38945251174E+02  0.47892741180E+03  0.48099353558E+03  0.00000000000E+00 0. -1.
         22    1    3    3    0    0  0.20020685380E+03 -0.85599458709E+02 -0.18061945980E+03  0.28290182201E+03  0.00000000000E+00 0. -1.
         22    1    3    3    0    0  0.31049027186E+01 -0.44409971740E+02 -0.20630284562E+01  0.44566154167E+02  0.00000000000E+00 0. -1.
</event>
<event>
 7    1  0.5562528E-006  0.8384818E+02  0.7818608E-02  0.1408714E+00
          2   -1    0    0  502    0  0.00000000000E+00  0.00000000000E+00  0.29698832516E+03  0.29698832516E+03  0.00000000000E+00 0. -1.
          1   -1    0    0  501    0 -0.00000000000E+00 -0.00000000000E+00 -0.36977594731E+03  0.36977594731E+03  0.00000000000E+00 0. -1.
         25    2    1    2    0    0 -0.32832405046E+02  0.10290558422E+03 -0.57572535177E+02  0.17494553759E+03  0.12499527284E+03 0.  0.
          2    1    1    2  501    0  0.33807200230E+02 -0.20246718053E+02 -0.24472410636E+03  0.24787647047E+03  0.00000000000E+00 0. -1.
          1    1    1    2  502    0 -0.97479518486E+00 -0.82658866165E+02  0.22950901939E+03  0.24394226440E+03  0.00000000000E+00 0. -1.
         22    1    3    3    0    0 -0.51603378399E+02  0.22944491249E+01  0.95792870338E+01  0.52535092072E+02  0.00000000000E+00 0.  1.
         22    1    3    3    0    0  0.18770973353E+02  0.10061113509E+03 -0.67151822211E+02  0.12241044552E+03  0.00000000000E+00 0.  1.
</event>
<event>
 7    1  0.5562528E-006  0.3344391E+02  0.7818608E-02  0.1619231E+00
          2   -1    0    0  502    0  0.00000000000E+00  0.00000000000E+00  0.76414488264E+03  0.76414488264E+03  0.00000000000E+00 0. -1.
          1   -1    0    0  501    0 -0.00000000000E+00 -0.00000000000E+00 -0.12322226424E+03  0.12322226424E+03  0.00000000000E+00 0. -1.
         25    2    1    2    0    0  0.52048310280E+02 -0.21285934780E+02  0.22462430227E+02  0.13889429767E+03  0.12499979012E+03 0.  0.
          2    1    1    2  501    0 -0.19779410040E+02  0.13110059032E+02 -0.62420516081E+02  0.66778885414E+02  0.00000000000E+00 0. -1.
          1    1    1    2  502    0 -0.32268900240E+02  0.81758757479E+01  0.68088070425E+03  0.68169396380E+03  0.00000000000E+00 0. -1.
         22    1    3    3    0    0  0.31226235540E+02 -0.64178366164E+02 -0.20980339448E+02  0.74391633353E+02  0.00000000000E+00 0. -1.
         22    1    3    3    0    0  0.20822074740E+02  0.42892431384E+02  0.43442769676E+02  0.64502664314E+02  0.00000000000E+00 0. -1.
</event>
<event>
 7    1  0.1482289E-005  0.1554666E+03  0.7818608E-02  0.1281289E+00
          2   -1    0    0  502    0  0.00000000000E+00  0.00000000000E+00  0.17436136830E+04  0.17436136830E+04  0.00000000000E+00 0. -1.
          1   -1    0    0  501    0 -0.00000000000E+00 -0.00000000000E+00 -0.11976598154E+04  0.11976598154E+04  0.00000000000E+00 0. -1.
         25    2    1    2    0    0 -0.16314304142E+03  0.13416287532E+03 -0.29466560087E+03  0.38349438137E+03  0.12499918051E+03 0.  0.
          2    1    1    2  501    0  0.11424492111E+03 -0.93309075275E+02 -0.85164020713E+03  0.86432026931E+03  0.00000000000E+00 0. -1.
          1    1    1    2  502    0  0.48898120312E+02 -0.40853800047E+02  0.16922596756E+04  0.16934588477E+04  0.00000000000E+00 0. -1.
         22    1    3    3    0    0 -0.45695484504E+02  0.37584387605E+02 -0.89547547471E+01  0.59840213304E+02  0.00000000000E+00 0. -1.
         22    1    3    3    0    0 -0.11744755692E+03  0.96578487717E+02 -0.28571084612E+03  0.32365416806E+03  0.00000000000E+00 0. -1.
</event>
<event>
 7    1  0.5562528E-006  0.8925007E+02  0.7818608E-02  0.1329023E+00
          2   -1    0    0  502    0  0.00000000000E+00  0.00000000000E+00  0.15442872635E+04  0.15442872635E+04  0.00000000000E+00 0. -1.
          1   -1    0    0  501    0 -0.00000000000E+00 -0.00000000000E+00 -0.46289135090E+02  0.46289135090E+02  0.00000000000E+00 0. -1.
         25    2    1    2    0    0  0.39985094761E+02  0.66880541232E+02  0.10153045545E+04  0.10259337630E+04  0.12499973216E+03 0.  0.
          2    1    1    2  501    0 -0.89942443500E+02 -0.15412074958E+02  0.16216189404E+02  0.92683008130E+02  0.00000000000E+00 0. -1.
          1    1    1    2  502    0  0.49957348739E+02 -0.51468466274E+02  0.46647738449E+03  0.47195962746E+03  0.00000000000E+00 0. -1.
         22    1    3    3    0    0  0.19804744072E+02  0.86780980525E+02  0.39174329714E+03  0.40172873600E+03  0.00000000000E+00 0. -1.
         22    1    3    3    0    0  0.20180350689E+02 -0.19900439293E+02  0.62356125735E+03  0.62420502698E+03  0.00000000000E+00 0. -1.
</event>
<event>
 7    1  0.5562528E-006  0.6654318E+02  0.7818608E-02  0.1395935E+00
          2   -1    0    0  502    0  0.00000000000E+00  0.00000000000E+00  0.19474547232E+04  0.19474547232E+04  0.00000000000E+00 0. -1.
          1   -1    0    0  501    0 -0.00000000000E+00 -0.00000000000E+00 -0.64089898050E+02  0.64089898050E+02  0.00000000000E+00 0. -1.
         25    2    1    2    0    0 -0.24025105962E+02  0.18967727770E+02  0.14132086979E+04  0.14190568199E+04  0.12500581600E+03 0.  0.
          2    1    1    2  501    0 -0.66520894052E+02  0.17221047345E+01 -0.37515484721E+02  0.76389832989E+02  0.00000000000E+00 0. -1.
          1    1    1    2  502    0  0.90546000015E+02 -0.20689832505E+02  0.50767161201E+03  0.51609796834E+03  0.00000000000E+00 0. -1.
         22    1    3    3    0    0 -0.19985721913E+02 -0.27666871308E+02  0.11386394232E+03  0.11886918107E+03  0.00000000000E+00 0. -1.
         22    1    3    3    0    0 -0.40393840496E+01  0.46634599078E+02  0.12993447556E+04  0.13001876389E+04  0.00000000000E+00 0. -1.
</event>
<event>
 7    1  0.5562528E-006  0.8451392E+02  0.7818608E-02  0.1351870E+00
          2   -1    0    0  502    0  0.00000000000E+00  0.00000000000E+00  0.18537340181E+04  0.18537340181E+04  0.00000000000E+00 0. -1.
          1   -1    0    0  501    0 -0.00000000000E+00 -0.00000000000E+00 -0.57197610925E+02  0.57197610925E+02  0.00000000000E+00 0. -1.
         25    2    1    2    0    0 -0.93985243226E+02  0.73162366775E+02  0.22925890934E+03  0.28700700479E+03  0.12500966133E+03 0.  0.
          2    1    1    2  501    0  0.78229446371E+02 -0.13039972983E+02  0.29080186950E+02  0.84472151908E+02  0.00000000000E+00 0. -1.
          1    1    1    2  502    0  0.15755796855E+02 -0.60122393792E+02  0.15381973108E+04  0.15394524723E+04  0.00000000000E+00 0. -1.
         22    1    3    3    0    0 -0.28027162855E+02 -0.57403425676E+01  0.16112320702E+03  0.16364339654E+03  0.00000000000E+00 0.  1.
         22    1    3    3    0    0 -0.65958080372E+02  0.78902709343E+02  0.68135702322E+02  0.12336360824E+03  0.00000000000E+00 0.  1.
</event>
<event>
 7    1  0.5562528E-006  0.9589467E+02  0.7818608E-02  0.1420531E+00
          2   -1    0    0  502    0  0.00000000000E+00  0.00000000000E+00  0.18858366991E+04  0.18858366991E+04  0.00000000000E+00 0. -1.
          1   -1    0    0  501    0 -0.00000000000E+00 -0.00000000000E+00 -0.31925216699E+03  0.31925216699E+03  0.00000000000E+00 0. -1.
         25    2    1    2    0    0 -0.67382609587E+02  0.16641669481E+01 -0.22715212548E+03  0.26789370186E+03  0.12500304740E+03 0.  0.
          2    1    1    2  501    0 -0.27762516036E+02 -0.14755891801E+02 -0.66985019806E+02  0.73996530446E+02  0.00000000000E+00 0. -1.
          1    1    1    2  502    0  0.95145125623E+02  0.13091724853E+02  0.18607216774E+04  0.18631986337E+04  0.00000000000E+00 0. -1.
         22    1    3    3    0    0  0.17790298795E+02  0.18793769351E+01 -0.15568399010E+03  0.15670842850E+03  0.00000000000E+00 0. -1.
         22    1    3    3    0    0 -0.85172908381E+02 -0.21520998700E+00 -0.71468135381E+02  0.11118527336E+03  0.00000000000E+00 0. -1.
</event>
<event>
 7    1  0.5562528E-006  0.7272613E+02  0.7818608E-02  0.1409548E+00
          2   -1    0    0  502    0  0.00000000000E+00  0.00000000000E+00  0.22018894842E+03  0.22018894842E+03  0.00000000000E+00 0. -1.
          1   -1    0    0  501    0 -0.00000000000E+00 -0.00000000000E+00 -0.23068675593E+04  0.23068675593E+04  0.00000000000E+00 0. -1.
         25    2    1    2    0    0  0.45668493997E+02 -0.12098969521E+02 -0.13898118948E+03  0.19280241393E+03  0.12500001352E+03 0.  0.
          2    1    1    2  501    0  0.15701631783E+01 -0.45110380148E+02 -0.21336084675E+04  0.21340858709E+04  0.00000000000E+00 0. -1.
          1    1    1    2  502    0 -0.47238657175E+02  0.57209349669E+02  0.18591104607E+03  0.20016822293E+03  0.00000000000E+00 0. -1.
         22    1    3    3    0    0  0.29774974092E+02  0.54371915183E+02 -0.45017347463E+02  0.76612112721E+02  0.00000000000E+00 0. -1.
         22    1    3    3    0    0  0.15893519905E+02 -0.66470884705E+02 -0.93963842017E+02  0.11619030121E+03  0.00000000000E+00 0. -1.
</event>
<event>
 7    1  0.5562528E-006  0.3364473E+03  0.7818608E-02  0.1150946E+00
          2   -1    0    0  502    0  0.00000000000E+00  0.00000000000E+00  0.65123369415E+03  0.65123369415E+03  0.00000000000E+00 0. -1.
          1   -1    0    0  501    0 -0.00000000000E+00 -0.00000000000E+00 -0.15048606490E+04  0.15048606490E+04  0.00000000000E+00 0. -1.
         25    2    1    2    0    0 -0.10354104534E+03  0.24530800004E+03 -0.56099217991E+03  0.63342947164E+03  0.12499562661E+03 0.  0.
          2    1    1    2  501    0 -0.11574902610E+03  0.18400169107E+02 -0.85552583944E+03  0.86351656916E+03  0.00000000000E+00 0. -1.
          1    1    1    2  502    0  0.21929007144E+03 -0.26370816915E+03  0.56289106453E+03  0.65914830231E+03  0.00000000000E+00 0. -1.
         22    1    3    3    0    0  0.76216598061E+01  0.53393667807E+02 -0.39857176253E+02  0.67063909511E+02  0.00000000000E+00 0.  1.
         22    1    3    3    0    0 -0.11116270515E+03  0.19191433223E+03 -0.52113500365E+03  0.56636556213E+03  0.00000000000E+00 0.  1.
</event>
<event>
 7    1  0.5562528E-006  0.6085249E+02  0.7818608E-02  0.1448217E+00
          2   -1    0    0  502    0  0.00000000000E+00  0.00000000000E+00  0.30728856691E+03  0.30728856691E+03  0.00000000000E+00 0. -1.
          1   -1    0    0  501    0 -0.00000000000E+00 -0.00000000000E+00 -0.35222099418E+03  0.35222099418E+03  0.00000000000E+00 0. -1.
         25    2    1    2    0    0 -0.27817361446E+02  0.84684809453E+01 -0.16323976554E+03  0.20764811505E+03  0.12499999145E+03 0.  0.
          2    1    1    2  501    0 -0.31386540691E+02 -0.25146820034E+02 -0.16095607144E+03  0.16590459435E+03  0.00000000000E+00 0. -1.
          1    1    1    2  502    0  0.59203902137E+02  0.16678339089E+02  0.27926340971E+03  0.28595685168E+03  0.00000000000E+00 0. -1.
         22    1    3    3    0    0 -0.43310107831E+02  0.47759877788E+02 -0.15018826809E+03  0.16344199961E+03  0.00000000000E+00 0.  1.
         22    1    3    3    0    0  0.15492746385E+02 -0.39291396843E+02 -0.13051497456E+02  0.44206115439E+02  0.00000000000E+00 0.  1.
</event>
<event>
 7    1  0.5562528E-006  0.5395278E+02  0.7818608E-02  0.1426830E+00
          2   -1    0    0  502    0  0.00000000000E+00  0.00000000000E+00  0.13380858048E+03  0.13380858048E+03  0.00000000000E+00 0. -1.
          1   -1    0    0  501    0 -0.00000000000E+00 -0.00000000000E+00 -0.60505422916E+03  0.60505422916E+03  0.00000000000E+00 0. -1.
         25    2    1    2    0    0 -0.14827508836E+01  0.37311471095E+02 -0.45819861044E+02  0.13827153865E+03  0.12500085724E+03 0.  0.
          2    1    1    2  501    0  0.51645464578E+02 -0.17446818508E+02 -0.50308504506E+03  0.50602984898E+03  0.00000000000E+00 0. -1.
          1    1    1    2  502    0 -0.50162713694E+02 -0.19864652587E+02  0.77659257430E+02  0.94561422008E+02  0.00000000000E+00 0. -1.
         22    1    3    3    0    0  0.59120283382E+02  0.25925181803E+02 -0.59212164455E+01  0.64825795505E+02  0.00000000000E+00 0. -1.
         22    1    3    3    0    0 -0.60603034265E+02  0.11386289292E+02 -0.39898644599E+02  0.73445743150E+02  0.00000000000E+00 0. -1.
</event>
<event>
 7    1  0.5562528E-006  0.1129244E+03  0.7818608E-02  0.1453431E+00
          2   -1    0    0  502    0  0.00000000000E+00  0.00000000000E+00  0.71267908846E+02  0.71267908846E+02  0.00000000000E+00 0. -1.
          1   -1    0    0  501    0 -0.00000000000E+00 -0.00000000000E+00 -0.10607734721E+04  0.10607734721E+04  0.00000000000E+00 0. -1.
         25    2    1    2    0    0  0.73966473246E+02 -0.88023790994E+02 -0.33037834522E+03  0.37147488649E+03  0.12499805340E+03 0.  0.
          2    1    1    2  501    0  0.13097345283E+02  0.16231557519E+02 -0.64670222674E+03  0.64703846407E+03  0.00000000000E+00 0. -1.
          1    1    1    2  502    0 -0.87063818529E+02  0.71792233475E+02 -0.12424991332E+02  0.11352803043E+03  0.00000000000E+00 0. -1.
         22    1    3    3    0    0 -0.35377298829E+02 -0.27055382672E+02 -0.92527688757E+02  0.10268846182E+03  0.00000000000E+00 0. -1.
         22    1    3    3    0    0  0.10934377208E+03 -0.60968408322E+02 -0.23785065646E+03  0.26878642467E+03  0.00000000000E+00 0. -1.
</event>
<event>
 7    1  0.5562528E-006  0.1026607E+03  0.7818608E-02  0.1291724E+00
          2   -1    0    0  502    0  0.00000000000E+00  0.00000000000E+00  0.13289125937E+04  0.13289125937E+04  0.00000000000E+00 0. -1.
          1   -1    0    0  501    0 -0.00000000000E+00 -0.00000000000E+00 -0.21176322130E+04  0.21176322130E+04  0.00000000000E+00 0. -1.
         25    2    1    2    0    0 -0.11366412158E+03  0.82318979549E+01 -0.18253079177E+04  0.18331288782E+04  0.12500077207E+03 0.  0.
          2    1    1    2  501    0  0.73665599597E+02  0.69548156577E+02 -0.27801907294E+03  0.29590230071E+03  0.00000000000E+00 0. -1.
          1    1    1    2  502    0  0.39998521982E+02 -0.77780054532E+02  0.13146073714E+04  0.13175136278E+04  0.00000000000E+00 0. -1.
         22    1    3    3    0    0 -0.13588913430E+03  0.20696887570E+02 -0.16791097631E+04  0.16847266290E+04  0.00000000000E+00 0.  1.
         22    1    3    3    0    0  0.22225012718E+02 -0.12464989615E+02 -0.14619815456E+03  0.14840224915E+03  0.00000000000E+00 0.  1.
</event>
<event>
 7    1  0.5562528E-006  0.9878245E+02  0.7818608E-02  0.1386475E+00
          2   -1    0    0  502    0  0.00000000000E+00  0.00000000000E+00  0.11646045387E+04  0.11646045387E+04  0.00000000000E+00 0. -1.
          1   -1    0    0  501    0 -0.00000000000E+00 -0.00000000000E+00 -0.10590078885E+03  0.10590078885E+03  0.00000000000E+00 0. -1.
         25    2    1    2    0    0  0.42783710128E+02  0.57580587224E+02  0.50256833153E+03  0.52282119694E+03  0.12498442400E+03 0.  0.
          2    1    1    2  501    0 -0.30604260556E+02 -0.95591404303E+02 -0.68664449055E+02  0.12161062414E+03  0.00000000000E+00 0. -1.
          1    1    1    2  502    0 -0.12179449572E+02  0.38010817079E+02  0.62479986739E+03  0.62607350647E+03  0.00000000000E+00 0. -1.
         22    1    3    3    0    0 -0.30348493391E+02 -0.20861026341E+02  0.13365564051E+03  0.13863637225E+03  0.00000000000E+00 0.  1.
         22    1    3    3    0    0  0.73132203519E+02  0.78441613566E+02  0.36891269101E+03  0.38418482469E+03  0.00000000000E+00 0.  1.
</event>
<event>
 7    1  0.5562528E-006  0.4028008E+02  0.7818608E-02  0.1540856E+00
          2   -1    0    0  502    0  0.00000000000E+00  0.00000000000E+00  0.49781597572E+02  0.49781597572E+02  0.00000000000E+00 0. -1.
          1   -1    0    0  501    0 -0.00000000000E+00 -0.00000000000E+00 -0.45892433252E+03  0.45892433252E+03  0.00000000000E+00 0. -1.
         25    2    1    2    0    0 -0.14838210161E+02 -0.10611752058E+02 -0.70786263611E+02  0.14480102296E+03  0.12499543740E+03 0.  0.
          2    1    1    2  501    0  0.48158923646E+01  0.40974666261E+02 -0.32757354571E+03  0.33016139075E+03  0.00000000000E+00 0. -1.
          1    1    1    2  502    0  0.10022317797E+02 -0.30362914202E+02 -0.10782925633E+02  0.33743516386E+02  0.00000000000E+00 0. -1.
         22    1    3    3    0    0 -0.60888582495E+02 -0.26284680254E+01 -0.76396844174E+02  0.97728225822E+02  0.00000000000E+00 0. -1.
         22    1    3    3    0    0  0.46050372334E+02 -0.79832840330E+01  0.56105805636E+01  0.47072797137E+02  0.00000000000E+00 0. -1.
</event>
<event>
 7    1  0.5562528E-006  0.6610639E+02  0.7818608E-02  0.1395826E+00
          2   -1    0    0  502    0  0.00000000000E+00  0.00000000000E+00  0.22920514131E+04  0.22920514131E+04  0.00000000000E+00 0. -1.
          1   -1    0    0  501    0 -0.00000000000E+00 -0.00000000000E+00 -0.54354159240E+02  0.54354159240E+02  0.00000000000E+00 0. -1.
         25    2    1    2    0    0 -0.82062599803E+02  0.34903202966E+02  0.23175327755E+03  0.27799811330E+03  0.12498346082E+03 0.  0.
          2    1    1    2  501    0  0.50338751038E+02  0.22974486233E+02 -0.57494624869E+01  0.55631584488E+02  0.00000000000E+00 0. -1.
          1    1    1    2  502    0  0.31723848765E+02 -0.57877689199E+02  0.20116934388E+04  0.20127758746E+04  0.00000000000E+00 0. -1.
         22    1    3    3    0    0 -0.77044549458E+02  0.75648506413E+02  0.19499338074E+03  0.22289230057E+03  0.00000000000E+00 0. -1.
         22    1    3    3    0    0 -0.50180503451E+01 -0.40745303447E+02  0.36759896812E+02  0.55105812723E+02  0.00000000000E+00 0. -1.
</event>
<event>
 7    1  0.5562528E-006  0.6169575E+02  0.7818608E-02  0.1447476E+00
          2   -1    0    0  502    0  0.00000000000E+00  0.00000000000E+00  0.18494752036E+04  0.18494752036E+04  0.00000000000E+00 0. -1.
          1   -1    0    0  501    0 -0.00000000000E+00 -0.00000000000E+00 -0.46430322250E+03  0.46430322250E+03  0.00000000000E+00 0. -1.
         25    2    1    2    0    0  0.36399655988E+02 -0.76932828424E+02  0.91860877034E+03  0.93097310271E+03  0.12500099996E+03 0.  0.
          2    1    1    2  501    0  0.88243979623E+01  0.38897484778E+02 -0.45630613599E+03  0.45804603924E+03  0.00000000000E+00 0. -1.
          1    1    1    2  502    0 -0.45224053950E+02  0.38035343647E+02  0.92286934671E+03  0.92475928410E+03  0.00000000000E+00 0. -1.
         22    1    3    3    0    0  0.48554313110E+01 -0.57188473455E+02  0.85754306760E+03  0.85946158116E+03  0.00000000000E+00 0.  1.
         22    1    3    3    0    0  0.31544224677E+02 -0.19744354969E+02  0.61065702741E+02  0.71511521553E+02  0.00000000000E+00 0.  1.
</event>
<event>
 7    1  0.5562528E-006  0.4430222E+02  0.7818608E-02  0.1492310E+00
          2   -1    0    0  502    0  0.00000000000E+00  0.00000000000E+00  0.44584791243E+02  0.44584791243E+02  0.00000000000E+00 0. -1.
          1   -1    0    0  501    0 -0.00000000000E+00 -0.00000000000E+00 -0.10511078591E+04  0.10511078591E+04  0.00000000000E+00 0. -1.
         25    2    1    2    0    0  0.60576207034E+02 -0.33345058275E+02 -0.26243492010E+03  0.29879513542E+03  0.12500030358E+03 0.  0.
          2    1    1    2  501    0 -0.17335027888E+02  0.36363167967E+02 -0.75179315997E+03  0.75287166141E+03  0.00000000000E+00 0. -1.
          1    1    1    2  502    0 -0.43241179146E+02 -0.30181096928E+01  0.77050122507E+01  0.44025853471E+02  0.00000000000E+00 0. -1.
         22    1    3    3    0    0  0.36308396188E+02  0.20980925361E+02 -0.15363420983E+02  0.44660201153E+02  0.00000000000E+00 0.  1.
         22    1    3    3    0    0  0.24267810846E+02 -0.54325983635E+02 -0.24707149911E+03  0.25413493427E+03  0.00000000000E+00 0.  1.
</event>
<event>
 7    1  0.5562528E-006  0.1639022E+03  0.7818608E-02  0.1258103E+00
          2   -1    0    0  502    0  0.00000000000E+00  0.00000000000E+00  0.10040875827E+04  0.10040875827E+04  0.00000000000E+00 0. -1.
          1   -1    0    0  501    0 -0.00000000000E+00 -0.00000000000E+00 -0.11811312392E+04  0.11811312392E+04  0.00000000000E+00 0. -1.
         25    2    1    2    0    0 -0.18537520499E+03 -0.30443529120E+02  0.18117791262E+02  0.22637197916E+03  0.12500097399E+03 0.  0.
          2    1    1    2  501    0  0.15841203816E+03 -0.40225152470E+02 -0.10691606804E+04  0.10815807863E+04  0.00000000000E+00 0. -1.
          1    1    1    2  502    0  0.26963166829E+02  0.70668681591E+02  0.87399923269E+03  0.87726605637E+03  0.00000000000E+00 0. -1.
         22    1    3    3    0    0 -0.10459668042E+02  0.16007673548E+02 -0.33152118976E+02  0.38271572486E+02  0.00000000000E+00 0.  1.
         22    1    3    3    0    0 -0.17491553695E+03 -0.46451202668E+02  0.51269910238E+02  0.18810040667E+03  0.00000000000E+00 0.  1.
</event>
<event>
 7    1  0.5562528E-006  0.1654219E+03  0.7818608E-02  0.1270029E+00
          2   -1    0    0  502    0  0.00000000000E+00  0.00000000000E+00  0.37817363104E+04  0.37817363104E+04  0.00000000000E+00 0. -1.
          1   -1    0    0  501    0 -0.00000000000E+00 -0.00000000000E+00 -0.48989092539E+02  0.48989092539E+02  0.00000000000E+00 0. -1.
         25    2    1    2    0    0  0.13541252752E+03  0.13774264842E+03  0.16483895762E+04  0.16643684169E+04  0.12499776991E+03 0.  0.
          2    1    1    2  501    0 -0.66576020847E+02  0.41645844198E+01 -0.87835125815E+01  0.67281947122E+02  0.00000000000E+00 0. -1.
          1    1    1    2  502    0 -0.68836506671E+02 -0.14190723284E+03  0.20931411542E+04  0.20990750389E+04  0.00000000000E+00 0. -1.
         22    1    3    3    0    0  0.24247100667E+02  0.64259105463E+02  0.23841160828E+03  0.24810733462E+03  0.00000000000E+00 0. -1.
         22    1    3    3    0    0  0.11116542685E+03  0.73483542954E+02  0.14099779679E+04  0.14162610823E+04  0.00000000000E+00 0. -1.
</event>
<event>
 7    1  0.5562528E-006  0.6371737E+02  0.7818608E-02  0.1387248E+00
          2   -1    0    0  502    0  0.00000000000E+00  0.00000000000E+00  0.54929658348E+03  0.54929658348E+03  0.00000000000E+00 0. -1.
          1   -1    0    0  501    0 -0.00000000000E+00 -0.00000000000E+00 -0.11745450014E+04  0.11745450014E+04  0.00000000000E+00 0. -1.
         25    2    1    2    0    0  0.10567559284E+02  0.89334288739E+01 -0.12121598895E+03  0.17467379552E+03  0.12500455753E+03 0.  0.
          2    1    1    2  501    0 -0.59870023281E+02  0.27821660500E+02 -0.10237239828E+04  0.10258505044E+04  0.00000000000E+00 0. -1.
          1    1    1    2  502    0  0.49302463997E+02 -0.36755089374E+02  0.51969155384E+03  0.52331728491E+03  0.00000000000E+00 0. -1.
         22    1    3    3    0    0 -0.20100639078E+02 -0.46174232660E+02 -0.17547912535E+02  0.53329397966E+02  0.00000000000E+00 0. -1.
         22    1    3    3    0    0  0.30668198362E+02  0.55107661534E+02 -0.10366807641E+03  0.12134439755E+03  0.00000000000E+00 0. -1.
</event>
<event>
 7    1  0.5562528E-006  0.1198253E+03  0.7818608E-02  0.1272684E+00
          2   -1    0    0  502    0  0.00000000000E+00  0.00000000000E+00  0.16581063404E+04  0.16581063404E+04  0.00000000000E+00 0. -1.
          1   -1    0    0  501    0 -0.00000000000E+00 -0.00000000000E+00 -0.71698319791E+03  0.71698319791E+03  0.00000000000E+00 0. -1.
         25    2    1    2    0    0  0.77001243803E+02  0.17077720729E+02  0.51232495549E+02  0.15642988039E+03  0.12499879514E+03 0.  0.
          2    1    1    2  501    0 -0.63505779737E+02 -0.10581763876E+03 -0.65734152969E+03  0.66882601878E+03  0.00000000000E+00 0. -1.
          1    1    1    2  502    0 -0.13495464066E+02  0.88739918036E+02  0.15472321766E+04  0.15498336391E+04  0.00000000000E+00 0. -1.
         22    1    3    3    0    0  0.75101956534E+02  0.39596084581E+02  0.82146790920E+02  0.11813656948E+03  0.00000000000E+00 0. -1.
         22    1    3    3    0    0  0.18992872683E+01 -0.22518363852E+02 -0.30914295371E+02  0.38293310917E+02  0.00000000000E+00 0. -1.
</event>
<event>
 7    1  0.5562528E-006  0.3271711E+02  0.7818608E-02  0.1633439E+00
          2   -1    0    0  502    0  0.00000000000E+00  0.00000000000E+00  0.14407070548E+03  0.14407070548E+03  0.00000000000E+00 0. -1.
          1   -1    0    0  501    0 -0.00000000000E+00 -0.00000000000E+00 -0.14106511182E+04  0.14106511182E+04  0.00000000000E+00 0. -1.
         25    2    1    2    0    0 -0.26090612159E+02 -0.30489284228E+02 -0.19165537867E+03  0.23231189681E+03  0.12500686673E+03 0.  0.
          2    1    1    2  501    0  0.22243386995E+02 -0.19935844596E+01 -0.11963998275E+04  0.11966082442E+04  0.00000000000E+00 0. -1.
          1    1    1    2  502    0  0.38472251636E+01  0.32482868688E+02  0.12147479354E+03  0.12580168268E+03  0.00000000000E+00 0. -1.
         22    1    3    3    0    0 -0.32520808192E+02  0.36351395462E+02 -0.13797737659E+03  0.14634474151E+03  0.00000000000E+00 0.  1.
         22    1    3    3    0    0  0.64301960327E+01 -0.66840679689E+02 -0.53678002079E+02  0.85967155295E+02  0.00000000000E+00 0.  1.
</event>
<event>
 7    1  0.5562528E-006  0.8493128E+03  0.7818608E-02  0.1179076E+00
          2   -1    0    0  502    0  0.00000000000E+00  0.00000000000E+00  0.37335571540E+04  0.37335571540E+04  0.00000000000E+00 0. -1.
          1   -1    0    0  501    0 -0.00000000000E+00 -0.00000000000E+00 -0.17290344157E+04  0.17290344157E+04  0.00000000000E+00 0. -1.
         25    2    1    2    0    0  0.35914507460E+03 -0.75325897500E+03  0.25767510514E+04  0.27113937137E+04  0.12500248718E+03 0.  0.
          2    1    1    2  501    0 -0.39270082170E+03  0.75378277555E+03 -0.15527238378E+04  0.17701281661E+04  0.00000000000E+00 0. -1.
          1    1    1    2  502    0  0.33555747104E+02 -0.52380055944E+00  0.98049552466E+03  0.98106968988E+03  0.00000000000E+00 0. -1.
         22    1    3    3    0    0  0.35279987011E+03 -0.65984757165E+03  0.23435281703E+04  0.24600794400E+04  0.00000000000E+00 0.  1.
         22    1    3    3    0    0  0.63452044881E+01 -0.93411403344E+02  0.23322288115E+03  0.25131427374E+03  0.00000000000E+00 0.  1.
</event>
<event>
 7    1  0.5562528E-006  0.2623125E+03  0.7818608E-02  0.1243257E+00
          2   -1    0    0  502    0  0.00000000000E+00  0.00000000000E+00  0.55911405221E+03  0.55911405221E+03  0.00000000000E+00 0. -1.
          1   -1    0    0  501    0 -0.00000000000E+00 -0.00000000000E+00 -0.58943932521E+03  0.58943932521E+03  0.00000000000E+00 0. -1.
         25    2    1    2    0    0 -0.25831237223E+03  0.34056783434E+02  0.60739806468E+02  0.29529545230E+03  0.12499973566E+03 0.  0.
          2    1    1    2  501    0  0.26285617262E+03  0.20562492956E+02 -0.43300084450E+03  0.50695750802E+03  0.00000000000E+00 0. -1.
          1    1    1    2  502    0 -0.45438003926E+01 -0.54619276390E+02  0.34193576503E+03  0.34630041709E+03  0.00000000000E+00 0. -1.
         22    1    3    3    0    0 -0.81602729844E+02  0.22919871713E+02  0.80800116119E+02  0.11710245430E+03  0.00000000000E+00 0. -1.
         22    1    3    3    0    0 -0.17670964239E+03  0.11136911721E+02 -0.20060309651E+02  0.17819299801E+03  0.00000000000E+00 0. -1.
</event>
<event>
 7    1  0.5562528E-006  0.6284054E+02  0.7818608E-02  0.1402275E+00
          2   -1    0    0  502    0  0.00000000000E+00  0.00000000000E+00  0.94889951520E+03  0.94889951520E+03  0.00000000000E+00 0. -1.
          1   -1    0    0  501    0 -0.00000000000E+00 -0.00000000000E+00 -0.66885445680E+03  0.66885445680E+03  0.00000000000E+00 0. -1.
         25    2    1    2    0    0  0.29532613463E+02 -0.10990447222E+03 -0.80283316446E+02  0.18713757419E+03  0.12499556992E+03 0.  0.
          2    1    1    2  501    0 -0.27682462438E+02  0.54627841299E+02 -0.53253342213E+03  0.53604324961E+03  0.00000000000E+00 0. -1.
          1    1    1    2  502    0 -0.18501510247E+01  0.55276630923E+02  0.89286179698E+03  0.89457314820E+03  0.00000000000E+00 0. -1.
         22    1    3    3    0    0 -0.79644288151E+01 -0.12706189742E+03 -0.54367540733E+02  0.13843405429E+03  0.00000000000E+00 0.  1.
         22    1    3    3    0    0  0.37497042278E+02  0.17157425199E+02 -0.25915775713E+02  0.48703519892E+02  0.00000000000E+00 0.  1.
</event>
<event>
 7    1  0.5562528E-006  0.1226516E+03  0.7818608E-02  0.1240281E+00
          2   -1    0    0  502    0  0.00000000000E+00  0.00000000000E+00  0.21299582506E+04  0.21299582506E+04  0.00000000000E+00 0. -1.
          1   -1    0    0  501    0 -0.00000000000E+00 -0.00000000000E+00 -0.93403983501E+02  0.93403983501E+02  0.00000000000E+00 0. -1.
         25    2    1    2    0    0 -0.22496776256E+02  0.51988383002E+02  0.63801910162E+03  0.65261126291E+03  0.12499675809E+03 0.  0.
          2    1    1    2  501    0  0.13055085402E+03  0.20239519134E+01 -0.32560946907E+02  0.13456536378E+03  0.00000000000E+00 0. -1.
          1    1    1    2  502    0 -0.10805407776E+03 -0.54012334915E+02  0.14310961124E+04  0.14361856074E+04  0.00000000000E+00 0. -1.
         22    1    3    3    0    0 -0.30504695465E+02  0.85235969530E+02  0.31392763757E+03  0.32672047468E+03  0.00000000000E+00 0.  1.
         22    1    3    3    0    0  0.80079192085E+01 -0.33247586528E+02  0.32409146405E+03  0.32589078823E+03  0.00000000000E+00 0.  1.
</event>
<event>
 7    1  0.5562528E-006  0.6567922E+02  0.7818608E-02  0.1465025E+00
          2   -1    0    0  502    0  0.00000000000E+00  0.00000000000E+00  0.23340389783E+04  0.23340389783E+04  0.00000000000E+00 0. -1.
          1   -1    0    0  501    0 -0.00000000000E+00 -0.00000000000E+00 -0.81538180859E+02  0.81538180859E+02  0.00000000000E+00 0. -1.
         25    2    1    2    0    0  0.47150377003E+02 -0.71183207535E+02  0.50112584180E+02  0.15945575809E+03  0.12499864243E+03 0.  0.
          2    1    1    2  501    0  0.57384093240E+01  0.32457051219E+02 -0.16087865334E+02  0.36677089939E+02  0.00000000000E+00 0. -1.
          1    1    1    2  502    0 -0.52888786327E+02  0.38726156316E+02  0.22184760786E+04  0.22194443111E+04  0.00000000000E+00 0. -1.
         22    1    3    3    0    0 -0.10719350722E+02  0.31596184596E+02  0.91951972089E+01  0.34608886324E+02  0.00000000000E+00 0.  1.
         22    1    3    3    0    0  0.57869727724E+02 -0.10277939213E+03  0.40917386971E+02  0.12484687177E+03  0.00000000000E+00 0.  1.
</event>
<event>
 7    1  0.5562528E-006  0.5336028E+02  0.7818608E-02  0.1441646E+00
          2   -1    0    0  502    0  0.00000000000E+00  0.00000000000E+00  0.51492128166E+03  0.51492128166E+03  0.00000000000E+00 0. -1.
          1   -1    0    0  501    0 -0.00000000000E+00 -0.00000000000E+00 -0.76945556833E+03  0.76945556833E+03  0.00000000000E+00 0. -1.
         25    2    1    2    0    0  0.79013414995E+02 -0.58594753082E+02  0.17374080510E+03  0.23555914826E+03  0.12500312050E+03 0.  0.
          2    1    1    2  501    0 -0.36880895152E+02  0.30965350691E+02 -0.73570858843E+03  0.73728297177E+03  0.00000000000E+00 0. -1.
          1    1    1    2  502    0 -0.42132519843E+02  0.27629402391E+02  0.30743349666E+03  0.31153472996E+03  0.00000000000E+00 0. -1.
         22    1    3    3    0    0 -0.20197050312E+02 -0.55534237386E+02  0.54231705431E+02  0.80206297990E+02  0.00000000000E+00 0. -1.
         22    1    3    3    0    0  0.99210465307E+02 -0.30605156962E+01  0.11950909967E+03  0.15535285027E+03  0.00000000000E+00 0. -1.
</event>
<event>
 7    1  0.5562528E-006  0.2446434E+02  0.7818608E-02  0.1692361E+00
          2   -1    0    0  502    0  0.00000000000E+00  0.00000000000E+00  0.32396210942E+02  0.32396210942E+02  0.00000000000E+00 0. -1.
          1   -1    0    0  501    0 -0.00000000000E+00 -0.00000000000E+00 -0.10173512686E+04  0.10173512686E+04  0.00000000000E+00 0. -1.
         25    2    1    2    0    0  0.22850682636E+01  0.67643733165E+01 -0.17297333708E+03  0.21353039565E+03  0.12499790496E+03 0.  0.
          2    1    1    2  501    0 -0.23806889381E+02 -0.64029159435E+01 -0.81420461120E+03  0.81457775210E+03  0.00000000000E+00 0. -1.
          1    1    1    2  502    0  0.21521821118E+02 -0.36145737292E+00  0.22228906644E+01  0.21639331749E+02  0.00000000000E+00 0. -1.
         22    1    3    3    0    0  0.26380093941E+02 -0.53577231163E+02 -0.73275577405E+02  0.94529039451E+02  0.00000000000E+00 0.  1.
         22    1    3    3    0    0 -0.24095025678E+02  0.60341604479E+02 -0.99697759678E+02  0.11900135620E+03  0.00000000000E+00 0.  1.
</event>
<event>
 7    1  0.5562528E-006  0.5036230E+02  0.7818608E-02  0.1465985E+00
          2   -1    0    0  502    0  0.00000000000E+00  0.00000000000E+00  0.65750355454E+03  0.65750355454E+03  0.00000000000E+00 0. -1.
          1   -1    0    0  501    0 -0.00000000000E+00 -0.00000000000E+00 -0.24975995884E+03  0.24975995884E+03  0.00000000000E+00 0. -1.
         25    2    1    2    0    0  0.97662806587E+01  0.75877377187E+02 -0.12115495149E+03  0.19014855922E+03  0.12500078278E+03 0.  0.
          2    1    1    2  501    0 -0.30348678415E+02 -0.30020654827E+02 -0.88192290132E+02  0.97980416597E+02  0.00000000000E+00 0. -1.
          1    1    1    2  502    0  0.20582397756E+02 -0.45856722359E+02  0.61709083733E+03  0.61913453756E+03  0.00000000000E+00 0. -1.
         22    1    3    3    0    0  0.12284721330E+02  0.10312687818E+03 -0.52774493296E+02  0.11649555581E+03  0.00000000000E+00 0. -1.
         22    1    3    3    0    0 -0.25184406716E+01 -0.27249500994E+02 -0.68380458198E+02  0.73653003410E+02  0.00000000000E+00 0. -1.
</event>
<event>
 7    1  0.5562528E-006  0.1446896E+03  0.7818608E-02  0.1311410E+00
          2   -1    0    0  502    0  0.00000000000E+00  0.00000000000E+00  0.15278706344E+04  0.15278706344E+04  0.00000000000E+00 0. -1.
          1   -1    0    0  501    0 -0.00000000000E+00 -0.00000000000E+00 -0.13344822147E+04  0.13344822147E+04  0.00000000000E+00 0. -1.
         25    2    1    2    0    0 -0.18739678293E+02  0.13673444038E+03 -0.14590214693E+03  0.23655791014E+03  0.12499890255E+03 0.  0.
          2    1    1    2  501    0  0.69854488181E+02 -0.12845625698E+03 -0.11381213590E+04  0.11474758766E+04  0.00000000000E+00 0. -1.
          1    1    1    2  502    0 -0.51114809888E+02 -0.82781833979E+01  0.14774119257E+04  0.14783190624E+04  0.00000000000E+00 0. -1.
         22    1    3    3    0    0 -0.42638771438E+02  0.15194519544E+03 -0.12148404826E+03  0.19915767932E+03  0.00000000000E+00 0.  1.
         22    1    3    3    0    0  0.23899093145E+02 -0.15210755063E+02 -0.24418098672E+02  0.37400230821E+02  0.00000000000E+00 0.  1.
</event>
<event>
 7    1  0.5562528E-006  0.9574872E+02  0.7818608E-02  0.1308768E+00
          2   -1    0    0  502    0  0.00000000000E+00  0.00000000000E+00  0.14734873329E+04  0.14734873329E+04  0.00000000000E+00 0. -1.
          1   -1    0    0  501    0 -0.00000000000E+00 -0.00000000000E+00 -0.17236619292E+03  0.17236619292E+03  0.00000000000E+00 0. -1.
         25    2    1    2    0    0 -0.93736966385E+02  0.64667811249E+02  0.23812013339E+02  0.17076565375E+03  0.12500140736E+03 0.  0.
          2    1    1    2  501    0  0.19742009401E+02 -0.95459639045E+02 -0.73386922005E+02  0.12201610526E+03  0.00000000000E+00 0. -1.
          1    1    1    2  502    0  0.73994956983E+02  0.30791827796E+02  0.13506960486E+04  0.13530717668E+04  0.00000000000E+00 0. -1.
         22    1    3    3    0    0 -0.78725155735E+02  0.96914930191E+02  0.40785958976E+02  0.13135314343E+03  0.00000000000E+00 0. -1.
         22    1    3    3    0    0 -0.15011810650E+02 -0.32247118942E+02 -0.16973945638E+02  0.39412510318E+02  0.00000000000E+00 0. -1.
</event>
<event>
 7    1  0.5562528E-006  0.8163191E+02  0.7818608E-02  0.1328869E+00
          2   -1    0    0  502    0  0.00000000000E+00  0.00000000000E+00  0.10994714700E+04  0.10994714700E+04  0.00000000000E+00 0. -1.
          1   -1    0    0  501    0 -0.00000000000E+00 -0.00000000000E+00 -0.36937628883E+03  0.36937628883E+03  0.00000000000E+00 0. -1.
         25    2    1    2    0    0 -0.49584636030E+02  0.67061013754E+02  0.66705281738E+03  0.68376830490E+03  0.12499527154E+03 0.  0.
          2    1    1    2  501    0 -0.28333059284E+02 -0.76821260931E+02 -0.35265217657E+03  0.36203290737E+03  0.00000000000E+00 0. -1.
          1    1    1    2  502    0  0.77917695313E+02  0.97602471768E+01  0.41569454035E+03  0.42304654655E+03  0.00000000000E+00 0. -1.
         22    1    3    3    0    0 -0.52983011531E+02  0.47648272910E+01  0.53588579400E+03  0.53851971858E+03  0.00000000000E+00 0. -1.
         22    1    3    3    0    0  0.33983755011E+01  0.62296186463E+02  0.13116702338E+03  0.14524858632E+03  0.00000000000E+00 0. -1.
</event>
<event>
 7    1  0.5562528E-006  0.5596799E+02  0.7818608E-02  0.1457873E+00
          2   -1    0    0  502    0  0.00000000000E+00  0.00000000000E+00  0.21330610955E+03  0.21330610955E+03  0.00000000000E+00 0. -1.
          1   -1    0    0  501    0 -0.00000000000E+00 -0.00000000000E+00 -0.94705972100E+03  0.94705972100E+03  0.00000000000E+00 0. -1.
         25    2    1    2    0    0 -0.87021997704E+02  0.37655884106E+02 -0.34558939646E+03  0.37953574644E+03  0.12499823273E+03 0.  0.
          2    1    1    2  501    0  0.39897307941E+02 -0.82313486535E+01 -0.57983791208E+03  0.58126719722E+03  0.00000000000E+00 0. -1.
          1    1    1    2  502    0  0.47124689763E+02 -0.29424535453E+02  0.19167369708E+03  0.19956288689E+03  0.00000000000E+00 0. -1.
         22    1    3    3    0    0 -0.68834970061E+02 -0.14567302983E+02 -0.72976882535E+02  0.10137102547E+03  0.00000000000E+00 0. -1.
         22    1    3    3    0    0 -0.18187027643E+02  0.52223187089E+02 -0.27261251393E+03  0.27816472097E+03  0.00000000000E+00 0. -1.
</event>
<event>
 7    1  0.5562528E-006  0.1476007E+03  0.7818608E-02  0.1238211E+00
          2   -1    0    0  502    0  0.00000000000E+00  0.00000000000E+00  0.14219195215E+03  0.14219195215E+03  0.00000000000E+00 0. -1.
          1   -1    0    0  501    0 -0.00000000000E+00 -0.00000000000E+00 -0.75980689608E+03  0.75980689608E+03  0.00000000000E+00 0. -1.
         25    2    1    2    0    0  0.10772518281E+03 -0.11947625547E+03 -0.20888260107E+03  0.29178086004E+03  0.12499935449E+03 0.  0.
          2    1    1    2  501    0  0.41214158325E+02  0.93868341714E+02 -0.44345901339E+03  0.45515466490E+03  0.00000000000E+00 0. -1.
          1    1    1    2  502    0 -0.14893934113E+03  0.25607913755E+02  0.34726670535E+02  0.15506332329E+03  0.00000000000E+00 0. -1.
         22    1    3    3    0    0  0.48175073659E+02 -0.57074026903E+02 -0.10455179366E+02  0.75416132522E+02  0.00000000000E+00 0. -1.
         22    1    3    3    0    0  0.59550109149E+02 -0.62402228566E+02 -0.19842742170E+03  0.21636472751E+03  0.00000000000E+00 0. -1.
</event>
<event>
 7    1  0.5562528E-006  0.6585659E+02  0.7818608E-02  0.1422033E+00
          2   -1    0    0  502    0  0.00000000000E+00  0.00000000000E+00  0.21044662901E+03  0.21044662901E+03  0.00000000000E+00 0. -1.
          1   -1    0    0  501    0 -0.00000000000E+00 -0.00000000000E+00 -0.33217449229E+04  0.33217449229E+04  0.00000000000E+00 0. -1.
         25    2    1    2    0    0  0.85971522623E+02 -0.46025560241E+01 -0.69639601506E+03  0.71274402427E+03  0.12499739242E+03 0.  0.
          2    1    1    2  501    0 -0.31578044693E+02 -0.32417912326E+02 -0.26116230147E+04  0.26120150966E+04  0.00000000000E+00 0. -1.
          1    1    1    2  502    0 -0.54393477929E+02  0.37020468350E+02  0.19672073588E+03  0.20743243103E+03  0.00000000000E+00 0. -1.
         22    1    3    3    0    0  0.94543405686E+02  0.42131217937E+02 -0.50909052507E+03  0.51950616724E+03  0.00000000000E+00 0.  1.
         22    1    3    3    0    0 -0.85718830630E+01 -0.46733773961E+02 -0.18730548999E+03  0.19323785703E+03  0.00000000000E+00 0.  1.
</event>
<event>
 7    1  0.5562528E-006  0.1309831E+03  0.7818608E-02  0.1266363E+00
          2   -1    0    0  502    0  0.00000000000E+00  0.00000000000E+00  0.15877781193E+04  0.15877781193E+04  0.00000000000E+00 0. -1.
          1   -1    0    0  501    0 -0.00000000000E+00 -0.00000000000E+00 -0.77184722198E+03  0.77184722198E+03  0.00000000000E+00 0. -1.
         25    2    1    2    0    0 -0.16681991402E+03 -0.81892353500E+02 -0.22319690520E+00  0.22396577865E+03  0.12500151565E+03 0.  0.
          2    1    1    2  501    0  0.85143431226E+02 -0.19255679957E+02 -0.65398399115E+03  0.65978424183E+03  0.00000000000E+00 0. -1.
          1    1    1    2  502    0  0.81676482794E+02  0.10114803346E+03  0.14701380854E+04  0.14758753208E+04  0.00000000000E+00 0. -1.
         22    1    3    3    0    0 -0.49249111909E+02  0.30393387962E+02  0.17414129401E+02  0.60435792031E+02  0.00000000000E+00 0. -1.
         22    1    3    3    0    0 -0.11757080211E+03 -0.11228574146E+03 -0.17637326306E+02  0.16352998662E+03  0.00000000000E+00 0. -1.
</event>
<event>
 7    1  0.5562528E-006  0.8497594E+02  0.7818608E-02  0.1364978E+00
          2   -1    0    0  502    0  0.00000000000E+00  0.00000000000E+00  0.13338494640E+04  0.13338494640E+04  0.00000000000E+00 0. -1.
          1   -1    0    0  501    0 -0.00000000000E+00 -0.00000000000E+00 -0.82781165500E+02  0.82781165500E+02  0.00000000000E+00 0. -1.
         25    2    1    2    0    0  0.19183333764E+02 -0.34483121815E+02  0.37556813899E+03  0.39778544070E+03  0.12499897527E+03 0.  0.
          2    1    1    2  501    0  0.26782929730E+02 -0.48441687057E+02 -0.58214176747E+02  0.80329401493E+02  0.00000000000E+00 0. -1.
          1    1    1    2  502    0 -0.45966263494E+02  0.82924808872E+02  0.93371433621E+03  0.93851578727E+03  0.00000000000E+00 0. -1.
         22    1    3    3    0    0  0.76677720006E+01  0.42675558413E+02  0.21425652761E+03  0.21859976587E+03  0.00000000000E+00 0. -1.
         22    1    3    3    0    0  0.11515561763E+02 -0.77158680228E+02  0.16131161139E+03  0.17918567483E+03  0.00000000000E+00 0. -1.
</event>
<event>
 7    1  0.5562528E-006  0.4668641E+02  0.7818608E-02  0.1583867E+00
          2   -1    0    0  502    0  0.00000000000E+00  0.00000000000E+00  0.36683792088E+03  0.36683792088E+03  0.00000000000E+00 0. -1.
          1   -1    0    0  501    0 -0.00000000000E+00 -0.00000000000E+00 -0.95186134099E+03  0.95186134099E+03  0.00000000000E+00 0. -1.
         25    2    1    2    0    0 -0.27319097066E+02  0.16968074468E+02 -0.63416821744E+02  0.14380392617E+03  0.12499450902E+03 0.  0.
          2    1    1    2  501    0 -0.29213801568E+00  0.21018667507E+02 -0.84643190249E+03  0.84669288132E+03  0.00000000000E+00 0. -1.
          1    1    1    2  502    0  0.27611235082E+02 -0.37986741974E+02  0.32482530412E+03  0.32820245439E+03  0.00000000000E+00 0. -1.
         22    1    3    3    0    0 -0.18725661234E+02  0.42764876265E+02 -0.92731751674E+02  0.10382033904E+03  0.00000000000E+00 0. -1.
         22    1    3    3    0    0 -0.85934358319E+01 -0.25796801797E+02  0.29314929930E+02  0.39983587122E+02  0.00000000000E+00 0. -1.
</event>
<event>
 7    1  0.5562528E-006  0.7986575E+02  0.7818608E-02  0.1497888E+00
          2   -1    0    0  502    0  0.00000000000E+00  0.00000000000E+00  0.11529198991E+04  0.11529198991E+04  0.00000000000E+00 0. -1.
          1   -1    0    0  501    0 -0.00000000000E+00 -0.00000000000E+00 -0.44670860300E+02  0.44670860300E+02  0.00000000000E+00 0. -1.
         25    2    1    2    0    0  0.81028624414E+02  0.37246559569E+02  0.30047522610E+03  0.33743237165E+03  0.12498919860E+03 0.  0.
          2    1    1    2  501    0 -0.18404357640E+02  0.11114184707E+02 -0.19550107233E+02  0.29059459297E+02  0.00000000000E+00 0. -1.
          1    1    1    2  502    0 -0.62624266774E+02 -0.48360744276E+02  0.82732391988E+03  0.83109892840E+03  0.00000000000E+00 0. -1.
         22    1    3    3    0    0 -0.12732766743E+02  0.45288074431E+01  0.18346629899E+03  0.18396335589E+03  0.00000000000E+00 0. -1.
         22    1    3    3    0    0  0.93761391157E+02  0.32717752126E+02  0.11700892711E+03  0.15346901576E+03  0.00000000000E+00 0. -1.
</event>
<event>
 7    1  0.5562528E-006  0.2073031E+03  0.7818608E-02  0.1359505E+00
          2   -1    0    0  502    0  0.00000000000E+00  0.00000000000E+00  0.21887856352E+04  0.21887856352E+04  0.00000000000E+00 0. -1.
          1   -1    0    0  501    0 -0.00000000000E+00 -0.00000000000E+00 -0.41094774259E+03  0.41094774259E+03  0.00000000000E+00 0. -1.
         25    2    1    2    0    0 -0.15588870934E+03  0.16862368413E+03  0.82063221538E+03  0.86127651697E+03  0.12499907683E+03 0.  0.
          2    1    1    2  501    0  0.14415048441E+03 -0.14797253826E+03 -0.36319918691E+03  0.41783834626E+03  0.00000000000E+00 0. -1.
          1    1    1    2  502    0  0.11738224931E+02 -0.20651145871E+02  0.13204048641E+04  0.13206185145E+04  0.00000000000E+00 0. -1.
         22    1    3    3    0    0 -0.33240073850E+02  0.13036304897E+02  0.33338840870E+03  0.33529491319E+03  0.00000000000E+00 0.  1.
         22    1    3    3    0    0 -0.12264863549E+03  0.15558737923E+03  0.48724380668E+03  0.52598160378E+03  0.00000000000E+00 0.  1.
</event>
<event>
 7    1  0.5562528E-006  0.8860405E+02  0.7818608E-02  0.1398459E+00
          2   -1    0    0  502    0  0.00000000000E+00  0.00000000000E+00  0.13517520031E+04  0.13517520031E+04  0.00000000000E+00 0. -1.
          1   -1    0    0  501    0 -0.00000000000E+00 -0.00000000000E+00 -0.30027456148E+03  0.30027456148E+03  0.00000000000E+00 0. -1.
         25    2    1    2    0    0 -0.11139899636E+03 -0.56415945941E+02  0.26448655494E+03  0.31807414261E+03  0.12500210841E+03 0.  0.
          2    1    1    2  501    0  0.39462235415E+02  0.87857787638E+01 -0.27021971920E+03  0.27322729472E+03  0.00000000000E+00 0. -1.
          1    1    1    2  502    0  0.71936760947E+02  0.47630167177E+02  0.10572106058E+04  0.10607251272E+04  0.00000000000E+00 0. -1.
         22    1    3    3    0    0  0.18869267717E+02  0.18326991945E+02  0.44936355417E+02  0.52069222541E+02  0.00000000000E+00 0.  1.
         22    1    3    3    0    0 -0.13026826408E+03 -0.74742937886E+02  0.21955019953E+03  0.26600492007E+03  0.00000000000E+00 0.  1.
</event>
<event>
 7    1  0.5562528E-006  0.9251991E+02  0.7818608E-02  0.1378422E+00
          2   -1    0    0  502    0  0.00000000000E+00  0.00000000000E+00  0.12124937651E+04  0.12124937651E+04  0.00000000000E+00 0. -1.
          1   -1    0    0  501    0 -0.00000000000E+00 -0.00000000000E+00 -0.89831064898E+02  0.89831064898E+02  0.00000000000E+00 0. -1.
         25    2    1    2    0    0 -0.48549046375E+02 -0.12415443515E+03  0.35592596497E+03  0.40009684297E+03  0.12499142990E+03 0.  0.
          2    1    1    2  501    0  0.20932840884E+02  0.40396634203E+02 -0.57479170071E+02  0.73307072472E+02  0.00000000000E+00 0. -1.
          1    1    1    2  502    0  0.27616205491E+02  0.83757800946E+02  0.82421590531E+03  0.82892091456E+03  0.00000000000E+00 0. -1.
         22    1    3    3    0    0 -0.89472277536E+02 -0.10011890548E+03  0.24356899255E+03  0.27812755673E+03  0.00000000000E+00 0.  1.
         22    1    3    3    0    0  0.40923231160E+02 -0.24035529664E+02  0.11235697242E+03  0.12196928624E+03  0.00000000000E+00 0.  1.
</event>
<event>
 7    1  0.5562528E-006  0.8660964E+02  0.7818608E-02  0.1425844E+00
          2   -1    0    0  502    0  0.00000000000E+00  0.00000000000E+00  0.45413398461E+03  0.45413398461E+03  0.00000000000E+00 0. -1.
          1   -1    0    0  501    0 -0.00000000000E+00 -0.00000000000E+00 -0.16214454435E+03  0.16214454435E+03  0.00000000000E+00 0. -1.
         25    2    1    2    0    0 -0.11374137358E+03 -0.13164003626E+02  0.72381533691E+02  0.18431856228E+03  0.12499541963E+03 0.  0.
          2    1    1    2  501    0  0.29780899951E+02  0.15173309857E+02 -0.97943980786E+02  0.10348987731E+03  0.00000000000E+00 0. -1.
          1    1    1    2  502    0  0.83960473626E+02 -0.20093062305E+01  0.31755188735E+03  0.32847008936E+03  0.00000000000E+00 0. -1.
         22    1    3    3    0    0  0.16702107255E+02  0.11152662773E+01  0.48019597619E+02  0.50853573730E+02  0.00000000000E+00 0. -1.
         22    1    3    3    0    0 -0.13044348083E+03 -0.14279269903E+02  0.24361936071E+02  0.13346498855E+03  0.00000000000E+00 0. -1.
</event>
<event>
 7    1  0.5562528E-006  0.7741456E+02  0.7818608E-02  0.1377236E+00
          2   -1    0    0  502    0  0.00000000000E+00  0.00000000000E+00  0.11412001682E+04  0.11412001682E+04  0.00000000000E+00 0. -1.
          1   -1    0    0  501    0 -0.00000000000E+00 -0.00000000000E+00 -0.15481453673E+03  0.15481453673E+03  0.00000000000E+00 0. -1.
         25    2    1    2    0    0  0.10848216150E+03  0.68245508527E+02  0.85337658846E+02  0.19832986224E+03  0.12500555764E+03 0.  0.
          2    1    1    2  501    0 -0.52238263747E+02 -0.16906493445E+02 -0.89075084891E+02  0.10463764365E+03  0.00000000000E+00 0. -1.
          1    1    1    2  502    0 -0.56243897754E+02 -0.51339015082E+02  0.99012305754E+03  0.99304719907E+03  0.00000000000E+00 0. -1.
         22    1    3    3    0    0  0.37485853899E+02 -0.12758767824E+02 -0.22805985500E+02  0.45695605626E+02  0.00000000000E+00 0. -1.
         22    1    3    3    0    0  0.70996307601E+02  0.81004276351E+02  0.10814364435E+03  0.15263425662E+03  0.00000000000E+00 0. -1.
</event>
<event>
 7    1  0.5562528E-006  0.4130018E+02  0.7818608E-02  0.1600132E+00
          2   -1    0    0  502    0  0.00000000000E+00  0.00000000000E+00  0.29544265368E+03  0.29544265368E+03  0.00000000000E+00 0. -1.
          1   -1    0    0  501    0 -0.00000000000E+00 -0.00000000000E+00 -0.37098637027E+03  0.37098637027E+03  0.00000000000E+00 0. -1.
         25    2    1    2    0    0  0.41663199633E+02 -0.26752408234E+02  0.13107664049E+02  0.13508629930E+03  0.12499993541E+03 0.  0.
          2    1    1    2  501    0 -0.40900443766E+02  0.52408127505E+01 -0.30809690796E+03  0.31084403986E+03  0.00000000000E+00 0. -1.
          1    1    1    2  502    0 -0.76275586712E+00  0.21511595483E+02  0.21944552732E+03  0.22049868480E+03  0.00000000000E+00 0. -1.
         22    1    3    3    0    0  0.44158049405E+02 -0.72797027858E+02 -0.55926656607E+01  0.85326540428E+02  0.00000000000E+00 0.  1.
         22    1    3    3    0    0 -0.24948497720E+01  0.46044619625E+02  0.18700329709E+02  0.49759758872E+02  0.00000000000E+00 0.  1.
</event>
<event>
 7    1  0.5562528E-006  0.6691599E+02  0.7818608E-02  0.1461241E+00
          2   -1    0    0  502    0  0.00000000000E+00  0.00000000000E+00  0.67596911190E+03  0.67596911190E+03  0.00000000000E+00 0. -1.
          1   -1    0    0  501    0 -0.00000000000E+00 -0.00000000000E+00 -0.58429957493E+02  0.58429957493E+02  0.00000000000E+00 0. -1.
         25    2    1    2    0    0  0.79157816674E+02  0.21950252752E+02  0.19185383243E+03  0.24327057646E+03  0.12499962726E+03 0.  0.
          2    1    1    2  501    0 -0.64895607770E+02  0.80840658025E+01  0.12666239569E+01  0.65409451641E+02  0.00000000000E+00 0. -1.
          1    1    1    2  502    0 -0.14262208903E+02 -0.30034318555E+02  0.42441869802E+03  0.42571904129E+03  0.00000000000E+00 0. -1.
         22    1    3    3    0    0  0.49893099729E+02  0.57287396473E+02  0.18074806978E+03  0.19606384655E+03  0.00000000000E+00 0. -1.
         22    1    3    3    0    0  0.29264716945E+02 -0.35337143721E+02  0.11105762651E+02  0.47206729904E+02  0.00000000000E+00 0. -1.
</event>
<event>
 7    1  0.5562528E-006  0.9424783E+02  0.7818608E-02  0.1317399E+00
          2   -1    0    0  502    0  0.00000000000E+00  0.00000000000E+00  0.26518349333E+04  0.26518349333E+04  0.00000000000E+00 0. -1.
          1   -1    0    0  501    0 -0.00000000000E+00 -0.00000000000E+00 -0.19318366231E+03  0.19318366231E+03  0.00000000000E+00 0. -1.
         25    2    1    2    0    0 -0.17159183712E+01  0.26110681388E+02  0.16714892373E+03  0.21035230850E+03  0.12499847571E+03 0.  0.
          2    1    1    2  501    0  0.38455452531E+02 -0.91859577769E+02 -0.15650448032E+03  0.18550109492E+03  0.00000000000E+00 0. -1.
          1    1    1    2  502    0 -0.36739534160E+02  0.65748896381E+02  0.24480068275E+04  0.24491651921E+04  0.00000000000E+00 0. -1.
         22    1    3    3    0    0  0.46973204577E+01 -0.49939145127E+02  0.80865129440E+02  0.95158563434E+02  0.00000000000E+00 0.  1.
         22    1    3    3    0    0 -0.64132388289E+01  0.76049826515E+02  0.86283794294E+02  0.11519374507E+03  0.00000000000E+00 0.  1.
</event>
<event>
 7    1  0.5562528E-006  0.9548799E+02  0.7818608E-02  0.1444483E+00
          2   -1    0    0  502    0  0.00000000000E+00  0.00000000000E+00  0.32931328803E+03  0.32931328803E+03  0.00000000000E+00 0. -1.
          1   -1    0    0  501    0 -0.00000000000E+00 -0.00000000000E+00 -0.19403844338E+04  0.19403844338E+04  0.00000000000E+00 0. -1.
         25    2    1    2    0    0 -0.47302822829E+02 -0.51148621320E+02 -0.94488009368E+03  0.95565565070E+03  0.12500237110E+03 0.  0.
          2    1    1    2  501    0 -0.13963703341E+02 -0.22344356427E+02 -0.98287063430E+03  0.98322374821E+03  0.00000000000E+00 0. -1.
          1    1    1    2  502    0  0.61266526170E+02  0.73492977747E+02  0.31667958220E+03  0.33081832293E+03  0.00000000000E+00 0. -1.
         22    1    3    3    0    0  0.25097313633E+02 -0.63981687469E+02 -0.40473143772E+03  0.41052535630E+03  0.00000000000E+00 0. -1.
         22    1    3    3    0    0 -0.72400136462E+02  0.12833066149E+02 -0.54014865595E+03  0.54513029440E+03  0.00000000000E+00 0. -1.
</event>
<event>
 7    1  0.5562528E-006  0.6227406E+02  0.7818608E-02  0.1410430E+00
          2   -1    0    0  502    0  0.00000000000E+00  0.00000000000E+00  0.17356214609E+03  0.17356214609E+03  0.00000000000E+00 0. -1.
          1   -1    0    0  501    0 -0.00000000000E+00 -0.00000000000E+00 -0.46826672172E+03  0.46826672172E+03  0.00000000000E+00 0. -1.
         25    2    1    2    0    0 -0.62067867330E+02 -0.82760861628E+02 -0.93998441223E+00  0.16225920679E+03  0.12500154497E+03 0.  0.
          2    1    1    2  501    0  0.52660507497E+02  0.31260741006E+02 -0.37661677496E+03  0.38156330820E+03  0.00000000000E+00 0. -1.
          1    1    1    2  502    0  0.94073598327E+01  0.51500120622E+02  0.82852183738E+02  0.98006352821E+02  0.00000000000E+00 0. -1.
         22    1    3    3    0    0  0.35735258859E+02 -0.26935549288E+01 -0.13352599253E+01  0.35861495827E+02  0.00000000000E+00 0.  1.
         22    1    3    3    0    0 -0.97803126189E+02 -0.80067306699E+02  0.39527551310E+00  0.12639771096E+03  0.00000000000E+00 0.  1.
</event>
<event>
 7    1  0.5562528E-006  0.1054881E+03  0.7818608E-02  0.1320006E+00
          2   -1    0    0  502    0  0.00000000000E+00  0.00000000000E+00  0.15224617347E+04  0.15224617347E+04  0.00000000000E+00 0. -1.
          1   -1    0    0  501    0 -0.00000000000E+00 -0.00000000000E+00 -0.54506769534E+02  0.54506769534E+02  0.00000000000E+00 0. -1.
         25    2    1    2    0    0  0.79179081889E+02  0.86898576468E+02  0.45706601138E+03  0.48821604552E+03  0.12499951495E+03 0.  0.
          2    1    1    2  501    0 -0.10311571743E+03 -0.25671520521E+02  0.36810846896E+02  0.11245851055E+03  0.00000000000E+00 0. -1.
          1    1    1    2  502    0  0.23936635541E+02 -0.61227055947E+02  0.97407810693E+03  0.97629394820E+03  0.00000000000E+00 0. -1.
         22    1    3    3    0    0  0.25518851690E+02  0.10864509346E+03  0.26305433983E+03  0.28574910993E+03  0.00000000000E+00 0. -1.
         22    1    3    3    0    0  0.53660230198E+02 -0.21746516990E+02  0.19401167155E+03  0.20246693559E+03  0.00000000000E+00 0. -1.
</event>
<event>
 7    1  0.5562528E-006  0.9770682E+02  0.7818608E-02  0.1413607E+00
          2   -1    0    0  502    0  0.00000000000E+00  0.00000000000E+00  0.23341505910E+03  0.23341505910E+03  0.00000000000E+00 0. -1.
          1   -1    0    0  501    0 -0.00000000000E+00 -0.00000000000E+00 -0.14321185938E+03  0.14321185938E+03  0.00000000000E+00 0. -1.
         25    2    1    2    0    0  0.73174520991E+02  0.26652519003E+01  0.72277025546E+01  0.14504967151E+03  0.12500221370E+03 0.  0.
          2    1    1    2  501    0  0.29728020851E+02  0.13262788965E+02 -0.51850913840E+02  0.61222333023E+02  0.00000000000E+00 0. -1.
          1    1    1    2  502    0 -0.10290254184E+03 -0.15928040865E+02  0.13482641101E+03  0.17035491395E+03  0.00000000000E+00 0. -1.
         22    1    3    3    0    0 -0.28221933292E+02  0.24333369584E+02  0.16893477961E+02  0.40914300577E+02  0.00000000000E+00 0. -1.
         22    1    3    3    0    0  0.10139645428E+03 -0.21668117684E+02 -0.96657754061E+01  0.10413537093E+03  0.00000000000E+00 0. -1.
</event>
<event>
 7    1  0.5562528E-006  0.1381851E+03  0.7818608E-02  0.1334889E+00
          2   -1    0    0  502    0  0.00000000000E+00  0.00000000000E+00  0.63972250229E+03  0.63972250229E+03  0.00000000000E+00 0. -1.
          1   -1    0    0  501    0 -0.00000000000E+00 -0.00000000000E+00 -0.25381545296E+03  0.25381545296E+03  0.00000000000E+00 0. -1.
         25    2    1    2    0    0 -0.40961730560E+02  0.93942827375E+02  0.92550573833E+02  0.18626100707E+03  0.12499774339E+03 0.  0.
          2    1    1    2  501    0 -0.14322259677E+02  0.41607121926E+02 -0.19373165620E+03  0.19866613786E+03  0.00000000000E+00 0. -1.
          1    1    1    2  502    0  0.55283990236E+02 -0.13554994930E+03  0.48708813170E+03  0.50861081032E+03  0.00000000000E+00 0. -1.
         22    1    3    3    0    0 -0.67997587174E+02  0.99782640136E+02  0.10091336400E+03  0.15736503477E+03  0.00000000000E+00 0. -1.
         22    1    3    3    0    0  0.27035856614E+02 -0.58398127605E+01 -0.83627901646E+01  0.28895972302E+02  0.00000000000E+00 0. -1.
</event>
<event>
 7    1  0.5562528E-006  0.1296479E+03  0.7818608E-02  0.1418519E+00
          2   -1    0    0  502    0  0.00000000000E+00  0.00000000000E+00  0.71617181224E+03  0.71617181224E+03  0.00000000000E+00 0. -1.
          1   -1    0    0  501    0 -0.00000000000E+00 -0.00000000000E+00 -0.19464139716E+03  0.19464139716E+03  0.00000000000E+00 0. -1.
         25    2    1    2    0    0  0.11244221862E+03 -0.86652819164E+02  0.13373383691E+03  0.23164839760E+03  0.12499710949E+03 0.  0.
          2    1    1    2  501    0 -0.89342746052E+02  0.91574615780E+02 -0.11726662135E+03  0.17354969608E+03  0.00000000000E+00 0. -1.
          1    1    1    2  502    0 -0.23099472565E+02 -0.49217966158E+01  0.50506319953E+03  0.50561511571E+03  0.00000000000E+00 0. -1.
         22    1    3    3    0    0 -0.12554310856E+02 -0.51312054038E+02  0.13213893144E+02  0.54453141164E+02  0.00000000000E+00 0.  1.
         22    1    3    3    0    0  0.12499652947E+03 -0.35340765126E+02  0.12051994376E+03  0.17719525644E+03  0.00000000000E+00 0.  1.
</event>
<event>
 7    1  0.5562528E-006  0.8543534E+02  0.7818608E-02  0.1319119E+00
          2   -1    0    0  502    0  0.00000000000E+00  0.00000000000E+00  0.63965546586E+03  0.63965546586E+03  0.00000000000E+00 0. -1.
          1   -1    0    0  501    0 -0.00000000000E+00 -0.00000000000E+00 -0.11853334202E+04  0.11853334202E+04  0.00000000000E+00 0. -1.
         25    2    1    2    0    0  0.11760036842E+03 -0.54536324784E+02  0.66134026474E+02  0.19184125236E+03  0.12500119709E+03 0.  0.
          2    1    1    2  501    0 -0.82943211564E+02 -0.19575987780E+02 -0.11175700734E+04  0.11208147325E+04  0.00000000000E+00 0. -1.
          1    1    1    2  502    0 -0.34657156858E+02  0.74112312564E+02  0.50575809260E+03  0.51233290118E+03  0.00000000000E+00 0. -1.
         22    1    3    3    0    0  0.20130543843E+02 -0.51151961417E+02  0.76020365129E+02  0.93812887529E+02  0.00000000000E+00 0. -1.
         22    1    3    3    0    0  0.97469824579E+02 -0.33843633674E+01 -0.98863386548E+01  0.98028364828E+02  0.00000000000E+00 0. -1.
</event>
<event>
 7    1  0.5562528E-006  0.1022078E+03  0.7818608E-02  0.1320199E+00
          2   -1    0    0  502    0  0.00000000000E+00  0.00000000000E+00  0.10155549069E+03  0.10155549069E+03  0.00000000000E+00 0. -1.
          1   -1    0    0  501    0 -0.00000000000E+00 -0.00000000000E+00 -0.12563977009E+04  0.12563977009E+04  0.00000000000E+00 0. -1.
         25    2    1    2    0    0 -0.52442175766E+02 -0.58122915237E+01 -0.38463513175E+03  0.40786367968E+03  0.12499852838E+03 0.  0.
          2    1    1    2  501    0  0.11925712585E+03  0.16922522169E+02 -0.84247514826E+03  0.85104230756E+03  0.00000000000E+00 0. -1.
          1    1    1    2  502    0 -0.66814950087E+02 -0.11110230645E+02  0.72268069782E+02  0.99047204353E+02  0.00000000000E+00 0. -1.
         22    1    3    3    0    0 -0.60305064625E+02  0.45460418028E+02 -0.15469151238E+03  0.17214184393E+03  0.00000000000E+00 0.  1.
         22    1    3    3    0    0  0.78628888598E+01 -0.51272709552E+02 -0.22994361937E+03  0.23572183576E+03  0.00000000000E+00 0.  1.
</event>
<event>
 7    1  0.5562528E-006  0.1187056E+03  0.7818608E-02  0.1250430E+00
          2   -1    0    0  502    0  0.00000000000E+00  0.00000000000E+00  0.22634027593E+04  0.22634027593E+04  0.00000000000E+00 0. -1.
          1   -1    0    0  501    0 -0.00000000000E+00 -0.00000000000E+00 -0.69782148743E+03  0.69782148743E+03  0.00000000000E+00 0. -1.
         25    2    1    2    0    0 -0.14518010686E+03 -0.12097034504E+03 -0.12640140002E+03  0.25945326266E+03  0.12501037466E+03 0.  0.
          2    1    1    2  501    0  0.11377765924E+03  0.12737005118E+02 -0.49693561035E+03  0.50995351541E+03  0.00000000000E+00 0. -1.
          1    1    1    2  502    0  0.31402447612E+02  0.10823333992E+03  0.21889182822E+04  0.21918174686E+04  0.00000000000E+00 0. -1.
         22    1    3    3    0    0 -0.63816451581E+02 -0.88242001685E+02 -0.41245893512E+01  0.10897799132E+03  0.00000000000E+00 0.  1.
         22    1    3    3    0    0 -0.81363655276E+02 -0.32728343351E+02 -0.12227681067E+03  0.15047527134E+03  0.00000000000E+00 0.  1.
</event>
<event>
 7    1  0.5562528E-006  0.6339709E+02  0.7818608E-02  0.1453731E+00
          2   -1    0    0  502    0  0.00000000000E+00  0.00000000000E+00  0.20430633604E+04  0.20430633604E+04  0.00000000000E+00 0. -1.
          1   -1    0    0  501    0 -0.00000000000E+00 -0.00000000000E+00 -0.17014311489E+04  0.17014311489E+04  0.00000000000E+00 0. -1.
         25    2    1    2    0    0  0.23602559427E+01 -0.95545320760E+02  0.18389329534E+03  0.24202526656E+03  0.12500002581E+03 0.  0.
          2    1    1    2  501    0 -0.14863713941E+02  0.33958447082E+02 -0.16716201344E+04  0.16720310942E+04  0.00000000000E+00 0. -1.
          1    1    1    2  502    0  0.12503457998E+02  0.61586873678E+02  0.18293590506E+04  0.18304381485E+04  0.00000000000E+00 0. -1.
         22    1    3    3    0    0  0.52220806773E+02 -0.47934309088E+02  0.37459619613E+02  0.80174395846E+02  0.00000000000E+00 0. -1.
         22    1    3    3    0    0 -0.49860550831E+02 -0.47611011672E+02  0.14643367573E+03  0.16185087071E+03  0.00000000000E+00 0. -1.
</event>
<event>
 7    1  0.5562528E-006  0.1367561E+03  0.7818608E-02  0.1244445E+00
          2   -1    0    0  502    0  0.00000000000E+00  0.00000000000E+00  0.13206081745E+04  0.13206081745E+04  0.00000000000E+00 0. -1.
          1   -1    0    0  501    0 -0.00000000000E+00 -0.00000000000E+00 -0.11522662337E+04  0.11522662337E+04  0.00000000000E+00 0. -1.
         25    2    1    2    0    0  0.17086893416E+03  0.84122460181E+02  0.16891823204E+02  0.22843238076E+03  0.12499295149E+03 0.  0.
          2    1    1    2  501    0 -0.99091518107E+02  0.31156013526E+02 -0.10400519946E+04  0.10452262806E+04  0.00000000000E+00 0. -1.
          1    1    1    2  502    0 -0.71777416058E+02 -0.11527847371E+03  0.11915021122E+04  0.11992157468E+04  0.00000000000E+00 0. -1.
         22    1    3    3    0    0  0.25865912508E+02  0.72518619692E+02 -0.17496260308E+02  0.78956410485E+02  0.00000000000E+00 0. -1.
         22    1    3    3    0    0  0.14500302166E+03  0.11603840489E+02  0.34388083512E+02  0.14947597028E+03  0.00000000000E+00 0. -1.
</event>
<event>
 7    1  0.5562528E-006  0.7501944E+02  0.7818608E-02  0.1448050E+00
          2   -1    0    0  502    0  0.00000000000E+00  0.00000000000E+00  0.11702379503E+03  0.11702379503E+03  0.00000000000E+00 0. -1.
          1   -1    0    0  501    0 -0.00000000000E+00 -0.00000000000E+00 -0.16280038885E+03  0.16280038885E+03  0.00000000000E+00 0. -1.
         25    2    1    2    0    0  0.75226855428E+00 -0.85830438320E+02 -0.70118901680E+02  0.16705755138E+03  0.12499654016E+03 0.  0.
          2    1    1    2  501    0  0.27492068960E+02  0.17637176832E+02 -0.55519036642E+01  0.33131669088E+02  0.00000000000E+00 0. -1.
          1    1    1    2  502    0 -0.28244337514E+02  0.68193261488E+02  0.29894211529E+02  0.79634963408E+02  0.00000000000E+00 0. -1.
         22    1    3    3    0    0  0.21414466419E+02  0.46000831756E+01 -0.70990331692E+02  0.74292444643E+02  0.00000000000E+00 0.  1.
         22    1    3    3    0    0 -0.20662197865E+02 -0.90430521496E+02  0.87143001234E+00  0.92765106742E+02  0.00000000000E+00 0.  1.
</event>
<event>
 7    1  0.5562528E-006  0.8561246E+02  0.7818608E-02  0.1363418E+00
          2   -1    0    0  502    0  0.00000000000E+00  0.00000000000E+00  0.41528100971E+03  0.41528100971E+03  0.00000000000E+00 0. -1.
          1   -1    0    0  501    0 -0.00000000000E+00 -0.00000000000E+00 -0.13188785876E+03  0.13188785876E+03  0.00000000000E+00 0. -1.
         25    2    1    2    0    0  0.34992438311E+02  0.11050584038E+03  0.78761660628E+02  0.18779084929E+03  0.12500396952E+03 0.  0.
          2    1    1    2  501    0 -0.47973460811E+02 -0.28227608941E+02 -0.60061661133E+02  0.81888057656E+02  0.00000000000E+00 0. -1.
          1    1    1    2  502    0  0.12981022500E+02 -0.82278231435E+02  0.26469315146E+03  0.27748996152E+03  0.00000000000E+00 0. -1.
         22    1    3    3    0    0 -0.41678911239E+02  0.11030427289E+02  0.32329059232E+02  0.53888496352E+02  0.00000000000E+00 0. -1.
         22    1    3    3    0    0  0.76671349550E+02  0.99475413087E+02  0.46432601396E+02  0.13390235294E+03  0.00000000000E+00 0. -1.
</event>
<event>
 7    1  0.5562528E-006  0.4190985E+02  0.7818608E-02  0.1514126E+00
          2   -1    0    0  502    0  0.00000000000E+00  0.00000000000E+00  0.17435266735E+03  0.17435266735E+03  0.00000000000E+00 0. -1.
          1   -1    0    0  501    0 -0.00000000000E+00 -0.00000000000E+00 -0.63390416294E+03  0.63390416294E+03  0.00000000000E+00 0. -1.
         25    2    1    2    0    0  0.12473363647E+02  0.60243785516E+01 -0.24508597518E+03  0.27547064300E+03  0.12500024796E+03 0.  0.
          2    1    1    2  501    0  0.23604934066E+02 -0.28074588742E+02 -0.36989442347E+03  0.37170856859E+03  0.00000000000E+00 0. -1.
          1    1    1    2  502    0 -0.36078297713E+02  0.22050210191E+02  0.15542890307E+03  0.16107761870E+03  0.00000000000E+00 0. -1.
         22    1    3    3    0    0 -0.34515335340E+02  0.42889598851E+02 -0.62123244763E+02  0.83006768418E+02  0.00000000000E+00 0. -1.
         22    1    3    3    0    0  0.46988698987E+02 -0.36865220299E+02 -0.18296273041E+03  0.19246387459E+03  0.00000000000E+00 0. -1.
</event>
<event>
 7    1  0.5562528E-006  0.1251060E+03  0.7818608E-02  0.1375929E+00
          2   -1    0    0  502    0  0.00000000000E+00  0.00000000000E+00  0.11273808418E+04  0.11273808418E+04  0.00000000000E+00 0. -1.
          1   -1    0    0  501    0 -0.00000000000E+00 -0.00000000000E+00 -0.25389685802E+03  0.25389685802E+03  0.00000000000E+00 0. -1.
         25    2    1    2    0    0 -0.23429355160E+02  0.92762190115E+02  0.18049458278E+03  0.23949186155E+03  0.12499719492E+03 0.  0.
          2    1    1    2  501    0 -0.30373788192E+01  0.34206623564E+02 -0.21846610239E+03  0.22114872068E+03  0.00000000000E+00 0. -1.
          1    1    1    2  502    0  0.26466733979E+02 -0.12696881368E+03  0.91145550337E+03  0.92063711758E+03  0.00000000000E+00 0. -1.
         22    1    3    3    0    0 -0.22885660728E+02  0.12960498725E+02  0.15275805058E+03  0.15500564509E+03  0.00000000000E+00 0. -1.
         22    1    3    3    0    0 -0.54369443201E+00  0.79801691390E+02  0.27736532199E+02  0.84486216454E+02  0.00000000000E+00 0. -1.
</event>
<event>
 7    1  0.5562528E-006  0.6477312E+02  0.7818608E-02  0.1422873E+00
          2   -1    0    0  502    0  0.00000000000E+00  0.00000000000E+00  0.21526494475E+04  0.21526494475E+04  0.00000000000E+00 0. -1.
          1   -1    0    0  501    0 -0.00000000000E+00 -0.00000000000E+00 -0.17697008698E+04  0.17697008698E+04  0.00000000000E+00 0. -1.
         25    2    1    2    0    0 -0.41661681543E+02 -0.85641972086E+01  0.94711418429E+03  0.95627357787E+03  0.12499934586E+03 0.  0.
          2    1    1    2  501    0  0.54285120150E+02 -0.35376259198E+02 -0.17640910897E+04  0.17652806369E+04  0.00000000000E+00 0. -1.
          1    1    1    2  502    0 -0.12623438607E+02  0.43940456407E+02  0.11999254832E+04  0.12007961026E+04  0.00000000000E+00 0. -1.
         22    1    3    3    0    0 -0.19836903580E+02  0.80104870571E+01  0.90941170179E+03  0.90966329705E+03  0.00000000000E+00 0.  1.
         22    1    3    3    0    0 -0.21824777963E+02 -0.16574684266E+02  0.37702482509E+02  0.46610280829E+02  0.00000000000E+00 0.  1.
</event>
<event>
 7    1  0.5562528E-006  0.6336741E+02  0.7818608E-02  0.1496266E+00
          2   -1    0    0  502    0  0.00000000000E+00  0.00000000000E+00  0.30457903024E+04  0.30457903024E+04  0.00000000000E+00 0. -1.
          1   -1    0    0  501    0 -0.00000000000E+00 -0.00000000000E+00 -0.29771186101E+03  0.29771186101E+03  0.00000000000E+00 0. -1.
         25    2    1    2    0    0 -0.66605845516E+02 -0.57780583727E+02  0.20654480580E+04  0.20711049502E+04  0.12500039930E+03 0.  0.
          2    1    1    2  501    0  0.40867234048E+02  0.48377126574E+02 -0.29128842388E+03  0.29809297724E+03  0.00000000000E+00 0. -1.
          1    1    1    2  502    0  0.25738611468E+02  0.94034571530E+01  0.97391880728E+03  0.97430423600E+03  0.00000000000E+00 0. -1.
         22    1    3    3    0    0  0.34268489492E+00 -0.51577980862E+02  0.30180604960E+03  0.30618180403E+03  0.00000000000E+00 0. -1.
         22    1    3    3    0    0 -0.66948530411E+02 -0.62026028652E+01  0.17636420084E+04  0.17649231462E+04  0.00000000000E+00 0. -1.
</event>
<event>
 7    1  0.5562528E-006  0.1537177E+03  0.7818608E-02  0.1197796E+00
          2   -1    0    0  502    0  0.00000000000E+00  0.00000000000E+00  0.13173197908E+03  0.13173197908E+03  0.00000000000E+00 0. -1.
          1   -1    0    0  501    0 -0.00000000000E+00 -0.00000000000E+00 -0.35567547174E+04  0.35567547174E+04  0.00000000000E+00 0. -1.
         25    2    1    2    0    0 -0.27326146548E+02  0.30323269737E+02 -0.33745578871E+02  0.13574522830E+03  0.12498713510E+03 0.  0.
          2    1    1    2  501    0 -0.77391107586E+02 -0.13869177323E+03 -0.33981775702E+04  0.34018870631E+04  0.00000000000E+00 0. -1.
          1    1    1    2  502    0  0.10471725413E+03  0.10836850349E+03  0.69004107516E+01  0.15085440508E+03  0.00000000000E+00 0. -1.
         22    1    3    3    0    0 -0.31313510829E+02 -0.42830272030E+01 -0.75215437117E+02  0.81585796945E+02  0.00000000000E+00 0. -1.
         22    1    3    3    0    0  0.39873642810E+01  0.34606296940E+02  0.41469858247E+02  0.54159431356E+02  0.00000000000E+00 0. -1.
</event>
<event>
 7    1  0.5562528E-006  0.1188142E+03  0.7818608E-02  0.1271325E+00
          2   -1    0    0  502    0  0.00000000000E+00  0.00000000000E+00  0.56182254243E+03  0.56182254243E+03  0.00000000000E+00 0. -1.
          1   -1    0    0  501    0 -0.00000000000E+00 -0.00000000000E+00 -0.32556112197E+03  0.32556112197E+03  0.00000000000E+00 0. -1.
         25    2    1    2    0    0  0.52540412028E+01  0.41709710287E+02 -0.93796440116E+02  0.16182995324E+03  0.12499542675E+03 0.  0.
          2    1    1    2  501    0  0.99666026568E+02 -0.97464412928E+02 -0.16524989663E+03  0.21619472004E+03  0.00000000000E+00 0. -1.
          1    1    1    2  502    0 -0.10492006777E+03  0.55754702640E+02  0.49530775720E+03  0.50935899112E+03  0.00000000000E+00 0. -1.
         22    1    3    3    0    0 -0.64306420958E+01 -0.33832732990E+02 -0.75862754731E+02  0.83313651551E+02  0.00000000000E+00 0. -1.
         22    1    3    3    0    0  0.11684683299E+02  0.75542443278E+02 -0.17933685385E+02  0.78516301694E+02  0.00000000000E+00 0. -1.
</event>
<event>
 7    1  0.5562528E-006  0.8313096E+02  0.7818608E-02  0.1328381E+00
          2   -1    0    0  502    0  0.00000000000E+00  0.00000000000E+00  0.12003047259E+04  0.12003047259E+04  0.00000000000E+00 0. -1.
          1   -1    0    0  501    0 -0.00000000000E+00 -0.00000000000E+00 -0.49781375138E+03  0.49781375138E+03  0.00000000000E+00 0. -1.
         25    2    1    2    0    0 -0.14083975494E+00  0.33319391104E+02  0.34462987316E+03  0.36811005317E+03  0.12500024044E+03 0.  0.
          2    1    1    2  501    0  0.68784318282E+02  0.35583099519E+02 -0.48015853884E+03  0.48636371352E+03  0.00000000000E+00 0. -1.
          1    1    1    2  502    0 -0.68643478527E+02 -0.68902490623E+02  0.83801964020E+03  0.84364471060E+03  0.00000000000E+00 0. -1.
         22    1    3    3    0    0  0.94893318791E+01  0.67419010407E+02  0.31392743033E+03  0.32122546894E+03  0.00000000000E+00 0. -1.
         22    1    3    3    0    0 -0.96301716341E+01 -0.34099619303E+02  0.30702442832E+02  0.46884584227E+02  0.00000000000E+00 0. -1.
</event>
<event>
 7    1  0.5562528E-006  0.3920214E+03  0.7818608E-02  0.1203079E+00
          2   -1    0    0  502    0  0.00000000000E+00  0.00000000000E+00  0.21618310498E+04  0.21618310498E+04  0.00000000000E+00 0. -1.
          1   -1    0    0  501    0 -0.00000000000E+00 -0.00000000000E+00 -0.51939740709E+03  0.51939740709E+03  0.00000000000E+00 0. -1.
         25    2    1    2    0    0  0.15676419122E+03 -0.41351279285E+03  0.45260212906E+02  0.46178155128E+03  0.12500349085E+03 0.  0.
          2    1    1    2  501    0 -0.10997523294E+02  0.54703753602E+02 -0.28878880882E+03  0.29412994115E+03  0.00000000000E+00 0. -1.
          1    1    1    2  502    0 -0.14576666793E+03  0.35880903925E+03  0.18859622387E+04  0.19253169645E+04  0.00000000000E+00 0. -1.
         22    1    3    3    0    0  0.68188209411E+02 -0.47826831871E+02  0.93069550484E+01  0.83807261987E+02  0.00000000000E+00 0. -1.
         22    1    3    3    0    0  0.88575981814E+02 -0.36568596098E+03  0.35953257858E+02  0.37797428929E+03  0.00000000000E+00 0. -1.
</event>
<event>
 7    1  0.5562528E-006  0.6633556E+02  0.7818608E-02  0.1498723E+00
          2   -1    0    0  502    0  0.00000000000E+00  0.00000000000E+00  0.22703043599E+02  0.22703043599E+02  0.00000000000E+00 0. -1.
          1   -1    0    0  501    0 -0.00000000000E+00 -0.00000000000E+00 -0.10438541254E+04  0.10438541254E+04  0.00000000000E+00 0. -1.
         25    2    1    2    0    0  0.51870322709E+02 -0.45309016232E+02 -0.52879986084E+03  0.54772286644E+03  0.12501043264E+03 0.  0.
          2    1    1    2  501    0 -0.62923085973E+02  0.22066375676E+02 -0.48823866544E+03  0.49277097531E+03  0.00000000000E+00 0. -1.
          1    1    1    2  502    0  0.11052763264E+02  0.23242640556E+02 -0.41125555606E+01  0.26063327282E+02  0.00000000000E+00 0. -1.
         22    1    3    3    0    0  0.39979045765E+02 -0.65425294862E+02 -0.51480749697E+03  0.52048588092E+03  0.00000000000E+00 0.  1.
         22    1    3    3    0    0  0.11891276945E+02  0.20116278631E+02 -0.13992363875E+02  0.27236985519E+02  0.00000000000E+00 0.  1.
</event>
<event>
 7    1  0.5562528E-006  0.4599830E+02  0.7818608E-02  0.1474825E+00
          2   -1    0    0  502    0  0.00000000000E+00  0.00000000000E+00  0.11752762534E+03  0.11752762534E+03  0.00000000000E+00 0. -1.
          1   -1    0    0  501    0 -0.00000000000E+00 -0.00000000000E+00 -0.13869750384E+04  0.13869750384E+04  0.00000000000E+00 0. -1.
         25    2    1    2    0    0  0.59995781253E+02 -0.63110945175E+02 -0.67754532792E+03  0.69445452703E+03  0.12496773010E+03 0.  0.
          2    1    1    2  501    0 -0.21695454746E+02  0.38132282027E+02 -0.69546101869E+03  0.69684344885E+03  0.00000000000E+00 0. -1.
          1    1    1    2  502    0 -0.38300326507E+02  0.24978663148E+02  0.10355893357E+03  0.11320468783E+03  0.00000000000E+00 0. -1.
         22    1    3    3    0    0 -0.19333141415E+02 -0.22286693616E+02 -0.43536311407E+03  0.43636167128E+03  0.00000000000E+00 0. -1.
         22    1    3    3    0    0  0.79328922668E+02 -0.40824251559E+02 -0.24218221384E+03  0.25809285575E+03  0.00000000000E+00 0. -1.
</event>
<event>
 7    1  0.5562528E-006  0.1999060E+03  0.7818608E-02  0.1258401E+00
          2   -1    0    0  502    0  0.00000000000E+00  0.00000000000E+00  0.10779110284E+04  0.10779110284E+04  0.00000000000E+00 0. -1.
          1   -1    0    0  501    0 -0.00000000000E+00 -0.00000000000E+00 -0.14912564524E+04  0.14912564524E+04  0.00000000000E+00 0. -1.
         25    2    1    2    0    0  0.22341997107E+02  0.21008478359E+03  0.10269125925E+02  0.24569190380E+03  0.12499710201E+03 0.  0.
          2    1    1    2  501    0  0.55908915894E+02 -0.26412280679E+02 -0.13623461279E+04  0.13637486527E+04  0.00000000000E+00 0. -1.
          1    1    1    2  502    0 -0.78250913001E+02 -0.18367250292E+03  0.93873157804E+03  0.95972692435E+03  0.00000000000E+00 0. -1.
         22    1    3    3    0    0  0.17997983892E+02  0.18600897953E+03 -0.38799237216E+02  0.19086290550E+03  0.00000000000E+00 0.  1.
         22    1    3    3    0    0  0.43440132155E+01  0.24075804067E+02  0.49068363141E+02  0.54828998291E+02  0.00000000000E+00 0.  1.
</event>
<event>
 7    1  0.5562528E-006  0.5916394E+02  0.7818608E-02  0.1419515E+00
          2   -1    0    0  502    0  0.00000000000E+00  0.00000000000E+00  0.80685585325E+03  0.80685585325E+03  0.00000000000E+00 0. -1.
          1   -1    0    0  501    0 -0.00000000000E+00 -0.00000000000E+00 -0.11643544861E+03  0.11643544861E+03  0.00000000000E+00 0. -1.
         25    2    1    2    0    0 -0.41811081715E+02 -0.30003420933E+02  0.66610763078E+02  0.15069596595E+03  0.12499563422E+03 0.  0.
          2    1    1    2  501    0  0.19156932002E+01  0.62347630863E+02 -0.60183143911E+02  0.86677031362E+02  0.00000000000E+00 0. -1.
          1    1    1    2  502    0  0.39895388515E+02 -0.32344209930E+02  0.68399278547E+03  0.68591830455E+03  0.00000000000E+00 0. -1.
         22    1    3    3    0    0  0.24587325845E+02  0.14278364490E+02 -0.18576696755E+02  0.33963244059E+02  0.00000000000E+00 0. -1.
         22    1    3    3    0    0 -0.66398407560E+02 -0.44281785422E+02  0.85187459833E+02  0.11673272189E+03  0.00000000000E+00 0. -1.
</event>
<event>
 7    1  0.5562528E-006  0.5858206E+02  0.7818608E-02  0.1408520E+00
          2   -1    0    0  502    0  0.00000000000E+00  0.00000000000E+00  0.15326357430E+04  0.15326357430E+04  0.00000000000E+00 0. -1.
          1   -1    0    0  501    0 -0.00000000000E+00 -0.00000000000E+00 -0.29578242107E+03  0.29578242107E+03  0.00000000000E+00 0. -1.
         25    2    1    2    0    0  0.10482705828E+02  0.60597848035E+01  0.26474156581E+03  0.29301825686E+03  0.12499997629E+03 0.  0.
          2    1    1    2  501    0  0.26601511293E+02 -0.52194040509E+02 -0.27788988105E+03  0.28399761312E+03  0.00000000000E+00 0. -1.
          1    1    1    2  502    0 -0.37084217121E+02  0.46134255705E+02  0.12500016372E+04  0.12514022941E+04  0.00000000000E+00 0. -1.
         22    1    3    3    0    0  0.34070857196E+02 -0.39899266367E+02  0.51170842474E+02  0.73288675020E+02  0.00000000000E+00 0.  1.
         22    1    3    3    0    0 -0.23588151368E+02  0.45959051170E+02  0.21357072334E+03  0.21972958184E+03  0.00000000000E+00 0.  1.
</event>
<event>
 7    1  0.5562528E-006  0.6625281E+02  0.7818608E-02  0.1430365E+00
          2   -1    0    0  502    0  0.00000000000E+00  0.00000000000E+00  0.73492048814E+03  0.73492048814E+03  0.00000000000E+00 0. -1.
          1   -1    0    0  501    0 -0.00000000000E+00 -0.00000000000E+00 -0.42563760017E+02  0.42563760017E+02  0.00000000000E+00 0. -1.
         25    2    1    2    0    0 -0.98065299181E+02  0.25593805734E+02  0.24288394826E+03  0.29135913458E+03  0.12500274871E+03 0.  0.
          2    1    1    2  501    0  0.58589255616E+02 -0.10629543017E+02  0.34112167079E+02  0.68624543723E+02  0.00000000000E+00 0. -1.
          1    1    1    2  502    0  0.39476043564E+02 -0.14964262717E+02  0.41536061279E+03  0.41750056985E+03  0.00000000000E+00 0. -1.
         22    1    3    3    0    0  0.25533498504E+02 -0.13393736410E+02  0.66486247645E+02  0.72469116503E+02  0.00000000000E+00 0.  1.
         22    1    3    3    0    0 -0.12359879768E+03  0.38987542143E+02  0.17639770061E+03  0.21889001807E+03  0.00000000000E+00 0.  1.
</event>
<event>
 7    1  0.5562528E-006  0.3741124E+02  0.7818608E-02  0.1608574E+00
          2   -1    0    0  502    0  0.00000000000E+00  0.00000000000E+00  0.27273504277E+03  0.27273504277E+03  0.00000000000E+00 0. -1.
          1   -1    0    0  501    0 -0.00000000000E+00 -0.00000000000E+00 -0.16703713739E+03  0.16703713739E+03  0.00000000000E+00 0. -1.
         25    2    1    2    0    0  0.89198851352E+00 -0.38668266484E+02 -0.10749965487E+03  0.16934258148E+03  0.12499881451E+03 0.  0.
          2    1    1    2  501    0 -0.21381400536E+02  0.72970354627E+01 -0.22433344150E+02  0.31838120943E+02  0.00000000000E+00 0. -1.
          1    1    1    2  502    0  0.20489412023E+02  0.31371231021E+02  0.23563090440E+03  0.23859147774E+03  0.00000000000E+00 0. -1.
         22    1    3    3    0    0 -0.21428764597E+02  0.32242790562E+02 -0.88515503184E-01  0.38714303951E+02  0.00000000000E+00 0. -1.
         22    1    3    3    0    0  0.22320753110E+02 -0.70911057046E+02 -0.10741113937E+03  0.13062827753E+03  0.00000000000E+00 0. -1.
</event>
<event>
 7    1  0.5562528E-006  0.5741297E+02  0.7818608E-02  0.1433220E+00
          2   -1    0    0  502    0  0.00000000000E+00  0.00000000000E+00  0.14295043302E+04  0.14295043302E+04  0.00000000000E+00 0. -1.
          1   -1    0    0  501    0 -0.00000000000E+00 -0.00000000000E+00 -0.11186742069E+03  0.11186742069E+03  0.00000000000E+00 0. -1.
         25    2    1    2    0    0  0.18091002321E+02 -0.29023765572E+02  0.49907227420E+02  0.13882783373E+03  0.12495108138E+03 0.  0.
          2    1    1    2  501    0 -0.61883697451E+02  0.10174162843E+02 -0.52295892470E+02  0.81657614274E+02  0.00000000000E+00 0. -1.
          1    1    1    2  502    0  0.43792695130E+02  0.18849602728E+02  0.13200255746E+04  0.13208863029E+04  0.00000000000E+00 0. -1.
         22    1    3    3    0    0  0.62183990661E+02 -0.40334825586E+02  0.40758340090E+01  0.74231794216E+02  0.00000000000E+00 0.  1.
         22    1    3    3    0    0 -0.44092988340E+02  0.11311060014E+02  0.45831393411E+02  0.64596039518E+02  0.00000000000E+00 0.  1.
</event>
<event>
 7    1  0.5562528E-006  0.1218850E+03  0.7818608E-02  0.1258023E+00
          2   -1    0    0  502    0  0.00000000000E+00  0.00000000000E+00  0.10130954803E+03  0.10130954803E+03  0.00000000000E+00 0. -1.
          1   -1    0    0  501    0 -0.00000000000E+00 -0.00000000000E+00 -0.17640609679E+04  0.17640609679E+04  0.00000000000E+00 0. -1.
         25    2    1    2    0    0  0.80898380629E+02 -0.21882564303E+02 -0.26425735280E+03  0.30410685512E+03  0.12500254484E+03 0.  0.
          2    1    1    2  501    0  0.31023035002E+02  0.96950206657E+02 -0.14209924557E+04  0.14246337531E+04  0.00000000000E+00 0. -1.
          1    1    1    2  502    0 -0.11192141563E+03 -0.75067642353E+02  0.22498388594E+02  0.13662990776E+03  0.00000000000E+00 0. -1.
         22    1    3    3    0    0  0.34798893896E+02 -0.73310397108E+02 -0.15196908957E+03  0.17227879012E+03  0.00000000000E+00 0. -1.
         22    1    3    3    0    0  0.46099486733E+02  0.51427832805E+02 -0.11228826322E+03  0.13182806500E+03  0.00000000000E+00 0. -1.
</event>
<event>
 7    1  0.5562528E-006  0.1401983E+03  0.7818608E-02  0.1414673E+00
          2   -1    0    0  502    0  0.00000000000E+00  0.00000000000E+00  0.12407158577E+04  0.12407158577E+04  0.00000000000E+00 0. -1.
          1   -1    0    0  501    0 -0.00000000000E+00 -0.00000000000E+00 -0.13580469665E+04  0.13580469665E+04  0.00000000000E+00 0. -1.
         25    2    1    2    0    0 -0.13986070074E+03 -0.74771643535E+02  0.14754765613E+02  0.20247154935E+03  0.12500084360E+03 0.  0.
          2    1    1    2  501    0  0.12155953179E+02  0.18933081343E+02 -0.12597978396E+04  0.12599987403E+04  0.00000000000E+00 0. -1.
          1    1    1    2  502    0  0.12770474756E+03  0.55838562192E+02  0.11277119652E+04  0.11362925346E+04  0.00000000000E+00 0. -1.
         22    1    3    3    0    0 -0.16312219349E+03 -0.58268110534E+02  0.15763053310E+02  0.17393244828E+03  0.00000000000E+00 0. -1.
         22    1    3    3    0    0  0.23261492745E+02 -0.16503533001E+02 -0.10082876967E+01  0.28539101078E+02  0.00000000000E+00 0. -1.
</event>
<event>
 7    1  0.5562528E-006  0.3913327E+02  0.7818608E-02  0.1521376E+00
          2   -1    0    0  502    0  0.00000000000E+00  0.00000000000E+00  0.17672428293E+03  0.17672428293E+03  0.00000000000E+00 0. -1.
          1   -1    0    0  501    0 -0.00000000000E+00 -0.00000000000E+00 -0.11885636351E+03  0.11885636351E+03  0.00000000000E+00 0. -1.
         25    2    1    2    0    0 -0.18153331639E+02  0.20347986526E+02  0.86694035925E+02  0.15454696761E+03  0.12500130130E+03 0.  0.
          2    1    1    2  501    0 -0.24356268292E+02 -0.30629799622E+02 -0.70493445110E+02  0.80627155683E+02  0.00000000000E+00 0. -1.
          1    1    1    2  502    0  0.42509599931E+02  0.10281813097E+02  0.41667328597E+02  0.60406523151E+02  0.00000000000E+00 0. -1.
         22    1    3    3    0    0 -0.52743076562E+02 -0.29448303876E+02  0.68314084823E+02  0.91191276511E+02  0.00000000000E+00 0.  1.
         22    1    3    3    0    0  0.34589744923E+02  0.49796290402E+02  0.18379951102E+02  0.63355691095E+02  0.00000000000E+00 0.  1.
</event>
<event>
 7    1  0.5562528E-006  0.2676128E+03  0.7818608E-02  0.1200407E+00
          2   -1    0    0  502    0  0.00000000000E+00  0.00000000000E+00  0.31140433670E+03  0.31140433670E+03  0.00000000000E+00 0. -1.
          1   -1    0    0  501    0 -0.00000000000E+00 -0.00000000000E+00 -0.14602326470E+04  0.14602326470E+04  0.00000000000E+00 0. -1.
         25    2    1    2    0    0 -0.16925846401E+03 -0.13562332549E+03 -0.25379385848E+03  0.35648069403E+03  0.12500019422E+03 0.  0.
          2    1    1    2  501    0 -0.69214235215E+01 -0.83852133879E+02 -0.10768263396E+04  0.10801083521E+04  0.00000000000E+00 0. -1.
          1    1    1    2  502    0  0.17617988753E+03  0.21947545937E+03  0.18179188780E+03  0.33504793762E+03  0.00000000000E+00 0. -1.
         22    1    3    3    0    0 -0.13045446161E+02 -0.28889607825E+02  0.87370440429E+01  0.32880526827E+02  0.00000000000E+00 0.  1.
         22    1    3    3    0    0 -0.15621301785E+03 -0.10673371766E+03 -0.26253090252E+03  0.32360016720E+03  0.00000000000E+00 0.  1.
</event>
<event>
 7    1  0.5562528E-006  0.7673488E+02  0.7818608E-02  0.1353510E+00
          2   -1    0    0  502    0  0.00000000000E+00  0.00000000000E+00  0.28769094821E+04  0.28769094821E+04  0.00000000000E+00 0. -1.
          1   -1    0    0  501    0 -0.00000000000E+00 -0.00000000000E+00 -0.12403815917E+03  0.12403815917E+03  0.00000000000E+00 0. -1.
         25    2    1    2    0    0 -0.18551722454E+02  0.66769719539E+02 -0.11973817630E+01  0.14293052760E+03  0.12500136056E+03 0.  0.
          2    1    1    2  501    0 -0.57157304703E+02 -0.54264341339E+02 -0.21257728660E+02  0.81630063394E+02  0.00000000000E+00 0. -1.
          1    1    1    2  502    0  0.75709027157E+02 -0.12505378200E+02  0.27753264334E+04  0.27763870503E+04  0.00000000000E+00 0. -1.
         22    1    3    3    0    0 -0.82108043878E+00  0.83806454024E+02  0.41604096968E+02  0.93568674211E+02  0.00000000000E+00 0. -1.
         22    1    3    3    0    0 -0.17730642015E+02 -0.17036734485E+02 -0.42801478731E+02  0.49361853386E+02  0.00000000000E+00 0. -1.
</event>
<event>
 7    1  0.5562528E-006  0.6723638E+02  0.7818608E-02  0.1402749E+00
          2   -1    0    0  502    0  0.00000000000E+00  0.00000000000E+00  0.95540064761E+03  0.95540064761E+03  0.00000000000E+00 0. -1.
          1   -1    0    0  501    0 -0.00000000000E+00 -0.00000000000E+00 -0.28459771908E+02  0.28459771908E+02  0.00000000000E+00 0. -1.
         25    2    1    2    0    0 -0.59176514979E+02 -0.19474185696E+02  0.41293680701E+03  0.43591731851E+03  0.12500399256E+03 0.  0.
          2    1    1    2  501    0  0.32367802811E+02  0.63444556126E+02  0.66363267643E+02  0.97349728573E+02  0.00000000000E+00 0. -1.
          1    1    1    2  502    0  0.26808712168E+02 -0.43970370430E+02  0.44764080104E+03  0.45059337243E+03  0.00000000000E+00 0. -1.
         22    1    3    3    0    0  0.37106895345E+02  0.10716777659E+02  0.12317566833E+03  0.12908917954E+03  0.00000000000E+00 0.  1.
         22    1    3    3    0    0 -0.96283410325E+02 -0.30190963355E+02  0.28976113868E+03  0.30682813897E+03  0.00000000000E+00 0.  1.
</event>
<event>
 7    1  0.5562528E-006  0.9327494E+02  0.7818608E-02  0.1433773E+00
          2   -1    0    0  502    0  0.00000000000E+00  0.00000000000E+00  0.25054859161E+03  0.25054859161E+03  0.00000000000E+00 0. -1.
          1   -1    0    0  501    0 -0.00000000000E+00 -0.00000000000E+00 -0.65472971750E+03  0.65472971750E+03  0.00000000000E+00 0. -1.
         25    2    1    2    0    0 -0.64154103604E+02 -0.16134124955E+02 -0.15943039939E+03  0.21311781708E+03  0.12500037085E+03 0.  0.
          2    1    1    2  501    0 -0.25710979579E+02 -0.13892465258E+02 -0.45793633997E+03  0.45886789660E+03  0.00000000000E+00 0. -1.
          1    1    1    2  502    0  0.89865083184E+02  0.30026590214E+02  0.21318561347E+03  0.23329259544E+03  0.00000000000E+00 0. -1.
         22    1    3    3    0    0  0.12093828111E+02  0.72362090183E+01  0.15449798547E+02  0.20912189615E+02  0.00000000000E+00 0.  1.
         22    1    3    3    0    0 -0.76247931715E+02 -0.23370333974E+02 -0.17488019794E+03  0.19220562747E+03  0.00000000000E+00 0.  1.
</event>
<event>
 7    1  0.5562528E-006  0.3428942E+02  0.7818608E-02  0.1586794E+00
          2   -1    0    0  502    0  0.00000000000E+00  0.00000000000E+00  0.32533113685E+03  0.32533113685E+03  0.00000000000E+00 0. -1.
          1   -1    0    0  501    0 -0.00000000000E+00 -0.00000000000E+00 -0.10048965986E+03  0.10048965986E+03  0.00000000000E+00 0. -1.
         25    2    1    2    0    0  0.60325224945E+02 -0.94719714923E+01  0.14313957692E+03  0.19960596627E+03  0.12499900912E+03 0.  0.
          2    1    1    2  501    0 -0.33674123205E+02  0.52922820997E+00 -0.66941846307E+02  0.74936222503E+02  0.00000000000E+00 0. -1.
          1    1    1    2  502    0 -0.26651101740E+02  0.89427432824E+01  0.14864374638E+03  0.15127860794E+03  0.00000000000E+00 0. -1.
         22    1    3    3    0    0  0.88346856722E+02 -0.40460197527E+02  0.95543691546E+02  0.13627469197E+03  0.00000000000E+00 0.  1.
         22    1    3    3    0    0 -0.28021631778E+02  0.30988226035E+02  0.47595885372E+02  0.63331274301E+02  0.00000000000E+00 0.  1.
</event>
<event>
 7    1  0.5562528E-006  0.1901128E+03  0.7818608E-02  0.1174365E+00
          2   -1    0    0  502    0  0.00000000000E+00  0.00000000000E+00  0.11544707467E+04  0.11544707467E+04  0.00000000000E+00 0. -1.
          1   -1    0    0  501    0 -0.00000000000E+00 -0.00000000000E+00 -0.10669008451E+04  0.10669008451E+04  0.00000000000E+00 0. -1.
         25    2    1    2    0    0  0.30937054781E+03 -0.93407708067E+02  0.39933567046E+03  0.52870534123E+03  0.12500089746E+03 0.  0.
          2    1    1    2  501    0 -0.15678234600E+03  0.20561090347E+02 -0.98546603334E+03  0.99807152314E+03  0.00000000000E+00 0. -1.
          1    1    1    2  502    0 -0.15258820182E+03  0.72846617720E+02  0.67370026447E+03  0.69459472744E+03  0.00000000000E+00 0. -1.
         22    1    3    3    0    0  0.13017552632E+03 -0.10650934018E+02  0.24688321247E+03  0.27930347411E+03  0.00000000000E+00 0.  1.
         22    1    3    3    0    0  0.17919502149E+03 -0.82756774050E+02  0.15245245798E+03  0.24940186712E+03  0.00000000000E+00 0.  1.
</event>
<event>
 7    1  0.5562528E-006  0.2071498E+03  0.7818608E-02  0.1158295E+00
          2   -1    0    0  502    0  0.00000000000E+00  0.00000000000E+00  0.18748021903E+04  0.18748021903E+04  0.00000000000E+00 0. -1.
          1   -1    0    0  501    0 -0.00000000000E+00 -0.00000000000E+00 -0.11174430792E+03  0.11174430792E+03  0.00000000000E+00 0. -1.
         25    2    1    2    0    0  0.91554635917E+02  0.11839161103E+03  0.40596900328E+03  0.45037791073E+03  0.12502242173E+03 0.  0.
          2    1    1    2  501    0 -0.19925932437E+03  0.58556797497E+02  0.51134965953E+02  0.21388773136E+03  0.00000000000E+00 0. -1.
          1    1    1    2  502    0  0.10770468846E+03 -0.17694840852E+03  0.13059539132E+04  0.13222808561E+04  0.00000000000E+00 0. -1.
         22    1    3    3    0    0  0.12298703162E+03  0.90918229837E+02  0.30793658618E+03  0.34382681044E+03  0.00000000000E+00 0. -1.
         22    1    3    3    0    0 -0.31432395702E+02  0.27473381190E+02  0.98032417091E+02  0.10655110030E+03  0.00000000000E+00 0. -1.
</event>
<event>
 7    1  0.5562528E-006  0.3268517E+02  0.7818608E-02  0.1576795E+00
          2   -1    0    0  502    0  0.00000000000E+00  0.00000000000E+00  0.26704875602E+02  0.26704875602E+02  0.00000000000E+00 0. -1.
          1   -1    0    0  501    0 -0.00000000000E+00 -0.00000000000E+00 -0.10785761732E+04  0.10785761732E+04  0.00000000000E+00 0. -1.
         25    2    1    2    0    0 -0.19723964753E+02 -0.10426790644E+02 -0.22878675327E+03  0.26165995480E+03  0.12499920290E+03 0.  0.
          2    1    1    2  501    0  0.26270151252E+02 -0.20247236280E+02 -0.80824100044E+03  0.80892124846E+03  0.00000000000E+00 0. -1.
          1    1    1    2  502    0 -0.65461864990E+01  0.30674026924E+02 -0.14843543899E+02  0.34699845546E+02  0.00000000000E+00 0. -1.
         22    1    3    3    0    0  0.51461866112E+02 -0.16524081219E+02 -0.11862179369E+03  0.13035527938E+03  0.00000000000E+00 0.  1.
         22    1    3    3    0    0 -0.71185830866E+02  0.60972905748E+01 -0.11016495957E+03  0.13130467541E+03  0.00000000000E+00 0.  1.
</event>
<event>
 7    1  0.5562528E-006  0.7823987E+02  0.7818608E-02  0.1342016E+00
          2   -1    0    0  502    0  0.00000000000E+00  0.00000000000E+00  0.15397912899E+04  0.15397912899E+04  0.00000000000E+00 0. -1.
          1   -1    0    0  501    0 -0.00000000000E+00 -0.00000000000E+00 -0.14646919252E+03  0.14646919252E+03  0.00000000000E+00 0. -1.
         25    2    1    2    0    0 -0.90203412530E+02  0.35518554974E+02  0.11303830686E+03  0.19442554047E+03  0.12500163435E+03 0.  0.
          2    1    1    2  501    0  0.62405756060E+02  0.37977747928E+02 -0.91902630550E+02  0.11740051631E+03  0.00000000000E+00 0. -1.
          1    1    1    2  502    0  0.27797656470E+02 -0.73496302903E+02  0.13721864211E+04  0.13744344257E+04  0.00000000000E+00 0. -1.
         22    1    3    3    0    0 -0.11559050568E+03  0.69609134355E+01  0.64166949191E+02  0.13238963966E+03  0.00000000000E+00 0. -1.
         22    1    3    3    0    0  0.25387093154E+02  0.28557641539E+02  0.48871357668E+02  0.62035900811E+02  0.00000000000E+00 0. -1.
</event>
<event>
 7    1  0.5562528E-006  0.6469883E+02  0.7818608E-02  0.1480011E+00
          2   -1    0    0  502    0  0.00000000000E+00  0.00000000000E+00  0.38993132434E+03  0.38993132434E+03  0.00000000000E+00 0. -1.
          1   -1    0    0  501    0 -0.00000000000E+00 -0.00000000000E+00 -0.19483748762E+03  0.19483748762E+03  0.00000000000E+00 0. -1.
         25    2    1    2    0    0 -0.36703448195E+02  0.29432733878E+02  0.24145158149E+03  0.27592985900E+03  0.12499996779E+03 0.  0.
          2    1    1    2  501    0 -0.17001409384E+02  0.24796954088E+02 -0.16502795678E+03  0.16774433931E+03  0.00000000000E+00 0. -1.
          1    1    1    2  502    0  0.53704857579E+02 -0.54229687966E+02  0.11867021201E+03  0.14109461365E+03  0.00000000000E+00 0. -1.
         22    1    3    3    0    0  0.45165252766E+02 -0.28800017957E+01  0.90751388107E+02  0.10141010261E+03  0.00000000000E+00 0. -1.
         22    1    3    3    0    0 -0.81868700962E+02  0.32312735674E+02  0.15070019338E+03  0.17451975639E+03  0.00000000000E+00 0. -1.
</event>
<event>
 7    1  0.1107550E-005  0.6876518E+02  0.7818608E-02  0.1456768E+00
          2   -1    0    0  502    0  0.00000000000E+00  0.00000000000E+00  0.14268721946E+04  0.14268721946E+04  0.00000000000E+00 0. -1.
          1   -1    0    0  501    0 -0.00000000000E+00 -0.00000000000E+00 -0.72108728397E+03  0.72108728397E+03  0.00000000000E+00 0. -1.
         25    2    1    2    0    0  0.37118476063E+02  0.33956269829E+02 -0.34333855127E+03  0.36883383760E+03  0.12500491766E+03 0.  0.
          2    1    1    2  501    0  0.29328421429E+02 -0.16032740598E+02 -0.36339632257E+03  0.36493025680E+03  0.00000000000E+00 0. -1.
          1    1    1    2  502    0 -0.66446897492E+02 -0.17923529230E+02  0.14125197845E+04  0.14141953842E+04  0.00000000000E+00 0. -1.
         22    1    3    3    0    0 -0.69488614411E+01  0.53271432142E+02 -0.56408641118E+02  0.77897798111E+02  0.00000000000E+00 0.  1.
         22    1    3    3    0    0  0.44067337504E+02 -0.19315162313E+02 -0.28692991015E+03  0.29093603948E+03  0.00000000000E+00 0.  1.
</event>
<event>
 7    1  0.5562528E-006  0.1188637E+03  0.7818608E-02  0.1365787E+00
          2   -1    0    0  502    0  0.00000000000E+00  0.00000000000E+00  0.20370815500E+04  0.20370815500E+04  0.00000000000E+00 0. -1.
          1   -1    0    0  501    0 -0.00000000000E+00 -0.00000000000E+00 -0.42199670369E+03  0.42199670369E+03  0.00000000000E+00 0. -1.
         25    2    1    2    0    0  0.24934839760E+02 -0.80542952473E+02  0.88517704913E+03  0.89792622675E+03  0.12499674775E+03 0.  0.
          2    1    1    2  501    0 -0.14212417932E+02  0.11835802965E+03 -0.40672761810E+03  0.42383719909E+03  0.00000000000E+00 0. -1.
          1    1    1    2  502    0 -0.10722421828E+02 -0.37815077173E+02  0.11366354153E+04  0.11373148279E+04  0.00000000000E+00 0. -1.
         22    1    3    3    0    0 -0.40673645979E+02 -0.72916378844E+02  0.43649608515E+03  0.44440969402E+03  0.00000000000E+00 0.  1.
         22    1    3    3    0    0  0.65608485739E+02 -0.76265736289E+01  0.44868096398E+03  0.45351653274E+03  0.00000000000E+00 0.  1.
</event>
<event>
 7    1  0.5562528E-006  0.1014233E+03  0.7818608E-02  0.1433240E+00
          2   -1    0    0  502    0  0.00000000000E+00  0.00000000000E+00  0.61324395112E+03  0.61324395112E+03  0.00000000000E+00 0. -1.
          1   -1    0    0  501    0 -0.00000000000E+00 -0.00000000000E+00 -0.20541571923E+04  0.20541571923E+04  0.00000000000E+00 0. -1.
         25    2    1    2    0    0  0.93568163718E+02  0.37646876056E+02 -0.52378827665E+03  0.54786058322E+03  0.12499908542E+03 0.  0.
          2    1    1    2  501    0  0.72175017280E+01 -0.26001446346E+02 -0.15139313848E+04  0.15141718546E+04  0.00000000000E+00 0. -1.
          1    1    1    2  502    0 -0.10078566545E+03 -0.11645429709E+02  0.59680642026E+03  0.60536870555E+03  0.00000000000E+00 0. -1.
         22    1    3    3    0    0  0.95873194821E+02  0.69252522489E+02 -0.31106319576E+03  0.33278806035E+03  0.00000000000E+00 0.  1.
         22    1    3    3    0    0 -0.23050311032E+01 -0.31605646433E+02 -0.21272508089E+03  0.21507252288E+03  0.00000000000E+00 0.  1.
</event>
<event>
 7    1  0.5562528E-006  0.5386633E+02  0.7818608E-02  0.1453041E+00
          2   -1    0    0  502    0  0.00000000000E+00  0.00000000000E+00  0.80779767711E+03  0.80779767711E+03  0.00000000000E+00 0. -1.
          1   -1    0    0  501    0 -0.00000000000E+00 -0.00000000000E+00 -0.18920434955E+03  0.18920434955E+03  0.00000000000E+00 0. -1.
         25    2    1    2    0    0 -0.56169348918E+02  0.25722679221E+02  0.24018939066E+03  0.27772671673E+03  0.12499813524E+03 0.  0.
          2    1    1    2  501    0  0.50992731341E+02  0.17819705741E+02 -0.16525075125E+03  0.17385514474E+03  0.00000000000E+00 0. -1.
          1    1    1    2  502    0  0.51766175768E+01 -0.43542384962E+02  0.54365468815E+03  0.54542016520E+03  0.00000000000E+00 0. -1.
         22    1    3    3    0    0  0.15385970042E+02 -0.39291966411E+02  0.61966451978E+02  0.74969512932E+02  0.00000000000E+00 0.  1.
         22    1    3    3    0    0 -0.71555318960E+02  0.65014645632E+02  0.17822293868E+03  0.20275720379E+03  0.00000000000E+00 0.  1.
</event>
<event>
 7    1  0.5562528E-006  0.5300131E+03  0.7818608E-02  0.1141343E+00
          2   -1    0    0  502    0  0.00000000000E+00  0.00000000000E+00  0.62002689582E+03  0.62002689582E+03  0.00000000000E+00 0. -1.
          1   -1    0    0  501    0 -0.00000000000E+00 -0.00000000000E+00 -0.11682861347E+04  0.11682861347E+04  0.00000000000E+00 0. -1.
         25    2    1    2    0    0  0.45179054451E+03  0.12761571031E+03 -0.13272276566E+02  0.48600740012E+03  0.12500629595E+03 0.  0.
          2    1    1    2  501    0 -0.53501730226E+03 -0.13342185898E+03 -0.82958580642E+03  0.99612123579E+03  0.00000000000E+00 0. -1.
          1    1    1    2  502    0  0.83226757753E+02  0.58061486739E+01  0.29459884409E+03  0.30618439462E+03  0.00000000000E+00 0. -1.
         22    1    3    3    0    0  0.26353286524E+02 -0.17588509092E+02 -0.18016846530E+02  0.36448019447E+02  0.00000000000E+00 0.  1.
         22    1    3    3    0    0  0.42543725798E+03  0.14520421940E+03  0.47445699639E+01  0.44955938068E+03  0.00000000000E+00 0.  1.
</event>
<event>
 7    1  0.5562528E-006  0.1622465E+03  0.7818608E-02  0.1221369E+00
          2   -1    0    0  502    0  0.00000000000E+00  0.00000000000E+00  0.21612173120E+04  0.21612173120E+04  0.00000000000E+00 0. -1.
          1   -1    0    0  501    0 -0.00000000000E+00 -0.00000000000E+00 -0.38234609217E+03  0.38234609217E+03  0.00000000000E+00 0. -1.
         25    2    1    2    0    0 -0.18386639647E+03  0.14835560738E+03  0.42456644261E+03  0.50169488544E+03  0.12499942358E+03 0.  0.
          2    1    1    2  501    0  0.32840007206E+02 -0.10601345565E+03 -0.33108735268E+03  0.34919357663E+03  0.00000000000E+00 0. -1.
          1    1    1    2  502    0  0.15102638926E+03 -0.42342151737E+02  0.16853921299E+04  0.16926749421E+04  0.00000000000E+00 0. -1.
         22    1    3    3    0    0 -0.37426953979E+02  0.66371819546E+02  0.24199019994E+03  0.25370307878E+03  0.00000000000E+00 0.  1.
         22    1    3    3    0    0 -0.14643944249E+03  0.81983787838E+02  0.18257624266E+03  0.24799180666E+03  0.00000000000E+00 0.  1.
</event>
<event>
 7    1  0.5562528E-006  0.4194029E+02  0.7818608E-02  0.1565423E+00
          2   -1    0    0  502    0  0.00000000000E+00  0.00000000000E+00  0.92813897137E+03  0.92813897137E+03  0.00000000000E+00 0. -1.
          1   -1    0    0  501    0 -0.00000000000E+00 -0.00000000000E+00 -0.13644888474E+04  0.13644888474E+04  0.00000000000E+00 0. -1.
         25    2    1    2    0    0  0.27320328342E+02 -0.21548635039E+02 -0.27811043563E+03  0.30688930552E+03  0.12499954971E+03 0.  0.
          2    1    1    2  501    0 -0.99101791920E+01  0.41184820703E+02 -0.10713819171E+04  0.10722190138E+04  0.00000000000E+00 0. -1.
          1    1    1    2  502    0 -0.17410149150E+02 -0.19636185664E+02  0.91314247675E+03  0.91351949947E+03  0.00000000000E+00 0. -1.
         22    1    3    3    0    0 -0.44043153070E+02 -0.23381058368E+02 -0.63631054712E+02  0.80841724044E+02  0.00000000000E+00 0.  1.
         22    1    3    3    0    0  0.71363481412E+02  0.18324233287E+01 -0.21447938091E+03  0.22604758148E+03  0.00000000000E+00 0.  1.
</event>
<event>
 7    1  0.5562528E-006  0.7430922E+02  0.7818608E-02  0.1383421E+00
          2   -1    0    0  502    0  0.00000000000E+00  0.00000000000E+00  0.55287106509E+03  0.55287106509E+03  0.00000000000E+00 0. -1.
          1   -1    0    0  501    0 -0.00000000000E+00 -0.00000000000E+00 -0.56903999913E+02  0.56903999913E+02  0.00000000000E+00 0. -1.
         25    2    1    2    0    0  0.27291606394E+02  0.45670220467E+02  0.36219025687E+03  0.38682972805E+03  0.12499942207E+03 0.  0.
          2    1    1    2  501    0  0.27820074936E+02  0.46734539582E+02  0.42391806967E+01  0.54553133846E+02  0.00000000000E+00 0. -1.
          1    1    1    2  502    0 -0.55111681330E+02 -0.92404760049E+02  0.12953762762E+03  0.16839220311E+03  0.00000000000E+00 0. -1.
         22    1    3    3    0    0 -0.42825876339E+02  0.84762100284E+01  0.58836357771E+02  0.73264034945E+02  0.00000000000E+00 0.  1.
         22    1    3    3    0    0  0.70117482732E+02  0.37194010438E+02  0.30335389910E+03  0.31356569311E+03  0.00000000000E+00 0.  1.
</event>
<event>
 7    1  0.5562528E-006  0.3529728E+02  0.7818608E-02  0.1629111E+00
          2   -1    0    0  502    0  0.00000000000E+00  0.00000000000E+00  0.14626667580E+04  0.14626667580E+04  0.00000000000E+00 0. -1.
          1   -1    0    0  501    0 -0.00000000000E+00 -0.00000000000E+00 -0.94293389613E+03  0.94293389613E+03  0.00000000000E+00 0. -1.
         25    2    1    2    0    0 -0.40466085343E+02  0.32378375131E+02  0.22458258610E+03  0.26220120520E+03  0.12500508305E+03 0.  0.
          2    1    1    2  501    0  0.19446884035E+02 -0.29433776942E+02 -0.92369548386E+03  0.92436890657E+03  0.00000000000E+00 0. -1.
          1    1    1    2  502    0  0.21019201307E+02 -0.29445981886E+01  0.12188457597E+04  0.12190305424E+04  0.00000000000E+00 0. -1.
         22    1    3    3    0    0  0.25045184480E+02  0.58859132373E+02  0.12002196542E+03  0.13600342243E+03  0.00000000000E+00 0. -1.
         22    1    3    3    0    0 -0.65511269822E+02 -0.26480757242E+02  0.10456062068E+03  0.12619778276E+03  0.00000000000E+00 0. -1.
</event>
<event>
 7    1  0.5562528E-006  0.8106190E+02  0.7818608E-02  0.1347872E+00
          2   -1    0    0  502    0  0.00000000000E+00  0.00000000000E+00  0.21780879274E+03  0.21780879274E+03  0.00000000000E+00 0. -1.
          1   -1    0    0  501    0 -0.00000000000E+00 -0.00000000000E+00 -0.16076332722E+04  0.16076332722E+04  0.00000000000E+00 0. -1.
         25    2    1    2    0    0 -0.97728320550E+02 -0.68931290307E+02 -0.65098342718E+02  0.18483820899E+03  0.12500008743E+03 0.  0.
          2    1    1    2  501    0  0.66921926760E+02 -0.41199909481E+01 -0.14719042300E+04  0.14734305484E+04  0.00000000000E+00 0. -1.
          1    1    1    2  502    0  0.30806393790E+02  0.73051281255E+02  0.14717809332E+03  0.16717330751E+03  0.00000000000E+00 0. -1.
         22    1    3    3    0    0 -0.61617190057E+02 -0.27593481134E+02  0.30905285563E+02  0.74251026843E+02  0.00000000000E+00 0. -1.
         22    1    3    3    0    0 -0.36111130493E+02 -0.41337809173E+02 -0.96003628281E+02  0.11058718215E+03  0.00000000000E+00 0. -1.
</event>
<event>
 7    1  0.5562528E-006  0.2285758E+03  0.7818608E-02  0.1330288E+00
          2   -1    0    0  502    0  0.00000000000E+00  0.00000000000E+00  0.14938558247E+04  0.14938558247E+04  0.00000000000E+00 0. -1.
          1   -1    0    0  501    0 -0.00000000000E+00 -0.00000000000E+00 -0.11726346938E+03  0.11726346938E+03  0.00000000000E+00 0. -1.
         25    2    1    2    0    0 -0.72547666519E+02  0.23475286912E+03  0.46747495354E+03  0.54270415475E+03  0.12499157541E+03 0.  0.
          2    1    1    2  501    0 -0.75240661009E+01 -0.26654932254E+02 -0.64181624449E+02  0.69902631574E+02  0.00000000000E+00 0. -1.
          1    1    1    2  502    0  0.80071732619E+02 -0.20809793686E+03  0.97329902625E+03  0.99851250778E+03  0.00000000000E+00 0. -1.
         22    1    3    3    0    0 -0.67205795115E+01  0.19426638473E+03  0.28984425587E+03  0.34899038251E+03  0.00000000000E+00 0.  1.
         22    1    3    3    0    0 -0.65827087007E+02  0.40486484389E+02  0.17763069767E+03  0.19371377224E+03  0.00000000000E+00 0.  1.
</event>
<event>
 7    1  0.5562528E-006  0.1013196E+03  0.7818608E-02  0.1374533E+00
          2   -1    0    0  502    0  0.00000000000E+00  0.00000000000E+00  0.40601879996E+03  0.40601879996E+03  0.00000000000E+00 0. -1.
          1   -1    0    0  501    0 -0.00000000000E+00 -0.00000000000E+00 -0.10532668376E+04  0.10532668376E+04  0.00000000000E+00 0. -1.
         25    2    1    2    0    0  0.19652769843E+02 -0.12143720450E+03 -0.98464472427E+02  0.20113051754E+03  0.12500002703E+03 0.  0.
          2    1    1    2  501    0  0.16927651267E+02  0.99039980363E+02 -0.89936470366E+03  0.90495985175E+03  0.00000000000E+00 0. -1.
          1    1    1    2  502    0 -0.36580421110E+02  0.22397224133E+02  0.35058113847E+03  0.35319526825E+03  0.00000000000E+00 0. -1.
         22    1    3    3    0    0  0.36373558709E+02 -0.13983917127E+03 -0.10076863998E+03  0.17616000794E+03  0.00000000000E+00 0.  1.
         22    1    3    3    0    0 -0.16720788866E+02  0.18401966774E+02  0.23041675524E+01  0.24970509598E+02  0.00000000000E+00 0.  1.
</event>
<event>
 7    1  0.5562528E-006  0.9966234E+02  0.7818608E-02  0.1456055E+00
          2   -1    0    0  502    0  0.00000000000E+00  0.00000000000E+00  0.12621940839E+03  0.12621940839E+03  0.00000000000E+00 0. -1.
          1   -1    0    0  501    0 -0.00000000000E+00 -0.00000000000E+00 -0.39995949672E+03  0.39995949672E+03  0.00000000000E+00 0. -1.
         25    2    1    2    0    0  0.38361254676E+02  0.85276856341E+02 -0.62023176237E+02  0.16796969622E+03  0.12499286527E+03 0.  0.
          2    1    1    2  501    0  0.22907398186E+02 -0.35620454612E+01 -0.24855645048E+03  0.24963522615E+03  0.00000000000E+00 0. -1.
          1    1    1    2  502    0 -0.61268652862E+02 -0.81714810879E+02  0.36839538387E+02  0.10857398275E+03  0.00000000000E+00 0. -1.
         22    1    3    3    0    0 -0.27531460541E+02  0.40564197891E+02 -0.72638524678E+02  0.87634415257E+02  0.00000000000E+00 0.  1.
         22    1    3    3    0    0  0.65892715216E+02  0.44712658449E+02  0.10615348441E+02  0.80335280959E+02  0.00000000000E+00 0.  1.
</event>
<event>
 7    1  0.5562528E-006  0.7004703E+02  0.7818608E-02  0.1377063E+00
          2   -1    0    0  502    0  0.00000000000E+00  0.00000000000E+00  0.12214105369E+03  0.12214105369E+03  0.00000000000E+00 0. -1.
          1   -1    0    0  501    0 -0.00000000000E+00 -0.00000000000E+00 -0.20160844840E+04  0.20160844840E+04  0.00000000000E+00 0. -1.
         25    2    1    2    0    0 -0.20795803060E+02 -0.11175874690E+03 -0.10515860239E+03  0.19901349933E+03  0.12500223329E+03 0.  0.
          2    1    1    2  501    0 -0.18536455640E+02  0.57870518137E+02 -0.18486059120E+04  0.18496043942E+04  0.00000000000E+00 0. -1.
          1    1    1    2  502    0  0.39332258700E+02  0.53888228761E+02  0.59821084157E+02  0.89607644111E+02  0.00000000000E+00 0. -1.
         22    1    3    3    0    0  0.33874730235E+01  0.17803469810E+02 -0.55139655666E+02  0.58041538037E+02  0.00000000000E+00 0. -1.
         22    1    3    3    0    0 -0.24183276083E+02 -0.12956221671E+03 -0.50018946721E+02  0.14097196130E+03  0.00000000000E+00 0. -1.
</event>
<event>
 7    1  0.5562528E-006  0.8227153E+02  0.7818608E-02  0.1413129E+00
          2   -1    0    0  502    0  0.00000000000E+00  0.00000000000E+00  0.13711158756E+03  0.13711158756E+03  0.00000000000E+00 0. -1.
          1   -1    0    0  501    0 -0.00000000000E+00 -0.00000000000E+00 -0.35150788194E+03  0.35150788194E+03  0.00000000000E+00 0. -1.
         25    2    1    2    0    0  0.15014767338E+02 -0.50219855228E+02 -0.10161777775E+03  0.16940781991E+03  0.12500143837E+03 0.  0.
          2    1    1    2  501    0 -0.32350331613E+02  0.84935611348E+02 -0.20222525862E+03  0.22171075133E+03  0.00000000000E+00 0. -1.
          1    1    1    2  502    0  0.17335564276E+02 -0.34715756120E+02  0.89446741983E+02  0.97500898268E+02  0.00000000000E+00 0. -1.
         22    1    3    3    0    0 -0.40627406751E+02  0.18248814867E+02 -0.50929367007E+02  0.67656528488E+02  0.00000000000E+00 0. -1.
         22    1    3    3    0    0  0.55642174089E+02 -0.68468670095E+02 -0.50688410743E+02  0.10175129142E+03  0.00000000000E+00 0. -1.
</event>
<event>
 7    1  0.5562528E-006  0.3254605E+02  0.7818608E-02  0.1632752E+00
          2   -1    0    0  502    0  0.00000000000E+00  0.00000000000E+00  0.12637027534E+04  0.12637027534E+04  0.00000000000E+00 0. -1.
          1   -1    0    0  501    0 -0.00000000000E+00 -0.00000000000E+00 -0.21400061774E+03  0.21400061774E+03  0.00000000000E+00 0. -1.
         25    2    1    2    0    0 -0.25540299668E+02 -0.47721468085E+02  0.68397488629E+03  0.69740735804E+03  0.12500293019E+03 0.  0.
          2    1    1    2  501    0  0.19504775351E+02  0.26005591710E+02 -0.20578639155E+03  0.20833810503E+03  0.00000000000E+00 0. -1.
          1    1    1    2  502    0  0.60355243176E+01  0.21715876374E+02  0.57151364089E+03  0.57195790804E+03  0.00000000000E+00 0. -1.
         22    1    3    3    0    0 -0.15960574527E+02  0.31271561277E+02  0.70139173972E+02  0.78435669242E+02  0.00000000000E+00 0. -1.
         22    1    3    3    0    0 -0.95797251414E+01 -0.78993029362E+02  0.61383571232E+03  0.61897168880E+03  0.00000000000E+00 0. -1.
</event>
<event>
 7    1  0.5562528E-006  0.5420603E+02  0.7818608E-02  0.1453224E+00
          2   -1    0    0  502    0  0.00000000000E+00  0.00000000000E+00  0.34366983879E+04  0.34366983879E+04  0.00000000000E+00 0. -1.
          1   -1    0    0  501    0 -0.00000000000E+00 -0.00000000000E+00 -0.15501029470E+04  0.15501029470E+04  0.00000000000E+00 0. -1.
         25    2    1    2    0    0  0.89138286508E+02 -0.34966745979E+02  0.76743607877E+03  0.78342286037E+03  0.12499974283E+03 0.  0.
          2    1    1    2  501    0 -0.42178846455E+02  0.10703049917E+02 -0.15415400290E+04  0.15421541010E+04  0.00000000000E+00 0. -1.
          1    1    1    2  502    0 -0.46959440053E+02  0.24263696062E+02  0.26606993911E+04  0.26612243734E+04  0.00000000000E+00 0. -1.
         22    1    3    3    0    0  0.11806221091E+03 -0.24992144562E+02  0.68378038630E+03  0.69434783043E+03  0.00000000000E+00 0.  1.
         22    1    3    3    0    0 -0.28923924401E+02 -0.99746014175E+01  0.83655692476E+02  0.89075029945E+02  0.00000000000E+00 0.  1.
</event>
<event>
 7    1  0.5562528E-006  0.1102601E+03  0.7818608E-02  0.1320869E+00
          2   -1    0    0  502    0  0.00000000000E+00  0.00000000000E+00  0.38163893290E+04  0.38163893290E+04  0.00000000000E+00 0. -1.
          1   -1    0    0  501    0 -0.00000000000E+00 -0.00000000000E+00 -0.12780764669E+04  0.12780764669E+04  0.00000000000E+00 0. -1.
         25    2    1    2    0    0  0.40523342019E+02  0.12536287051E+03 -0.15729542587E+03  0.24025774600E+03  0.12499577179E+03 0.  0.
          2    1    1    2  501    0  0.19439494514E+02 -0.10805078311E+03 -0.10762492272E+04  0.10818342131E+04  0.00000000000E+00 0. -1.
          1    1    1    2  502    0 -0.59962836533E+02 -0.17312087397E+02  0.37718575151E+04  0.37723738368E+04  0.00000000000E+00 0. -1.
         22    1    3    3    0    0  0.58665971047E+02  0.14223976931E+03 -0.11842246652E+03  0.19415902942E+03  0.00000000000E+00 0. -1.
         22    1    3    3    0    0 -0.18142629028E+02 -0.16876898801E+02 -0.38872959355E+02  0.46098716579E+02  0.00000000000E+00 0. -1.
</event>
<event>
 7    1  0.5562528E-006  0.7192634E+02  0.7818608E-02  0.1390044E+00
          2   -1    0    0  502    0  0.00000000000E+00  0.00000000000E+00  0.13520988702E+04  0.13520988702E+04  0.00000000000E+00 0. -1.
          1   -1    0    0  501    0 -0.00000000000E+00 -0.00000000000E+00 -0.40037751421E+03  0.40037751421E+03  0.00000000000E+00 0. -1.
         25    2    1    2    0    0 -0.91560987281E+02  0.58400548102E+02  0.98567174225E+03  0.99948398166E+03  0.12500163079E+03 0.  0.
          2    1    1    2  501    0  0.34824890441E+02 -0.40302603282E+02 -0.38917872667E+03  0.39280676435E+03  0.00000000000E+00 0. -1.
          1    1    1    2  502    0  0.56736096839E+02 -0.18097944821E+02  0.35522834036E+03  0.36018563836E+03  0.00000000000E+00 0. -1.
         22    1    3    3    0    0  0.30334239228E+02 -0.16180973224E+00  0.17459917056E+03  0.17721473587E+03  0.00000000000E+00 0. -1.
         22    1    3    3    0    0 -0.12189522651E+03  0.58562357834E+02  0.81107257170E+03  0.82226924578E+03  0.00000000000E+00 0. -1.
</event>
<event>
 7    1  0.5562528E-006  0.5527162E+02  0.7818608E-02  0.1449708E+00
          2   -1    0    0  502    0  0.00000000000E+00  0.00000000000E+00  0.25923973068E+03  0.25923973068E+03  0.00000000000E+00 0. -1.
          1   -1    0    0  501    0 -0.00000000000E+00 -0.00000000000E+00 -0.26922918753E+03  0.26922918753E+03  0.00000000000E+00 0. -1.
         25    2    1    2    0    0 -0.66050678814E+02  0.65794222392E+02 -0.11265199765E+03  0.19237231515E+03  0.12500025276E+03 0.  0.
          2    1    1    2  501    0  0.39249126043E+02 -0.31158805146E+02 -0.10899084286E+03  0.11995986354E+03  0.00000000000E+00 0. -1.
          1    1    1    2  502    0  0.26801552772E+02 -0.34635417246E+02  0.21165338365E+03  0.21613673952E+03  0.00000000000E+00 0. -1.
         22    1    3    3    0    0 -0.91300372353E+02  0.11583861084E+02 -0.46214452583E+02  0.10298407380E+03  0.00000000000E+00 0.  1.
         22    1    3    3    0    0  0.25249693539E+02  0.54210361308E+02 -0.66437545064E+02  0.89388241347E+02  0.00000000000E+00 0.  1.
</event>
<event>
 7    1  0.5562528E-006  0.1987675E+03  0.7818608E-02  0.1355976E+00
          2   -1    0    0  502    0  0.00000000000E+00  0.00000000000E+00  0.17960718316E+03  0.17960718316E+03  0.00000000000E+00 0. -1.
          1   -1    0    0  501    0 -0.00000000000E+00 -0.00000000000E+00 -0.25573402825E+04  0.25573402825E+04  0.00000000000E+00 0. -1.
         25    2    1    2    0    0 -0.96606108240E+02  0.18569731516E+03 -0.64454427051E+03  0.68911537992E+03  0.12500582862E+03 0.  0.
          2    1    1    2  501    0  0.10916367438E+03 -0.16347800725E+03 -0.18843277032E+04  0.18945534196E+04  0.00000000000E+00 0. -1.
          1    1    1    2  502    0 -0.12557566137E+02 -0.22219307906E+02  0.15113887443E+03  0.15327866608E+03  0.00000000000E+00 0. -1.
         22    1    3    3    0    0 -0.17778592076E+02  0.15985458255E+03 -0.42184814168E+03  0.45147028754E+03  0.00000000000E+00 0. -1.
         22    1    3    3    0    0 -0.78827516164E+02  0.25842732609E+02 -0.22269612884E+03  0.23764509238E+03  0.00000000000E+00 0. -1.
</event>
<event>
 7    1  0.5562528E-006  0.8368266E+02  0.7818608E-02  0.1413754E+00
          2   -1    0    0  502    0  0.00000000000E+00  0.00000000000E+00  0.14600910217E+04  0.14600910217E+04  0.00000000000E+00 0. -1.
          1   -1    0    0  501    0 -0.00000000000E+00 -0.00000000000E+00 -0.38051411853E+02  0.38051411853E+02  0.00000000000E+00 0. -1.
         25    2    1    2    0    0  0.50720453519E+02  0.57707885074E+02  0.89859383525E+03  0.91049268794E+03  0.12499315843E+03 0.  0.
          2    1    1    2  501    0 -0.21418200897E+02 -0.81846644465E+02  0.25645938444E+02  0.88404336424E+02  0.00000000000E+00 0. -1.
          1    1    1    2  502    0 -0.29302252622E+02  0.24138759391E+02  0.49779983619E+03  0.49924540922E+03  0.00000000000E+00 0. -1.
         22    1    3    3    0    0  0.22338943007E+02  0.46866609514E+02  0.85908809368E+03  0.86065548285E+03  0.00000000000E+00 0.  1.
         22    1    3    3    0    0  0.28381510512E+02  0.10841275560E+02  0.39505741566E+02  0.49837205092E+02  0.00000000000E+00 0.  1.
</event>
<event>
 7    1  0.5562528E-006  0.3715894E+02  0.7818608E-02  0.1601208E+00
          2   -1    0    0  502    0  0.00000000000E+00  0.00000000000E+00  0.47377435004E+03  0.47377435004E+03  0.00000000000E+00 0. -1.
          1   -1    0    0  501    0 -0.00000000000E+00 -0.00000000000E+00 -0.96282779360E+03  0.96282779360E+03  0.00000000000E+00 0. -1.
         25    2    1    2    0    0  0.10345691673E+02  0.36135777174E+02 -0.50164124764E+02  0.13983904686E+03  0.12500276751E+03 0.  0.
          2    1    1    2  501    0  0.19389079939E+02 -0.13750043873E+02 -0.86685559619E+03  0.86718142552E+03  0.00000000000E+00 0. -1.
          1    1    1    2  502    0 -0.29734771612E+02 -0.22385733301E+02  0.42796627739E+03  0.42958167125E+03  0.00000000000E+00 0. -1.
         22    1    3    3    0    0 -0.43135673927E+01  0.19769996823E+01  0.41059554942E+02  0.41332825254E+02  0.00000000000E+00 0. -1.
         22    1    3    3    0    0  0.14659259066E+02  0.34158777492E+02 -0.91223679706E+02  0.98506221606E+02  0.00000000000E+00 0. -1.
</event>
<event>
 7    1  0.5562528E-006  0.1912490E+03  0.7818608E-02  0.1239949E+00
          2   -1    0    0  502    0  0.00000000000E+00  0.00000000000E+00  0.30682339573E+04  0.30682339573E+04  0.00000000000E+00 0. -1.
          1   -1    0    0  501    0 -0.00000000000E+00 -0.00000000000E+00 -0.94159220774E+03  0.94159220774E+03  0.00000000000E+00 0. -1.
         25    2    1    2    0    0 -0.20129930884E+03  0.35244146244E+02  0.65007206125E+03  0.69280633452E+03  0.12499348280E+03 0.  0.
          2    1    1    2  501    0  0.14551327887E+02 -0.76360447359E+02 -0.91475999870E+03  0.91805692323E+03  0.00000000000E+00 0. -1.
          1    1    1    2  502    0  0.18674798095E+03  0.41116301115E+02  0.23913296870E+04  0.23989629073E+04  0.00000000000E+00 0. -1.
         22    1    3    3    0    0 -0.16395337084E+02 -0.35698007262E+02  0.76338532701E+02  0.85852934577E+02  0.00000000000E+00 0. -1.
         22    1    3    3    0    0 -0.18490397175E+03  0.70942153506E+02  0.57373352855E+03  0.60695339994E+03  0.00000000000E+00 0. -1.
</event>
<event>
 7    1  0.5562528E-006  0.4457454E+02  0.7818608E-02  0.1520178E+00
          2   -1    0    0  502    0  0.00000000000E+00  0.00000000000E+00  0.47831938928E+03  0.47831938928E+03  0.00000000000E+00 0. -1.
          1   -1    0    0  501    0 -0.00000000000E+00 -0.00000000000E+00 -0.15729085607E+04  0.15729085607E+04  0.00000000000E+00 0. -1.
         25    2    1    2    0    0  0.17199072615E+02 -0.59291899357E+02  0.97085668463E+02  0.16988523943E+03  0.12499612045E+03 0.  0.
          2    1    1    2  501    0  0.11634633873E+02  0.43008796578E+02 -0.15353899061E+04  0.15360362252E+04  0.00000000000E+00 0. -1.
          1    1    1    2  502    0 -0.28833706488E+02  0.16283102779E+02  0.34371506625E+03  0.34530648536E+03  0.00000000000E+00 0. -1.
         22    1    3    3    0    0  0.13271066552E+02  0.35063615446E+02  0.54837749168E+02  0.66428586236E+02  0.00000000000E+00 0. -1.
         22    1    3    3    0    0  0.39280060630E+01 -0.94355514803E+02  0.42247919295E+02  0.10345665319E+03  0.00000000000E+00 0. -1.
</event>
<event>
 7    1  0.5562528E-006  0.9870184E+02  0.7818608E-02  0.1322949E+00
          2   -1    0    0  502    0  0.00000000000E+00  0.00000000000E+00  0.16285761303E+03  0.16285761303E+03  0.00000000000E+00 0. -1.
          1   -1    0    0  501    0 -0.00000000000E+00 -0.00000000000E+00 -0.81530589021E+03  0.81530589021E+03  0.00000000000E+00 0. -1.
         25    2    1    2    0    0  0.12248996312E+03  0.87025180682E+01 -0.21651036166E+03  0.27852661089E+03  0.12498324442E+03 0.  0.
          2    1    1    2  501    0 -0.44880241123E+02  0.51670568593E+02 -0.54702179313E+03  0.55128660955E+03  0.00000000000E+00 0. -1.
          1    1    1    2  502    0 -0.77609721997E+02 -0.60373086661E+02  0.11108387761E+03  0.14835028280E+03  0.00000000000E+00 0. -1.
         22    1    3    3    0    0  0.35237590952E+02 -0.41600367666E+02 -0.20667669834E+02  0.58304639459E+02  0.00000000000E+00 0.  1.
         22    1    3    3    0    0  0.87252372167E+02  0.50302885734E+02 -0.19584269182E+03  0.22022197143E+03  0.00000000000E+00 0.  1.
</event>
<event>
 7    1  0.5562528E-006  0.6432301E+02  0.7818608E-02  0.1516722E+00
          2   -1    0    0  502    0  0.00000000000E+00  0.00000000000E+00  0.15058721941E+04  0.15058721941E+04  0.00000000000E+00 0. -1.
          1   -1    0    0  501    0 -0.00000000000E+00 -0.00000000000E+00 -0.57305614506E+03  0.57305614506E+03  0.00000000000E+00 0. -1.
         25    2    1    2    0    0 -0.41809238633E+02  0.64787524711E+02 -0.94396490616E+02  0.17458920288E+03  0.12500102611E+03 0.  0.
          2    1    1    2  501    0 -0.66197237957E+01 -0.22532507275E+02 -0.43754369214E+03  0.43817350120E+03  0.00000000000E+00 0. -1.
          1    1    1    2  502    0  0.48428962429E+02 -0.42255017436E+02  0.14647562318E+04  0.14661656351E+04  0.00000000000E+00 0. -1.
         22    1    3    3    0    0 -0.12490783217E+02  0.98234724903E+02 -0.47073107776E+02  0.10964469124E+03  0.00000000000E+00 0. -1.
         22    1    3    3    0    0 -0.29318455416E+02 -0.33447200192E+02 -0.47323382840E+02  0.64944511640E+02  0.00000000000E+00 0. -1.
</event>
<event>
 7    1  0.5562528E-006  0.6785918E+02  0.7818608E-02  0.1428835E+00
          2   -1    0    0  502    0  0.00000000000E+00  0.00000000000E+00  0.37022978893E+03  0.37022978893E+03  0.00000000000E+00 0. -1.
          1   -1    0    0  501    0 -0.00000000000E+00 -0.00000000000E+00 -0.54935317057E+03  0.54935317057E+03  0.00000000000E+00 0. -1.
         25    2    1    2    0    0 -0.29628104563E+02 -0.27739440262E+02  0.26270251455E+03  0.29374170585E+03  0.12499710988E+03 0.  0.
          2    1    1    2  501    0  0.14454198641E+02  0.66579775321E+02 -0.52679982903E+03  0.53118720825E+03  0.00000000000E+00 0. -1.
          1    1    1    2  502    0  0.15173905922E+02 -0.38840335059E+02  0.84973932834E+02  0.94654045396E+02  0.00000000000E+00 0. -1.
         22    1    3    3    0    0 -0.73168556924E+01  0.10054380656E+02  0.24672133942E+03  0.24703450422E+03  0.00000000000E+00 0. -1.
         22    1    3    3    0    0 -0.22311248870E+02 -0.37793820918E+02  0.15981175128E+02  0.46707201631E+02  0.00000000000E+00 0. -1.
</event>
<event>
 7    1  0.5562528E-006  0.6887442E+02  0.7818608E-02  0.1449687E+00
          2   -1    0    0  502    0  0.00000000000E+00  0.00000000000E+00  0.42025917958E+03  0.42025917958E+03  0.00000000000E+00 0. -1.
          1   -1    0    0  501    0 -0.00000000000E+00 -0.00000000000E+00 -0.22475046657E+03  0.22475046657E+03  0.00000000000E+00 0. -1.
         25    2    1    2    0    0 -0.17806063829E+02  0.41503556059E+02 -0.24506554786E+02  0.13514830893E+03  0.12499957242E+03 0.  0.
          2    1    1    2  501    0  0.20570521825E+02  0.28502602366E+02 -0.13935792756E+03  0.14372256846E+03  0.00000000000E+00 0. -1.
          1    1    1    2  502    0 -0.27644579961E+01 -0.70006158425E+02  0.35937319536E+03  0.36613876876E+03  0.00000000000E+00 0. -1.
         22    1    3    3    0    0 -0.55805790848E+02  0.50690178739E+02 -0.48155074843E+02  0.89457765151E+02  0.00000000000E+00 0. -1.
         22    1    3    3    0    0  0.37999727019E+02 -0.91866226795E+01  0.23648520056E+02  0.45690543777E+02  0.00000000000E+00 0. -1.
</event>
<event>
 7    1  0.5562528E-006  0.2226201E+03  0.7818608E-02  0.1317874E+00
          2   -1    0    0  502    0  0.00000000000E+00  0.00000000000E+00  0.50557130347E+03  0.50557130347E+03  0.00000000000E+00 0. -1.
          1   -1    0    0  501    0 -0.00000000000E+00 -0.00000000000E+00 -0.15222021023E+04  0.15222021023E+04  0.00000000000E+00 0. -1.
         25    2    1    2    0    0  0.20160299421E+03 -0.25149784771E+02  0.71377231968E+02  0.24898664988E+03  0.12499345433E+03 0.  0.
          2    1    1    2  501    0 -0.21746536481E+03  0.52654106882E+02 -0.14239125697E+04  0.14413849750E+04  0.00000000000E+00 0. -1.
          1    1    1    2  502    0  0.15862370599E+02 -0.27504322111E+02  0.33590453890E+03  0.33740178095E+03  0.00000000000E+00 0. -1.
         22    1    3    3    0    0  0.16942924714E+03  0.32157358830E+02  0.45506572036E+02  0.17835698364E+03  0.00000000000E+00 0. -1.
         22    1    3    3    0    0  0.32173747067E+02 -0.57307143600E+02  0.25870659932E+02  0.70629666241E+02  0.00000000000E+00 0. -1.
</event>
<event>
 7    1  0.5562528E-006  0.8056214E+02  0.7818608E-02  0.1433814E+00
          2   -1    0    0  502    0  0.00000000000E+00  0.00000000000E+00  0.14533847308E+03  0.14533847308E+03  0.00000000000E+00 0. -1.
          1   -1    0    0  501    0 -0.00000000000E+00 -0.00000000000E+00 -0.25097514430E+03  0.25097514430E+03  0.00000000000E+00 0. -1.
         25    2    1    2    0    0  0.82913344238E+01  0.53633533952E+02  0.76310251846E+01  0.13648201849E+03  0.12499522645E+03 0.  0.
          2    1    1    2  501    0  0.65053944513E+01 -0.84051000291E+02 -0.17228692459E+03  0.19180634815E+03  0.00000000000E+00 0. -1.
          1    1    1    2  502    0 -0.14796728875E+02  0.30417466338E+02  0.59019228182E+02  0.68025250746E+02  0.00000000000E+00 0. -1.
         22    1    3    3    0    0 -0.15255485599E+02  0.83082445867E+02  0.33375626390E+02  0.90825960436E+02  0.00000000000E+00 0. -1.
         22    1    3    3    0    0  0.23546820022E+02 -0.29448911915E+02 -0.25744601205E+02  0.45656058057E+02  0.00000000000E+00 0. -1.
</event>
<event>
 7    1  0.5562528E-006  0.8408061E+02  0.7818608E-02  0.1335093E+00
          2   -1    0    0  502    0  0.00000000000E+00  0.00000000000E+00  0.13932528131E+04  0.13932528131E+04  0.00000000000E+00 0. -1.
          1   -1    0    0  501    0 -0.00000000000E+00 -0.00000000000E+00 -0.37360864026E+03  0.37360864026E+03  0.00000000000E+00 0. -1.
         25    2    1    2    0    0 -0.15441460957E+00 -0.18121122142E+02  0.37305908257E+02  0.13170809372E+03  0.12500756877E+03 0.  0.
          2    1    1    2  501    0  0.31678838056E+02  0.83064356790E+02 -0.31933560893E+03  0.33147921093E+03  0.00000000000E+00 0. -1.
          1    1    1    2  502    0 -0.31524423446E+02 -0.64943234649E+02  0.13016738736E+04  0.13036741487E+04  0.00000000000E+00 0. -1.
         22    1    3    3    0    0  0.27253654207E+01 -0.19095340881E+02  0.83355549922E+02  0.85558210377E+02  0.00000000000E+00 0. -1.
         22    1    3    3    0    0 -0.28797800303E+01  0.97421873918E+00 -0.46049641666E+02  0.46149883344E+02  0.00000000000E+00 0. -1.
</event>
<event>
 7    1  0.6887460E-006  0.1257274E+03  0.7818608E-02  0.1414889E+00
          2   -1    0    0  502    0  0.00000000000E+00  0.00000000000E+00  0.14383720484E+04  0.14383720484E+04  0.00000000000E+00 0. -1.
          1   -1    0    0  501    0 -0.00000000000E+00 -0.00000000000E+00 -0.11927616816E+04  0.11927616816E+04  0.00000000000E+00 0. -1.
         25    2    1    2    0    0 -0.11869644278E+03 -0.16949323588E+01 -0.47383475560E+03  0.50421830050E+03  0.12500000247E+03 0.  0.
          2    1    1    2  501    0 -0.49909112508E+01  0.24544900609E+02 -0.70073185713E+03  0.70117936146E+03  0.00000000000E+00 0. -1.
          1    1    1    2  502    0  0.12368735403E+03 -0.22849968250E+02  0.14201769795E+04  0.14257360680E+04  0.00000000000E+00 0. -1.
         22    1    3    3    0    0 -0.24495393146E+02  0.55566507279E+02 -0.13849848056E+03  0.15122661847E+03  0.00000000000E+00 0.  1.
         22    1    3    3    0    0 -0.94201049635E+02 -0.57261439638E+02 -0.33533627504E+03  0.35299168202E+03  0.00000000000E+00 0.  1.
</event>
<event>
 7    1  0.5562528E-006  0.5378035E+02  0.7818608E-02  0.1429767E+00
          2   -1    0    0  502    0  0.00000000000E+00  0.00000000000E+00  0.17570516028E+04  0.17570516028E+04  0.00000000000E+00 0. -1.
          1   -1    0    0  501    0 -0.00000000000E+00 -0.00000000000E+00 -0.85932540442E+03  0.85932540442E+03  0.00000000000E+00 0. -1.
         25    2    1    2    0    0 -0.34068628653E+02 -0.10408942217E+00  0.12779046429E+04  0.12844561548E+04  0.12500662002E+03 0.  0.
          2    1    1    2  501    0 -0.28436564312E+02 -0.43827565041E+02 -0.85217807250E+03  0.85377805131E+03  0.00000000000E+00 0. -1.
          1    1    1    2  502    0  0.62505192965E+02  0.43931654463E+02  0.47199962797E+03  0.47814280107E+03  0.00000000000E+00 0. -1.
         22    1    3    3    0    0 -0.20653516075E+02 -0.57801470352E+02  0.88330182718E+03  0.88543192601E+03  0.00000000000E+00 0.  1.
         22    1    3    3    0    0 -0.13415112578E+02  0.57697380930E+02  0.39460281572E+03  0.39902422883E+03  0.00000000000E+00 0.  1.
</event>
<event>
 7    1  0.5562528E-006  0.2618431E+03  0.7818608E-02  0.1319424E+00
          2   -1    0    0  502    0  0.00000000000E+00  0.00000000000E+00  0.40502879414E+04  0.40502879414E+04  0.00000000000E+00 0. -1.
          1   -1    0    0  501    0 -0.00000000000E+00 -0.00000000000E+00 -0.30515981484E+03  0.30515981484E+03  0.00000000000E+00 0. -1.
         25    2    1    2    0    0  0.15918623757E+03  0.17461247551E+03  0.59780836464E+02  0.27391326755E+03  0.12499981959E+03 0.  0.
          2    1    1    2  501    0  0.17869665144E+02  0.19734060105E+02 -0.19272789689E+03  0.19455796129E+03  0.00000000000E+00 0. -1.
          1    1    1    2  502    0 -0.17705590272E+03 -0.19434653561E+03  0.38780751870E+04  0.38869765274E+04  0.00000000000E+00 0. -1.
         22    1    3    3    0    0  0.14002374573E+03  0.66169002877E+02  0.52585463016E+02  0.16355493643E+03  0.00000000000E+00 0.  1.
         22    1    3    3    0    0  0.19162491846E+02  0.10844347263E+03  0.71953734476E+01  0.11035833112E+03  0.00000000000E+00 0.  1.
</event>
<event>
 7    1  0.5562528E-006  0.8911872E+02  0.7818608E-02  0.1401382E+00
          2   -1    0    0  502    0  0.00000000000E+00  0.00000000000E+00  0.13348791350E+04  0.13348791350E+04  0.00000000000E+00 0. -1.
          1   -1    0    0  501    0 -0.00000000000E+00 -0.00000000000E+00 -0.11212367296E+03  0.11212367296E+03  0.00000000000E+00 0. -1.
         25    2    1    2    0    0  0.50671213707E+02 -0.37876038767E+02  0.11951170485E+03  0.18414702788E+03  0.12499965628E+03 0.  0.
          2    1    1    2  501    0 -0.27463549573E+01 -0.39179169855E+02 -0.73118302651E+02  0.82999012034E+02  0.00000000000E+00 0. -1.
          1    1    1    2  502    0 -0.47924858750E+02  0.77055208622E+02  0.11763620598E+04  0.11798567680E+04  0.00000000000E+00 0. -1.
         22    1    3    3    0    0  0.54575342334E+02 -0.77040603163E+02  0.10733150423E+03  0.14294675347E+03  0.00000000000E+00 0. -1.
         22    1    3    3    0    0 -0.39041286274E+01  0.39164564396E+02  0.12180200615E+02  0.41200274412E+02  0.00000000000E+00 0. -1.
</event>
