<event>
 7    1  0.5622879E-006  0.5920464E+02  0.7818608E-02  0.1542534E+00
          2   -1    0    0  502    0  0.00000000000E+00  0.00000000000E+00  0.10645726736E+03  0.10645726736E+03  0.00000000000E+00 0. -1.
          1   -1    0    0  501    0 -0.00000000000E+00 -0.00000000000E+00 -0.14607660723E+04  0.14607660723E+04  0.00000000000E+00 0. -1.
         25    2    1    2    0    0 -0.55296145918E+02  0.54095619990E+02 -0.60485446297E+03  0.62246154121E+03  0.12500179620E+03 0.  0.
          2    1    1    2  501    0  0.45269819898E+02 -0.35056173695E+02 -0.84494194551E+03  0.84687967457E+03  0.00000000000E+00 0. -1.
          1    1    1    2  502    0  0.10026326020E+02 -0.19039446295E+02  0.95487603586E+02  0.97882123839E+02  0.00000000000E+00 0. -1.
         22    1    3    3    0    0 -0.58454430310E+02 -0.24754253317E+02 -0.19477964088E+03  0.20486288580E+03  0.00000000000E+00 0.  1.
         22    1    3    3    0    0  0.31582843915E+01  0.78849873308E+02 -0.41007482210E+03  0.41759865541E+03  0.00000000000E+00 0.  1.
</event>
<event>
 7    1  0.5622879E-006  0.1291615E+03  0.7818608E-02  0.1421029E+00
          2   -1    0    0  502    0  0.00000000000E+00  0.00000000000E+00  0.15441673228E+03  0.15441673228E+03  0.00000000000E+00 0. -1.
          1   -1    0    0  501    0 -0.00000000000E+00 -0.00000000000E+00 -0.63868605659E+03  0.63868605659E+03  0.00000000000E+00 0. -1.
         25    2    1    2    0    0  0.14001231484E+03 -0.19625946889E+02 -0.38292533095E+03  0.42690274837E+03  0.12500208552E+03 0.  0.
          2    1    1    2  501    0 -0.11691951205E+02  0.20100425187E+02 -0.20186162033E+03  0.20319656144E+03  0.00000000000E+00 0. -1.
          1    1    1    2  502    0 -0.12832036363E+03 -0.47447829811E+00  0.10051762698E+03  0.16300347906E+03  0.00000000000E+00 0. -1.
         22    1    3    3    0    0  0.72564174587E+02 -0.23616127095E+02 -0.33620551563E+03  0.34475705886E+03  0.00000000000E+00 0.  1.
         22    1    3    3    0    0  0.67448140254E+02  0.39901802069E+01 -0.46719815322E+02  0.82145689513E+02  0.00000000000E+00 0.  1.
</event>
<event>
 7    1  0.5622879E-006  0.9546708E+02  0.7818608E-02  0.1460379E+00
          2   -1    0    0  502    0  0.00000000000E+00  0.00000000000E+00  0.17268583209E+04  0.17268583209E+04  0.00000000000E+00 0. -1.
          1   -1    0    0  501    0 -0.00000000000E+00 -0.00000000000E+00 -0.24818478273E+02  0.24818478273E+02  0.00000000000E+00 0. -1.
         25    2    1    2    0    0  0.68699039898E+02  0.59026533400E+02  0.97035865233E+03  0.98256001376E+03  0.12499830708E+03 0.  0.
          2    1    1    2  501    0 -0.86119404623E+02 -0.43326484428E+02  0.10710863063E+03  0.14410411119E+03  0.00000000000E+00 0. -1.
          1    1    1    2  502    0  0.17420364725E+02 -0.15700048972E+02  0.62457255969E+03  0.62501267425E+03  0.00000000000E+00 0. -1.
         22    1    3    3    0    0  0.26048606916E+02 -0.39225753981E+02  0.31777009984E+03  0.32123982638E+03  0.00000000000E+00 0.  1.
         22    1    3    3    0    0  0.42650432982E+02  0.98252287381E+02  0.65258855248E+03  0.66132018739E+03  0.00000000000E+00 0.  1.
</event>
<event>
 7    1  0.5622879E-006  0.1261614E+03  0.7818608E-02  0.1375497E+00
          2   -1    0    0  502    0  0.00000000000E+00  0.00000000000E+00  0.27764531817E+04  0.27764531817E+04  0.00000000000E+00 0. -1.
          1   -1    0    0  501    0 -0.00000000000E+00 -0.00000000000E+00 -0.22774183259E+03  0.22774183259E+03  0.00000000000E+00 0. -1.
         25    2    1    2    0    0 -0.69731143555E+02 -0.11774382601E+03  0.24145317515E+03  0.30438785280E+03  0.12500515268E+03 0.  0.
          2    1    1    2  501    0  0.88512401896E+02  0.89192488151E+02 -0.17603305251E+03  0.21628079159E+03  0.00000000000E+00 0. -1.
          1    1    1    2  502    0 -0.18781258341E+02  0.28551337856E+02  0.24832912265E+04  0.24835263699E+04  0.00000000000E+00 0. -1.
         22    1    3    3    0    0  0.24497346288E+02  0.95867122902E+01  0.43789151977E+02  0.51083410796E+02  0.00000000000E+00 0. -1.
         22    1    3    3    0    0 -0.94228489843E+02 -0.12733053830E+03  0.19766402318E+03  0.25330444201E+03  0.00000000000E+00 0. -1.
</event>
<event>
 7    1  0.5622879E-006  0.1291648E+03  0.7818608E-02  0.1371227E+00
          2   -1    0    0  502    0  0.00000000000E+00  0.00000000000E+00  0.76470820470E+03  0.76470820470E+03  0.00000000000E+00 0. -1.
          1   -1    0    0  501    0 -0.00000000000E+00 -0.00000000000E+00 -0.29170685447E+03  0.29170685447E+03  0.00000000000E+00 0. -1.
         25    2    1    2    0    0  0.13701746799E+03  0.21287535079E+02  0.20616127637E+03  0.27812548508E+03  0.12499747154E+03 0.  0.
          2    1    1    2  501    0 -0.19337897698E+02  0.28661444331E+02 -0.24668222106E+03  0.24909345809E+03  0.00000000000E+00 0. -1.
          1    1    1    2  502    0 -0.11767957029E+03 -0.49948979410E+02  0.51352229492E+03  0.52919611600E+03  0.00000000000E+00 0. -1.
         22    1    3    3    0    0  0.37272315984E+02  0.20247799283E+02 -0.68015894614E+01  0.42958823701E+02  0.00000000000E+00 0.  1.
         22    1    3    3    0    0  0.99745152009E+02  0.10397357960E+01  0.21296286583E+03  0.23516666137E+03  0.00000000000E+00 0.  1.
</event>
<event>
 7    1  0.5622879E-006  0.1135552E+03  0.7818608E-02  0.1340442E+00
          2   -1    0    0  502    0  0.00000000000E+00  0.00000000000E+00  0.30138864935E+03  0.30138864935E+03  0.00000000000E+00 0. -1.
          1   -1    0    0  501    0 -0.00000000000E+00 -0.00000000000E+00 -0.57026063997E+03  0.57026063997E+03  0.00000000000E+00 0. -1.
         25    2    1    2    0    0 -0.14827331097E+03 -0.21276807801E+01 -0.19770569264E+03  0.27695002960E+03  0.12499710487E+03 0.  0.
          2    1    1    2  501    0  0.41019791166E+02 -0.30344677555E+02 -0.31881725261E+03  0.32287437694E+03  0.00000000000E+00 0. -1.
          1    1    1    2  502    0  0.10725351980E+03  0.32472358336E+02  0.24765095463E+03  0.27182488277E+03  0.00000000000E+00 0. -1.
         22    1    3    3    0    0 -0.66545148720E+02 -0.55219998722E+02 -0.13738624923E+03  0.16233448973E+03  0.00000000000E+00 0. -1.
         22    1    3    3    0    0 -0.81728162246E+02  0.53092317942E+02 -0.60319443407E+02  0.11461553988E+03  0.00000000000E+00 0. -1.
</event>
<event>
 7    1  0.5622879E-006  0.1015688E+03  0.7818608E-02  0.1420105E+00
          2   -1    0    0  502    0  0.00000000000E+00  0.00000000000E+00  0.39320903310E+03  0.39320903310E+03  0.00000000000E+00 0. -1.
          1   -1    0    0  501    0 -0.00000000000E+00 -0.00000000000E+00 -0.49721151429E+03  0.49721151429E+03  0.00000000000E+00 0. -1.
         25    2    1    2    0    0  0.43707194502E+02 -0.10991320616E+03 -0.10468894240E+02  0.17241729983E+03  0.12500758294E+03 0.  0.
          2    1    1    2  501    0 -0.27724226885E+02  0.10876408983E+02 -0.39713862984E+03  0.39825371353E+03  0.00000000000E+00 0. -1.
          1    1    1    2  502    0 -0.15982967617E+02  0.99036797182E+02  0.30360504288E+03  0.31974953403E+03  0.00000000000E+00 0. -1.
         22    1    3    3    0    0  0.10123149709E+02 -0.11061653334E+03  0.34476402105E+02  0.11630613875E+03  0.00000000000E+00 0. -1.
         22    1    3    3    0    0  0.33584044793E+02  0.70332717969E+00 -0.44945296345E+02  0.56111161076E+02  0.00000000000E+00 0. -1.
</event>
<event>
 7    1  0.5622879E-006  0.8706559E+02  0.7818608E-02  0.1434889E+00
          2   -1    0    0  502    0  0.00000000000E+00  0.00000000000E+00  0.36766189689E+02  0.36766189689E+02  0.00000000000E+00 0. -1.
          1   -1    0    0  501    0 -0.00000000000E+00 -0.00000000000E+00 -0.11619321903E+04  0.11619321903E+04  0.00000000000E+00 0. -1.
         25    2    1    2    0    0  0.82914880742E+02  0.41308470915E+01 -0.18124541164E+03  0.23530120265E+03  0.12499926153E+03 0.  0.
          2    1    1    2  501    0  0.45988542339E+01  0.30703942878E+02 -0.71742710952E+03  0.71809855803E+03  0.00000000000E+00 0. -1.
          1    1    1    2  502    0 -0.87513734976E+02 -0.34834789969E+02 -0.22649347948E+03  0.24529861934E+03  0.00000000000E+00 0. -1.
         22    1    3    3    0    0  0.21069246868E+02 -0.56789281094E+02 -0.96825858764E+02  0.11421113140E+03  0.00000000000E+00 0.  1.
         22    1    3    3    0    0  0.61845633874E+02  0.60920128185E+02 -0.84419552872E+02  0.12109007125E+03  0.00000000000E+00 0.  1.
</event>
<event>
 7    1  0.5622879E-006  0.6031984E+02  0.7818608E-02  0.1495822E+00
          2   -1    0    0  502    0  0.00000000000E+00  0.00000000000E+00  0.53792294325E+03  0.53792294325E+03  0.00000000000E+00 0. -1.
          1   -1    0    0  501    0 -0.00000000000E+00 -0.00000000000E+00 -0.13572738741E+04  0.13572738741E+04  0.00000000000E+00 0. -1.
         25    2    1    2    0    0  0.38193641257E+02 -0.16247493265E+02 -0.90062186311E+02  0.15955724389E+03  0.12499832561E+03 0.  0.
          2    1    1    2  501    0  0.24495789203E+01 -0.28771529021E+02 -0.12304664748E+04  0.12308052433E+04  0.00000000000E+00 0. -1.
          1    1    1    2  502    0 -0.40643220177E+02  0.45019022287E+02  0.50117773021E+03  0.50483433022E+03  0.00000000000E+00 0. -1.
         22    1    3    3    0    0 -0.28440379316E+02 -0.23507931034E+02 -0.84612189083E+02  0.92307640738E+02  0.00000000000E+00 0. -1.
         22    1    3    3    0    0  0.66634020573E+02  0.72604377684E+01 -0.54499972281E+01  0.67249603152E+02  0.00000000000E+00 0. -1.
</event>
<event>
 7    1  0.5622879E-006  0.1886033E+03  0.7818608E-02  0.1263078E+00
          2   -1    0    0  502    0  0.00000000000E+00  0.00000000000E+00  0.23313210714E+04  0.23313210714E+04  0.00000000000E+00 0. -1.
          1   -1    0    0  501    0 -0.00000000000E+00 -0.00000000000E+00 -0.30730226601E+03  0.30730226601E+03  0.00000000000E+00 0. -1.
         25    2    1    2    0    0 -0.15792390465E+03  0.16403736910E+03  0.29101465976E+03  0.39008447271E+03  0.12501258150E+03 0.  0.
          2    1    1    2  501    0  0.24828986099E+01 -0.62549096040E+02 -0.24956574881E+03  0.25729674926E+03  0.00000000000E+00 0. -1.
          1    1    1    2  502    0  0.15544100604E+03 -0.10148827306E+03  0.19825698945E+04  0.19912421154E+04  0.00000000000E+00 0. -1.
         22    1    3    3    0    0  0.16830694617E+02  0.33586494483E+02  0.21118229008E+02  0.43096455647E+02  0.00000000000E+00 0. -1.
         22    1    3    3    0    0 -0.17475459926E+03  0.13045087462E+03  0.26989643075E+03  0.34698801706E+03  0.00000000000E+00 0. -1.
</event>
<event>
 7    1  0.5622879E-006  0.7301199E+02  0.7818608E-02  0.1450505E+00
          2   -1    0    0  502    0  0.00000000000E+00  0.00000000000E+00  0.11001140526E+03  0.11001140526E+03  0.00000000000E+00 0. -1.
          1   -1    0    0  501    0 -0.00000000000E+00 -0.00000000000E+00 -0.39363349284E+03  0.39363349284E+03  0.00000000000E+00 0. -1.
         25    2    1    2    0    0  0.32565984906E+02  0.36201089682E+02  0.45574377962E+01  0.13422910691E+03  0.12500248251E+03 0.  0.
          2    1    1    2  501    0 -0.28760528620E+02 -0.68939923922E+02 -0.31696985734E+03  0.32565283905E+03  0.00000000000E+00 0. -1.
          1    1    1    2  502    0 -0.38054562862E+01  0.32738834241E+02  0.28790331972E+02  0.43762952140E+02  0.00000000000E+00 0. -1.
         22    1    3    3    0    0  0.27648377510E+02  0.37196308160E+01  0.62038628972E+02  0.68022495669E+02  0.00000000000E+00 0. -1.
         22    1    3    3    0    0  0.49176073961E+01  0.32481458866E+02 -0.57481191176E+02  0.66206611237E+02  0.00000000000E+00 0. -1.
</event>
<event>
 7    1  0.5622879E-006  0.9420029E+02  0.7818608E-02  0.1349946E+00
          2   -1    0    0  502    0  0.00000000000E+00  0.00000000000E+00  0.61791067991E+02  0.61791067991E+02  0.00000000000E+00 0. -1.
          1   -1    0    0  501    0 -0.00000000000E+00 -0.00000000000E+00 -0.17094215339E+04  0.17094215339E+04  0.00000000000E+00 0. -1.
         25    2    1    2    0    0 -0.88890826071E+02 -0.93463235315E+02 -0.21587051345E+03  0.28082410032E+03  0.12500056572E+03 0.  0.
          2    1    1    2  501    0  0.54988479045E+02  0.13758305385E+02 -0.13952364115E+04  0.13963873631E+04  0.00000000000E+00 0. -1.
          1    1    1    2  502    0  0.33902347025E+02  0.79704929929E+02 -0.36523540931E+02  0.94001138456E+02  0.00000000000E+00 0. -1.
         22    1    3    3    0    0 -0.27752587533E+02  0.27088584858E+02 -0.81366273269E+02  0.90135830667E+02  0.00000000000E+00 0. -1.
         22    1    3    3    0    0 -0.61138238538E+02 -0.12055182017E+03 -0.13450424018E+03  0.19068826965E+03  0.00000000000E+00 0. -1.
</event>
<event>
 7    1  0.5622879E-006  0.5837236E+02  0.7818608E-02  0.1492947E+00
          2   -1    0    0  502    0  0.00000000000E+00  0.00000000000E+00  0.10747279637E+04  0.10747279637E+04  0.00000000000E+00 0. -1.
          1   -1    0    0  501    0 -0.00000000000E+00 -0.00000000000E+00 -0.15143412455E+04  0.15143412455E+04  0.00000000000E+00 0. -1.
         25    2    1    2    0    0  0.53295123457E+02  0.27973455003E+02  0.58285024607E+03  0.59913622352E+03  0.12500768225E+03 0.  0.
          2    1    1    2  501    0  0.60781490312E+01 -0.29825776133E+02 -0.15042200729E+04  0.15045280152E+04  0.00000000000E+00 0. -1.
          1    1    1    2  502    0 -0.59373272488E+02  0.18523211294E+01  0.48175654511E+03  0.48540497044E+03  0.00000000000E+00 0. -1.
         22    1    3    3    0    0 -0.69712578105E+01 -0.27485674161E+02  0.36980705439E+03  0.37089259658E+03  0.00000000000E+00 0. -1.
         22    1    3    3    0    0  0.60266381267E+02  0.55459129164E+02  0.21304319168E+03  0.22824362694E+03  0.00000000000E+00 0. -1.
</event>
<event>
 7    1  0.5622879E-006  0.9512036E+02  0.7818608E-02  0.1359065E+00
          2   -1    0    0  502    0  0.00000000000E+00  0.00000000000E+00  0.22309148018E+04  0.22309148018E+04  0.00000000000E+00 0. -1.
          1   -1    0    0  501    0 -0.00000000000E+00 -0.00000000000E+00 -0.74811756252E+02  0.74811756252E+02  0.00000000000E+00 0. -1.
         25    2    1    2    0    0  0.71051091724E+02  0.39435152584E+02  0.12681809478E+04  0.12769148098E+04  0.12500050548E+03 0.  0.
          2    1    1    2  501    0 -0.95596580815E+02  0.63628623111E+01 -0.36798839303E+02  0.10263209466E+03  0.00000000000E+00 0. -1.
          1    1    1    2  502    0  0.24545489091E+02 -0.45798014895E+02  0.92472093705E+03  0.92617965353E+03  0.00000000000E+00 0. -1.
         22    1    3    3    0    0  0.95267507859E+02  0.19432721848E+02  0.11652226293E+04  0.11692721260E+04  0.00000000000E+00 0.  1.
         22    1    3    3    0    0 -0.24216416135E+02  0.20002430737E+02  0.10295831846E+03  0.10764268385E+03  0.00000000000E+00 0.  1.
</event>
<event>
 7    1  0.5622879E-006  0.1245949E+03  0.7818608E-02  0.1267892E+00
          2   -1    0    0  502    0  0.00000000000E+00  0.00000000000E+00  0.13162657320E+04  0.13162657320E+04  0.00000000000E+00 0. -1.
          1   -1    0    0  501    0 -0.00000000000E+00 -0.00000000000E+00 -0.16627297931E+04  0.16627297931E+04  0.00000000000E+00 0. -1.
         25    2    1    2    0    0 -0.15126916668E+02  0.35989819921E+02  0.16564440307E+03  0.21115723835E+03  0.12500088117E+03 0.  0.
          2    1    1    2  501    0  0.87243822699E+02 -0.90526319162E+02 -0.16357451847E+04  0.16405696597E+04  0.00000000000E+00 0. -1.
          1    1    1    2  502    0 -0.72116906030E+02  0.54536499241E+02  0.11236367205E+04  0.11272686271E+04  0.00000000000E+00 0. -1.
         22    1    3    3    0    0 -0.12443428445E+02 -0.33501370897E+02  0.12629404281E+03  0.13125306097E+03  0.00000000000E+00 0. -1.
         22    1    3    3    0    0 -0.26834882236E+01  0.69491190819E+02  0.39350360252E+02  0.79904177378E+02  0.00000000000E+00 0. -1.
</event>
<event>
 7    1  0.5622879E-006  0.6429261E+02  0.7818608E-02  0.1467421E+00
          2   -1    0    0  502    0  0.00000000000E+00  0.00000000000E+00  0.20529800174E+04  0.20529800174E+04  0.00000000000E+00 0. -1.
          1   -1    0    0  501    0 -0.00000000000E+00 -0.00000000000E+00 -0.80467092659E+03  0.80467092659E+03  0.00000000000E+00 0. -1.
         25    2    1    2    0    0  0.26882764651E+02  0.93066927911E+02  0.31954587576E+02  0.16133773133E+03  0.12499852710E+03 0.  0.
          2    1    1    2  501    0 -0.16256268757E+02 -0.61724091967E+02 -0.73846259406E+03  0.74121598244E+03  0.00000000000E+00 0. -1.
          1    1    1    2  502    0 -0.10626495894E+02 -0.31342835944E+02  0.19548170973E+04  0.19550972302E+04  0.00000000000E+00 0. -1.
         22    1    3    3    0    0  0.66351071407E+02  0.56247189340E+02 -0.16812518601E+02  0.88593858519E+02  0.00000000000E+00 0.  1.
         22    1    3    3    0    0 -0.39468306756E+02  0.36819738571E+02  0.48767106177E+02  0.72743872811E+02  0.00000000000E+00 0.  1.
</event>
<event>
 7    1  0.5622879E-006  0.1766810E+03  0.7818608E-02  0.1311975E+00
          2   -1    0    0  502    0  0.00000000000E+00  0.00000000000E+00  0.84224262705E+02  0.84224262705E+02  0.00000000000E+00 0. -1.
          1   -1    0    0  501    0 -0.00000000000E+00 -0.00000000000E+00 -0.15548408114E+04  0.15548408114E+04  0.00000000000E+00 0. -1.
         25    2    1    2    0    0  0.95262457556E+02  0.18782921208E+03 -0.53074271952E+03  0.58452181668E+03  0.12499268427E+03 0.  0.
          2    1    1    2  501    0 -0.12992742517E+02 -0.40137968135E+02 -0.87095464167E+03  0.87197583435E+03  0.00000000000E+00 0. -1.
          1    1    1    2  502    0 -0.82269715040E+02 -0.14769124395E+03 -0.68919187458E+02  0.18256742303E+03  0.00000000000E+00 0. -1.
         22    1    3    3    0    0  0.10047682219E+03  0.19560171083E+03 -0.42642691208E+03  0.47978696567E+03  0.00000000000E+00 0.  1.
         22    1    3    3    0    0 -0.52143646366E+01 -0.77724987435E+01 -0.10431580744E+03  0.10473485102E+03  0.00000000000E+00 0.  1.
</event>
<event>
 7    1  0.5622879E-006  0.8513391E+02  0.7818608E-02  0.1340120E+00
          2   -1    0    0  502    0  0.00000000000E+00  0.00000000000E+00  0.23373031212E+04  0.23373031212E+04  0.00000000000E+00 0. -1.
          1   -1    0    0  501    0 -0.00000000000E+00 -0.00000000000E+00 -0.15190945839E+04  0.15190945839E+04  0.00000000000E+00 0. -1.
         25    2    1    2    0    0  0.10741211601E+03 -0.94186129762E+02  0.10139553425E+04  0.10315717908E+04  0.12500613289E+03 0.  0.
          2    1    1    2  501    0 -0.42270604785E+02  0.73830928991E+02 -0.15082009476E+04  0.15105985266E+04  0.00000000000E+00 0. -1.
          1    1    1    2  502    0 -0.65141511221E+02  0.20355200771E+02  0.13124541424E+04  0.13142273877E+04  0.00000000000E+00 0. -1.
         22    1    3    3    0    0 -0.94037961387E-01 -0.79050718154E+02  0.50661591550E+03  0.51274624399E+03  0.00000000000E+00 0.  1.
         22    1    3    3    0    0  0.10750615397E+03 -0.15135411608E+02  0.50733942701E+03  0.51882554681E+03  0.00000000000E+00 0.  1.
</event>
<event>
 7    1  0.5622879E-006  0.6045850E+02  0.7818608E-02  0.1513670E+00
          2   -1    0    0  502    0  0.00000000000E+00  0.00000000000E+00  0.68831453653E+03  0.68831453653E+03  0.00000000000E+00 0. -1.
          1   -1    0    0  501    0 -0.00000000000E+00 -0.00000000000E+00 -0.17719310926E+04  0.17719310926E+04  0.00000000000E+00 0. -1.
         25    2    1    2    0    0 -0.54475690711E+02 -0.21010613122E+02 -0.46560066556E+03  0.48561018936E+03  0.12499691795E+03 0.  0.
          2    1    1    2  501    0 -0.58839280433E+01  0.24816398342E+02 -0.12948517207E+04  0.12951028734E+04  0.00000000000E+00 0. -1.
          1    1    1    2  502    0  0.60359618754E+02 -0.38057852200E+01  0.67683583022E+03  0.67953256629E+03  0.00000000000E+00 0. -1.
         22    1    3    3    0    0 -0.18476617798E+02  0.47550999777E+02 -0.10434478883E+03  0.11614782796E+03  0.00000000000E+00 0. -1.
         22    1    3    3    0    0 -0.35999072913E+02 -0.68561612898E+02 -0.36125587674E+03  0.36946236140E+03  0.00000000000E+00 0. -1.
</event>
<event>
 7    1  0.5622879E-006  0.6870346E+02  0.7818608E-02  0.1440861E+00
          2   -1    0    0  502    0  0.00000000000E+00  0.00000000000E+00  0.31019925927E+04  0.31019925927E+04  0.00000000000E+00 0. -1.
          1   -1    0    0  501    0 -0.00000000000E+00 -0.00000000000E+00 -0.72456709278E+03  0.72456709278E+03  0.00000000000E+00 0. -1.
         25    2    1    2    0    0 -0.79963790612E+02  0.65619467664E+02  0.35294605554E+03  0.38845317690E+03  0.12499932072E+03 0.  0.
          2    1    1    2  501    0  0.21713524140E+02 -0.30723042291E+02 -0.70589049514E+03  0.70689233522E+03  0.00000000000E+00 0. -1.
          1    1    1    2  502    0  0.58250266472E+02 -0.34896425373E+02  0.27303699395E+04  0.27312141733E+04  0.00000000000E+00 0. -1.
         22    1    3    3    0    0 -0.64685829551E+02  0.84374783718E+02  0.34784600557E+03  0.36373095038E+03  0.00000000000E+00 0.  1.
         22    1    3    3    0    0 -0.15277961061E+02 -0.18755316054E+02  0.51000499646E+01  0.24722226520E+02  0.00000000000E+00 0.  1.
</event>
<event>
 7    1  0.5622879E-006  0.6378494E+02  0.7818608E-02  0.1528861E+00
          2   -1    0    0  502    0  0.00000000000E+00  0.00000000000E+00  0.21473400628E+03  0.21473400628E+03  0.00000000000E+00 0. -1.
          1   -1    0    0  501    0 -0.00000000000E+00 -0.00000000000E+00 -0.18138829245E+03  0.18138829245E+03  0.00000000000E+00 0. -1.
         25    2    1    2    0    0  0.57495137004E+02 -0.77015615430E+01  0.70160611653E+02  0.15463577099E+03  0.12499882165E+03 0.  0.
          2    1    1    2  501    0 -0.62965740416E+02 -0.13445463053E+02 -0.13037699852E+03  0.14540848217E+03  0.00000000000E+00 0. -1.
          1    1    1    2  502    0  0.54706034120E+01  0.21147024596E+02  0.93562100701E+02  0.96078045560E+02  0.00000000000E+00 0. -1.
         22    1    3    3    0    0  0.90984707930E+02 -0.27601433697E+02  0.65377294694E+02  0.11538737748E+03  0.00000000000E+00 0.  1.
         22    1    3    3    0    0 -0.33489570925E+02  0.19899872154E+02  0.47833169595E+01  0.39248393517E+02  0.00000000000E+00 0.  1.
</event>
<event>
 7    1  0.5622879E-006  0.2065618E+03  0.7818608E-02  0.1286575E+00
          2   -1    0    0  502    0  0.00000000000E+00  0.00000000000E+00  0.76102433845E+03  0.76102433845E+03  0.00000000000E+00 0. -1.
          1   -1    0    0  501    0 -0.00000000000E+00 -0.00000000000E+00 -0.16153518349E+04  0.16153518349E+04  0.00000000000E+00 0. -1.
         25    2    1    2    0    0 -0.15509069947E+03 -0.11677309695E+03 -0.27589574168E+03  0.35976784630E+03  0.12500144688E+03 0.  0.
          2    1    1    2  501    0  0.20344686773E+02 -0.40831142826E+02 -0.12821580031E+04  0.12829693034E+04  0.00000000000E+00 0. -1.
          1    1    1    2  502    0  0.13474601270E+03  0.15760423977E+03  0.70372624837E+03  0.73363902362E+03  0.00000000000E+00 0. -1.
         22    1    3    3    0    0 -0.33869212706E+02 -0.85818417629E+02 -0.59421187570E+02  0.10973970068E+03  0.00000000000E+00 0. -1.
         22    1    3    3    0    0 -0.12122148676E+03 -0.30954679318E+02 -0.21647455411E+03  0.25002814562E+03  0.00000000000E+00 0. -1.
</event>
<event>
 7    1  0.5622879E-006  0.2450049E+03  0.7818608E-02  0.1238314E+00
          2   -1    0    0  502    0  0.00000000000E+00  0.00000000000E+00  0.20723964912E+03  0.20723964912E+03  0.00000000000E+00 0. -1.
          1   -1    0    0  501    0 -0.00000000000E+00 -0.00000000000E+00 -0.74811403335E+03  0.74811403335E+03  0.00000000000E+00 0. -1.
         25    2    1    2    0    0  0.85700677128E+02 -0.28347803120E+03 -0.69043378706E+02  0.32877799564E+03  0.12499432806E+03 0.  0.
          2    1    1    2  501    0 -0.73424771702E+02  0.22301558975E+03 -0.50472118940E+03  0.55666024593E+03  0.00000000000E+00 0. -1.
          1    1    1    2  502    0 -0.12275905426E+02  0.60462441450E+02  0.32890183883E+02  0.69915440898E+02  0.00000000000E+00 0. -1.
         22    1    3    3    0    0 -0.35037511773E+00 -0.11397809475E+02 -0.40402199335E+02  0.41980597121E+02  0.00000000000E+00 0.  1.
         22    1    3    3    0    0  0.86051052245E+02 -0.27208022172E+03 -0.28641179371E+02  0.28679739852E+03  0.00000000000E+00 0.  1.
</event>
<event>
 7    1  0.5622879E-006  0.7134972E+02  0.7818608E-02  0.1419073E+00
          2   -1    0    0  502    0  0.00000000000E+00  0.00000000000E+00  0.91250878149E+03  0.91250878149E+03  0.00000000000E+00 0. -1.
          1   -1    0    0  501    0 -0.00000000000E+00 -0.00000000000E+00 -0.31751127830E+02  0.31751127830E+02  0.00000000000E+00 0. -1.
         25    2    1    2    0    0 -0.76768213939E+02 -0.78506643749E+02  0.32606860694E+03  0.36606128870E+03  0.12499391533E+03 0.  0.
          2    1    1    2  501    0  0.31500793147E+02  0.28875506700E+02  0.38071945508E+02  0.57232577181E+02  0.00000000000E+00 0. -1.
          1    1    1    2  502    0  0.45267420792E+02  0.49631137049E+02  0.51661710122E+03  0.52096604344E+03  0.00000000000E+00 0. -1.
         22    1    3    3    0    0 -0.32596031431E+02 -0.10259799824E+03  0.27030861441E+03  0.29095634988E+03  0.00000000000E+00 0.  1.
         22    1    3    3    0    0 -0.44172182508E+02  0.24091354494E+02  0.55759992523E+02  0.75104938820E+02  0.00000000000E+00 0.  1.
</event>
<event>
 7    1  0.5622879E-006  0.3168505E+03  0.7818608E-02  0.1211664E+00
          2   -1    0    0  502    0  0.00000000000E+00  0.00000000000E+00  0.17263279555E+04  0.17263279555E+04  0.00000000000E+00 0. -1.
          1   -1    0    0  501    0 -0.00000000000E+00 -0.00000000000E+00 -0.17889654663E+03  0.17889654663E+03  0.00000000000E+00 0. -1.
         25    2    1    2    0    0  0.24862454280E+03  0.25721442401E+03  0.71027916439E+03  0.80504306713E+03  0.12499770146E+03 0.  0.
          2    1    1    2  501    0 -0.53626944082E+02 -0.32993223036E+02 -0.99374993974E+02  0.11764264246E+03  0.00000000000E+00 0. -1.
          1    1    1    2  502    0 -0.19499759872E+03 -0.22422120097E+03  0.93652723843E+03  0.98253879251E+03  0.00000000000E+00 0. -1.
         22    1    3    3    0    0  0.24031122982E+03  0.22739430213E+03  0.69664872222E+03  0.77121793158E+03  0.00000000000E+00 0. -1.
         22    1    3    3    0    0  0.83133129840E+01  0.29820121877E+02  0.13630442171E+02  0.33825135555E+02  0.00000000000E+00 0. -1.
</event>
<event>
 7    1  0.5622879E-006  0.9666097E+02  0.7818608E-02  0.1338498E+00
          2   -1    0    0  502    0  0.00000000000E+00  0.00000000000E+00  0.96956877155E+02  0.96956877155E+02  0.00000000000E+00 0. -1.
          1   -1    0    0  501    0 -0.00000000000E+00 -0.00000000000E+00 -0.18586749322E+04  0.18586749322E+04  0.00000000000E+00 0. -1.
         25    2    1    2    0    0 -0.20712782473E+02  0.37838184145E+02 -0.29629547212E+03  0.32446391727E+03  0.12500031710E+03 0.  0.
          2    1    1    2  501    0  0.62271488831E+02 -0.82437283289E+02 -0.15351084517E+04  0.15385810354E+04  0.00000000000E+00 0. -1.
          1    1    1    2  502    0 -0.41558706358E+02  0.44599099145E+02  0.69685868794E+02  0.92586856671E+02  0.00000000000E+00 0. -1.
         22    1    3    3    0    0  0.18996825879E+02  0.22707623681E+02 -0.49272797121E+01  0.30013224620E+02  0.00000000000E+00 0.  1.
         22    1    3    3    0    0 -0.39709608352E+02  0.15130560464E+02 -0.29136819241E+03  0.29445069265E+03  0.00000000000E+00 0.  1.
</event>
<event>
 7    1  0.5622879E-006  0.9243445E+02  0.7818608E-02  0.1379645E+00
          2   -1    0    0  502    0  0.00000000000E+00  0.00000000000E+00  0.96753396822E+03  0.96753396822E+03  0.00000000000E+00 0. -1.
          1   -1    0    0  501    0 -0.00000000000E+00 -0.00000000000E+00 -0.44916148055E+02  0.44916148055E+02  0.00000000000E+00 0. -1.
         25    2    1    2    0    0 -0.97555812598E+02 -0.48747407872E+01  0.63297730810E+03  0.65255344785E+03  0.12499932024E+03 0.  0.
          2    1    1    2  501    0  0.80385303198E+02  0.46564708075E+02  0.31870292637E+02  0.98212955159E+02  0.00000000000E+00 0. -1.
          1    1    1    2  502    0  0.17170509400E+02 -0.41689967288E+02  0.25777021943E+03  0.26168371327E+03  0.00000000000E+00 0. -1.
         22    1    3    3    0    0  0.24937900176E+02 -0.64263900435E+01  0.44097432513E+02  0.51066436222E+02  0.00000000000E+00 0. -1.
         22    1    3    3    0    0 -0.12249371277E+03  0.15516492563E+01  0.58887987559E+03  0.60148701163E+03  0.00000000000E+00 0. -1.
</event>
<event>
 7    1  0.5622879E-006  0.1413575E+03  0.7818608E-02  0.1242312E+00
          2   -1    0    0  502    0  0.00000000000E+00  0.00000000000E+00  0.15527260811E+04  0.15527260811E+04  0.00000000000E+00 0. -1.
          1   -1    0    0  501    0 -0.00000000000E+00 -0.00000000000E+00 -0.13459550356E+03  0.13459550356E+03  0.00000000000E+00 0. -1.
         25    2    1    2    0    0 -0.93446363384E+01 -0.16663400428E+03  0.11400522264E+02  0.20882707702E+03  0.12499825030E+03 0.  0.
          2    1    1    2  501    0 -0.73723520741E+02  0.10627616022E+03  0.89549616261E+02  0.15731787411E+03  0.00000000000E+00 0. -1.
          1    1    1    2  502    0  0.83068157079E+02  0.60357844065E+02  0.13171804390E+04  0.13211766335E+04  0.00000000000E+00 0. -1.
         22    1    3    3    0    0 -0.21322670841E+01  0.10354770625E+01  0.38720847900E+02  0.38793334966E+02  0.00000000000E+00 0. -1.
         22    1    3    3    0    0 -0.72123692543E+01 -0.16766948134E+03 -0.27320325637E+02  0.17003374205E+03  0.00000000000E+00 0. -1.
</event>
<event>
 7    1  0.5622879E-006  0.9604458E+02  0.7818608E-02  0.1343013E+00
          2   -1    0    0  502    0  0.00000000000E+00  0.00000000000E+00  0.63734417198E+03  0.63734417198E+03  0.00000000000E+00 0. -1.
          1   -1    0    0  501    0 -0.00000000000E+00 -0.00000000000E+00 -0.57374371110E+03  0.57374371110E+03  0.00000000000E+00 0. -1.
         25    2    1    2    0    0  0.94029216404E+02 -0.80867333886E+01  0.26189587846E+03  0.30515596963E+03  0.12499530332E+03 0.  0.
          2    1    1    2  501    0 -0.65699360496E+01  0.58634244402E+02 -0.54327369776E+03  0.54646815951E+03  0.00000000000E+00 0. -1.
          1    1    1    2  502    0 -0.87459280355E+02 -0.50547511013E+02  0.34497828020E+03  0.35946375394E+03  0.00000000000E+00 0. -1.
         22    1    3    3    0    0  0.40821569985E+02 -0.20296997829E+02  0.24322506489E+03  0.24746070574E+03  0.00000000000E+00 0. -1.
         22    1    3    3    0    0  0.53207646419E+02  0.12210264440E+02  0.18670813566E+02  0.57695263881E+02  0.00000000000E+00 0. -1.
</event>
<event>
 7    1  0.5622879E-006  0.1060253E+03  0.7818608E-02  0.1351877E+00
          2   -1    0    0  502    0  0.00000000000E+00  0.00000000000E+00  0.24165362818E+04  0.24165362818E+04  0.00000000000E+00 0. -1.
          1   -1    0    0  501    0 -0.00000000000E+00 -0.00000000000E+00 -0.10990899779E+03  0.10990899779E+03  0.00000000000E+00 0. -1.
         25    2    1    2    0    0 -0.42676930074E+02 -0.58055785529E+02  0.23971461337E+03  0.27978744865E+03  0.12500450379E+03 0.  0.
          2    1    1    2  501    0  0.92051420226E+02  0.62099565320E+02 -0.55174756772E+02  0.12399223267E+03  0.00000000000E+00 0. -1.
          1    1    1    2  502    0 -0.49374490152E+02 -0.40437797909E+01  0.21220874275E+04  0.21226655983E+04  0.00000000000E+00 0. -1.
         22    1    3    3    0    0 -0.35221838604E+02 -0.72254900001E+02  0.24872563334E+03  0.26139202201E+03  0.00000000000E+00 0.  1.
         22    1    3    3    0    0 -0.74550914702E+01  0.14199114472E+02 -0.90110199706E+01  0.18395426647E+02  0.00000000000E+00 0.  1.
</event>
<event>
 7    1  0.5622879E-006  0.1201526E+03  0.7818608E-02  0.1260183E+00
          2   -1    0    0  502    0  0.00000000000E+00  0.00000000000E+00  0.17871923054E+04  0.17871923054E+04  0.00000000000E+00 0. -1.
          1   -1    0    0  501    0 -0.00000000000E+00 -0.00000000000E+00 -0.23588886647E+02  0.23588886647E+02  0.00000000000E+00 0. -1.
         25    2    1    2    0    0 -0.30564189113E+02  0.33897417132E+02  0.47728722217E+03  0.49549057617E+03  0.12499845632E+03 0.  0.
          2    1    1    2  501    0  0.15443897497E+02  0.11915587836E+03  0.52126740014E+03  0.53493582771E+03  0.00000000000E+00 0. -1.
          1    1    1    2  502    0  0.15120291616E+02 -0.15305329549E+03  0.76504879647E+03  0.78035478820E+03  0.00000000000E+00 0. -1.
         22    1    3    3    0    0  0.20068058561E+01  0.70853203010E+01 -0.65271659670E+01  0.98403724051E+01  0.00000000000E+00 0.  1.
         22    1    3    3    0    0 -0.32570994969E+02  0.26812096831E+02  0.48381438814E+03  0.48565020377E+03  0.00000000000E+00 0.  1.
</event>
<event>
 7    1  0.5622879E-006  0.2528275E+03  0.7818608E-02  0.1218263E+00
          2   -1    0    0  502    0  0.00000000000E+00  0.00000000000E+00  0.13643539862E+04  0.13643539862E+04  0.00000000000E+00 0. -1.
          1   -1    0    0  501    0 -0.00000000000E+00 -0.00000000000E+00 -0.81876478315E+03  0.81876478315E+03  0.00000000000E+00 0. -1.
         25    2    1    2    0    0  0.20447240461E+03 -0.17660382395E+03 -0.66528642582E+03  0.72885456034E+03  0.12500026748E+03 0.  0.
          2    1    1    2  501    0 -0.13335697649E+03  0.15770785196E+03 -0.32186697206E+02  0.20902591520E+03  0.00000000000E+00 0. -1.
          1    1    1    2  502    0 -0.71115428120E+02  0.18895971987E+02  0.12430623260E+04  0.12452382938E+04  0.00000000000E+00 0. -1.
         22    1    3    3    0    0  0.15096131816E+03 -0.13604536652E+03 -0.60640092787E+03  0.63954651641E+03  0.00000000000E+00 0. -1.
         22    1    3    3    0    0  0.53511086445E+02 -0.40558457429E+02 -0.58885497951E+02  0.89308043929E+02  0.00000000000E+00 0. -1.
</event>
<event>
 7    1  0.5622879E-006  0.2767666E+02  0.7818608E-02  0.1629837E+00
          2   -1    0    0  502    0  0.00000000000E+00  0.00000000000E+00  0.18355906594E+04  0.18355906594E+04  0.00000000000E+00 0. -1.
          1   -1    0    0  501    0 -0.00000000000E+00 -0.00000000000E+00 -0.96776188018E+01  0.96776188018E+01  0.00000000000E+00 0. -1.
         25    2    1    2    0    0  0.10492032852E+02 -0.16677612411E+02  0.92966404909E+03  0.93823653455E+03  0.12499730035E+03 0.  0.
          2    1    1    2  501    0 -0.25864226859E+02 -0.75900563337E+01  0.30094716315E+02  0.40401226915E+02  0.00000000000E+00 0. -1.
          1    1    1    2  502    0  0.15372194007E+02  0.24267668745E+02  0.86615427524E+03  0.86663051678E+03  0.00000000000E+00 0. -1.
         22    1    3    3    0    0 -0.23813405212E+02 -0.20190000335E+02  0.57817716908E+02  0.65708468022E+02  0.00000000000E+00 0. -1.
         22    1    3    3    0    0  0.34305438063E+02  0.35123879240E+01  0.87184633218E+03  0.87252806653E+03  0.00000000000E+00 0. -1.
</event>
<event>
 7    1  0.5622879E-006  0.1140527E+03  0.7818608E-02  0.1347531E+00
          2   -1    0    0  502    0  0.00000000000E+00  0.00000000000E+00  0.20953747085E+04  0.20953747085E+04  0.00000000000E+00 0. -1.
          1   -1    0    0  501    0 -0.00000000000E+00 -0.00000000000E+00 -0.85384075123E+02  0.85384075123E+02  0.00000000000E+00 0. -1.
         25    2    1    2    0    0 -0.14824121446E+02  0.70851762263E+02  0.66546621477E+03  0.68096241156E+03  0.12499918465E+03 0.  0.
          2    1    1    2  501    0  0.45132218295E+02 -0.10780605159E+03 -0.33001186376E+02  0.12144192105E+03  0.00000000000E+00 0. -1.
          1    1    1    2  502    0 -0.30308096849E+02  0.36954289325E+02  0.13775256050E+04  0.13783544510E+04  0.00000000000E+00 0. -1.
         22    1    3    3    0    0  0.44902491456E+02  0.29197361093E+02  0.13050842300E+03  0.14107149998E+03  0.00000000000E+00 0.  1.
         22    1    3    3    0    0 -0.59726612901E+02  0.41654401170E+02  0.53495779177E+03  0.53989091158E+03  0.00000000000E+00 0.  1.
</event>
<event>
 7    1  0.9195668E-006  0.7659816E+02  0.7818608E-02  0.1344475E+00
          2   -1    0    0  502    0  0.00000000000E+00  0.00000000000E+00  0.11679748156E+04  0.11679748156E+04  0.00000000000E+00 0. -1.
          1   -1    0    0  501    0 -0.00000000000E+00 -0.00000000000E+00 -0.10752748898E+04  0.10752748898E+04  0.00000000000E+00 0. -1.
         25    2    1    2    0    0  0.13381914884E+03 -0.65677896010E+02 -0.62152593804E+03  0.65126125630E+03  0.12500232675E+03 0.  0.
          2    1    1    2  501    0 -0.67905979931E+02  0.26938846926E+02 -0.43456174881E+03  0.44065954785E+03  0.00000000000E+00 0. -1.
          1    1    1    2  502    0 -0.65913168905E+02  0.38739049084E+02  0.11487876126E+04  0.11513289012E+04  0.00000000000E+00 0. -1.
         22    1    3    3    0    0  0.15658460337E+03 -0.48640774115E+02 -0.49030387162E+03  0.51699376151E+03  0.00000000000E+00 0. -1.
         22    1    3    3    0    0 -0.22765454534E+02 -0.17037121895E+02 -0.13122206642E+03  0.13426749479E+03  0.00000000000E+00 0. -1.
</event>
<event>
 7    1  0.5622879E-006  0.1021097E+03  0.7818608E-02  0.1469737E+00
          2   -1    0    0  502    0  0.00000000000E+00  0.00000000000E+00  0.41087298735E+03  0.41087298735E+03  0.00000000000E+00 0. -1.
          1   -1    0    0  501    0 -0.00000000000E+00 -0.00000000000E+00 -0.76631410933E+03  0.76631410933E+03  0.00000000000E+00 0. -1.
         25    2    1    2    0    0  0.84277132044E+02  0.67047787522E+01  0.62808769752E+02  0.16345452074E+03  0.12499939899E+03 0.  0.
          2    1    1    2  501    0 -0.10266916015E+03  0.23377131931E+01 -0.71194983959E+03  0.71931842424E+03  0.00000000000E+00 0. -1.
          1    1    1    2  502    0  0.18392028106E+02 -0.90424919453E+01  0.29369994785E+03  0.29441415171E+03  0.00000000000E+00 0. -1.
         22    1    3    3    0    0  0.40535239022E+02  0.46622615942E+02 -0.16999065033E+02  0.64076065202E+02  0.00000000000E+00 0. -1.
         22    1    3    3    0    0  0.43741893022E+02 -0.39917837190E+02  0.79807834785E+02  0.99378455533E+02  0.00000000000E+00 0. -1.
</event>
<event>
 7    1  0.5622879E-006  0.7387095E+02  0.7818608E-02  0.1369792E+00
          2   -1    0    0  502    0  0.00000000000E+00  0.00000000000E+00  0.97953574256E+03  0.97953574256E+03  0.00000000000E+00 0. -1.
          1   -1    0    0  501    0 -0.00000000000E+00 -0.00000000000E+00 -0.22393690612E+03  0.22393690612E+03  0.00000000000E+00 0. -1.
         25    2    1    2    0    0  0.44284546517E+02 -0.67412572388E+02  0.59881605825E+02  0.16036432265E+03  0.12500133314E+03 0.  0.
          2    1    1    2  501    0  0.16615857581E+02  0.73221712735E+02 -0.16444402552E+03  0.18077428873E+03  0.00000000000E+00 0. -1.
          1    1    1    2  502    0 -0.60900404098E+02 -0.58091403470E+01  0.86016125613E+03  0.86233403730E+03  0.00000000000E+00 0. -1.
         22    1    3    3    0    0  0.75974856291E+02 -0.28267888715E+02 -0.13578658136E+01  0.81074633027E+02  0.00000000000E+00 0.  1.
         22    1    3    3    0    0 -0.31690309775E+02 -0.39144683673E+02  0.61239471639E+02  0.79289689620E+02  0.00000000000E+00 0.  1.
</event>
<event>
 7    1  0.5622879E-006  0.7126820E+02  0.7818608E-02  0.1441575E+00
          2   -1    0    0  502    0  0.00000000000E+00  0.00000000000E+00  0.13904684317E+03  0.13904684317E+03  0.00000000000E+00 0. -1.
          1   -1    0    0  501    0 -0.00000000000E+00 -0.00000000000E+00 -0.10335905401E+04  0.10335905401E+04  0.00000000000E+00 0. -1.
         25    2    1    2    0    0  0.55355188755E+02 -0.42081579865E+02 -0.38143200604E+03  0.40736990792E+03  0.12499924142E+03 0.  0.
          2    1    1    2  501    0 -0.29031477578E+02  0.66749006730E+02 -0.63448489429E+03  0.63864648881E+03  0.00000000000E+00 0. -1.
          1    1    1    2  502    0 -0.26323711177E+02 -0.24667426866E+02  0.12137320343E+03  0.12662098652E+03  0.00000000000E+00 0. -1.
         22    1    3    3    0    0  0.60337733231E+02  0.41973666242E+01 -0.70138543423E+02  0.92615739546E+02  0.00000000000E+00 0.  1.
         22    1    3    3    0    0 -0.49825444762E+01 -0.46278946489E+02 -0.31129346262E+03  0.31475416837E+03  0.00000000000E+00 0.  1.
</event>
<event>
 7    1  0.5622879E-006  0.8445536E+02  0.7818608E-02  0.1325586E+00
          2   -1    0    0  502    0  0.00000000000E+00  0.00000000000E+00  0.14631085455E+04  0.14631085455E+04  0.00000000000E+00 0. -1.
          1   -1    0    0  501    0 -0.00000000000E+00 -0.00000000000E+00 -0.54056749542E+02  0.54056749542E+02  0.00000000000E+00 0. -1.
         25    2    1    2    0    0 -0.10547699004E+03  0.23255233144E+02  0.45962246386E+03  0.48840889537E+03  0.12499695392E+03 0.  0.
          2    1    1    2  501    0  0.44701661829E+02 -0.72362164665E+02  0.94998577707E+01  0.85584862815E+02  0.00000000000E+00 0. -1.
          1    1    1    2  502    0  0.60775328207E+02  0.49106931521E+02  0.93992947437E+03  0.94317153691E+03  0.00000000000E+00 0. -1.
         22    1    3    3    0    0 -0.80120316826E+02 -0.44677766059E+02  0.28239935182E+03  0.29692551567E+03  0.00000000000E+00 0. -1.
         22    1    3    3    0    0 -0.25356673210E+02  0.67932999203E+02  0.17722311205E+03  0.19148337970E+03  0.00000000000E+00 0. -1.
</event>
<event>
 7    1  0.5622879E-006  0.1263814E+03  0.7818608E-02  0.1252657E+00
          2   -1    0    0  502    0  0.00000000000E+00  0.00000000000E+00  0.10345186620E+04  0.10345186620E+04  0.00000000000E+00 0. -1.
          1   -1    0    0  501    0 -0.00000000000E+00 -0.00000000000E+00 -0.15177813889E+04  0.15177813889E+04  0.00000000000E+00 0. -1.
         25    2    1    2    0    0 -0.13575782353E+03 -0.72947637050E+02  0.59037509120E+02  0.20703101059E+03  0.12499946985E+03 0.  0.
          2    1    1    2  501    0  0.12377301790E+02  0.10278631810E+03 -0.14374452009E+04  0.14411685988E+04  0.00000000000E+00 0. -1.
          1    1    1    2  502    0  0.12338052174E+03 -0.29838681050E+02  0.89514496492E+03  0.90410044146E+03  0.00000000000E+00 0. -1.
         22    1    3    3    0    0  0.30498103107E+01 -0.23110257551E+02 -0.27486831247E+02  0.36040411193E+02  0.00000000000E+00 0. -1.
         22    1    3    3    0    0 -0.13880763384E+03 -0.49837379500E+02  0.86524340367E+02  0.17099059940E+03  0.00000000000E+00 0. -1.
</event>
<event>
 7    1  0.5622879E-006  0.3762808E+02  0.7818608E-02  0.1578588E+00
          2   -1    0    0  502    0  0.00000000000E+00  0.00000000000E+00  0.19701800259E+03  0.19701800259E+03  0.00000000000E+00 0. -1.
          1   -1    0    0  501    0 -0.00000000000E+00 -0.00000000000E+00 -0.49482412587E+03  0.49482412587E+03  0.00000000000E+00 0. -1.
         25    2    1    2    0    0 -0.50608934720E+02  0.12610991314E+02 -0.25847481438E+02  0.13788939968E+03  0.12500037149E+03 0.  0.
          2    1    1    2  501    0  0.27155563829E+02 -0.25873909629E+02 -0.41080624228E+03  0.41251503311E+03  0.00000000000E+00 0. -1.
          1    1    1    2  502    0  0.23453370891E+02  0.13262918315E+02  0.13884760043E+03  0.14143769566E+03  0.00000000000E+00 0. -1.
         22    1    3    3    0    0  0.34918426805E+02  0.31692579719E+02 -0.25993845707E+01  0.47227883077E+02  0.00000000000E+00 0.  1.
         22    1    3    3    0    0 -0.85527361525E+02 -0.19081588405E+02 -0.23248096867E+02  0.90661516606E+02  0.00000000000E+00 0.  1.
</event>
<event>
 7    1  0.5622879E-006  0.1492374E+03  0.7818608E-02  0.1379704E+00
          2   -1    0    0  502    0  0.00000000000E+00  0.00000000000E+00  0.10679262862E+04  0.10679262862E+04  0.00000000000E+00 0. -1.
          1   -1    0    0  501    0 -0.00000000000E+00 -0.00000000000E+00 -0.19951507418E+04  0.19951507418E+04  0.00000000000E+00 0. -1.
         25    2    1    2    0    0  0.34411011771E+02 -0.11874223902E+03  0.12816854091E+03  0.21756845616E+03  0.12500008471E+03 0.  0.
          2    1    1    2  501    0 -0.30931075762E+02  0.14643723362E+03 -0.19473609369E+04  0.19531039945E+04  0.00000000000E+00 0. -1.
          1    1    1    2  502    0 -0.34799360089E+01 -0.27694994594E+02  0.89196794043E+03  0.89240457722E+03  0.00000000000E+00 0. -1.
         22    1    3    3    0    0  0.62962174550E+02 -0.79227050591E+02  0.13459589112E+03  0.16839600611E+03  0.00000000000E+00 0.  1.
         22    1    3    3    0    0 -0.28551162779E+02 -0.39515188433E+02 -0.64273502084E+01  0.49172450047E+02  0.00000000000E+00 0.  1.
</event>
<event>
 7    1  0.5622879E-006  0.8584597E+02  0.7818608E-02  0.1377240E+00
          2   -1    0    0  502    0  0.00000000000E+00  0.00000000000E+00  0.27773084069E+02  0.27773084069E+02  0.00000000000E+00 0. -1.
          1   -1    0    0  501    0 -0.00000000000E+00 -0.00000000000E+00 -0.26926952300E+04  0.26926952300E+04  0.00000000000E+00 0. -1.
         25    2    1    2    0    0  0.67534154100E+02 -0.58417472746E+02 -0.16681284565E+04  0.16751867392E+04  0.12499840318E+03 0.  0.
          2    1    1    2  501    0 -0.25839972169E+02  0.85119342960E+02 -0.99150606673E+03  0.99548846656E+03  0.00000000000E+00 0. -1.
          1    1    1    2  502    0 -0.41694181931E+02 -0.26701870214E+02 -0.52876227233E+01  0.49793108297E+02  0.00000000000E+00 0. -1.
         22    1    3    3    0    0  0.77420388119E+02  0.15001583076E+02 -0.93826480807E+03  0.94157305296E+03  0.00000000000E+00 0.  1.
         22    1    3    3    0    0 -0.98862340191E+01 -0.73419055823E+02 -0.72986364841E+03  0.73361368624E+03  0.00000000000E+00 0.  1.
</event>
<event>
 7    1  0.5622879E-006  0.4190357E+02  0.7818608E-02  0.1527137E+00
          2   -1    0    0  502    0  0.00000000000E+00  0.00000000000E+00  0.97929296616E+03  0.97929296616E+03  0.00000000000E+00 0. -1.
          1   -1    0    0  501    0 -0.00000000000E+00 -0.00000000000E+00 -0.22417092810E+03  0.22417092810E+03  0.00000000000E+00 0. -1.
         25    2    1    2    0    0 -0.94199841732E+01 -0.58862101663E+02  0.81229851421E+02  0.16055402468E+03  0.12500329182E+03 0.  0.
          2    1    1    2  501    0  0.26496950738E+02  0.20710620875E+02 -0.18246237084E+03  0.18553580513E+03  0.00000000000E+00 0. -1.
          1    1    1    2  502    0 -0.17076966565E+02  0.38151480789E+02  0.85635455747E+03  0.85737406444E+03  0.00000000000E+00 0. -1.
         22    1    3    3    0    0 -0.56974836562E+02 -0.49067366209E+02  0.12223819841E+02  0.76178475959E+02  0.00000000000E+00 0.  1.
         22    1    3    3    0    0  0.47554852388E+02 -0.97947354542E+01  0.69006031580E+02  0.84375548725E+02  0.00000000000E+00 0.  1.
</event>
<event>
 7    1  0.5622879E-006  0.1178906E+03  0.7818608E-02  0.1317149E+00
          2   -1    0    0  502    0  0.00000000000E+00  0.00000000000E+00  0.21804488362E+04  0.21804488362E+04  0.00000000000E+00 0. -1.
          1   -1    0    0  501    0 -0.00000000000E+00 -0.00000000000E+00 -0.24306300883E+03  0.24306300883E+03  0.00000000000E+00 0. -1.
         25    2    1    2    0    0  0.73246881286E+02 -0.10323545337E+03  0.11957342328E+03  0.21435128706E+03  0.12500402497E+03 0.  0.
          2    1    1    2  501    0 -0.14613110268E+02  0.11751516449E+03 -0.17725922638E+03  0.21317642978E+03  0.00000000000E+00 0. -1.
          1    1    1    2  502    0 -0.58633771018E+02 -0.14279711125E+02  0.19950716305E+04  0.19959841282E+04  0.00000000000E+00 0. -1.
         22    1    3    3    0    0  0.92671843458E+00  0.20524966720E+02  0.51937601161E+02  0.55853804528E+02  0.00000000000E+00 0.  1.
         22    1    3    3    0    0  0.72320162851E+02 -0.12376042009E+03  0.67635822116E+02  0.15849748253E+03  0.00000000000E+00 0.  1.
</event>
<event>
 7    1  0.5622879E-006  0.6551077E+02  0.7818608E-02  0.1379053E+00
          2   -1    0    0  502    0  0.00000000000E+00  0.00000000000E+00  0.11854053878E+03  0.11854053878E+03  0.00000000000E+00 0. -1.
          1   -1    0    0  501    0 -0.00000000000E+00 -0.00000000000E+00 -0.23082292807E+03  0.23082292807E+03  0.00000000000E+00 0. -1.
         25    2    1    2    0    0  0.16312594806E+02  0.12494758036E+02 -0.22960611796E+02  0.12873955859E+03  0.12499785808E+03 0.  0.
          2    1    1    2  501    0  0.11474968750E+02  0.64497952973E+02 -0.11710495657E+03  0.13418357463E+03  0.00000000000E+00 0. -1.
          1    1    1    2  502    0 -0.27787563556E+02 -0.76992711009E+02  0.27783179082E+02  0.86440333623E+02  0.00000000000E+00 0. -1.
         22    1    3    3    0    0  0.51763031043E+02  0.85188710303E+01  0.33290468167E+02  0.62130812140E+02  0.00000000000E+00 0.  1.
         22    1    3    3    0    0 -0.35450436237E+02  0.39758870061E+01 -0.56251079963E+02  0.66608746452E+02  0.00000000000E+00 0.  1.
</event>
<event>
 7    1  0.5622879E-006  0.7038723E+02  0.7818608E-02  0.1413027E+00
          2   -1    0    0  502    0  0.00000000000E+00  0.00000000000E+00  0.65497363151E+03  0.65497363151E+03  0.00000000000E+00 0. -1.
          1   -1    0    0  501    0 -0.00000000000E+00 -0.00000000000E+00 -0.11065926601E+04  0.11065926601E+04  0.00000000000E+00 0. -1.
         25    2    1    2    0    0  0.36250273978E+02 -0.79165309099E+02  0.28899401339E+02  0.15505250953E+03  0.12499950714E+03 0.  0.
          2    1    1    2  501    0 -0.58227487441E+02  0.39449682832E+02 -0.10414131318E+04  0.10437854324E+04  0.00000000000E+00 0. -1.
          1    1    1    2  502    0  0.21977213464E+02  0.39715626267E+02  0.56089470191E+03  0.56272834966E+03  0.00000000000E+00 0. -1.
         22    1    3    3    0    0  0.34184916253E+02 -0.81503649099E+02 -0.32056856731E+02  0.94016463340E+02  0.00000000000E+00 0.  1.
         22    1    3    3    0    0  0.20653577251E+01  0.23383399999E+01  0.60956258070E+02  0.61036046189E+02  0.00000000000E+00 0.  1.
</event>
<event>
 7    1  0.5622879E-006  0.5107333E+02  0.7818608E-02  0.1474667E+00
          2   -1    0    0  502    0  0.00000000000E+00  0.00000000000E+00  0.65277134257E+03  0.65277134257E+03  0.00000000000E+00 0. -1.
          1   -1    0    0  501    0 -0.00000000000E+00 -0.00000000000E+00 -0.30222302814E+02  0.30222302814E+02  0.00000000000E+00 0. -1.
         25    2    1    2    0    0 -0.10723937891E+02 -0.30837365040E+02  0.25828320981E+03  0.28879334953E+03  0.12500174533E+03 0.  0.
          2    1    1    2  501    0  0.34961359219E+02 -0.18506072528E+02  0.17761006753E+02  0.43361558087E+02  0.00000000000E+00 0. -1.
          1    1    1    2  502    0 -0.24237421328E+02  0.49343437568E+02  0.34650482320E+03  0.35083873777E+03  0.00000000000E+00 0. -1.
         22    1    3    3    0    0 -0.64927401083E+02 -0.31209682438E+01  0.16563711317E+03  0.17793527225E+03  0.00000000000E+00 0. -1.
         22    1    3    3    0    0  0.54203463192E+02 -0.27716396796E+02  0.92646096644E+02  0.11085807727E+03  0.00000000000E+00 0. -1.
</event>
<event>
 7    1  0.5622879E-006  0.5488624E+02  0.7818608E-02  0.1465670E+00
          2   -1    0    0  502    0  0.00000000000E+00  0.00000000000E+00  0.76944847084E+03  0.76944847084E+03  0.00000000000E+00 0. -1.
          1   -1    0    0  501    0 -0.00000000000E+00 -0.00000000000E+00 -0.18842254224E+03  0.18842254224E+03  0.00000000000E+00 0. -1.
         25    2    1    2    0    0  0.48329907404E+00  0.21661401846E+02  0.20066472406E+03  0.23740683987E+03  0.12500490482E+03 0.  0.
          2    1    1    2  501    0 -0.31245982256E+02 -0.46051987419E+02 -0.16477342569E+03  0.17391773563E+03  0.00000000000E+00 0. -1.
          1    1    1    2  502    0  0.30762683182E+02  0.24390585573E+02  0.54513463024E+03  0.54654643758E+03  0.00000000000E+00 0. -1.
         22    1    3    3    0    0 -0.59406218370E+02  0.14675934086E+02  0.66808056039E+02  0.90596899362E+02  0.00000000000E+00 0. -1.
         22    1    3    3    0    0  0.59889517444E+02  0.69854677602E+01  0.13385666802E+03  0.14680994051E+03  0.00000000000E+00 0. -1.
</event>
<event>
 7    1  0.5622879E-006  0.2116544E+03  0.7818608E-02  0.1312234E+00
          2   -1    0    0  502    0  0.00000000000E+00  0.00000000000E+00  0.89906571019E+03  0.89906571019E+03  0.00000000000E+00 0. -1.
          1   -1    0    0  501    0 -0.00000000000E+00 -0.00000000000E+00 -0.11822344820E+04  0.11822344820E+04  0.00000000000E+00 0. -1.
         25    2    1    2    0    0  0.23429619226E+01  0.23688042037E+03 -0.77499458414E+03  0.81997522259E+03  0.12499974872E+03 0.  0.
          2    1    1    2  501    0  0.22407241478E+02 -0.27062536694E+02 -0.37117766547E+03  0.37283686072E+03  0.00000000000E+00 0. -1.
          1    1    1    2  502    0 -0.24750203401E+02 -0.20981788368E+03  0.86300347782E+03  0.88848810888E+03  0.00000000000E+00 0. -1.
         22    1    3    3    0    0 -0.51018084333E+02  0.18258723435E+03 -0.59719079263E+03  0.62656028112E+03  0.00000000000E+00 0.  1.
         22    1    3    3    0    0  0.53361046256E+02  0.54293186023E+02 -0.17780379152E+03  0.19341494147E+03  0.00000000000E+00 0.  1.
</event>
<event>
 7    1  0.5622879E-006  0.7624396E+02  0.7818608E-02  0.1483313E+00
          2   -1    0    0  502    0  0.00000000000E+00  0.00000000000E+00  0.12678378055E+04  0.12678378055E+04  0.00000000000E+00 0. -1.
          1   -1    0    0  501    0 -0.00000000000E+00 -0.00000000000E+00 -0.31872841952E+03  0.31872841952E+03  0.00000000000E+00 0. -1.
         25    2    1    2    0    0  0.91181254819E+02 -0.23648962384E+01  0.35963073820E+00  0.15474833149E+03  0.12500921086E+03 0.  0.
          2    1    1    2  501    0 -0.17768418891E+02 -0.17481128969E+02 -0.23967238196E+03  0.24096505401E+03  0.00000000000E+00 0. -1.
          1    1    1    2  502    0 -0.73412835928E+02  0.19846025207E+02  0.11884221372E+04  0.11908528395E+04  0.00000000000E+00 0. -1.
         22    1    3    3    0    0  0.54460291750E+01 -0.36396489455E+02 -0.39743287709E+02  0.54165418824E+02  0.00000000000E+00 0.  1.
         22    1    3    3    0    0  0.85735225644E+02  0.34031593217E+02  0.40102918447E+02  0.10058291267E+03  0.00000000000E+00 0.  1.
</event>
<event>
 7    1  0.5622879E-006  0.1232838E+03  0.7818608E-02  0.1420892E+00
          2   -1    0    0  502    0  0.00000000000E+00  0.00000000000E+00  0.10905267684E+04  0.10905267684E+04  0.00000000000E+00 0. -1.
          1   -1    0    0  501    0 -0.00000000000E+00 -0.00000000000E+00 -0.23788274609E+04  0.23788274609E+04  0.00000000000E+00 0. -1.
         25    2    1    2    0    0  0.11011250097E+03 -0.69503535203E+02  0.58614280449E+03  0.61330540221E+03  0.12499849937E+03 0.  0.
          2    1    1    2  501    0 -0.90377413423E+02  0.83831424481E+02 -0.23633358545E+04  0.23665485724E+04  0.00000000000E+00 0. -1.
          1    1    1    2  502    0 -0.19735087545E+02 -0.14327889277E+02  0.48889235751E+03  0.48950025467E+03  0.00000000000E+00 0. -1.
         22    1    3    3    0    0 -0.85161512927E+01 -0.49231051134E+02  0.27877006635E+03  0.28321188379E+03  0.00000000000E+00 0.  1.
         22    1    3    3    0    0  0.11862865226E+03 -0.20272484070E+02  0.30737273815E+03  0.33009351842E+03  0.00000000000E+00 0.  1.
</event>
<event>
 7    1  0.5622879E-006  0.7777818E+02  0.7818608E-02  0.1354912E+00
          2   -1    0    0  502    0  0.00000000000E+00  0.00000000000E+00  0.11206516147E+04  0.11206516147E+04  0.00000000000E+00 0. -1.
          1   -1    0    0  501    0 -0.00000000000E+00 -0.00000000000E+00 -0.63223292852E+03  0.63223292852E+03  0.00000000000E+00 0. -1.
         25    2    1    2    0    0  0.83220002542E+02  0.10515528980E+03  0.58872920569E+03  0.61661069573E+03  0.12499387449E+03 0.  0.
          2    1    1    2  501    0 -0.37113685509E+02 -0.54351112691E+02 -0.61425485310E+03  0.61777058336E+03  0.00000000000E+00 0. -1.
          1    1    1    2  502    0 -0.46106317033E+02 -0.50804177111E+02  0.51394433355E+03  0.51850326409E+03  0.00000000000E+00 0. -1.
         22    1    3    3    0    0 -0.13434853557E+02 -0.19003105125E+02  0.11823314740E+03  0.12050182754E+03  0.00000000000E+00 0.  1.
         22    1    3    3    0    0  0.96654856099E+02  0.12415839493E+03  0.47049605829E+03  0.49610886819E+03  0.00000000000E+00 0.  1.
</event>
<event>
 7    1  0.5622879E-006  0.5339252E+02  0.7818608E-02  0.1477303E+00
          2   -1    0    0  502    0  0.00000000000E+00  0.00000000000E+00  0.13934938238E+04  0.13934938238E+04  0.00000000000E+00 0. -1.
          1   -1    0    0  501    0 -0.00000000000E+00 -0.00000000000E+00 -0.27763395723E+02  0.27763395723E+02  0.00000000000E+00 0. -1.
         25    2    1    2    0    0  0.80379633101E+02 -0.12211582633E+02  0.73222903714E+03  0.74725814651E+03  0.12500146611E+03 0.  0.
          2    1    1    2  501    0 -0.45688998312E+02  0.25467817765E+02  0.15044560082E+02  0.54428238044E+02  0.00000000000E+00 0. -1.
          1    1    1    2  502    0 -0.34690634789E+02 -0.13256235132E+02  0.61845683086E+03  0.61957083498E+03  0.00000000000E+00 0. -1.
         22    1    3    3    0    0 -0.81787099083E+01 -0.43619506581E+01 -0.37738299918E+00  0.92768705518E+01  0.00000000000E+00 0.  1.
         22    1    3    3    0    0  0.88558343009E+02 -0.78496319751E+01  0.73260642014E+03  0.73798127596E+03  0.00000000000E+00 0.  1.
</event>
<event>
 7    1  0.5622879E-006  0.4564018E+02  0.7818608E-02  0.1548432E+00
          2   -1    0    0  502    0  0.00000000000E+00  0.00000000000E+00  0.34967461491E+03  0.34967461491E+03  0.00000000000E+00 0. -1.
          1   -1    0    0  501    0 -0.00000000000E+00 -0.00000000000E+00 -0.15978081977E+04  0.15978081977E+04  0.00000000000E+00 0. -1.
         25    2    1    2    0    0  0.48121458439E+02  0.55463854880E+01 -0.10564357626E+03  0.17068305447E+03  0.12500281086E+03 0.  0.
          2    1    1    2  501    0 -0.35218065046E+02 -0.29114814079E+02 -0.14587173837E+04  0.14594329002E+04  0.00000000000E+00 0. -1.
          1    1    1    2  502    0 -0.12903393393E+02  0.23568428591E+02  0.31622737725E+03  0.31736685792E+03  0.00000000000E+00 0. -1.
         22    1    3    3    0    0 -0.14743382942E+02  0.28803756805E+02 -0.98018891796E+02  0.10322173655E+03  0.00000000000E+00 0.  1.
         22    1    3    3    0    0  0.62864841382E+02 -0.23257371317E+02 -0.76246844594E+01  0.67461317921E+02  0.00000000000E+00 0.  1.
</event>
<event>
 7    1  0.5622879E-006  0.4408632E+02  0.7818608E-02  0.1585929E+00
          2   -1    0    0  502    0  0.00000000000E+00  0.00000000000E+00  0.56004409634E+03  0.56004409634E+03  0.00000000000E+00 0. -1.
          1   -1    0    0  501    0 -0.00000000000E+00 -0.00000000000E+00 -0.13774887847E+04  0.13774887847E+04  0.00000000000E+00 0. -1.
         25    2    1    2    0    0 -0.10557867900E+02 -0.23904786220E+02  0.25787621916E+03  0.28776551351E+03  0.12500375584E+03 0.  0.
          2    1    1    2  501    0  0.25551244745E+01 -0.21831571536E+02 -0.13605783215E+04  0.13607558617E+04  0.00000000000E+00 0. -1.
          1    1    1    2  502    0  0.80027434257E+01  0.45736357756E+02  0.28525741395E+03  0.28901150588E+03  0.00000000000E+00 0. -1.
         22    1    3    3    0    0 -0.14619489879E+02 -0.32365362311E+02  0.27006062124E+03  0.27238572889E+03  0.00000000000E+00 0. -1.
         22    1    3    3    0    0  0.40616219785E+01  0.84605760907E+01 -0.12184402074E+02  0.15379784614E+02  0.00000000000E+00 0. -1.
</event>
<event>
 7    1  0.5622879E-006  0.9700642E+02  0.7818608E-02  0.1376966E+00
          2   -1    0    0  502    0  0.00000000000E+00  0.00000000000E+00  0.63224189277E+03  0.63224189277E+03  0.00000000000E+00 0. -1.
          1   -1    0    0  501    0 -0.00000000000E+00 -0.00000000000E+00 -0.12262244916E+04  0.12262244916E+04  0.00000000000E+00 0. -1.
         25    2    1    2    0    0  0.40856469143E+02  0.70217443069E+02 -0.32974516703E+03  0.36187919827E+03  0.12499975432E+03 0.  0.
          2    1    1    2  501    0 -0.82954500054E+02 -0.57720228046E+02 -0.87672351354E+03  0.88252886242E+03  0.00000000000E+00 0. -1.
          1    1    1    2  502    0  0.42098030911E+02 -0.12497215023E+02  0.61248608173E+03  0.61405832370E+03  0.00000000000E+00 0. -1.
         22    1    3    3    0    0  0.23174639753E+02  0.10392612552E+03 -0.27758697735E+03  0.29730831386E+03  0.00000000000E+00 0.  1.
         22    1    3    3    0    0  0.17681829391E+02 -0.33708682456E+02 -0.52158189677E+02  0.64570884413E+02  0.00000000000E+00 0.  1.
</event>
<event>
 7    1  0.5622879E-006  0.1731695E+03  0.7818608E-02  0.1282612E+00
          2   -1    0    0  502    0  0.00000000000E+00  0.00000000000E+00  0.15832200308E+04  0.15832200308E+04  0.00000000000E+00 0. -1.
          1   -1    0    0  501    0 -0.00000000000E+00 -0.00000000000E+00 -0.21251089789E+03  0.21251089789E+03  0.00000000000E+00 0. -1.
         25    2    1    2    0    0 -0.77574888978E+02  0.20023858024E+03  0.37813784276E+03  0.45246732859E+03  0.12500041160E+03 0.  0.
          2    1    1    2  501    0  0.42591493776E+02 -0.37111002933E+02 -0.16465323146E+03  0.17407454872E+03  0.00000000000E+00 0. -1.
          1    1    1    2  502    0  0.34983395202E+02 -0.16312757731E+03  0.11572245216E+04  0.11691890514E+04  0.00000000000E+00 0. -1.
         22    1    3    3    0    0 -0.85632008432E+02  0.14994012363E+03  0.18643480049E+03  0.25411181865E+03  0.00000000000E+00 0.  1.
         22    1    3    3    0    0  0.80571194533E+01  0.50298456612E+02  0.19170304226E+03  0.19835550994E+03  0.00000000000E+00 0.  1.
</event>
<event>
 7    1  0.5622879E-006  0.1879597E+03  0.7818608E-02  0.1281845E+00
          2   -1    0    0  502    0  0.00000000000E+00  0.00000000000E+00  0.37897722804E+03  0.37897722804E+03  0.00000000000E+00 0. -1.
          1   -1    0    0  501    0 -0.00000000000E+00 -0.00000000000E+00 -0.13892589313E+04  0.13892589313E+04  0.00000000000E+00 0. -1.
         25    2    1    2    0    0  0.14991527483E+03  0.16292942974E+03 -0.46213534936E+03  0.52746059562E+03  0.12500004040E+03 0.  0.
          2    1    1    2  501    0 -0.52266149399E+02 -0.40886635071E+01 -0.86851619252E+03  0.87009703149E+03  0.00000000000E+00 0. -1.
          1    1    1    2  502    0 -0.97649125435E+02 -0.15884076624E+03  0.32036983865E+03  0.37067853220E+03  0.00000000000E+00 0. -1.
         22    1    3    3    0    0  0.18053575555E+02  0.11059339630E+03 -0.19067913441E+03  0.22116817853E+03  0.00000000000E+00 0.  1.
         22    1    3    3    0    0  0.13186169928E+03  0.52336033448E+02 -0.27145621495E+03  0.30629241709E+03  0.00000000000E+00 0.  1.
</event>
<event>
 7    1  0.5622879E-006  0.3451335E+02  0.7818608E-02  0.1586230E+00
          2   -1    0    0  502    0  0.00000000000E+00  0.00000000000E+00  0.10348623974E+04  0.10348623974E+04  0.00000000000E+00 0. -1.
          1   -1    0    0  501    0 -0.00000000000E+00 -0.00000000000E+00 -0.59177797911E+02  0.59177797911E+02  0.00000000000E+00 0. -1.
         25    2    1    2    0    0  0.41780568826E+02 -0.14930322584E+02  0.86762364976E+03  0.87770416344E+03  0.12500108176E+03 0.  0.
          2    1    1    2  501    0 -0.10198649982E+02  0.26104136749E+02 -0.48617129654E+02  0.56116519072E+02  0.00000000000E+00 0. -1.
          1    1    1    2  502    0 -0.31581918844E+02 -0.11173814165E+02  0.15667807933E+03  0.16021951275E+03  0.00000000000E+00 0. -1.
         22    1    3    3    0    0 -0.30948866606E+02 -0.53773926825E+01  0.58080632290E+03  0.58165516710E+03  0.00000000000E+00 0. -1.
         22    1    3    3    0    0  0.72729435431E+02 -0.95529299016E+01  0.28681732686E+03  0.29604899634E+03  0.00000000000E+00 0. -1.
</event>
<event>
 7    1  0.5622879E-006  0.5932684E+02  0.7818608E-02  0.1401697E+00
          2   -1    0    0  502    0  0.00000000000E+00  0.00000000000E+00  0.24684688318E+04  0.24684688318E+04  0.00000000000E+00 0. -1.
          1   -1    0    0  501    0 -0.00000000000E+00 -0.00000000000E+00 -0.23202800021E+03  0.23202800021E+03  0.00000000000E+00 0. -1.
         25    2    1    2    0    0  0.30703295407E+01  0.20442788627E+01  0.85569887316E+03  0.86479019839E+03  0.12501167824E+03 0.  0.
          2    1    1    2  501    0  0.20687203854E+02 -0.55886824068E+02 -0.22303052034E+03  0.23085473898E+03  0.00000000000E+00 0. -1.
          1    1    1    2  502    0 -0.23757533395E+02  0.53842545205E+02  0.16037724788E+04  0.16048518946E+04  0.00000000000E+00 0. -1.
         22    1    3    3    0    0 -0.31391279049E+02 -0.40841023611E+02  0.19118486950E+03  0.19800266648E+03  0.00000000000E+00 0.  1.
         22    1    3    3    0    0  0.34461608590E+02  0.42885302474E+02  0.66451400367E+03  0.66678753190E+03  0.00000000000E+00 0.  1.
</event>
<event>
 7    1  0.5622879E-006  0.1255312E+03  0.7818608E-02  0.1391075E+00
          2   -1    0    0  502    0  0.00000000000E+00  0.00000000000E+00  0.16995816408E+04  0.16995816408E+04  0.00000000000E+00 0. -1.
          1   -1    0    0  501    0 -0.00000000000E+00 -0.00000000000E+00 -0.80790299489E+03  0.80790299489E+03  0.00000000000E+00 0. -1.
         25    2    1    2    0    0  0.10100011902E+03 -0.23726044060E+02  0.57204113808E+03  0.59466002072E+03  0.12500210953E+03 0.  0.
          2    1    1    2  501    0  0.26724125689E+02 -0.14210410533E+02 -0.79232754483E+03  0.79290545020E+03  0.00000000000E+00 0. -1.
          1    1    1    2  502    0 -0.12772424471E+03  0.37936454592E+02  0.11119650526E+04  0.11199191648E+04  0.00000000000E+00 0. -1.
         22    1    3    3    0    0  0.52715044693E+02 -0.74700689779E+02  0.29383297327E+03  0.30772859011E+03  0.00000000000E+00 0.  1.
         22    1    3    3    0    0  0.48285074324E+02  0.50974645719E+02  0.27820816481E+03  0.28693143062E+03  0.00000000000E+00 0.  1.
</event>
<event>
 7    1  0.5622879E-006  0.6200524E+02  0.7818608E-02  0.1446338E+00
          2   -1    0    0  502    0  0.00000000000E+00  0.00000000000E+00  0.20079400242E+04  0.20079400242E+04  0.00000000000E+00 0. -1.
          1   -1    0    0  501    0 -0.00000000000E+00 -0.00000000000E+00 -0.42082193940E+03  0.42082193940E+03  0.00000000000E+00 0. -1.
         25    2    1    2    0    0 -0.73337230431E+02 -0.40199655711E+02  0.18820769481E+03  0.24091752822E+03  0.12499902932E+03 0.  0.
          2    1    1    2  501    0  0.34834111392E+02  0.51122647624E+02 -0.39181666374E+03  0.39667018844E+03  0.00000000000E+00 0. -1.
          1    1    1    2  502    0  0.38503119040E+02 -0.10922991913E+02  0.17907270537E+04  0.17911742469E+04  0.00000000000E+00 0. -1.
         22    1    3    3    0    0 -0.23572021027E+02 -0.76637680561E+02  0.14472555181E+03  0.16545228800E+03  0.00000000000E+00 0.  1.
         22    1    3    3    0    0 -0.49765209404E+02  0.36438024850E+02  0.43482142999E+02  0.75465240222E+02  0.00000000000E+00 0.  1.
</event>
<event>
 7    1  0.5622879E-006  0.7374642E+02  0.7818608E-02  0.1369257E+00
          2   -1    0    0  502    0  0.00000000000E+00  0.00000000000E+00  0.68045769475E+03  0.68045769475E+03  0.00000000000E+00 0. -1.
          1   -1    0    0  501    0 -0.00000000000E+00 -0.00000000000E+00 -0.28170293628E+03  0.28170293628E+03  0.00000000000E+00 0. -1.
         25    2    1    2    0    0 -0.98469820259E+02  0.82499967450E+02  0.17497895147E+03  0.25049111482E+03  0.12500246005E+03 0.  0.
          2    1    1    2  501    0  0.36688194813E+02 -0.49423297969E+02 -0.23737437522E+03  0.24522495801E+03  0.00000000000E+00 0. -1.
          1    1    1    2  502    0  0.61781625446E+02 -0.33076669481E+02  0.46115018222E+03  0.46644455820E+03  0.00000000000E+00 0. -1.
         22    1    3    3    0    0 -0.11050444507E+03  0.16173597481E+02  0.10408032889E+03  0.15266149645E+03  0.00000000000E+00 0. -1.
         22    1    3    3    0    0  0.12034624814E+02  0.66326369969E+02  0.70898622577E+02  0.97829618373E+02  0.00000000000E+00 0. -1.
</event>
<event>
 7    1  0.5622879E-006  0.4899157E+02  0.7818608E-02  0.1456973E+00
          2   -1    0    0  502    0  0.00000000000E+00  0.00000000000E+00  0.15859582077E+03  0.15859582077E+03  0.00000000000E+00 0. -1.
          1   -1    0    0  501    0 -0.00000000000E+00 -0.00000000000E+00 -0.19484284377E+04  0.19484284377E+04  0.00000000000E+00 0. -1.
         25    2    1    2    0    0  0.54198382107E+02 -0.50754434117E+02 -0.12849820574E+03  0.19403670839E+03  0.12499991248E+03 0.  0.
          2    1    1    2  501    0 -0.48709720179E+02  0.42320270607E+01 -0.17824540196E+04  0.17831244710E+04  0.00000000000E+00 0. -1.
          1    1    1    2  502    0 -0.54886619276E+01  0.46522407056E+02  0.12111960844E+03  0.12986307911E+03  0.00000000000E+00 0. -1.
         22    1    3    3    0    0  0.23233426272E+02 -0.68217150617E+02 -0.13933832103E+03  0.15687109180E+03  0.00000000000E+00 0.  1.
         22    1    3    3    0    0  0.30964955834E+02  0.17462716501E+02  0.10840115287E+02  0.37165616595E+02  0.00000000000E+00 0.  1.
</event>
<event>
 7    1  0.5622879E-006  0.7168275E+02  0.7818608E-02  0.1523018E+00
          2   -1    0    0  502    0  0.00000000000E+00  0.00000000000E+00  0.17461186472E+03  0.17461186472E+03  0.00000000000E+00 0. -1.
          1   -1    0    0  501    0 -0.00000000000E+00 -0.00000000000E+00 -0.75048371200E+03  0.75048371200E+03  0.00000000000E+00 0. -1.
         25    2    1    2    0    0 -0.55504454794E+02  0.62241404526E+01  0.21767751500E+02  0.13862619853E+03  0.12499561388E+03 0.  0.
          2    1    1    2  501    0  0.68820671464E+02 -0.21419645665E+02 -0.68907191218E+03  0.69283128263E+03  0.00000000000E+00 0. -1.
          1    1    1    2  502    0 -0.13316216670E+02  0.15195505212E+02  0.91432313397E+02  0.93638095550E+02  0.00000000000E+00 0. -1.
         22    1    3    3    0    0  0.67424548453E+01  0.26572065754E+02 -0.40073774821E+02  0.48553504551E+02  0.00000000000E+00 0. -1.
         22    1    3    3    0    0 -0.62246909639E+02 -0.20347925301E+02  0.61841526321E+02  0.90072693983E+02  0.00000000000E+00 0. -1.
</event>
<event>
 7    1  0.5622879E-006  0.1418875E+03  0.7818608E-02  0.1215691E+00
          2   -1    0    0  502    0  0.00000000000E+00  0.00000000000E+00  0.75700115200E+03  0.75700115200E+03  0.00000000000E+00 0. -1.
          1   -1    0    0  501    0 -0.00000000000E+00 -0.00000000000E+00 -0.64612585736E+03  0.64612585736E+03  0.00000000000E+00 0. -1.
         25    2    1    2    0    0  0.90292452892E+02 -0.35683338616E+02  0.11418950954E+03  0.19516431032E+03  0.12499534483E+03 0.  0.
          2    1    1    2  501    0 -0.75716527964E+02 -0.11999610762E+03 -0.58689249113E+03  0.60380034332E+03  0.00000000000E+00 0. -1.
          1    1    1    2  502    0 -0.14575924928E+02  0.15567944623E+03  0.58357827624E+03  0.60416235572E+03  0.00000000000E+00 0. -1.
         22    1    3    3    0    0  0.80281879734E+02 -0.46468514410E+02  0.13894185157E+02  0.93795263347E+02  0.00000000000E+00 0. -1.
         22    1    3    3    0    0  0.10010573158E+02  0.10785175794E+02  0.10029532438E+03  0.10136904697E+03  0.00000000000E+00 0. -1.
</event>
<event>
 7    1  0.5622879E-006  0.1642063E+03  0.7818608E-02  0.1257826E+00
          2   -1    0    0  502    0  0.00000000000E+00  0.00000000000E+00  0.14835757593E+04  0.14835757593E+04  0.00000000000E+00 0. -1.
          1   -1    0    0  501    0 -0.00000000000E+00 -0.00000000000E+00 -0.14009204018E+03  0.14009204018E+03  0.00000000000E+00 0. -1.
         25    2    1    2    0    0  0.61335977681E+02 -0.18553347304E+03  0.36948172900E+02  0.23489561876E+03  0.12500404975E+03 0.  0.
          2    1    1    2  501    0 -0.93938329556E+00  0.13988874995E+03  0.82518600531E+02  0.16241632996E+03  0.00000000000E+00 0. -1.
          1    1    1    2  502    0 -0.60396594385E+02  0.45644723093E+02  0.12240169457E+04  0.12263558507E+04  0.00000000000E+00 0. -1.
         22    1    3    3    0    0  0.52561850367E+02 -0.15792860208E+03 -0.23278294892E+02  0.16806567312E+03  0.00000000000E+00 0.  1.
         22    1    3    3    0    0  0.87741273133E+01 -0.27604870966E+02  0.60226467792E+02  0.66829945637E+02  0.00000000000E+00 0.  1.
</event>
<event>
 7    1  0.6524385E-006  0.5149388E+02  0.7818608E-02  0.1441478E+00
          2   -1    0    0  502    0  0.00000000000E+00  0.00000000000E+00  0.14975903668E+04  0.14975903668E+04  0.00000000000E+00 0. -1.
          1   -1    0    0  501    0 -0.00000000000E+00 -0.00000000000E+00 -0.39302283520E+03  0.39302283520E+03  0.00000000000E+00 0. -1.
         25    2    1    2    0    0  0.35049358539E+00 -0.17497627397E+02 -0.57502951386E+02  0.13869927779E+03  0.12499844171E+03 0.  0.
          2    1    1    2  501    0 -0.51440120318E+02  0.11057895635E+02 -0.29211567879E+03  0.29681632844E+03  0.00000000000E+00 0. -1.
          1    1    1    2  502    0  0.51089626732E+02  0.64397317618E+01  0.14541861618E+04  0.14550975958E+04  0.00000000000E+00 0. -1.
         22    1    3    3    0    0  0.17361731091E+02 -0.47422170599E+02 -0.82102841599E+02  0.96390707900E+02  0.00000000000E+00 0.  1.
         22    1    3    3    0    0 -0.17011237506E+02  0.29924543202E+02  0.24599890213E+02  0.42308569887E+02  0.00000000000E+00 0.  1.
</event>
<event>
 7    1  0.7212053E-006  0.7925412E+02  0.7818608E-02  0.1509316E+00
          2   -1    0    0  502    0  0.00000000000E+00  0.00000000000E+00  0.95647605630E+03  0.95647605630E+03  0.00000000000E+00 0. -1.
          1   -1    0    0  501    0 -0.00000000000E+00 -0.00000000000E+00 -0.10251842540E+04  0.10251842540E+04  0.00000000000E+00 0. -1.
         25    2    1    2    0    0  0.60149268758E+02  0.79906492105E+01 -0.44432559843E+03  0.46554461436E+03  0.12499906211E+03 0.  0.
          2    1    1    2  501    0  0.19146668934E+02 -0.59080321790E+01 -0.56840922912E+03  0.56876229791E+03  0.00000000000E+00 0. -1.
          1    1    1    2  502    0 -0.79295937692E+02 -0.20826170315E+01  0.94402662982E+03  0.94735339807E+03  0.00000000000E+00 0. -1.
         22    1    3    3    0    0 -0.25257619714E+02  0.37892179997E+02 -0.10688783659E+03  0.11618422557E+03  0.00000000000E+00 0. -1.
         22    1    3    3    0    0  0.85406888472E+02 -0.29901530787E+02 -0.33743776184E+03  0.34936038879E+03  0.00000000000E+00 0. -1.
</event>
<event>
 7    1  0.5622879E-006  0.9982723E+02  0.7818608E-02  0.1378549E+00
          2   -1    0    0  502    0  0.00000000000E+00  0.00000000000E+00  0.59476565186E+03  0.59476565186E+03  0.00000000000E+00 0. -1.
          1   -1    0    0  501    0 -0.00000000000E+00 -0.00000000000E+00 -0.77394641632E+03  0.77394641632E+03  0.00000000000E+00 0. -1.
         25    2    1    2    0    0  0.35324028159E+02 -0.95813321767E+02 -0.22453154606E+03  0.27652673850E+03  0.12499856933E+03 0.  0.
          2    1    1    2  501    0  0.34440830199E+02  0.24253368101E+02 -0.51816580798E+03  0.51987517849E+03  0.00000000000E+00 0. -1.
          1    1    1    2  502    0 -0.69764858358E+02  0.71559953666E+02  0.56351658958E+03  0.57231015119E+03  0.00000000000E+00 0. -1.
         22    1    3    3    0    0 -0.28511901001E+02 -0.87255489797E+02 -0.96375694441E+02  0.13309666967E+03  0.00000000000E+00 0. -1.
         22    1    3    3    0    0  0.63835929160E+02 -0.85578319701E+01 -0.12815585162E+03  0.14343006883E+03  0.00000000000E+00 0. -1.
</event>
<event>
 7    1  0.5622879E-006  0.2103105E+03  0.7818608E-02  0.1240621E+00
          2   -1    0    0  502    0  0.00000000000E+00  0.00000000000E+00  0.16704172942E+04  0.16704172942E+04  0.00000000000E+00 0. -1.
          1   -1    0    0  501    0 -0.00000000000E+00 -0.00000000000E+00 -0.64911772210E+02  0.64911772210E+02  0.00000000000E+00 0. -1.
         25    2    1    2    0    0 -0.16888090642E+03 -0.14709503413E+02  0.49127523167E+03  0.53452188682E+03  0.12500065676E+03 0.  0.
          2    1    1    2  501    0  0.23743238763E+03 -0.45079575091E+00  0.29549320454E+03  0.37906539784E+03  0.00000000000E+00 0. -1.
          1    1    1    2  502    0 -0.68551481209E+02  0.15160299164E+02  0.81873708579E+03  0.82174178177E+03  0.00000000000E+00 0. -1.
         22    1    3    3    0    0 -0.28017846294E+02 -0.34465949268E+02  0.25417913499E+03  0.25803087807E+03  0.00000000000E+00 0. -1.
         22    1    3    3    0    0 -0.14086306012E+03  0.19756445855E+02  0.23709609667E+03  0.27649100875E+03  0.00000000000E+00 0. -1.
</event>
<event>
 7    1  0.5622879E-006  0.1051064E+03  0.7818608E-02  0.1324101E+00
          2   -1    0    0  502    0  0.00000000000E+00  0.00000000000E+00  0.28774914830E+03  0.28774914830E+03  0.00000000000E+00 0. -1.
          1   -1    0    0  501    0 -0.00000000000E+00 -0.00000000000E+00 -0.80318901401E+03  0.80318901401E+03  0.00000000000E+00 0. -1.
         25    2    1    2    0    0  0.62653597569E+02 -0.12871626254E+02  0.20979160133E+03  0.25244491076E+03  0.12499905971E+03 0.  0.
          2    1    1    2  501    0 -0.98111116540E+02 -0.39945727589E+02 -0.75907828293E+03  0.76643414065E+03  0.00000000000E+00 0. -1.
          1    1    1    2  502    0  0.35457518971E+02  0.52817353843E+02  0.33846815881E+02  0.72059110900E+02  0.00000000000E+00 0. -1.
         22    1    3    3    0    0 -0.17318850638E+02 -0.41858776231E+02  0.32343200721E+02  0.55661318416E+02  0.00000000000E+00 0.  1.
         22    1    3    3    0    0  0.79972448207E+02  0.28987149977E+02  0.17744840061E+03  0.19678359235E+03  0.00000000000E+00 0.  1.
</event>
<event>
 7    1  0.5622879E-006  0.4015961E+03  0.7818608E-02  0.1111137E+00
          2   -1    0    0  502    0  0.00000000000E+00  0.00000000000E+00  0.11743062172E+04  0.11743062172E+04  0.00000000000E+00 0. -1.
          1   -1    0    0  501    0 -0.00000000000E+00 -0.00000000000E+00 -0.16019598851E+04  0.16019598851E+04  0.00000000000E+00 0. -1.
         25    2    1    2    0    0  0.21118222708E+03  0.19365883731E+03 -0.11521733680E+03  0.33314852324E+03  0.12494488998E+03 0.  0.
          2    1    1    2  501    0 -0.28175695455E+03 -0.33721767827E+03 -0.13363691926E+04  0.14067641462E+04  0.00000000000E+00 0. -1.
          1    1    1    2  502    0  0.70574727465E+02  0.14355884095E+03  0.10239328615E+04  0.10363534329E+04  0.00000000000E+00 0. -1.
         22    1    3    3    0    0  0.84354037598E+02  0.95442312570E+02  0.12658792208E+02  0.12800423316E+03  0.00000000000E+00 0.  1.
         22    1    3    3    0    0  0.12682818948E+03  0.98216524743E+02 -0.12787612901E+03  0.20514429007E+03  0.00000000000E+00 0.  1.
</event>
<event>
 7    1  0.5622879E-006  0.4246117E+02  0.7818608E-02  0.1547405E+00
          2   -1    0    0  502    0  0.00000000000E+00  0.00000000000E+00  0.12868425264E+04  0.12868425264E+04  0.00000000000E+00 0. -1.
          1   -1    0    0  501    0 -0.00000000000E+00 -0.00000000000E+00 -0.25309423243E+03  0.25309423243E+03  0.00000000000E+00 0. -1.
         25    2    1    2    0    0  0.11023023709E+02 -0.18269658472E+02 -0.13834644334E+03  0.18766990065E+03  0.12499986302E+03 0.  0.
          2    1    1    2  501    0  0.28857920071E+02  0.35291203952E+01 -0.87372317793E+02  0.92082333583E+02  0.00000000000E+00 0. -1.
          1    1    1    2  502    0 -0.39880943780E+02  0.14740538077E+02  0.12594670551E+04  0.12601845246E+04  0.00000000000E+00 0. -1.
         22    1    3    3    0    0 -0.42938362176E+02  0.26621739538E+01 -0.62793524954E+01  0.43476664824E+02  0.00000000000E+00 0.  1.
         22    1    3    3    0    0  0.53961385885E+02 -0.20931832426E+02 -0.13206709084E+03  0.14419323583E+03  0.00000000000E+00 0.  1.
</event>
<event>
 7    1  0.5622879E-006  0.4290474E+02  0.7818608E-02  0.1586420E+00
          2   -1    0    0  502    0  0.00000000000E+00  0.00000000000E+00  0.94916022040E+03  0.94916022040E+03  0.00000000000E+00 0. -1.
          1   -1    0    0  501    0 -0.00000000000E+00 -0.00000000000E+00 -0.50306788199E+03  0.50306788199E+03  0.00000000000E+00 0. -1.
         25    2    1    2    0    0  0.10296690764E+02  0.18288776795E+02 -0.37431408446E+02  0.13216216697E+03  0.12500090736E+03 0.  0.
          2    1    1    2  501    0 -0.23621862592E+02 -0.36441074643E+02 -0.41700274143E+03  0.41925795243E+03  0.00000000000E+00 0. -1.
          1    1    1    2  502    0  0.13325171827E+02  0.18152297848E+02  0.90052648829E+03  0.90080798300E+03  0.00000000000E+00 0. -1.
         22    1    3    3    0    0 -0.38133052394E+02 -0.16062242309E+02  0.23085141703E+02  0.47381948887E+02  0.00000000000E+00 0. -1.
         22    1    3    3    0    0  0.48429743158E+02  0.34351019104E+02 -0.60516550149E+02  0.84780218080E+02  0.00000000000E+00 0. -1.
</event>
<event>
 7    1  0.5622879E-006  0.7681170E+02  0.7818608E-02  0.1399618E+00
          2   -1    0    0  502    0  0.00000000000E+00  0.00000000000E+00  0.81254552393E+03  0.81254552393E+03  0.00000000000E+00 0. -1.
          1   -1    0    0  501    0 -0.00000000000E+00 -0.00000000000E+00 -0.51486570554E+03  0.51486570554E+03  0.00000000000E+00 0. -1.
         25    2    1    2    0    0  0.10147902092E+03 -0.66430292185E+02  0.84045400089E+01  0.17437533590E+03  0.12500058429E+03 0.  0.
          2    1    1    2  501    0 -0.61352897881E+02  0.43515042513E+02 -0.42785600963E+03  0.43441742827E+03  0.00000000000E+00 0. -1.
          1    1    1    2  502    0 -0.40126123034E+02  0.22915249673E+02  0.71713128801E+03  0.71861846529E+03  0.00000000000E+00 0. -1.
         22    1    3    3    0    0  0.96301776613E+02 -0.30698503690E+00  0.35626084924E+02  0.10268078859E+03  0.00000000000E+00 0. -1.
         22    1    3    3    0    0  0.51772443018E+01 -0.66123307149E+02 -0.27221544916E+02  0.71694547313E+02  0.00000000000E+00 0. -1.
</event>
<event>
 7    1  0.5622879E-006  0.1050724E+03  0.7818608E-02  0.1340719E+00
          2   -1    0    0  502    0  0.00000000000E+00  0.00000000000E+00  0.34664651403E+03  0.34664651403E+03  0.00000000000E+00 0. -1.
          1   -1    0    0  501    0 -0.00000000000E+00 -0.00000000000E+00 -0.33538541683E+04  0.33538541683E+04  0.00000000000E+00 0. -1.
         25    2    1    2    0    0 -0.56372261063E+02  0.39574580826E+02 -0.11676563998E+04  0.11763463424E+04  0.12500107991E+03 0.  0.
          2    1    1    2  501    0  0.11127593233E+03 -0.43009307651E+02 -0.21779996121E+04  0.21812644141E+04  0.00000000000E+00 0. -1.
          1    1    1    2  502    0 -0.54903671262E+02  0.34347268255E+01  0.33844835766E+03  0.34288992588E+03  0.00000000000E+00 0. -1.
         22    1    3    3    0    0 -0.54579351579E+02  0.45688250859E+02 -0.28794744334E+03  0.29661431525E+03  0.00000000000E+00 0. -1.
         22    1    3    3    0    0 -0.17929094840E+01 -0.61136700333E+01 -0.87970895650E+03  0.87973202717E+03  0.00000000000E+00 0. -1.
</event>
<event>
 7    1  0.5622879E-006  0.2781934E+02  0.7818608E-02  0.1629377E+00
          2   -1    0    0  502    0  0.00000000000E+00  0.00000000000E+00  0.11565435263E+04  0.11565435263E+04  0.00000000000E+00 0. -1.
          1   -1    0    0  501    0 -0.00000000000E+00 -0.00000000000E+00 -0.13959583269E+04  0.13959583269E+04  0.00000000000E+00 0. -1.
         25    2    1    2    0    0  0.51077444726E+02 -0.11348260292E+02  0.10175901135E+04  0.10265730947E+04  0.12499996470E+03 0.  0.
          2    1    1    2  501    0 -0.24281158359E+02  0.13570994406E+02 -0.13899820806E+04  0.13902603824E+04  0.00000000000E+00 0. -1.
          1    1    1    2  502    0 -0.26796286367E+02 -0.22227341141E+01  0.13297716643E+03  0.13566837621E+03  0.00000000000E+00 0. -1.
         22    1    3    3    0    0  0.82651089238E+02 -0.40802107505E+02  0.66957563960E+03  0.67589019202E+03  0.00000000000E+00 0.  1.
         22    1    3    3    0    0 -0.31573644512E+02  0.29453847213E+02  0.34801447393E+03  0.35068290265E+03  0.00000000000E+00 0.  1.
</event>
<event>
 7    1  0.8071187E-006  0.7979338E+02  0.7818608E-02  0.1340928E+00
          2   -1    0    0  502    0  0.00000000000E+00  0.00000000000E+00  0.14519215739E+04  0.14519215739E+04  0.00000000000E+00 0. -1.
          1   -1    0    0  501    0 -0.00000000000E+00 -0.00000000000E+00 -0.11195013121E+04  0.11195013121E+04  0.00000000000E+00 0. -1.
         25    2    1    2    0    0 -0.72415545675E+02  0.10286664454E+03 -0.53582101677E+03  0.56440494710E+03  0.12499289776E+03 0.  0.
          2    1    1    2  501    0  0.61002779303E+01 -0.74043256676E+02 -0.56605020156E+03  0.57090493774E+03  0.00000000000E+00 0. -1.
          1    1    1    2  502    0  0.66315267744E+02 -0.28823387866E+02  0.14342914800E+04  0.14361130012E+04  0.00000000000E+00 0. -1.
         22    1    3    3    0    0 -0.33056706381E+02  0.24834097231E+01 -0.22941688176E+02  0.40314193741E+02  0.00000000000E+00 0. -1.
         22    1    3    3    0    0 -0.39358839293E+02  0.10038323482E+03 -0.51287932859E+03  0.52409075336E+03  0.00000000000E+00 0. -1.
</event>
<event>
 7    1  0.5622879E-006  0.1057907E+03  0.7818608E-02  0.1309421E+00
          2   -1    0    0  502    0  0.00000000000E+00  0.00000000000E+00  0.97013444184E+03  0.97013444184E+03  0.00000000000E+00 0. -1.
          1   -1    0    0  501    0 -0.00000000000E+00 -0.00000000000E+00 -0.49589583640E+03  0.49589583640E+03  0.00000000000E+00 0. -1.
         25    2    1    2    0    0  0.13963846271E+03 -0.29509361752E+02  0.10321554363E+03  0.21598299471E+03  0.12500201141E+03 0.  0.
          2    1    1    2  501    0 -0.39676209667E+02  0.60212469218E+02 -0.43314621258E+03  0.43910748631E+03  0.00000000000E+00 0. -1.
          1    1    1    2  502    0 -0.99962253042E+02 -0.30703107466E+02  0.80416927440E+03  0.81093979723E+03  0.00000000000E+00 0. -1.
         22    1    3    3    0    0 -0.18814844158E+02  0.10397292198E+02  0.30054031083E+02  0.36950599861E+02  0.00000000000E+00 0.  1.
         22    1    3    3    0    0  0.15845330687E+03 -0.39906653950E+02  0.73161512545E+02  0.17903239485E+03  0.00000000000E+00 0.  1.
</event>
<event>
 7    1  0.5622879E-006  0.7958032E+02  0.7818608E-02  0.1436788E+00
          2   -1    0    0  502    0  0.00000000000E+00  0.00000000000E+00  0.24255971058E+03  0.24255971058E+03  0.00000000000E+00 0. -1.
          1   -1    0    0  501    0 -0.00000000000E+00 -0.00000000000E+00 -0.80218553758E+03  0.80218553758E+03  0.00000000000E+00 0. -1.
         25    2    1    2    0    0 -0.57369974492E+02  0.14089869605E+02 -0.11537570852E+03  0.18006988854E+03  0.12499508888E+03 0.  0.
          2    1    1    2  501    0 -0.22822095061E+02 -0.24503118835E+02 -0.64623630584E+03  0.64710324821E+03  0.00000000000E+00 0. -1.
          1    1    1    2  502    0  0.80192069554E+02  0.10413249230E+02  0.20198618736E+03  0.21757211141E+03  0.00000000000E+00 0. -1.
         22    1    3    3    0    0  0.39493373086E+02 -0.24609255557E+01 -0.26958797381E+02  0.47880679074E+02  0.00000000000E+00 0. -1.
         22    1    3    3    0    0 -0.96863347579E+02  0.16550795161E+02 -0.88416911141E+02  0.13218920947E+03  0.00000000000E+00 0. -1.
</event>
<event>
 7    1  0.5622879E-006  0.2263253E+03  0.7818608E-02  0.1285379E+00
          2   -1    0    0  502    0  0.00000000000E+00  0.00000000000E+00  0.53798580860E+03  0.53798580860E+03  0.00000000000E+00 0. -1.
          1   -1    0    0  501    0 -0.00000000000E+00 -0.00000000000E+00 -0.10633312291E+04  0.10633312291E+04  0.00000000000E+00 0. -1.
         25    2    1    2    0    0 -0.21653609374E+03 -0.14944352447E+02 -0.39871443998E+03  0.47086090946E+03  0.12500231137E+03 0.  0.
          2    1    1    2  501    0 -0.90295546808E+01  0.41127780150E+02 -0.60208609770E+03  0.60355670505E+03  0.00000000000E+00 0. -1.
          1    1    1    2  502    0  0.22556564842E+03 -0.26183427703E+02  0.47545511722E+03  0.52689942315E+03  0.00000000000E+00 0. -1.
         22    1    3    3    0    0 -0.61749503688E+02  0.16642105240E+02 -0.31884484199E+02  0.71460347082E+02  0.00000000000E+00 0. -1.
         22    1    3    3    0    0 -0.15478659005E+03 -0.31586457687E+02 -0.36682995578E+03  0.39940056238E+03  0.00000000000E+00 0. -1.
</event>
<event>
 7    1  0.5622879E-006  0.5027593E+02  0.7818608E-02  0.1472184E+00
          2   -1    0    0  502    0  0.00000000000E+00  0.00000000000E+00  0.15633964694E+03  0.15633964694E+03  0.00000000000E+00 0. -1.
          1   -1    0    0  501    0 -0.00000000000E+00 -0.00000000000E+00 -0.33400345039E+03  0.33400345039E+03  0.00000000000E+00 0. -1.
         25    2    1    2    0    0 -0.12890999653E+02 -0.88247070171E+02 -0.57540303989E+02  0.16398201923E+03  0.12500197111E+03 0.  0.
          2    1    1    2  501    0  0.84205976564E+01  0.47589989181E+02 -0.21641332825E+03  0.22174409164E+03  0.00000000000E+00 0. -1.
          1    1    1    2  502    0  0.44704019969E+01  0.40657080990E+02  0.96289828784E+02  0.10461698646E+03  0.00000000000E+00 0. -1.
         22    1    3    3    0    0 -0.18602047604E+02 -0.44150266958E+02  0.36321278831E+02  0.60120857806E+02  0.00000000000E+00 0. -1.
         22    1    3    3    0    0  0.57110479506E+01 -0.44096803214E+02 -0.93861582820E+02  0.10386116142E+03  0.00000000000E+00 0. -1.
</event>
<event>
 7    1  0.5622879E-006  0.1061068E+03  0.7818608E-02  0.1333838E+00
          2   -1    0    0  502    0  0.00000000000E+00  0.00000000000E+00  0.28346894047E+03  0.28346894047E+03  0.00000000000E+00 0. -1.
          1   -1    0    0  501    0 -0.00000000000E+00 -0.00000000000E+00 -0.13554895008E+04  0.13554895008E+04  0.00000000000E+00 0. -1.
         25    2    1    2    0    0  0.84168900651E+02  0.45757911181E+02  0.45947479225E+02  0.16405184992E+03  0.12499459325E+03 0.  0.
          2    1    1    2  501    0  0.28251418581E+02 -0.50465343811E+02 -0.12779832632E+04  0.12792912548E+04  0.00000000000E+00 0. -1.
          1    1    1    2  502    0 -0.11242031923E+03  0.47074326296E+01  0.16001522365E+03  0.19561533656E+03  0.00000000000E+00 0. -1.
         22    1    3    3    0    0  0.51815382379E+02 -0.28428463250E+02 -0.17024781287E+02  0.61504914858E+02  0.00000000000E+00 0.  1.
         22    1    3    3    0    0  0.32353518272E+02  0.74186374431E+02  0.62972260512E+02  0.10254693506E+03  0.00000000000E+00 0.  1.
</event>
<event>
 7    1  0.5622879E-006  0.1035802E+03  0.7818608E-02  0.1431081E+00
          2   -1    0    0  502    0  0.00000000000E+00  0.00000000000E+00  0.25295696498E+03  0.25295696498E+03  0.00000000000E+00 0. -1.
          1   -1    0    0  501    0 -0.00000000000E+00 -0.00000000000E+00 -0.13277091036E+04  0.13277091036E+04  0.00000000000E+00 0. -1.
         25    2    1    2    0    0  0.88553589558E+02 -0.50289947835E+02  0.96676282232E+01  0.16152512930E+03  0.12500434906E+03 0.  0.
          2    1    1    2  501    0  0.12581004956E+02  0.23728481557E+02 -0.12352875549E+04  0.12355794859E+04  0.00000000000E+00 0. -1.
          1    1    1    2  502    0 -0.10113459451E+03  0.26561466279E+02  0.15086778809E+03  0.18356145342E+03  0.00000000000E+00 0. -1.
         22    1    3    3    0    0  0.37217444410E+02  0.37401058458E+02 -0.18779362143E+02  0.56005729927E+02  0.00000000000E+00 0.  1.
         22    1    3    3    0    0  0.51336145148E+02 -0.87691006294E+02  0.28446990366E+02  0.10551939937E+03  0.00000000000E+00 0.  1.
</event>
<event>
 7    1  0.5622879E-006  0.5070751E+02  0.7818608E-02  0.1507521E+00
          2   -1    0    0  502    0  0.00000000000E+00  0.00000000000E+00  0.28170690413E+04  0.28170690413E+04  0.00000000000E+00 0. -1.
          1   -1    0    0  501    0 -0.00000000000E+00 -0.00000000000E+00 -0.32602057189E+02  0.32602057189E+02  0.00000000000E+00 0. -1.
         25    2    1    2    0    0  0.11120958822E+02 -0.79736368432E+02  0.10678541942E+04  0.10781555670E+04  0.12500112954E+03 0.  0.
          2    1    1    2  501    0 -0.13798899961E+02  0.48147714385E+02 -0.43372798903E+01  0.50273492394E+02  0.00000000000E+00 0. -1.
          1    1    1    2  502    0  0.26779411389E+01  0.31588654047E+02  0.17209500698E+04  0.17212420391E+04  0.00000000000E+00 0. -1.
         22    1    3    3    0    0 -0.60040698936E+01 -0.10591105431E+03  0.60375537488E+03  0.61300387681E+03  0.00000000000E+00 0.  1.
         22    1    3    3    0    0  0.17125028715E+02  0.26174685877E+02  0.46409881928E+03  0.46515169015E+03  0.00000000000E+00 0.  1.
</event>
<event>
 7    1  0.5622879E-006  0.3410256E+02  0.7818608E-02  0.1623314E+00
          2   -1    0    0  502    0  0.00000000000E+00  0.00000000000E+00  0.13201689315E+04  0.13201689315E+04  0.00000000000E+00 0. -1.
          1   -1    0    0  501    0 -0.00000000000E+00 -0.00000000000E+00 -0.10869055308E+04  0.10869055308E+04  0.00000000000E+00 0. -1.
         25    2    1    2    0    0  0.49281646807E+02  0.18333680928E+02  0.26390556014E+01  0.13563101866E+03  0.12499601610E+03 0.  0.
          2    1    1    2  501    0 -0.34003254464E+02 -0.15156784833E+01 -0.10200224909E+04  0.10205902217E+04  0.00000000000E+00 0. -1.
          1    1    1    2  502    0 -0.15278392343E+02 -0.16818002445E+02  0.12506468360E+04  0.12508532219E+04  0.00000000000E+00 0. -1.
         22    1    3    3    0    0  0.46078287748E+02  0.57054190753E+02 -0.35243660814E+02  0.81366485188E+02  0.00000000000E+00 0.  1.
         22    1    3    3    0    0  0.32033590585E+01 -0.38720509825E+02  0.37882716416E+02  0.54264533476E+02  0.00000000000E+00 0.  1.
</event>
<event>
 7    1  0.5622879E-006  0.3215686E+03  0.7818608E-02  0.1143597E+00
          2   -1    0    0  502    0  0.00000000000E+00  0.00000000000E+00  0.26972322497E+04  0.26972322497E+04  0.00000000000E+00 0. -1.
          1   -1    0    0  501    0 -0.00000000000E+00 -0.00000000000E+00 -0.14377434236E+03  0.14377434236E+03  0.00000000000E+00 0. -1.
         25    2    1    2    0    0 -0.82814132583E+02  0.39540943507E+03  0.95620147979E+03  0.10455397438E+04  0.12500113633E+03 0.  0.
          2    1    1    2  501    0  0.13538586655E+03 -0.27233000453E+03  0.14476644994E+03  0.33682382525E+03  0.00000000000E+00 0. -1.
          1    1    1    2  502    0 -0.52571733968E+02 -0.12307943054E+03  0.14524899776E+04  0.14586430230E+04  0.00000000000E+00 0. -1.
         22    1    3    3    0    0 -0.11120306166E+03  0.33850375889E+03  0.85147332299E+03  0.92301556621E+03  0.00000000000E+00 0.  1.
         22    1    3    3    0    0  0.28388929073E+02  0.56905676177E+02  0.10472815681E+03  0.12252417763E+03  0.00000000000E+00 0.  1.
</event>
<event>
 7    1  0.5622879E-006  0.1146828E+03  0.7818608E-02  0.1347487E+00
          2   -1    0    0  502    0  0.00000000000E+00  0.00000000000E+00  0.68642717090E+03  0.68642717090E+03  0.00000000000E+00 0. -1.
          1   -1    0    0  501    0 -0.00000000000E+00 -0.00000000000E+00 -0.39386001991E+03  0.39386001991E+03  0.00000000000E+00 0. -1.
         25    2    1    2    0    0 -0.10159801874E+03 -0.10995681264E+03  0.36104137895E+03  0.41034917468E+03  0.12499163887E+03 0.  0.
          2    1    1    2  501    0  0.30195075002E+02  0.36730513174E+02 -0.35889667258E+03  0.36203272607E+03  0.00000000000E+00 0. -1.
          1    1    1    2  502    0  0.71402943740E+02  0.73226299467E+02  0.29042244462E+03  0.30790529006E+03  0.00000000000E+00 0. -1.
         22    1    3    3    0    0 -0.93770703150E+02 -0.97616110949E+01  0.18513116709E+03  0.20775414039E+03  0.00000000000E+00 0. -1.
         22    1    3    3    0    0 -0.78273155913E+01 -0.10019520155E+03  0.17591021186E+03  0.20259503429E+03  0.00000000000E+00 0. -1.
</event>
<event>
 7    1  0.5622879E-006  0.9442408E+02  0.7818608E-02  0.1406805E+00
          2   -1    0    0  502    0  0.00000000000E+00  0.00000000000E+00  0.12640968005E+03  0.12640968005E+03  0.00000000000E+00 0. -1.
          1   -1    0    0  501    0 -0.00000000000E+00 -0.00000000000E+00 -0.18075866138E+03  0.18075866138E+03  0.00000000000E+00 0. -1.
         25    2    1    2    0    0 -0.66932141301E+02  0.21689188217E+02 -0.38994859063E+02  0.14864696022E+03  0.12499994930E+03 0.  0.
          2    1    1    2  501    0 -0.31565765221E+02  0.16286269822E+02 -0.36422250210E+02  0.50874555812E+02  0.00000000000E+00 0. -1.
          1    1    1    2  502    0  0.98497906522E+02 -0.37975458039E+02  0.21068127949E+02  0.10764682540E+03  0.00000000000E+00 0. -1.
         22    1    3    3    0    0 -0.84464203027E+02  0.57511165022E+02 -0.18640859086E+02  0.10387115732E+03  0.00000000000E+00 0. -1.
         22    1    3    3    0    0  0.17532061726E+02 -0.35821976804E+02 -0.20353999977E+02  0.44775802903E+02  0.00000000000E+00 0. -1.
</event>
<event>
 7    1  0.5622879E-006  0.6029126E+02  0.7818608E-02  0.1433806E+00
          2   -1    0    0  502    0  0.00000000000E+00  0.00000000000E+00  0.19781657921E+04  0.19781657921E+04  0.00000000000E+00 0. -1.
          1   -1    0    0  501    0 -0.00000000000E+00 -0.00000000000E+00 -0.66435732427E+02  0.66435732427E+02  0.00000000000E+00 0. -1.
         25    2    1    2    0    0 -0.19430835567E+02  0.13201800735E+02  0.35020194439E+03  0.37258216719E+03  0.12499689811E+03 0.  0.
          2    1    1    2  501    0  0.62286289071E+02  0.11694420093E+01 -0.37261825565E+02  0.72590585101E+02  0.00000000000E+00 0. -1.
          1    1    1    2  502    0 -0.42855453504E+02 -0.14371242745E+02  0.15987899408E+04  0.15994287722E+04  0.00000000000E+00 0. -1.
         22    1    3    3    0    0 -0.39915696385E+01 -0.19134730204E+02  0.33166064062E+03  0.33223613750E+03  0.00000000000E+00 0. -1.
         22    1    3    3    0    0 -0.15439265928E+02  0.32336530939E+02  0.18541303773E+02  0.40346029683E+02  0.00000000000E+00 0. -1.
</event>
<event>
 7    1  0.5622879E-006  0.6193727E+02  0.7818608E-02  0.1466751E+00
          2   -1    0    0  502    0  0.00000000000E+00  0.00000000000E+00  0.18674962754E+04  0.18674962754E+04  0.00000000000E+00 0. -1.
          1   -1    0    0  501    0 -0.00000000000E+00 -0.00000000000E+00 -0.33671589260E+04  0.33671589260E+04  0.00000000000E+00 0. -1.
         25    2    1    2    0    0  0.99952461812E+01  0.47054058652E+02  0.47569734930E+03  0.49419243568E+03  0.12499682383E+03 0.  0.
          2    1    1    2  501    0  0.22884075624E+02 -0.57568594657E+02 -0.33574101178E+04  0.33579816145E+04  0.00000000000E+00 0. -1.
          1    1    1    2  502    0 -0.32879321805E+02  0.10514536005E+02  0.13820501179E+04  0.13824811513E+04  0.00000000000E+00 0. -1.
         22    1    3    3    0    0 -0.28907890628E+02 -0.16933966608E+02  0.40323973640E+02  0.52425644639E+02  0.00000000000E+00 0. -1.
         22    1    3    3    0    0  0.38903136809E+02  0.63988025261E+02  0.43537337566E+03  0.44176679104E+03  0.00000000000E+00 0. -1.
</event>
<event>
 7    1  0.5622879E-006  0.8356863E+02  0.7818608E-02  0.1449795E+00
          2   -1    0    0  502    0  0.00000000000E+00  0.00000000000E+00  0.54185977659E+02  0.54185977659E+02  0.00000000000E+00 0. -1.
          1   -1    0    0  501    0 -0.00000000000E+00 -0.00000000000E+00 -0.86226063637E+03  0.86226063637E+03  0.00000000000E+00 0. -1.
         25    2    1    2    0    0  0.81744815381E+02 -0.14176135696E+02 -0.13756188206E+03  0.20354690293E+03  0.12499957052E+03 0.  0.
          2    1    1    2  501    0 -0.72877542865E+02  0.41731182400E+02 -0.67785422824E+03  0.68303658949E+03  0.00000000000E+00 0. -1.
          1    1    1    2  502    0 -0.88672725157E+01 -0.27555046704E+02  0.73414515942E+01  0.29863121609E+02  0.00000000000E+00 0. -1.
         22    1    3    3    0    0  0.81101727683E+02  0.27627499950E+02 -0.13717852237E+03  0.16173656354E+03  0.00000000000E+00 0. -1.
         22    1    3    3    0    0  0.64308769776E+00 -0.41803635647E+02 -0.38335969358E+00  0.41810339388E+02  0.00000000000E+00 0. -1.
</event>
<event>
 7    1  0.5622879E-006  0.6218615E+02  0.7818608E-02  0.1442613E+00
          2   -1    0    0  502    0  0.00000000000E+00  0.00000000000E+00  0.10265529755E+03  0.10265529755E+03  0.00000000000E+00 0. -1.
          1   -1    0    0  501    0 -0.00000000000E+00 -0.00000000000E+00 -0.22529555589E+04  0.22529555589E+04  0.00000000000E+00 0. -1.
         25    2    1    2    0    0 -0.96056755304E+02  0.27513396742E+02 -0.86368279047E+03  0.87838341653E+03  0.12500230655E+03 0.  0.
          2    1    1    2  501    0  0.57107016185E+02 -0.14630044493E+02 -0.13768473765E+04  0.13781088301E+04  0.00000000000E+00 0. -1.
          1    1    1    2  502    0  0.38949739119E+02 -0.12883352249E+02  0.90229905613E+02  0.99118609804E+02  0.00000000000E+00 0. -1.
         22    1    3    3    0    0 -0.47499767175E+02 -0.49671750829E+02 -0.38763782039E+03  0.39368336326E+03  0.00000000000E+00 0. -1.
         22    1    3    3    0    0 -0.48556988129E+02  0.77185147571E+02 -0.47604497008E+03  0.48470005327E+03  0.00000000000E+00 0. -1.
</event>
<event>
 7    1  0.5622879E-006  0.7227196E+02  0.7818608E-02  0.1382629E+00
          2   -1    0    0  502    0  0.00000000000E+00  0.00000000000E+00  0.35959104156E+03  0.35959104156E+03  0.00000000000E+00 0. -1.
          1   -1    0    0  501    0 -0.00000000000E+00 -0.00000000000E+00 -0.13091808678E+04  0.13091808678E+04  0.00000000000E+00 0. -1.
         25    2    1    2    0    0  0.69335811480E+02  0.95098228873E+02 -0.28434116038E+03  0.33215348636E+03  0.12499966052E+03 0.  0.
          2    1    1    2  501    0 -0.49929063516E+02 -0.25975407416E+02 -0.99629135926E+03  0.99787980525E+03  0.00000000000E+00 0. -1.
          1    1    1    2  502    0 -0.19406747964E+02 -0.69122821457E+02  0.33104269339E+03  0.33873861776E+03  0.00000000000E+00 0. -1.
         22    1    3    3    0    0  0.21671540290E+02 -0.29373868511E+02 -0.42578127294E+02  0.56083658349E+02  0.00000000000E+00 0.  1.
         22    1    3    3    0    0  0.47664271190E+02  0.12447209738E+03 -0.24176303308E+03  0.27606982802E+03  0.00000000000E+00 0.  1.
</event>
<event>
 7    1  0.5622879E-006  0.8612919E+02  0.7818608E-02  0.1345664E+00
          2   -1    0    0  502    0  0.00000000000E+00  0.00000000000E+00  0.46439375340E+02  0.46439375340E+02  0.00000000000E+00 0. -1.
          1   -1    0    0  501    0 -0.00000000000E+00 -0.00000000000E+00 -0.24552799587E+04  0.24552799587E+04  0.00000000000E+00 0. -1.
         25    2    1    2    0    0  0.10014878078E+03 -0.48131229079E+02 -0.23385377930E+03  0.28750501662E+03  0.12500060395E+03 0.  0.
          2    1    1    2  501    0 -0.18833876322E+02  0.61489750729E+02 -0.21053336985E+04  0.21063156664E+04  0.00000000000E+00 0. -1.
          1    1    1    2  502    0 -0.81314904460E+02 -0.13358521651E+02 -0.69653105619E+02  0.10789865111E+03  0.00000000000E+00 0. -1.
         22    1    3    3    0    0  0.12699289217E+02 -0.37916085406E+02 -0.17979856998E+03  0.18419127896E+03  0.00000000000E+00 0. -1.
         22    1    3    3    0    0  0.87449491566E+02 -0.10215143673E+02 -0.54055209320E+02  0.10331373766E+03  0.00000000000E+00 0. -1.
</event>
<event>
 7    1  0.5622879E-006  0.5652882E+02  0.7818608E-02  0.1447183E+00
          2   -1    0    0  502    0  0.00000000000E+00  0.00000000000E+00  0.45370779457E+03  0.45370779457E+03  0.00000000000E+00 0. -1.
          1   -1    0    0  501    0 -0.00000000000E+00 -0.00000000000E+00 -0.11878349193E+04  0.11878349193E+04  0.00000000000E+00 0. -1.
         25    2    1    2    0    0 -0.15676041192E+02  0.37150667818E+02 -0.15762296043E+03  0.20517358144E+03  0.12500116191E+03 0.  0.
          2    1    1    2  501    0 -0.38614382975E+02 -0.20302303157E+02 -0.10040819523E+04  0.10050292638E+04  0.00000000000E+00 0. -1.
          1    1    1    2  502    0  0.54290424167E+02 -0.16848364661E+02  0.42757778798E+03  0.43133986869E+03  0.00000000000E+00 0. -1.
         22    1    3    3    0    0 -0.18268057407E+01  0.47676672448E+02 -0.11385134646E+01  0.47725239945E+02  0.00000000000E+00 0. -1.
         22    1    3    3    0    0 -0.13849235451E+02 -0.10526004630E+02 -0.15648444697E+03  0.15744834149E+03  0.00000000000E+00 0. -1.
</event>
<event>
 7    1  0.5622879E-006  0.1014720E+03  0.7818608E-02  0.1349087E+00
          2   -1    0    0  502    0  0.00000000000E+00  0.00000000000E+00  0.18938904169E+04  0.18938904169E+04  0.00000000000E+00 0. -1.
          1   -1    0    0  501    0 -0.00000000000E+00 -0.00000000000E+00 -0.11339385931E+04  0.11339385931E+04  0.00000000000E+00 0. -1.
         25    2    1    2    0    0  0.46635051072E+02 -0.16173172558E+02  0.11538289433E+03  0.17713092088E+03  0.12500300528E+03 0.  0.
          2    1    1    2  501    0 -0.97707477709E+02  0.30368484818E+02 -0.11002885023E+04  0.11050356485E+04  0.00000000000E+00 0. -1.
          1    1    1    2  502    0  0.51072426637E+02 -0.14195312260E+02  0.17448574317E+04  0.17456624407E+04  0.00000000000E+00 0. -1.
         22    1    3    3    0    0 -0.23196166506E+02 -0.55882876548E+01  0.10262110212E+03  0.10535834898E+03  0.00000000000E+00 0. -1.
         22    1    3    3    0    0  0.69831217578E+02 -0.10584884903E+02  0.12761792207E+02  0.71772571901E+02  0.00000000000E+00 0. -1.
</event>
<event>
 7    1  0.5622879E-006  0.1528625E+03  0.7818608E-02  0.1312427E+00
          2   -1    0    0  502    0  0.00000000000E+00  0.00000000000E+00  0.60822148859E+03  0.60822148859E+03  0.00000000000E+00 0. -1.
          1   -1    0    0  501    0 -0.00000000000E+00 -0.00000000000E+00 -0.62145516128E+03  0.62145516128E+03  0.00000000000E+00 0. -1.
         25    2    1    2    0    0  0.12308211134E+03 -0.16256319715E+02 -0.10342402937E+03  0.20429090908E+03  0.12499908646E+03 0.  0.
          2    1    1    2  501    0  0.30609742324E+02  0.37702009268E+02 -0.45548875859E+03  0.45807030796E+03  0.00000000000E+00 0. -1.
          1    1    1    2  502    0 -0.15369185367E+03 -0.21445689553E+02  0.54567911528E+03  0.56731543284E+03  0.00000000000E+00 0. -1.
         22    1    3    3    0    0  0.98867736963E+02  0.28253101102E+02 -0.17161542764E+02  0.10424771309E+03  0.00000000000E+00 0.  1.
         22    1    3    3    0    0  0.24214374379E+02 -0.44509420816E+02 -0.86262486606E+02  0.10004319599E+03  0.00000000000E+00 0.  1.
</event>
<event>
 7    1  0.5622879E-006  0.5394690E+02  0.7818608E-02  0.1426934E+00
          2   -1    0    0  502    0  0.00000000000E+00  0.00000000000E+00  0.12223293604E+04  0.12223293604E+04  0.00000000000E+00 0. -1.
          1   -1    0    0  501    0 -0.00000000000E+00 -0.00000000000E+00 -0.11275818450E+04  0.11275818450E+04  0.00000000000E+00 0. -1.
         25    2    1    2    0    0 -0.33850972757E+02  0.17209766498E+02 -0.18059417673E+02  0.13187530494E+03  0.12499155598E+03 0.  0.
          2    1    1    2  501    0  0.38362233351E+02  0.36882668076E+02 -0.10513090712E+04  0.10526550980E+04  0.00000000000E+00 0. -1.
          1    1    1    2  502    0 -0.45112605937E+01 -0.54092434573E+02  0.11641160043E+04  0.11653808023E+04  0.00000000000E+00 0. -1.
         22    1    3    3    0    0 -0.15361922125E+02  0.34906103795E+02 -0.66745317699E+02  0.76872375846E+02  0.00000000000E+00 0.  1.
         22    1    3    3    0    0 -0.18489050633E+02 -0.17696337297E+02  0.48685900026E+02  0.55002929089E+02  0.00000000000E+00 0.  1.
</event>
<event>
 7    1  0.5622879E-006  0.7925058E+02  0.7818608E-02  0.1463852E+00
          2   -1    0    0  502    0  0.00000000000E+00  0.00000000000E+00  0.14770963779E+03  0.14770963779E+03  0.00000000000E+00 0. -1.
          1   -1    0    0  501    0 -0.00000000000E+00 -0.00000000000E+00 -0.11814562131E+04  0.11814562131E+04  0.00000000000E+00 0. -1.
         25    2    1    2    0    0  0.58748875012E+02 -0.20877861464E+02 -0.12061976603E+03  0.18455592664E+03  0.12499778673E+03 0.  0.
          2    1    1    2  501    0 -0.80131146088E+02  0.35082629016E+01 -0.10256409367E+04  0.10287723944E+04  0.00000000000E+00 0. -1.
          1    1    1    2  502    0  0.21382271076E+02  0.17369598562E+02  0.11251412737E+03  0.11583752988E+03  0.00000000000E+00 0. -1.
         22    1    3    3    0    0  0.41540645060E+02  0.50488531971E+02 -0.46473473161E+02  0.80215339931E+02  0.00000000000E+00 0. -1.
         22    1    3    3    0    0  0.17208229953E+02 -0.71366393435E+02 -0.74146292866E+02  0.10434058671E+03  0.00000000000E+00 0. -1.
</event>
<event>
 7    1  0.5622879E-006  0.4653163E+02  0.7818608E-02  0.1517045E+00
          2   -1    0    0  502    0  0.00000000000E+00  0.00000000000E+00  0.75281841488E+03  0.75281841488E+03  0.00000000000E+00 0. -1.
          1   -1    0    0  501    0 -0.00000000000E+00 -0.00000000000E+00 -0.62026446711E+03  0.62026446711E+03  0.00000000000E+00 0. -1.
         25    2    1    2    0    0  0.10824209301E+02  0.28123722684E+02  0.72309339688E+02  0.14752233741E+03  0.12500436849E+03 0.  0.
          2    1    1    2  501    0 -0.42205433217E+02 -0.20087376187E+02 -0.58131122811E+03  0.58318740144E+03  0.00000000000E+00 0. -1.
          1    1    1    2  502    0  0.31381223916E+02 -0.80363464974E+01  0.64155583619E+03  0.64237314314E+03  0.00000000000E+00 0. -1.
         22    1    3    3    0    0  0.10456004438E+02 -0.27259190397E+02 -0.23082500971E+02  0.37218185622E+02  0.00000000000E+00 0. -1.
         22    1    3    3    0    0  0.36820486240E+00  0.55382913081E+02  0.95391840659E+02  0.11030415178E+03  0.00000000000E+00 0. -1.
</event>
<event>
 7    1  0.5622879E-006  0.4971064E+02  0.7818608E-02  0.1500532E+00
          2   -1    0    0  502    0  0.00000000000E+00  0.00000000000E+00  0.42381251875E+02  0.42381251875E+02  0.00000000000E+00 0. -1.
          1   -1    0    0  501    0 -0.00000000000E+00 -0.00000000000E+00 -0.15645353278E+04  0.15645353278E+04  0.00000000000E+00 0. -1.
         25    2    1    2    0    0 -0.20223016952E+02  0.42691070669E+01 -0.18144276713E+03  0.22129951687E+03  0.12499921093E+03 0.  0.
          2    1    1    2  501    0 -0.33675961411E+02  0.40573792418E+01 -0.13295071207E+04  0.13299397418E+04  0.00000000000E+00 0. -1.
          1    1    1    2  502    0  0.53898978363E+02 -0.83264863087E+01 -0.11204188026E+02  0.55677320985E+02  0.00000000000E+00 0. -1.
         22    1    3    3    0    0 -0.55174804619E+02 -0.16029490170E+02 -0.30521573771E+02  0.65059742432E+02  0.00000000000E+00 0. -1.
         22    1    3    3    0    0  0.34951787667E+02  0.20298597237E+02 -0.15092119336E+03  0.15623977444E+03  0.00000000000E+00 0. -1.
</event>
<event>
 7    1  0.5622879E-006  0.1196777E+03  0.7818608E-02  0.1352435E+00
          2   -1    0    0  502    0  0.00000000000E+00  0.00000000000E+00  0.33158394559E+04  0.33158394559E+04  0.00000000000E+00 0. -1.
          1   -1    0    0  501    0 -0.00000000000E+00 -0.00000000000E+00 -0.67818273397E+02  0.67818273397E+02  0.00000000000E+00 0. -1.
         25    2    1    2    0    0  0.19084089448E+02 -0.94430443126E+02  0.71495694992E+03  0.73216816522E+03  0.12500188349E+03 0.  0.
          2    1    1    2  501    0  0.15472749679E+02  0.12114768859E+03  0.41542747620E+01  0.12220239945E+03  0.00000000000E+00 0. -1.
          1    1    1    2  502    0 -0.34556839127E+02 -0.26717245462E+02  0.25289099578E+04  0.25292871646E+04  0.00000000000E+00 0. -1.
         22    1    3    3    0    0  0.31102692213E+01 -0.73367563231E+02  0.69544701312E+03  0.69931324967E+03  0.00000000000E+00 0. -1.
         22    1    3    3    0    0  0.15973820226E+02 -0.21062879895E+02  0.19509936793E+02  0.32854915550E+02  0.00000000000E+00 0. -1.
</event>
<event>
 7    1  0.5622879E-006  0.4932801E+02  0.7818608E-02  0.1456901E+00
          2   -1    0    0  502    0  0.00000000000E+00  0.00000000000E+00  0.10177786475E+04  0.10177786475E+04  0.00000000000E+00 0. -1.
          1   -1    0    0  501    0 -0.00000000000E+00 -0.00000000000E+00 -0.12665984667E+03  0.12665984667E+03  0.00000000000E+00 0. -1.
         25    2    1    2    0    0  0.20834786691E+02 -0.13129518025E+02  0.88560979521E+02  0.15515935235E+03  0.12499961979E+03 0.  0.
          2    1    1    2  501    0  0.58794142759E+01  0.51251094439E+02 -0.85578047460E+02  0.99924193269E+02  0.00000000000E+00 0. -1.
          1    1    1    2  502    0 -0.26714200967E+02 -0.38121576413E+02  0.88813586881E+03  0.88935494859E+03  0.00000000000E+00 0. -1.
         22    1    3    3    0    0 -0.99873793772E+01  0.16481874358E+02  0.10691909099E+03  0.10864203582E+03  0.00000000000E+00 0.  1.
         22    1    3    3    0    0  0.30822166068E+02 -0.29611392384E+02 -0.18358111469E+02  0.46517316525E+02  0.00000000000E+00 0.  1.
</event>
<event>
 7    1  0.5622879E-006  0.1045896E+03  0.7818608E-02  0.1382399E+00
          2   -1    0    0  502    0  0.00000000000E+00  0.00000000000E+00  0.18598102309E+04  0.18598102309E+04  0.00000000000E+00 0. -1.
          1   -1    0    0  501    0 -0.00000000000E+00 -0.00000000000E+00 -0.48506966143E+03  0.48506966143E+03  0.00000000000E+00 0. -1.
         25    2    1    2    0    0 -0.53485979096E+02 -0.70454049526E+02  0.48423041274E+03  0.50786633638E+03  0.12499839981E+03 0.  0.
          2    1    1    2  501    0  0.20900456727E+02 -0.32883789839E+02 -0.47029253963E+03  0.47190385202E+03  0.00000000000E+00 0. -1.
          1    1    1    2  502    0  0.32585522369E+02  0.10333783937E+03  0.13608026963E+04  0.13651097039E+04  0.00000000000E+00 0. -1.
         22    1    3    3    0    0  0.36866321831E+01  0.60270448928E+01 -0.54748666084E+01  0.89381592832E+01  0.00000000000E+00 0. -1.
         22    1    3    3    0    0 -0.57172611279E+02 -0.76481094418E+02  0.48970527935E+03  0.49892817710E+03  0.00000000000E+00 0. -1.
</event>
<event>
 7    1  0.5622879E-006  0.6417117E+02  0.7818608E-02  0.1444088E+00
          2   -1    0    0  502    0  0.00000000000E+00  0.00000000000E+00  0.22476569816E+04  0.22476569816E+04  0.00000000000E+00 0. -1.
          1   -1    0    0  501    0 -0.00000000000E+00 -0.00000000000E+00 -0.65781526194E+03  0.65781526194E+03  0.00000000000E+00 0. -1.
         25    2    1    2    0    0  0.71745861364E+02 -0.67558762336E+02  0.51400578355E+03  0.53808373957E+03  0.12498203983E+03 0.  0.
          2    1    1    2  501    0 -0.35800450948E+02  0.16265791505E+02 -0.64460728078E+03  0.64580553938E+03  0.00000000000E+00 0. -1.
          1    1    1    2  502    0 -0.35945410416E+02  0.51292970831E+02  0.17204432169E+04  0.17215829646E+04  0.00000000000E+00 0. -1.
         22    1    3    3    0    0 -0.33049026305E+02 -0.15245763459E+02  0.70094624144E+02  0.78980553158E+02  0.00000000000E+00 0. -1.
         22    1    3    3    0    0  0.10479488767E+03 -0.52312998876E+02  0.44391115940E+03  0.45910318641E+03  0.00000000000E+00 0. -1.
</event>
<event>
 7    1  0.5622879E-006  0.6118234E+02  0.7818608E-02  0.1467842E+00
          2   -1    0    0  502    0  0.00000000000E+00  0.00000000000E+00  0.11466147873E+04  0.11466147873E+04  0.00000000000E+00 0. -1.
          1   -1    0    0  501    0 -0.00000000000E+00 -0.00000000000E+00 -0.65508481516E+02  0.65508481516E+02  0.00000000000E+00 0. -1.
         25    2    1    2    0    0 -0.10716080782E+02  0.29274720399E+02  0.82753554066E+02  0.15311566753E+03  0.12499765314E+03 0.  0.
          2    1    1    2  501    0  0.11346439942E+02  0.32763623371E+02 -0.19153744937E+02  0.39611395594E+02  0.00000000000E+00 0. -1.
          1    1    1    2  502    0 -0.63035916074E+00 -0.62038343770E+02  0.10175064966E+04  0.10193962057E+04  0.00000000000E+00 0. -1.
         22    1    3    3    0    0 -0.20529946097E+02 -0.19881722284E+02 -0.22606468801E+02  0.36439182200E+02  0.00000000000E+00 0.  1.
         22    1    3    3    0    0  0.98138653157E+01  0.49156442683E+02  0.10536002287E+03  0.11667648533E+03  0.00000000000E+00 0.  1.
</event>
<event>
 7    1  0.5622879E-006  0.9509601E+02  0.7818608E-02  0.1472376E+00
          2   -1    0    0  502    0  0.00000000000E+00  0.00000000000E+00  0.37784297538E+03  0.37784297538E+03  0.00000000000E+00 0. -1.
          1   -1    0    0  501    0 -0.00000000000E+00 -0.00000000000E+00 -0.40267844997E+03  0.40267844997E+03  0.00000000000E+00 0. -1.
         25    2    1    2    0    0 -0.54400938902E+02  0.60940132579E+02 -0.23369433493E+03  0.27732865244E+03  0.12499990948E+03 0.  0.
          2    1    1    2  501    0 -0.21399033085E+02 -0.29010165937E+01 -0.13992380213E+03  0.14158038323E+03  0.00000000000E+00 0. -1.
          1    1    1    2  502    0  0.75799971987E+02 -0.58039115985E+02  0.34878266247E+03  0.36161238969E+03  0.00000000000E+00 0. -1.
         22    1    3    3    0    0  0.10065608494E+02 -0.21183896829E+02 -0.12280239542E+03  0.12502200718E+03  0.00000000000E+00 0. -1.
         22    1    3    3    0    0 -0.64466547396E+02  0.82124029408E+02 -0.11089193951E+03  0.15230664525E+03  0.00000000000E+00 0. -1.
</event>
<event>
 7    1  0.5622879E-006  0.1790220E+03  0.7818608E-02  0.1257934E+00
          2   -1    0    0  502    0  0.00000000000E+00  0.00000000000E+00  0.15118196926E+04  0.15118196926E+04  0.00000000000E+00 0. -1.
          1   -1    0    0  501    0 -0.00000000000E+00 -0.00000000000E+00 -0.18819648598E+03  0.18819648598E+03  0.00000000000E+00 0. -1.
         25    2    1    2    0    0 -0.41525677152E+02 -0.13453137395E+03  0.19243145897E+03  0.26921566427E+03  0.12499654015E+03 0.  0.
          2    1    1    2  501    0  0.51932280573E+00  0.19047839957E+03 -0.87867841849E+02  0.20976903497E+03  0.00000000000E+00 0. -1.
          1    1    1    2  502    0  0.41006354346E+02 -0.55947025626E+02  0.12190595895E+04  0.12210314793E+04  0.00000000000E+00 0. -1.
         22    1    3    3    0    0 -0.17887646503E+02 -0.41870794225E+02  0.16288190597E+03  0.16912612631E+03  0.00000000000E+00 0. -1.
         22    1    3    3    0    0 -0.23638030649E+02 -0.92660579724E+02  0.29549552999E+02  0.10008953797E+03  0.00000000000E+00 0. -1.
</event>
<event>
 7    1  0.5622879E-006  0.7385799E+02  0.7818608E-02  0.1360389E+00
          2   -1    0    0  502    0  0.00000000000E+00  0.00000000000E+00  0.89548031846E+03  0.89548031846E+03  0.00000000000E+00 0. -1.
          1   -1    0    0  501    0 -0.00000000000E+00 -0.00000000000E+00 -0.53031385584E+03  0.53031385584E+03  0.00000000000E+00 0. -1.
         25    2    1    2    0    0 -0.24619408387E+01 -0.13433885398E+02  0.33360134141E+03  0.35651249747E+03  0.12499910171E+03 0.  0.
          2    1    1    2  501    0 -0.69913141729E+02 -0.23815023302E+02 -0.51319064258E+03  0.51847819467E+03  0.00000000000E+00 0. -1.
          1    1    1    2  502    0  0.72375082568E+02  0.37248908700E+02  0.54475576379E+03  0.55080348216E+03  0.00000000000E+00 0. -1.
         22    1    3    3    0    0  0.81768757573E+01 -0.66072187827E+02  0.23483915354E+03  0.24409388222E+03  0.00000000000E+00 0. -1.
         22    1    3    3    0    0 -0.10638816596E+02  0.52638302429E+02  0.98762187872E+02  0.11241861525E+03  0.00000000000E+00 0. -1.
</event>
<event>
 7    1  0.5622879E-006  0.1259145E+03  0.7818608E-02  0.1417703E+00
          2   -1    0    0  502    0  0.00000000000E+00  0.00000000000E+00  0.15697153041E+04  0.15697153041E+04  0.00000000000E+00 0. -1.
          1   -1    0    0  501    0 -0.00000000000E+00 -0.00000000000E+00 -0.11722626264E+03  0.11722626264E+03  0.00000000000E+00 0. -1.
         25    2    1    2    0    0 -0.44520527098E+01 -0.14390908903E+03  0.34256182633E+03  0.39205121499E+03  0.12500361451E+03 0.  0.
          2    1    1    2  501    0  0.16833365200E+02  0.12280063829E+03 -0.50763727189E+02  0.13394146089E+03  0.00000000000E+00 0. -1.
          1    1    1    2  502    0 -0.12381312491E+02  0.21108450740E+02  0.11606909423E+04  0.11609488908E+04  0.00000000000E+00 0. -1.
         22    1    3    3    0    0  0.62329822563E+01  0.13364435218E+02 -0.23308875979E+00  0.14748305898E+02  0.00000000000E+00 0.  1.
         22    1    3    3    0    0 -0.10685034966E+02 -0.15727352425E+03  0.34279491509E+03  0.37730290909E+03  0.00000000000E+00 0.  1.
</event>
<event>
 7    1  0.5622879E-006  0.6123257E+02  0.7818608E-02  0.1537164E+00
          2   -1    0    0  502    0  0.00000000000E+00  0.00000000000E+00  0.13790131186E+04  0.13790131186E+04  0.00000000000E+00 0. -1.
          1   -1    0    0  501    0 -0.00000000000E+00 -0.00000000000E+00 -0.18798991453E+02  0.18798991453E+02  0.00000000000E+00 0. -1.
         25    2    1    2    0    0  0.33737014671E+02 -0.56802766640E+02  0.44117297527E+03  0.46327363260E+03  0.12499649636E+03 0.  0.
          2    1    1    2  501    0 -0.46263950343E+02  0.39273103075E+02  0.11346410303E+03  0.12867335545E+03  0.00000000000E+00 0. -1.
          1    1    1    2  502    0  0.12526935672E+02  0.17529663566E+02  0.80557704889E+03  0.80586512204E+03  0.00000000000E+00 0. -1.
         22    1    3    3    0    0  0.80442201135E+02 -0.24147203629E+02  0.27977892287E+03  0.29211347256E+03  0.00000000000E+00 0.  1.
         22    1    3    3    0    0 -0.46705186464E+02 -0.32655563011E+02  0.16139405240E+03  0.17116016005E+03  0.00000000000E+00 0.  1.
</event>
<event>
 7    1  0.5622879E-006  0.1470128E+03  0.7818608E-02  0.1238841E+00
          2   -1    0    0  502    0  0.00000000000E+00  0.00000000000E+00  0.12270067088E+04  0.12270067088E+04  0.00000000000E+00 0. -1.
          1   -1    0    0  501    0 -0.00000000000E+00 -0.00000000000E+00 -0.11333258760E+04  0.11333258760E+04  0.00000000000E+00 0. -1.
         25    2    1    2    0    0  0.21032855485E+03 -0.12448284399E+03  0.54720773263E+02  0.27991783826E+03  0.12500221485E+03 0.  0.
          2    1    1    2  501    0 -0.13106131918E+03  0.59863060654E+02 -0.10131507905E+04  0.10233450932E+04  0.00000000000E+00 0. -1.
          1    1    1    2  502    0 -0.79267235667E+02  0.64619783339E+02  0.10521108501E+04  0.10570696533E+04  0.00000000000E+00 0. -1.
         22    1    3    3    0    0  0.38003992305E+02 -0.36791019692E+02 -0.38345896468E+02  0.65332153929E+02  0.00000000000E+00 0.  1.
         22    1    3    3    0    0  0.17232456254E+03 -0.87691824301E+02  0.93066669731E+02  0.21458568433E+03  0.00000000000E+00 0.  1.
</event>
<event>
 7    1  0.5622879E-006  0.1190174E+03  0.7818608E-02  0.1297963E+00
          2   -1    0    0  502    0  0.00000000000E+00  0.00000000000E+00  0.17394895650E+04  0.17394895650E+04  0.00000000000E+00 0. -1.
          1   -1    0    0  501    0 -0.00000000000E+00 -0.00000000000E+00 -0.34015717873E+02  0.34015717873E+02  0.00000000000E+00 0. -1.
         25    2    1    2    0    0  0.45533416745E+02  0.51783839034E+02  0.64728034738E+03  0.66283491879E+03  0.12499369359E+03 0.  0.
          2    1    1    2  501    0 -0.11480097865E+03 -0.68224812137E+02  0.15466206873E+03  0.20433855533E+03  0.00000000000E+00 0. -1.
          1    1    1    2  502    0  0.69267561903E+02  0.16440973103E+02  0.90353143104E+03  0.90633180878E+03  0.00000000000E+00 0. -1.
         22    1    3    3    0    0  0.22606039222E+02  0.92883542054E+02  0.42220319113E+03  0.43289019392E+03  0.00000000000E+00 0. -1.
         22    1    3    3    0    0  0.22927377523E+02 -0.41099703020E+02  0.22507715626E+03  0.22994472487E+03  0.00000000000E+00 0. -1.
</event>
<event>
 7    1  0.5622879E-006  0.5986432E+02  0.7818608E-02  0.1419019E+00
          2   -1    0    0  502    0  0.00000000000E+00  0.00000000000E+00  0.17396472919E+04  0.17396472919E+04  0.00000000000E+00 0. -1.
          1   -1    0    0  501    0 -0.00000000000E+00 -0.00000000000E+00 -0.20871410409E+03  0.20871410409E+03  0.00000000000E+00 0. -1.
         25    2    1    2    0    0  0.90181888917E+02  0.55302969388E+02  0.30822794488E+03  0.34902820681E+03  0.12500012654E+03 0.  0.
          2    1    1    2  501    0 -0.34320635962E+02 -0.37659898960E+02 -0.18424665633E+03  0.19116224630E+03  0.00000000000E+00 0. -1.
          1    1    1    2  502    0 -0.55861252956E+02 -0.17643070428E+02  0.14069518993E+04  0.14081709429E+04  0.00000000000E+00 0. -1.
         22    1    3    3    0    0  0.50043314296E+02  0.56652799093E+02  0.57161173604E+02  0.94769576967E+02  0.00000000000E+00 0.  1.
         22    1    3    3    0    0  0.40138574621E+02 -0.13498297050E+01  0.25106677127E+03  0.25425862985E+03  0.00000000000E+00 0.  1.
</event>
<event>
 7    1  0.5622879E-006  0.1669482E+03  0.7818608E-02  0.1243341E+00
          2   -1    0    0  502    0  0.00000000000E+00  0.00000000000E+00  0.28366220155E+03  0.28366220155E+03  0.00000000000E+00 0. -1.
          1   -1    0    0  501    0 -0.00000000000E+00 -0.00000000000E+00 -0.30597170495E+03  0.30597170495E+03  0.00000000000E+00 0. -1.
         25    2    1    2    0    0 -0.15775075940E+03 -0.16627426799E+03  0.36908661246E+02  0.26366658329E+03  0.12500153433E+03 0.  0.
          2    1    1    2  501    0  0.12778033056E+03  0.85620456511E+02 -0.13996984892E+03  0.20796690616E+03  0.00000000000E+00 0. -1.
          1    1    1    2  502    0  0.29970428833E+02  0.80653811478E+02  0.80751684275E+02  0.11800041705E+03  0.00000000000E+00 0. -1.
         22    1    3    3    0    0 -0.66859511504E+02 -0.18278567760E+02  0.55775049050E+02  0.88967164811E+02  0.00000000000E+00 0. -1.
         22    1    3    3    0    0 -0.90891247893E+02 -0.14799570023E+03 -0.18866387804E+02  0.17469941848E+03  0.00000000000E+00 0. -1.
</event>
<event>
 7    1  0.5622879E-006  0.3163953E+02  0.7818608E-02  0.1647492E+00
          2   -1    0    0  502    0  0.00000000000E+00  0.00000000000E+00  0.22546174220E+04  0.22546174220E+04  0.00000000000E+00 0. -1.
          1   -1    0    0  501    0 -0.00000000000E+00 -0.00000000000E+00 -0.19303549134E+02  0.19303549134E+02  0.00000000000E+00 0. -1.
         25    2    1    2    0    0  0.46582151514E+02  0.93189381714E+01  0.52103268571E+03  0.53791893317E+03  0.12499991852E+03 0.  0.
          2    1    1    2  501    0 -0.15595498818E+02 -0.14523934282E+02 -0.12146655700E+00  0.21311475889E+02  0.00000000000E+00 0. -1.
          1    1    1    2  502    0 -0.30986652695E+02  0.52049961108E+01  0.17144026537E+04  0.17146905621E+04  0.00000000000E+00 0. -1.
         22    1    3    3    0    0  0.68450157162E+02  0.49929981241E+02  0.28101587060E+03  0.29351038580E+03  0.00000000000E+00 0. -1.
         22    1    3    3    0    0 -0.21868005649E+02 -0.40611043070E+02  0.24001681511E+03  0.24440854737E+03  0.00000000000E+00 0. -1.
</event>
<event>
 7    1  0.5622879E-006  0.4088012E+02  0.7818608E-02  0.1546262E+00
          2   -1    0    0  502    0  0.00000000000E+00  0.00000000000E+00  0.30423080326E+02  0.30423080326E+02  0.00000000000E+00 0. -1.
          1   -1    0    0  501    0 -0.00000000000E+00 -0.00000000000E+00 -0.64757946098E+03  0.64757946098E+03  0.00000000000E+00 0. -1.
         25    2    1    2    0    0 -0.35192381524E+02  0.69978571596E+01 -0.23730479235E+03  0.27060282201E+03  0.12499939634E+03 0.  0.
          2    1    1    2  501    0 -0.69258552595E+00 -0.30412775594E+02 -0.35802010425E+03  0.35931018861E+03  0.00000000000E+00 0. -1.
          1    1    1    2  502    0  0.35884967050E+02  0.23414918435E+02 -0.21831484056E+02  0.48089530685E+02  0.00000000000E+00 0. -1.
         22    1    3    3    0    0 -0.17666096451E+02 -0.15862016472E+02  0.68846329348E+01  0.24720289259E+02  0.00000000000E+00 0. -1.
         22    1    3    3    0    0 -0.17526285072E+02  0.22859873632E+02 -0.24418942529E+03  0.24588253275E+03  0.00000000000E+00 0. -1.
</event>
<event>
 7    1  0.5622879E-006  0.3930214E+02  0.7818608E-02  0.1523194E+00
          2   -1    0    0  502    0  0.00000000000E+00  0.00000000000E+00  0.11460146271E+04  0.11460146271E+04  0.00000000000E+00 0. -1.
          1   -1    0    0  501    0 -0.00000000000E+00 -0.00000000000E+00 -0.49484383007E+03  0.49484383007E+03  0.00000000000E+00 0. -1.
         25    2    1    2    0    0  0.63592327669E+02  0.21470601277E+02  0.74782555540E+02  0.16037837139E+03  0.12499528207E+03 0.  0.
          2    1    1    2  501    0 -0.24880397306E+02 -0.27125295893E+02 -0.45092369622E+03  0.45242346940E+03  0.00000000000E+00 0. -1.
          1    1    1    2  502    0 -0.38711930363E+02  0.56546946158E+01  0.10273119378E+04  0.10280566164E+04  0.00000000000E+00 0. -1.
         22    1    3    3    0    0 -0.82006367591E+01 -0.41258132454E+02  0.42311100881E+02  0.59663332078E+02  0.00000000000E+00 0. -1.
         22    1    3    3    0    0  0.71792964428E+02  0.62728733731E+02  0.32471454659E+02  0.10071503932E+03  0.00000000000E+00 0. -1.
</event>
<event>
 7    1  0.5622879E-006  0.1547073E+03  0.7818608E-02  0.1318401E+00
          2   -1    0    0  502    0  0.00000000000E+00  0.00000000000E+00  0.11360609504E+04  0.11360609504E+04  0.00000000000E+00 0. -1.
          1   -1    0    0  501    0 -0.00000000000E+00 -0.00000000000E+00 -0.11345685268E+03  0.11345685268E+03  0.00000000000E+00 0. -1.
         25    2    1    2    0    0 -0.65633257380E+02  0.10650483762E+03  0.78943347754E+03  0.80900018436E+03  0.12500031165E+03 0.  0.
          2    1    1    2  501    0  0.11083460635E+03 -0.11146683549E+03 -0.41121927670E+02  0.16248131682E+03  0.00000000000E+00 0. -1.
          1    1    1    2  502    0 -0.45201348975E+02  0.49619978719E+01  0.27429254785E+03  0.27803630191E+03  0.00000000000E+00 0. -1.
         22    1    3    3    0    0  0.32746579586E+01  0.40367739331E+02  0.54600168883E+03  0.54750170956E+03  0.00000000000E+00 0. -1.
         22    1    3    3    0    0 -0.68907915339E+02  0.66137098291E+02  0.24343178871E+03  0.26149847480E+03  0.00000000000E+00 0. -1.
</event>
<event>
 7    1  0.9089303E-006  0.4277821E+02  0.7818608E-02  0.1492816E+00
          2   -1    0    0  502    0  0.00000000000E+00  0.00000000000E+00  0.24820118625E+04  0.24820118625E+04  0.00000000000E+00 0. -1.
          1   -1    0    0  501    0 -0.00000000000E+00 -0.00000000000E+00 -0.35450629039E+03  0.35450629039E+03  0.00000000000E+00 0. -1.
         25    2    1    2    0    0  0.54398376964E+01  0.29451184913E+02 -0.16423662858E+03  0.20858055528E+03  0.12504084831E+03 0.  0.
          2    1    1    2  501    0 -0.44363118480E+02 -0.14847123530E+02 -0.16466356622E+03  0.17118006133E+03  0.00000000000E+00 0. -1.
          1    1    1    2  502    0  0.38923280783E+02 -0.14604061383E+02  0.24564057669E+04  0.24567575363E+04  0.00000000000E+00 0. -1.
         22    1    3    3    0    0 -0.41800548956E+02 -0.22849612509E+02 -0.10927024662E+03  0.11920309342E+03  0.00000000000E+00 0.  1.
         22    1    3    3    0    0  0.47240386653E+02  0.52300797423E+02 -0.54966381956E+02  0.89377461854E+02  0.00000000000E+00 0.  1.
</event>
<event>
 7    1  0.5622879E-006  0.7505473E+02  0.7818608E-02  0.1403052E+00
          2   -1    0    0  502    0  0.00000000000E+00  0.00000000000E+00  0.24482311263E+04  0.24482311263E+04  0.00000000000E+00 0. -1.
          1   -1    0    0  501    0 -0.00000000000E+00 -0.00000000000E+00 -0.49115723290E+03  0.49115723290E+03  0.00000000000E+00 0. -1.
         25    2    1    2    0    0  0.25172273424E+02  0.10111190896E+03  0.34210444897E+03  0.37883570993E+03  0.12499511842E+03 0.  0.
          2    1    1    2  501    0 -0.36733327100E+02 -0.27728753069E+02 -0.47100877299E+03  0.47325203148E+03  0.00000000000E+00 0. -1.
          1    1    1    2  502    0  0.11561053676E+02 -0.73383155893E+02  0.20859782174E+04  0.20873006178E+04  0.00000000000E+00 0. -1.
         22    1    3    3    0    0 -0.73118310556E+00  0.11794407843E+03  0.31944657965E+03  0.34052526708E+03  0.00000000000E+00 0. -1.
         22    1    3    3    0    0  0.25903456530E+02 -0.16832169474E+02  0.22657869319E+02  0.38310442851E+02  0.00000000000E+00 0. -1.
</event>
<event>
 7    1  0.5622879E-006  0.1176274E+03  0.7818608E-02  0.1257558E+00
          2   -1    0    0  502    0  0.00000000000E+00  0.00000000000E+00  0.25113156874E+04  0.25113156874E+04  0.00000000000E+00 0. -1.
          1   -1    0    0  501    0 -0.00000000000E+00 -0.00000000000E+00 -0.10945804104E+03  0.10945804104E+03  0.00000000000E+00 0. -1.
         25    2    1    2    0    0 -0.38929821828E+02 -0.71076339700E+02  0.12428032401E+03  0.19400208603E+03  0.12499533333E+03 0.  0.
          2    1    1    2  501    0  0.10067793443E+03 -0.33045456537E+02 -0.34568794959E+02  0.11145873794E+03  0.00000000000E+00 0. -1.
          1    1    1    2  502    0 -0.61748112599E+02  0.10412179624E+03  0.23121461173E+04  0.23153129045E+04  0.00000000000E+00 0. -1.
         22    1    3    3    0    0 -0.78794838711E+02 -0.61851900454E+02  0.56992129671E+02  0.11524923879E+03  0.00000000000E+00 0. -1.
         22    1    3    3    0    0  0.39865016883E+02 -0.92244392461E+01  0.67288194339E+02  0.78752847236E+02  0.00000000000E+00 0. -1.
</event>
<event>
 7    1  0.5622879E-006  0.8583033E+02  0.7818608E-02  0.1352814E+00
          2   -1    0    0  502    0  0.00000000000E+00  0.00000000000E+00  0.12741115359E+04  0.12741115359E+04  0.00000000000E+00 0. -1.
          1   -1    0    0  501    0 -0.00000000000E+00 -0.00000000000E+00 -0.28719651837E+03  0.28719651837E+03  0.00000000000E+00 0. -1.
         25    2    1    2    0    0 -0.36423313745E+01 -0.30788928514E+02  0.81143667242E+03  0.82159339396E+03  0.12500002786E+03 0.  0.
          2    1    1    2  501    0 -0.79088084505E+02 -0.33345482382E+02 -0.26937129040E+03  0.28271494194E+03  0.00000000000E+00 0. -1.
          1    1    1    2  502    0  0.82730415879E+02  0.64134410896E+02  0.44484963553E+03  0.45699971838E+03  0.00000000000E+00 0. -1.
         22    1    3    3    0    0  0.17870471339E+02  0.43664670241E+02  0.21321417815E+03  0.21837179977E+03  0.00000000000E+00 0. -1.
         22    1    3    3    0    0 -0.21512802713E+02 -0.74453598755E+02  0.59822249427E+03  0.60322159419E+03  0.00000000000E+00 0. -1.
</event>
<event>
 7    1  0.5622879E-006  0.1037190E+03  0.7818608E-02  0.1398795E+00
          2   -1    0    0  502    0  0.00000000000E+00  0.00000000000E+00  0.46203635209E+03  0.46203635209E+03  0.00000000000E+00 0. -1.
          1   -1    0    0  501    0 -0.00000000000E+00 -0.00000000000E+00 -0.31026959571E+03  0.31026959571E+03  0.00000000000E+00 0. -1.
         25    2    1    2    0    0  0.79997671693E+01 -0.71767473830E+02 -0.83172138689E+02  0.16660309306E+03  0.12499767754E+03 0.  0.
          2    1    1    2  501    0 -0.73838652172E+01 -0.33644147158E+02 -0.17708715088E+03  0.18040595642E+03  0.00000000000E+00 0. -1.
          1    1    1    2  502    0 -0.61590195208E+00  0.10541162099E+03  0.41202604595E+03  0.42529689831E+03  0.00000000000E+00 0. -1.
         22    1    3    3    0    0  0.41364787259E+02 -0.56176101472E+02 -0.10328718435E+03  0.12463965041E+03  0.00000000000E+00 0. -1.
         22    1    3    3    0    0 -0.33365020090E+02 -0.15591372358E+02  0.20115045665E+02  0.41963442658E+02  0.00000000000E+00 0. -1.
</event>
<event>
 7    1  0.5622879E-006  0.3100961E+03  0.7818608E-02  0.1299948E+00
          2   -1    0    0  502    0  0.00000000000E+00  0.00000000000E+00  0.10082428497E+04  0.10082428497E+04  0.00000000000E+00 0. -1.
          1   -1    0    0  501    0 -0.00000000000E+00 -0.00000000000E+00 -0.17825868564E+03  0.17825868564E+03  0.00000000000E+00 0. -1.
         25    2    1    2    0    0  0.11276454299E+03 -0.29851825396E+03  0.38119153738E+03  0.51260236164E+03  0.12500081155E+03 0.  0.
          2    1    1    2  501    0 -0.12940187002E+03  0.27747224154E+03  0.97109929731E+02  0.32119468744E+03  0.00000000000E+00 0. -1.
          1    1    1    2  502    0  0.16637327031E+02  0.21046012421E+02  0.35168269691E+03  0.35270448621E+03  0.00000000000E+00 0. -1.
         22    1    3    3    0    0 -0.17376898294E+02 -0.10751982400E+01  0.26961965290E+02  0.32094551218E+02  0.00000000000E+00 0.  1.
         22    1    3    3    0    0  0.13014144128E+03 -0.29744305572E+03  0.35422957209E+03  0.48050781042E+03  0.00000000000E+00 0.  1.
</event>
<event>
 7    1  0.5622879E-006  0.8854080E+02  0.7818608E-02  0.1326394E+00
          2   -1    0    0  502    0  0.00000000000E+00  0.00000000000E+00  0.12829832640E+04  0.12829832640E+04  0.00000000000E+00 0. -1.
          1   -1    0    0  501    0 -0.00000000000E+00 -0.00000000000E+00 -0.15446997554E+03  0.15446997554E+03  0.00000000000E+00 0. -1.
         25    2    1    2    0    0  0.37749816597E+00  0.78542277574E+02  0.93831963528E+03  0.94986120117E+03  0.12499412655E+03 0.  0.
          2    1    1    2  501    0 -0.82527670079E+02 -0.32072687960E+02 -0.12803179722E+03  0.15566507232E+03  0.00000000000E+00 0. -1.
          1    1    1    2  502    0  0.82150171913E+02 -0.46469589614E+02  0.31822545043E+03  0.33192696607E+03  0.00000000000E+00 0. -1.
         22    1    3    3    0    0 -0.40164519751E+01  0.94954363627E+02  0.91992268279E+03  0.92481901223E+03  0.00000000000E+00 0.  1.
         22    1    3    3    0    0  0.43939501410E+01 -0.16412086053E+02  0.18396952485E+02  0.25042188946E+02  0.00000000000E+00 0.  1.
</event>
<event>
 7    1  0.5622879E-006  0.1277954E+03  0.7818608E-02  0.1313231E+00
          2   -1    0    0  502    0  0.00000000000E+00  0.00000000000E+00  0.39451667994E+04  0.39451667994E+04  0.00000000000E+00 0. -1.
          1   -1    0    0  501    0 -0.00000000000E+00 -0.00000000000E+00 -0.22630599118E+03  0.22630599118E+03  0.00000000000E+00 0. -1.
         25    2    1    2    0    0  0.63525531529E+02 -0.95094675499E+02  0.50109754807E+02  0.17667443447E+03  0.12499751120E+03 0.  0.
          2    1    1    2  501    0  0.48045758038E+02  0.31894580443E+02 -0.15681565311E+03  0.16708323731E+03  0.00000000000E+00 0. -1.
          1    1    1    2  502    0 -0.11157128957E+03  0.63200095056E+02  0.38255667065E+04  0.38277151188E+04  0.00000000000E+00 0. -1.
         22    1    3    3    0    0 -0.21850851634E+02 -0.56938969736E+02 -0.14901895755E+02  0.62781943972E+02  0.00000000000E+00 0.  1.
         22    1    3    3    0    0  0.85376383162E+02 -0.38155705763E+02  0.65011650562E+02  0.11389249050E+03  0.00000000000E+00 0.  1.
</event>
<event>
 7    1  0.5622879E-006  0.1050131E+03  0.7818608E-02  0.1310786E+00
          2   -1    0    0  502    0  0.00000000000E+00  0.00000000000E+00  0.15363451849E+04  0.15363451849E+04  0.00000000000E+00 0. -1.
          1   -1    0    0  501    0 -0.00000000000E+00 -0.00000000000E+00 -0.41452387724E+03  0.41452387724E+03  0.00000000000E+00 0. -1.
         25    2    1    2    0    0  0.16655889208E+03  0.40284973429E+02 -0.25090042246E+01  0.21212323553E+03  0.12500091334E+03 0.  0.
          2    1    1    2  501    0 -0.95873168783E+02 -0.27978268427E+02 -0.29816261351E+03  0.31444457714E+03  0.00000000000E+00 0. -1.
          1    1    1    2  502    0 -0.70685723297E+02 -0.12306705002E+02  0.14224929254E+04  0.14243012495E+04  0.00000000000E+00 0. -1.
         22    1    3    3    0    0  0.30902624429E+02  0.17896726199E+02 -0.54477053280E+02  0.65138424445E+02  0.00000000000E+00 0. -1.
         22    1    3    3    0    0  0.13565626765E+03  0.22388247231E+02  0.51968049055E+02  0.14698481109E+03  0.00000000000E+00 0. -1.
</event>
<event>
 7    1  0.5622879E-006  0.1147659E+03  0.7818608E-02  0.1272551E+00
          2   -1    0    0  502    0  0.00000000000E+00  0.00000000000E+00  0.27091255338E+03  0.27091255338E+03  0.00000000000E+00 0. -1.
          1   -1    0    0  501    0 -0.00000000000E+00 -0.00000000000E+00 -0.86869238815E+03  0.86869238815E+03  0.00000000000E+00 0. -1.
         25    2    1    2    0    0 -0.11777108054E+02  0.62760024424E+01 -0.20656760043E+03  0.24181600458E+03  0.12500687199E+03 0.  0.
          2    1    1    2  501    0  0.23301091305E+02 -0.12046187288E+03 -0.62522437868E+03  0.63714953298E+03  0.00000000000E+00 0. -1.
          1    1    1    2  502    0 -0.11523983250E+02  0.11418587043E+03  0.23401214435E+03  0.26063940397E+03  0.00000000000E+00 0. -1.
         22    1    3    3    0    0  0.63963871524E+01 -0.57964442553E+02 -0.10853095575E+03  0.12320616350E+03  0.00000000000E+00 0.  1.
         22    1    3    3    0    0 -0.18173495207E+02  0.64240444995E+02 -0.98036644679E+02  0.11860984108E+03  0.00000000000E+00 0.  1.
</event>
<event>
 7    1  0.5622879E-006  0.1014358E+03  0.7818608E-02  0.1397821E+00
          2   -1    0    0  502    0  0.00000000000E+00  0.00000000000E+00  0.12805280983E+04  0.12805280983E+04  0.00000000000E+00 0. -1.
          1   -1    0    0  501    0 -0.00000000000E+00 -0.00000000000E+00 -0.17026324275E+04  0.17026324275E+04  0.00000000000E+00 0. -1.
         25    2    1    2    0    0  0.26075502555E+02  0.76213053302E+02 -0.24241095661E+02  0.15067135109E+03  0.12500345593E+03 0.  0.
          2    1    1    2  501    0 -0.61137789682E+02 -0.81729357163E+02 -0.16133044351E+04  0.16165298381E+04  0.00000000000E+00 0. -1.
          1    1    1    2  502    0  0.35062287126E+02  0.55163038608E+01  0.12154412016E+04  0.12159593366E+04  0.00000000000E+00 0. -1.
         22    1    3    3    0    0  0.12539282901E+02 -0.34729330156E+02 -0.70810163593E+01  0.37596552786E+02  0.00000000000E+00 0. -1.
         22    1    3    3    0    0  0.13536219654E+02  0.11094238346E+03 -0.17160079302E+02  0.11307479830E+03  0.00000000000E+00 0. -1.
</event>
<event>
 7    1  0.5852026E-006  0.9351839E+02  0.7818608E-02  0.1368444E+00
          2   -1    0    0  502    0  0.00000000000E+00  0.00000000000E+00  0.59715510415E+03  0.59715510415E+03  0.00000000000E+00 0. -1.
          1   -1    0    0  501    0 -0.00000000000E+00 -0.00000000000E+00 -0.15636625584E+04  0.15636625584E+04  0.00000000000E+00 0. -1.
         25    2    1    2    0    0 -0.76654737128E+02  0.13130868680E+01 -0.33485847146E+03  0.36555801652E+03  0.12499917843E+03 0.  0.
          2    1    1    2  501    0 -0.43335155731E+01 -0.48674784192E+02 -0.12091752863E+04  0.12101623391E+04  0.00000000000E+00 0. -1.
          1    1    1    2  502    0  0.80988252701E+02  0.47361697324E+02  0.57752630347E+03  0.58509730699E+03  0.00000000000E+00 0. -1.
         22    1    3    3    0    0 -0.29574364281E+02  0.56945721371E+02 -0.93233959142E+02  0.11318140016E+03  0.00000000000E+00 0.  1.
         22    1    3    3    0    0 -0.47080372847E+02 -0.55632634503E+02 -0.24162451232E+03  0.25237661635E+03  0.00000000000E+00 0.  1.
</event>
<event>
 7    1  0.5622879E-006  0.5399551E+02  0.7818608E-02  0.1520659E+00
          2   -1    0    0  502    0  0.00000000000E+00  0.00000000000E+00  0.16725567607E+04  0.16725567607E+04  0.00000000000E+00 0. -1.
          1   -1    0    0  501    0 -0.00000000000E+00 -0.00000000000E+00 -0.88580641425E+02  0.88580641425E+02  0.00000000000E+00 0. -1.
         25    2    1    2    0    0  0.28278804399E+02 -0.15991042738E+01  0.26345931894E+03  0.29298119081E+03  0.12499967006E+03 0.  0.
          2    1    1    2  501    0 -0.53821394491E+02  0.11088848014E+02 -0.63440360768E+02  0.83930831222E+02  0.00000000000E+00 0. -1.
          1    1    1    2  502    0  0.25542590091E+02 -0.94897437406E+01  0.13839571611E+04  0.13842253801E+04  0.00000000000E+00 0. -1.
         22    1    3    3    0    0 -0.16558310414E+02  0.35161406210E+02  0.22003424995E+02  0.44661536493E+02  0.00000000000E+00 0.  1.
         22    1    3    3    0    0  0.44837114813E+02 -0.36760510484E+02  0.24145589395E+03  0.24831965431E+03  0.00000000000E+00 0.  1.
</event>
<event>
 7    1  0.5622879E-006  0.4577010E+02  0.7818608E-02  0.1512225E+00
          2   -1    0    0  502    0  0.00000000000E+00  0.00000000000E+00  0.27207173519E+03  0.27207173519E+03  0.00000000000E+00 0. -1.
          1   -1    0    0  501    0 -0.00000000000E+00 -0.00000000000E+00 -0.58468555972E+03  0.58468555972E+03  0.00000000000E+00 0. -1.
         25    2    1    2    0    0  0.54656139474E+02 -0.44024907806E+02 -0.64281058078E+02  0.15708663889E+03  0.12497468384E+03 0.  0.
          2    1    1    2  501    0 -0.20846107716E+02  0.40255803058E+02 -0.47162654407E+03  0.47380026062E+03  0.00000000000E+00 0. -1.
          1    1    1    2  502    0 -0.33810031758E+02  0.37691047483E+01  0.22329377762E+03  0.22587039541E+03  0.00000000000E+00 0. -1.
         22    1    3    3    0    0  0.18600580467E+02 -0.83922896207E+02 -0.56215047126E+02  0.10270913117E+03  0.00000000000E+00 0.  1.
         22    1    3    3    0    0  0.36055559007E+02  0.39897988401E+02 -0.80660109522E+01  0.54377507725E+02  0.00000000000E+00 0.  1.
</event>
<event>
 7    1  0.5622879E-006  0.6047766E+02  0.7818608E-02  0.1467815E+00
          2   -1    0    0  502    0  0.00000000000E+00  0.00000000000E+00  0.36374061435E+03  0.36374061435E+03  0.00000000000E+00 0. -1.
          1   -1    0    0  501    0 -0.00000000000E+00 -0.00000000000E+00 -0.14614445264E+04  0.14614445264E+04  0.00000000000E+00 0. -1.
         25    2    1    2    0    0  0.39869747701E+02 -0.77388455181E+02 -0.31943875695E+03  0.35390612903E+03  0.12501943428E+03 0.  0.
          2    1    1    2  501    0 -0.10280638524E+02  0.58538453788E+02 -0.11230962643E+04  0.11246678003E+04  0.00000000000E+00 0. -1.
          1    1    1    2  502    0 -0.29589109177E+02  0.18850001393E+02  0.34483110927E+03  0.34661121138E+03  0.00000000000E+00 0. -1.
         22    1    3    3    0    0 -0.38815327051E+02  0.77582921786E+00 -0.56703783515E+02  0.68720816278E+02  0.00000000000E+00 0.  1.
         22    1    3    3    0    0  0.78685074752E+02 -0.78164284399E+02 -0.26273497343E+03  0.28518531275E+03  0.00000000000E+00 0.  1.
</event>
<event>
 7    1  0.5622879E-006  0.1215524E+03  0.7818608E-02  0.1390152E+00
          2   -1    0    0  502    0  0.00000000000E+00  0.00000000000E+00  0.83294259579E+02  0.83294259579E+02  0.00000000000E+00 0. -1.
          1   -1    0    0  501    0 -0.00000000000E+00 -0.00000000000E+00 -0.14649477557E+04  0.14649477557E+04  0.00000000000E+00 0. -1.
         25    2    1    2    0    0 -0.86650242747E+02 -0.11967604425E+03 -0.12794748177E+04  0.12940292133E+04  0.12500070170E+03 0.  0.
          2    1    1    2  501    0  0.47911228889E+01  0.31124116676E+02 -0.12721068839E+03  0.13105046638E+03  0.00000000000E+00 0. -1.
          1    1    1    2  502    0  0.81859119858E+02  0.88551927570E+02  0.25032010052E+02  0.12316233559E+03  0.00000000000E+00 0. -1.
         22    1    3    3    0    0 -0.95197398697E+02 -0.95676850456E+02 -0.64143965541E+03  0.65548564894E+03  0.00000000000E+00 0.  1.
         22    1    3    3    0    0  0.85471559498E+01 -0.23999193790E+02 -0.63803516233E+03  0.63854356433E+03  0.00000000000E+00 0.  1.
</event>
<event>
 7    1  0.5622879E-006  0.9176966E+02  0.7818608E-02  0.1431159E+00
          2   -1    0    0  502    0  0.00000000000E+00  0.00000000000E+00  0.21410887588E+03  0.21410887588E+03  0.00000000000E+00 0. -1.
          1   -1    0    0  501    0 -0.00000000000E+00 -0.00000000000E+00 -0.42226564888E+03  0.42226564888E+03  0.00000000000E+00 0. -1.
         25    2    1    2    0    0 -0.10102371130E+02 -0.11500655479E+03  0.52330384637E+02  0.17802289424E+03  0.12500046469E+03 0.  0.
          2    1    1    2  501    0 -0.75062592607E+01  0.90353474545E+02 -0.35119965916E+03  0.36271379197E+03  0.00000000000E+00 0. -1.
          1    1    1    2  502    0  0.17608630391E+02  0.24653080241E+02  0.90712501523E+02  0.95637838549E+02  0.00000000000E+00 0. -1.
         22    1    3    3    0    0 -0.14148466587E+02  0.22951205091E+02  0.26119793748E+02  0.37539053628E+02  0.00000000000E+00 0.  1.
         22    1    3    3    0    0  0.40460954564E+01 -0.13795775988E+03  0.26210590890E+02  0.14048384061E+03  0.00000000000E+00 0.  1.
</event>
<event>
 7    1  0.5622879E-006  0.1333179E+03  0.7818608E-02  0.1320378E+00
          2   -1    0    0  502    0  0.00000000000E+00  0.00000000000E+00  0.19350639074E+04  0.19350639074E+04  0.00000000000E+00 0. -1.
          1   -1    0    0  501    0 -0.00000000000E+00 -0.00000000000E+00 -0.29520482391E+02  0.29520482391E+02  0.00000000000E+00 0. -1.
         25    2    1    2    0    0 -0.51277023378E+02 -0.85198953789E+02  0.58852193167E+03  0.60981263767E+03  0.12500077661E+03 0.  0.
          2    1    1    2  501    0  0.72670760490E+02  0.13242289922E+03  0.29488798961E+03  0.33132429746E+03  0.00000000000E+00 0. -1.
          1    1    1    2  502    0 -0.21393737112E+02 -0.47223945436E+02  0.10221335037E+04  0.10234474547E+04  0.00000000000E+00 0. -1.
         22    1    3    3    0    0 -0.89395547660E+02 -0.82267703633E+02  0.44484011304E+03  0.46113150529E+03  0.00000000000E+00 0. -1.
         22    1    3    3    0    0  0.38118524281E+02 -0.29312501555E+01  0.14368181862E+03  0.14868113237E+03  0.00000000000E+00 0. -1.
</event>
<event>
 7    1  0.5622879E-006  0.4770315E+02  0.7818608E-02  0.1556018E+00
          2   -1    0    0  502    0  0.00000000000E+00  0.00000000000E+00  0.22181371585E+03  0.22181371585E+03  0.00000000000E+00 0. -1.
          1   -1    0    0  501    0 -0.00000000000E+00 -0.00000000000E+00 -0.11633176375E+03  0.11633176375E+03  0.00000000000E+00 0. -1.
         25    2    1    2    0    0 -0.41730186442E+02  0.46608629314E+02  0.14577166661E+03  0.20196209860E+03  0.12500215078E+03 0.  0.
          2    1    1    2  501    0  0.41785215949E+02 -0.22120183451E+02 -0.78005456862E+02  0.91214900581E+02  0.00000000000E+00 0. -1.
          1    1    1    2  502    0 -0.55029507616E-01 -0.24488445863E+02  0.37715742353E+02  0.44968480409E+02  0.00000000000E+00 0. -1.
         22    1    3    3    0    0 -0.55991148397E+02  0.50302352656E+02  0.23565497429E+02  0.78871211799E+02  0.00000000000E+00 0. -1.
         22    1    3    3    0    0  0.14260961955E+02 -0.36937233428E+01  0.12220616918E+03  0.12309088681E+03  0.00000000000E+00 0. -1.
</event>
<event>
 7    1  0.5622879E-006  0.7872241E+02  0.7818608E-02  0.1368288E+00
          2   -1    0    0  502    0  0.00000000000E+00  0.00000000000E+00  0.59218165980E+03  0.59218165980E+03  0.00000000000E+00 0. -1.
          1   -1    0    0  501    0 -0.00000000000E+00 -0.00000000000E+00 -0.16318571759E+03  0.16318571759E+03  0.00000000000E+00 0. -1.
         25    2    1    2    0    0 -0.62303576585E+02 -0.11601670705E+03  0.32437042957E+03  0.37173006404E+03  0.12500181182E+03 0.  0.
          2    1    1    2  501    0  0.22306248097E+02  0.73838844953E+02 -0.12493709359E+03  0.14682990528E+03  0.00000000000E+00 0. -1.
          1    1    1    2  502    0  0.39997328488E+02  0.42177862098E+02  0.22956260624E+03  0.23680740808E+03  0.00000000000E+00 0. -1.
         22    1    3    3    0    0 -0.16233028751E+02  0.41417040712E+01  0.16970023354E+03  0.17052517175E+03  0.00000000000E+00 0.  1.
         22    1    3    3    0    0 -0.46070547834E+02 -0.12015841112E+03  0.15467019603E+03  0.20120489229E+03  0.00000000000E+00 0.  1.
</event>
<event>
 7    1  0.6453548E-006  0.1110552E+03  0.7818608E-02  0.1413695E+00
          2   -1    0    0  502    0  0.00000000000E+00  0.00000000000E+00  0.24518759881E+04  0.24518759881E+04  0.00000000000E+00 0. -1.
          1   -1    0    0  501    0 -0.00000000000E+00 -0.00000000000E+00 -0.28481964443E+04  0.28481964443E+04  0.00000000000E+00 0. -1.
         25    2    1    2    0    0  0.10111512070E+03 -0.79706783373E+02 -0.13361854205E+04  0.13481817537E+04  0.12500049626E+03 0.  0.
          2    1    1    2  501    0 -0.28318804684E+02 -0.41426784457E+01 -0.15046164114E+04  0.15048885879E+04  0.00000000000E+00 0. -1.
          1    1    1    2  502    0 -0.72796316013E+02  0.83849461819E+02  0.24444813757E+04  0.24470020908E+04  0.00000000000E+00 0. -1.
         22    1    3    3    0    0  0.71078470274E+02 -0.11309698472E+03 -0.93587081356E+03  0.94535562439E+03  0.00000000000E+00 0.  1.
         22    1    3    3    0    0  0.30036650422E+02  0.33390201351E+02 -0.40031460699E+03  0.40282612934E+03  0.00000000000E+00 0.  1.
</event>
<event>
 7    1  0.5622879E-006  0.1472448E+03  0.7818608E-02  0.1300121E+00
          2   -1    0    0  502    0  0.00000000000E+00  0.00000000000E+00  0.43064754509E+04  0.43064754509E+04  0.00000000000E+00 0. -1.
          1   -1    0    0  501    0 -0.00000000000E+00 -0.00000000000E+00 -0.51313416356E+03  0.51313416356E+03  0.00000000000E+00 0. -1.
         25    2    1    2    0    0  0.69311357748E+02 -0.16561397290E+03  0.32641867849E+03  0.39294697711E+03  0.12500448321E+03 0.  0.
          2    1    1    2  501    0 -0.52604059066E+02  0.20366785506E+02 -0.47685301087E+03  0.48017787013E+03  0.00000000000E+00 0. -1.
          1    1    1    2  502    0 -0.16707298682E+02  0.14524718739E+03  0.39437756197E+04  0.39464847672E+04  0.00000000000E+00 0. -1.
         22    1    3    3    0    0  0.71484037441E+02 -0.27115792301E+02  0.15265575031E+03  0.17073081709E+03  0.00000000000E+00 0. -1.
         22    1    3    3    0    0 -0.21726796925E+01 -0.13849818060E+03  0.17376292817E+03  0.22221616002E+03  0.00000000000E+00 0. -1.
</event>
<event>
 7    1  0.5622879E-006  0.8534068E+02  0.7818608E-02  0.1349019E+00
          2   -1    0    0  502    0  0.00000000000E+00  0.00000000000E+00  0.16989784601E+04  0.16989784601E+04  0.00000000000E+00 0. -1.
          1   -1    0    0  501    0 -0.00000000000E+00 -0.00000000000E+00 -0.56595007138E+03  0.56595007138E+03  0.00000000000E+00 0. -1.
         25    2    1    2    0    0 -0.60182330593E+02 -0.10591551401E+03  0.27027339294E+03  0.32173397304E+03  0.12500013381E+03 0.  0.
          2    1    1    2  501    0  0.72769706783E+02  0.44119288440E+02 -0.53615357109E+03  0.54286517076E+03  0.00000000000E+00 0. -1.
          1    1    1    2  502    0 -0.12587376190E+02  0.61796225571E+02  0.13989085669E+04  0.14003293877E+04  0.00000000000E+00 0. -1.
         22    1    3    3    0    0 -0.17150129534E+02  0.26018803327E+02  0.25116426978E+02  0.40024242325E+02  0.00000000000E+00 0. -1.
         22    1    3    3    0    0 -0.43032201059E+02 -0.13193431734E+03  0.24515696597E+03  0.28170973072E+03  0.00000000000E+00 0. -1.
</event>
<event>
 7    1  0.5622879E-006  0.9296736E+02  0.7818608E-02  0.1450218E+00
          2   -1    0    0  502    0  0.00000000000E+00  0.00000000000E+00  0.15220884020E+04  0.15220884020E+04  0.00000000000E+00 0. -1.
          1   -1    0    0  501    0 -0.00000000000E+00 -0.00000000000E+00 -0.65279657350E+02  0.65279657350E+02  0.00000000000E+00 0. -1.
         25    2    1    2    0    0 -0.83728811573E+02 -0.76791594891E+02  0.19516681346E+03  0.25811522252E+03  0.12500368028E+03 0.  0.
          2    1    1    2  501    0  0.65957510295E+02  0.57896407878E+02  0.23521342422E+02  0.90860556672E+02  0.00000000000E+00 0. -1.
          1    1    1    2  502    0  0.17771301278E+02  0.18895187013E+02  0.12381205888E+04  0.12383922802E+04  0.00000000000E+00 0. -1.
         22    1    3    3    0    0 -0.43400063475E+02 -0.54523176478E+02  0.13866722978E+02  0.71053700038E+02  0.00000000000E+00 0.  1.
         22    1    3    3    0    0 -0.40328748098E+02 -0.22268418413E+02  0.18130009049E+03  0.18706152248E+03  0.00000000000E+00 0.  1.
</event>
<event>
 7    1  0.5622879E-006  0.5314384E+02  0.7818608E-02  0.1488447E+00
          2   -1    0    0  502    0  0.00000000000E+00  0.00000000000E+00  0.96759114450E+03  0.96759114450E+03  0.00000000000E+00 0. -1.
          1   -1    0    0  501    0 -0.00000000000E+00 -0.00000000000E+00 -0.21971159514E+02  0.21971159514E+02  0.00000000000E+00 0. -1.
         25    2    1    2    0    0  0.13294278386E+02 -0.26766269228E+02  0.28026282942E+03  0.30832619625E+03  0.12499847493E+03 0.  0.
          2    1    1    2  501    0 -0.32936919276E+02  0.55125047653E+02  0.13226960256E+03  0.14703353118E+03  0.00000000000E+00 0. -1.
          1    1    1    2  502    0  0.19642640891E+02 -0.28358778425E+02  0.53308755301E+03  0.53420257658E+03  0.00000000000E+00 0. -1.
         22    1    3    3    0    0  0.14901982188E+02 -0.12273155172E+02 -0.71178569943E+01  0.20575794011E+02  0.00000000000E+00 0. -1.
         22    1    3    3    0    0 -0.16077038024E+01 -0.14493114056E+02  0.28738068641E+03  0.28775040224E+03  0.00000000000E+00 0. -1.
</event>
<event>
 7    1  0.5622879E-006  0.7519476E+02  0.7818608E-02  0.1369419E+00
          2   -1    0    0  502    0  0.00000000000E+00  0.00000000000E+00  0.88504649353E+03  0.88504649353E+03  0.00000000000E+00 0. -1.
          1   -1    0    0  501    0 -0.00000000000E+00 -0.00000000000E+00 -0.40995439724E+03  0.40995439724E+03  0.00000000000E+00 0. -1.
         25    2    1    2    0    0  0.17134555657E+02  0.11629059614E+03  0.63011453761E+02  0.18279084470E+03  0.12499981542E+03 0.  0.
          2    1    1    2  501    0 -0.39549370401E+02 -0.45499632429E+02 -0.34564082535E+03  0.35085887391E+03  0.00000000000E+00 0. -1.
          1    1    1    2  502    0  0.22414814744E+02 -0.70790963710E+02  0.75772146788E+03  0.76135117216E+03  0.00000000000E+00 0. -1.
         22    1    3    3    0    0 -0.13296271085E+02  0.52236093787E+02 -0.33171630604E+02  0.63291053047E+02  0.00000000000E+00 0.  1.
         22    1    3    3    0    0  0.30430826742E+02  0.64054502353E+02  0.96183084365E+02  0.11949979166E+03  0.00000000000E+00 0.  1.
</event>
<event>
 7    1  0.5622879E-006  0.1147236E+03  0.7818608E-02  0.1301399E+00
          2   -1    0    0  502    0  0.00000000000E+00  0.00000000000E+00  0.16875365458E+03  0.16875365458E+03  0.00000000000E+00 0. -1.
          1   -1    0    0  501    0 -0.00000000000E+00 -0.00000000000E+00 -0.16177279361E+04  0.16177279361E+04  0.00000000000E+00 0. -1.
         25    2    1    2    0    0 -0.45479379557E+02 -0.16052136116E+03 -0.12057391251E+03  0.24082838118E+03  0.12499903779E+03 0.  0.
          2    1    1    2  501    0 -0.13566670497E+02  0.70255370147E+02 -0.14091172393E+04  0.14109327645E+04  0.00000000000E+00 0. -1.
          1    1    1    2  502    0  0.59046050054E+02  0.90265991016E+02  0.80716870326E+02  0.13472044506E+03  0.00000000000E+00 0. -1.
         22    1    3    3    0    0 -0.85901943438E+02 -0.11645665898E+03 -0.63034798569E+02  0.15784385682E+03  0.00000000000E+00 0. -1.
         22    1    3    3    0    0  0.40422563881E+02 -0.44064702187E+02 -0.57539113945E+02  0.82984524359E+02  0.00000000000E+00 0. -1.
</event>
<event>
 7    1  0.5622879E-006  0.4197555E+02  0.7818608E-02  0.1585677E+00
          2   -1    0    0  502    0  0.00000000000E+00  0.00000000000E+00  0.13596012107E+04  0.13596012107E+04  0.00000000000E+00 0. -1.
          1   -1    0    0  501    0 -0.00000000000E+00 -0.00000000000E+00 -0.67177993467E+02  0.67177993467E+02  0.00000000000E+00 0. -1.
         25    2    1    2    0    0  0.57209240843E+02  0.23292881069E+02  0.63356870542E+03  0.64873051080E+03  0.12500606229E+03 0.  0.
          2    1    1    2  501    0 -0.34102175829E+02 -0.24114902775E+02 -0.52068154039E+02  0.66750128068E+02  0.00000000000E+00 0. -1.
          1    1    1    2  502    0 -0.23107065013E+02  0.82202170565E+00  0.71092266589E+03  0.71129856533E+03  0.00000000000E+00 0. -1.
         22    1    3    3    0    0  0.71956762583E+02  0.80389636612E+01  0.61845927368E+03  0.62268312473E+03  0.00000000000E+00 0.  1.
         22    1    3    3    0    0 -0.14747521740E+02  0.15253917408E+02  0.15109431738E+02  0.26047386072E+02  0.00000000000E+00 0.  1.
</event>
<event>
 7    1  0.5622879E-006  0.5094058E+02  0.7818608E-02  0.1531163E+00
          2   -1    0    0  502    0  0.00000000000E+00  0.00000000000E+00  0.28682598149E+03  0.28682598149E+03  0.00000000000E+00 0. -1.
          1   -1    0    0  501    0 -0.00000000000E+00 -0.00000000000E+00 -0.47627422890E+03  0.47627422890E+03  0.00000000000E+00 0. -1.
         25    2    1    2    0    0 -0.12136688671E+02  0.73112191303E+02 -0.31567749337E+03  0.34752072873E+03  0.12500274134E+03 0.  0.
          2    1    1    2  501    0 -0.69166065794E+01 -0.26035526078E+02 -0.14100857591E+03  0.14355872159E+03  0.00000000000E+00 0. -1.
          1    1    1    2  502    0  0.19053295250E+02 -0.47076665225E+02  0.26723782187E+03  0.27202076007E+03  0.00000000000E+00 0. -1.
         22    1    3    3    0    0  0.16488307122E+02  0.97539739727E+02 -0.27428851060E+03  0.29158198186E+03  0.00000000000E+00 0. -1.
         22    1    3    3    0    0 -0.28624995793E+02 -0.24427548424E+02 -0.41388982775E+02  0.55938746869E+02  0.00000000000E+00 0. -1.
</event>
<event>
 7    1  0.5622879E-006  0.1233946E+03  0.7818608E-02  0.1271003E+00
          2   -1    0    0  502    0  0.00000000000E+00  0.00000000000E+00  0.25644054507E+04  0.25644054507E+04  0.00000000000E+00 0. -1.
          1   -1    0    0  501    0 -0.00000000000E+00 -0.00000000000E+00 -0.56950557362E+02  0.56950557362E+02  0.00000000000E+00 0. -1.
         25    2    1    2    0    0 -0.26624161323E+02  0.10062524262E+03  0.78283188110E+03  0.79955291548E+03  0.12499930069E+03 0.  0.
          2    1    1    2  501    0 -0.61106982397E+02 -0.11292121084E+03  0.39472326033E+02  0.13432545432E+03  0.00000000000E+00 0. -1.
          1    1    1    2  502    0  0.87731143719E+02  0.12295968224E+02  0.16851506862E+04  0.16874776383E+04  0.00000000000E+00 0. -1.
         22    1    3    3    0    0 -0.77453380384E+01 -0.14832534624E+02  0.13846503105E+02  0.21719115842E+02  0.00000000000E+00 0. -1.
         22    1    3    3    0    0 -0.18878823284E+02  0.11545777724E+03  0.76898537800E+03  0.77783379964E+03  0.00000000000E+00 0. -1.
</event>
<event>
 7    1  0.5622879E-006  0.1434331E+03  0.7818608E-02  0.1355095E+00
          2   -1    0    0  502    0  0.00000000000E+00  0.00000000000E+00  0.71492701963E+03  0.71492701963E+03  0.00000000000E+00 0. -1.
          1   -1    0    0  501    0 -0.00000000000E+00 -0.00000000000E+00 -0.32208747707E+04  0.32208747707E+04  0.00000000000E+00 0. -1.
         25    2    1    2    0    0  0.15094847108E+03 -0.52673628756E+02 -0.19101673185E+03  0.27869821291E+03  0.12500139978E+03 0.  0.
          2    1    1    2  501    0 -0.12232959107E+03  0.73902877259E+02 -0.29838326572E+04  0.29872535028E+04  0.00000000000E+00 0. -1.
          1    1    1    2  502    0 -0.28618880010E+02 -0.21229248504E+02  0.66890163792E+03  0.66985007464E+03  0.00000000000E+00 0. -1.
         22    1    3    3    0    0  0.73008253006E+01 -0.94665700708E+01  0.17888570451E+02  0.21515551393E+02  0.00000000000E+00 0. -1.
         22    1    3    3    0    0  0.14364764578E+03 -0.43207058685E+02 -0.20890530230E+03  0.25718266152E+03  0.00000000000E+00 0. -1.
</event>
<event>
 7    1  0.5622879E-006  0.6169543E+02  0.7818608E-02  0.1468035E+00
          2   -1    0    0  502    0  0.00000000000E+00  0.00000000000E+00  0.11723699226E+04  0.11723699226E+04  0.00000000000E+00 0. -1.
          1   -1    0    0  501    0 -0.00000000000E+00 -0.00000000000E+00 -0.49360473008E+02  0.49360473008E+02  0.00000000000E+00 0. -1.
         25    2    1    2    0    0  0.47395765169E+02 -0.50048096229E+01  0.25126630673E+03  0.28466005303E+03  0.12500072887E+03 0.  0.
          2    1    1    2  501    0 -0.57846751657E+02 -0.27702665312E+02 -0.51157518026E+00  0.64140050295E+02  0.00000000000E+00 0. -1.
          1    1    1    2  502    0  0.10450986488E+02  0.32707474935E+02  0.87225471806E+03  0.87293029230E+03  0.00000000000E+00 0. -1.
         22    1    3    3    0    0  0.27011519334E+02 -0.56213982634E+02  0.19958762449E+03  0.20910488725E+03  0.00000000000E+00 0. -1.
         22    1    3    3    0    0  0.20384245835E+02  0.51209173011E+02  0.51678682239E+02  0.75555165784E+02  0.00000000000E+00 0. -1.
</event>
<event>
 7    1  0.5622879E-006  0.9308708E+02  0.7818608E-02  0.1444841E+00
          2   -1    0    0  502    0  0.00000000000E+00  0.00000000000E+00  0.13182354112E+04  0.13182354112E+04  0.00000000000E+00 0. -1.
          1   -1    0    0  501    0 -0.00000000000E+00 -0.00000000000E+00 -0.13730013695E+03  0.13730013695E+03  0.00000000000E+00 0. -1.
         25    2    1    2    0    0  0.10939435746E+03  0.39143724820E+02  0.45455009505E+03  0.48553148392E+03  0.12500270532E+03 0.  0.
          2    1    1    2  501    0 -0.26393623543E+02 -0.54801173745E+01 -0.11791970075E+03  0.12096160910E+03  0.00000000000E+00 0. -1.
          1    1    1    2  502    0 -0.83000733916E+02 -0.33663607446E+02  0.84430487996E+03  0.84904245514E+03  0.00000000000E+00 0. -1.
         22    1    3    3    0    0  0.25286896459E+02 -0.36003711698E+02  0.23086145534E+03  0.23501639506E+03  0.00000000000E+00 0. -1.
         22    1    3    3    0    0  0.84107461000E+02  0.75147436519E+02  0.22368863971E+03  0.25051508886E+03  0.00000000000E+00 0. -1.
</event>
<event>
 7    1  0.5622879E-006  0.5462955E+02  0.7818608E-02  0.1497308E+00
          2   -1    0    0  502    0  0.00000000000E+00  0.00000000000E+00  0.14474134991E+02  0.14474134991E+02  0.00000000000E+00 0. -1.
          1   -1    0    0  501    0 -0.00000000000E+00 -0.00000000000E+00 -0.99334175962E+03  0.99334175962E+03  0.00000000000E+00 0. -1.
         25    2    1    2    0    0 -0.19095805669E+02  0.22981282448E+02 -0.40334742442E+03  0.42332855435E+03  0.12500052400E+03 0.  0.
          2    1    1    2  501    0  0.48784749197E+02 -0.33680192352E+02 -0.48529462116E+03  0.48890201108E+03  0.00000000000E+00 0. -1.
          1    1    1    2  502    0 -0.29688943528E+02  0.10698909903E+02 -0.90225579049E+02  0.95585329186E+02  0.00000000000E+00 0. -1.
         22    1    3    3    0    0  0.30365984569E+02  0.59267547364E+02 -0.18974108245E+03  0.20108807413E+03  0.00000000000E+00 0.  1.
         22    1    3    3    0    0 -0.49461790238E+02 -0.36286264916E+02 -0.21360634198E+03  0.22224048022E+03  0.00000000000E+00 0.  1.
</event>
<event>
 7    1  0.5622879E-006  0.6517626E+02  0.7818608E-02  0.1423661E+00
          2   -1    0    0  502    0  0.00000000000E+00  0.00000000000E+00  0.25866567973E+02  0.25866567973E+02  0.00000000000E+00 0. -1.
          1   -1    0    0  501    0 -0.00000000000E+00 -0.00000000000E+00 -0.96572043050E+03  0.96572043050E+03  0.00000000000E+00 0. -1.
         25    2    1    2    0    0 -0.18620298856E+02 -0.19754952052E+02 -0.48510684486E+03  0.50168730901E+03  0.12499812570E+03 0.  0.
          2    1    1    2  501    0 -0.17912482657E+02 -0.41457413026E+02 -0.39301112295E+03  0.39559741770E+03  0.00000000000E+00 0. -1.
          1    1    1    2  502    0  0.36532781513E+02  0.61212365078E+02 -0.61735894717E+02  0.94302271765E+02  0.00000000000E+00 0. -1.
         22    1    3    3    0    0 -0.32100219069E+02  0.17111716391E+01 -0.47210765393E+03  0.47320079149E+03  0.00000000000E+00 0.  1.
         22    1    3    3    0    0  0.13479920213E+02 -0.21466123691E+02 -0.12999190935E+02  0.28486517516E+02  0.00000000000E+00 0.  1.
</event>
<event>
 7    1  0.5622879E-006  0.2086942E+03  0.7818608E-02  0.1348207E+00
          2   -1    0    0  502    0  0.00000000000E+00  0.00000000000E+00  0.15522703294E+04  0.15522703294E+04  0.00000000000E+00 0. -1.
          1   -1    0    0  501    0 -0.00000000000E+00 -0.00000000000E+00 -0.10063385618E+03  0.10063385618E+03  0.00000000000E+00 0. -1.
         25    2    1    2    0    0  0.16333436551E+03 -0.15085973242E+03  0.21260175446E+03  0.33205475037E+03  0.12499630963E+03 0.  0.
          2    1    1    2  501    0 -0.14755061450E+03  0.13023823800E+03  0.19690690962E+03  0.27839812056E+03  0.00000000000E+00 0. -1.
          1    1    1    2  502    0 -0.15783751011E+02  0.20621494418E+02  0.10421278092E+04  0.10424513147E+04  0.00000000000E+00 0. -1.
         22    1    3    3    0    0  0.46603130328E+02  0.14341270982E+02  0.19857152125E+02  0.52648174710E+02  0.00000000000E+00 0. -1.
         22    1    3    3    0    0  0.11673123519E+03 -0.16520100340E+03  0.19274460233E+03  0.27940657566E+03  0.00000000000E+00 0. -1.
</event>
<event>
 7    1  0.5622879E-006  0.1372163E+03  0.7818608E-02  0.1233267E+00
          2   -1    0    0  502    0  0.00000000000E+00  0.00000000000E+00  0.15167185668E+04  0.15167185668E+04  0.00000000000E+00 0. -1.
          1   -1    0    0  501    0 -0.00000000000E+00 -0.00000000000E+00 -0.11203261936E+04  0.11203261936E+04  0.00000000000E+00 0. -1.
         25    2    1    2    0    0  0.10082152032E+03  0.13767111164E+03 -0.67650785485E+02  0.22207954706E+03  0.12499753000E+03 0.  0.
          2    1    1    2  501    0  0.15171336761E+02 -0.13692155542E+03 -0.96824086917E+03  0.97799185198E+03  0.00000000000E+00 0. -1.
          1    1    1    2  502    0 -0.11599285708E+03 -0.74955622114E+00  0.14322840278E+04  0.14369733613E+04  0.00000000000E+00 0. -1.
         22    1    3    3    0    0 -0.98375563720E+01  0.91305280612E+01  0.25320848769E+02  0.28658147889E+02  0.00000000000E+00 0.  1.
         22    1    3    3    0    0  0.11065907669E+03  0.12854058358E+03 -0.92971634254E+02  0.19342139917E+03  0.00000000000E+00 0.  1.
</event>
<event>
 7    1  0.5622879E-006  0.1308279E+03  0.7818608E-02  0.1272210E+00
          2   -1    0    0  502    0  0.00000000000E+00  0.00000000000E+00  0.15853926082E+04  0.15853926082E+04  0.00000000000E+00 0. -1.
          1   -1    0    0  501    0 -0.00000000000E+00 -0.00000000000E+00 -0.13769930744E+04  0.13769930744E+04  0.00000000000E+00 0. -1.
         25    2    1    2    0    0  0.38214303644E+02  0.12296116366E+03  0.41785569480E+02  0.18426321262E+03  0.12500846747E+03 0.  0.
          2    1    1    2  501    0 -0.10679631690E+03 -0.76947312610E+02 -0.13012732498E+04  0.13079137636E+04  0.00000000000E+00 0. -1.
          1    1    1    2  502    0  0.68582013257E+02 -0.46013851045E+02  0.14678872141E+04  0.14702087064E+04  0.00000000000E+00 0. -1.
         22    1    3    3    0    0 -0.62141203624E+01  0.12818517886E+03  0.51843910125E+02  0.13841187228E+03  0.00000000000E+00 0.  1.
         22    1    3    3    0    0  0.44428424006E+02 -0.52240152067E+01 -0.10058340645E+02  0.45851340341E+02  0.00000000000E+00 0.  1.
</event>
<event>
 7    1  0.5622879E-006  0.4278793E+02  0.7818608E-02  0.1588489E+00
          2   -1    0    0  502    0  0.00000000000E+00  0.00000000000E+00  0.86751549530E+02  0.86751549530E+02  0.00000000000E+00 0. -1.
          1   -1    0    0  501    0 -0.00000000000E+00 -0.00000000000E+00 -0.21123611651E+03  0.21123611651E+03  0.00000000000E+00 0. -1.
         25    2    1    2    0    0 -0.24672024611E+01  0.39847492045E+02 -0.44670179315E+02  0.13858668068E+03  0.12496772956E+03 0.  0.
          2    1    1    2  501    0  0.22283569608E+02 -0.73609087397E+00 -0.10600819649E+03  0.10832745279E+03  0.00000000000E+00 0. -1.
          1    1    1    2  502    0 -0.19816367147E+02 -0.39111401171E+02  0.26193808824E+02  0.51073532570E+02  0.00000000000E+00 0. -1.
         22    1    3    3    0    0  0.40418369723E+02 -0.29177173731E+02 -0.14664432012E+02  0.51961501559E+02  0.00000000000E+00 0. -1.
         22    1    3    3    0    0 -0.42885572184E+02  0.69024665777E+02 -0.30005747303E+02  0.86625179125E+02  0.00000000000E+00 0. -1.
</event>
<event>
 7    1  0.5622879E-006  0.1313431E+03  0.7818608E-02  0.1284554E+00
          2   -1    0    0  502    0  0.00000000000E+00  0.00000000000E+00  0.11360945358E+04  0.11360945358E+04  0.00000000000E+00 0. -1.
          1   -1    0    0  501    0 -0.00000000000E+00 -0.00000000000E+00 -0.39633397646E+03  0.39633397646E+03  0.00000000000E+00 0. -1.
         25    2    1    2    0    0  0.11396205188E+03 -0.12196560680E+03  0.34817568964E+02  0.21142590817E+03  0.12500277208E+03 0.  0.
          2    1    1    2  501    0 -0.11920489647E+03  0.49028987383E+02 -0.29314962880E+03  0.32023484166E+03  0.00000000000E+00 0. -1.
          1    1    1    2  502    0  0.52428445857E+01  0.72936619413E+02  0.99809261916E+03  0.10007677624E+04  0.00000000000E+00 0. -1.
         22    1    3    3    0    0  0.10220680719E+03 -0.14241229432E+03  0.51308534219E+02  0.18264736158E+03  0.00000000000E+00 0.  1.
         22    1    3    3    0    0  0.11755244696E+02  0.20446687527E+02 -0.16490965256E+02  0.28778546589E+02  0.00000000000E+00 0.  1.
</event>
<event>
 7    1  0.5622879E-006  0.6750173E+02  0.7818608E-02  0.1373966E+00
          2   -1    0    0  502    0  0.00000000000E+00  0.00000000000E+00  0.76713155760E+02  0.76713155760E+02  0.00000000000E+00 0. -1.
          1   -1    0    0  501    0 -0.00000000000E+00 -0.00000000000E+00 -0.10009086488E+04  0.10009086488E+04  0.00000000000E+00 0. -1.
         25    2    1    2    0    0 -0.13169433808E+02  0.10152474853E+02 -0.18246783948E+03  0.22180282436E+03  0.12500189486E+03 0.  0.
          2    1    1    2  501    0 -0.46696388422E+01 -0.72326153588E+02 -0.77819645446E+03  0.78156420066E+03  0.00000000000E+00 0. -1.
          1    1    1    2  502    0  0.17839072650E+02  0.62173678735E+02  0.36468800918E+02  0.74254779515E+02  0.00000000000E+00 0. -1.
         22    1    3    3    0    0 -0.56195311128E+02 -0.14777056854E+02 -0.15378721922E+03  0.16439824573E+03  0.00000000000E+00 0.  1.
         22    1    3    3    0    0  0.43025877320E+02  0.24929531707E+02 -0.28680620257E+02  0.57404578638E+02  0.00000000000E+00 0.  1.
</event>
<event>
 7    1  0.5622879E-006  0.1026684E+03  0.7818608E-02  0.1281684E+00
          2   -1    0    0  502    0  0.00000000000E+00  0.00000000000E+00  0.12082982502E+04  0.12082982502E+04  0.00000000000E+00 0. -1.
          1   -1    0    0  501    0 -0.00000000000E+00 -0.00000000000E+00 -0.11986094946E+03  0.11986094946E+03  0.00000000000E+00 0. -1.
         25    2    1    2    0    0 -0.11239620398E+02 -0.49567959525E+02  0.34208881236E+03  0.36774228323E+03  0.12500527851E+03 0.  0.
          2    1    1    2  501    0  0.75184309554E+02 -0.59894607121E+02 -0.79594831353E+02  0.12480136836E+03  0.00000000000E+00 0. -1.
          1    1    1    2  502    0 -0.63944689156E+02  0.10946256665E+03  0.82594331978E+03  0.83561554811E+03  0.00000000000E+00 0. -1.
         22    1    3    3    0    0 -0.61954944394E+02 -0.19926321191E+02  0.25142776812E+03  0.25971406583E+03  0.00000000000E+00 0. -1.
         22    1    3    3    0    0  0.50715323996E+02 -0.29641638334E+02  0.90661044246E+02  0.10802821740E+03  0.00000000000E+00 0. -1.
</event>
<event>
 7    1  0.5622879E-006  0.1427503E+03  0.7818608E-02  0.1380247E+00
          2   -1    0    0  502    0  0.00000000000E+00  0.00000000000E+00  0.43507437961E+03  0.43507437961E+03  0.00000000000E+00 0. -1.
          1   -1    0    0  501    0 -0.00000000000E+00 -0.00000000000E+00 -0.16101234358E+03  0.16101234358E+03  0.00000000000E+00 0. -1.
         25    2    1    2    0    0 -0.13761007901E+03 -0.95977324493E+02 -0.25833846143E+01  0.20923476819E+03  0.12499733470E+03 0.  0.
          2    1    1    2  501    0  0.26353785866E+02  0.12227396020E+02 -0.35013424766E+02  0.45496935685E+02  0.00000000000E+00 0. -1.
          1    1    1    2  502    0  0.11125629315E+03  0.83749928473E+02  0.31165884541E+03  0.34135501931E+03  0.00000000000E+00 0. -1.
         22    1    3    3    0    0 -0.15183128969E+03 -0.10484841554E+03  0.14773569457E+02  0.18510588624E+03  0.00000000000E+00 0.  1.
         22    1    3    3    0    0  0.14221210675E+02  0.88710910422E+01 -0.17356954072E+02  0.24128881947E+02  0.00000000000E+00 0.  1.
</event>
<event>
 7    1  0.5622879E-006  0.6762630E+02  0.7818608E-02  0.1385724E+00
          2   -1    0    0  502    0  0.00000000000E+00  0.00000000000E+00  0.80513094586E+03  0.80513094586E+03  0.00000000000E+00 0. -1.
          1   -1    0    0  501    0 -0.00000000000E+00 -0.00000000000E+00 -0.35457705544E+03  0.35457705544E+03  0.00000000000E+00 0. -1.
         25    2    1    2    0    0  0.10229250486E+03 -0.39418988631E+02  0.46691001774E+02  0.17269320698E+03  0.12500112350E+03 0.  0.
          2    1    1    2  501    0 -0.66207730928E+02 -0.68267396701E+01 -0.28651756754E+03  0.29414687575E+03  0.00000000000E+00 0. -1.
          1    1    1    2  502    0 -0.36084773933E+02  0.46245728301E+02  0.69038045618E+03  0.69286791856E+03  0.00000000000E+00 0. -1.
         22    1    3    3    0    0  0.12602010934E+03 -0.14348660431E+02  0.18603962297E+02  0.12819149514E+03  0.00000000000E+00 0.  1.
         22    1    3    3    0    0 -0.23727604477E+02 -0.25070328200E+02  0.28087039477E+02  0.44501711842E+02  0.00000000000E+00 0.  1.
</event>
<event>
 7    1  0.5622879E-006  0.1061376E+03  0.7818608E-02  0.1279878E+00
          2   -1    0    0  502    0  0.00000000000E+00  0.00000000000E+00  0.10715701108E+04  0.10715701108E+04  0.00000000000E+00 0. -1.
          1   -1    0    0  501    0 -0.00000000000E+00 -0.00000000000E+00 -0.11861575224E+04  0.11861575224E+04  0.00000000000E+00 0. -1.
         25    2    1    2    0    0  0.12838875084E+03  0.13026386351E+03  0.61603257040E+03  0.65465684828E+03  0.12500846260E+03 0.  0.
          2    1    1    2  501    0 -0.39354968722E+02 -0.98315590372E+02 -0.11592754781E+04  0.11641024023E+04  0.00000000000E+00 0. -1.
          1    1    1    2  502    0 -0.89033782121E+02 -0.31948273142E+02  0.42865549616E+03  0.43896838257E+03  0.00000000000E+00 0. -1.
         22    1    3    3    0    0 -0.74046960636E+01  0.72724108373E+02  0.17641071973E+03  0.19095645446E+03  0.00000000000E+00 0. -1.
         22    1    3    3    0    0  0.13579344691E+03  0.57539755141E+02  0.43962185067E+03  0.46370039382E+03  0.00000000000E+00 0. -1.
</event>
<event>
 7    1  0.5622879E-006  0.2001001E+03  0.7818608E-02  0.1248006E+00
          2   -1    0    0  502    0  0.00000000000E+00  0.00000000000E+00  0.11661366766E+04  0.11661366766E+04  0.00000000000E+00 0. -1.
          1   -1    0    0  501    0 -0.00000000000E+00 -0.00000000000E+00 -0.60901954745E+03  0.60901954745E+03  0.00000000000E+00 0. -1.
         25    2    1    2    0    0  0.21951993593E+03  0.10476445268E+03  0.17850026843E+03  0.32657670230E+03  0.12500161536E+03 0.  0.
          2    1    1    2  501    0 -0.29563624557E+02 -0.61786857550E+02 -0.52234053651E+03  0.52681235725E+03  0.00000000000E+00 0. -1.
          1    1    1    2  502    0 -0.18995631137E+03 -0.42977595127E+02  0.90095739725E+03  0.92176716451E+03  0.00000000000E+00 0. -1.
         22    1    3    3    0    0 -0.85337945070E+01  0.16551090443E+02  0.43377215415E+02  0.47205371100E+02  0.00000000000E+00 0.  1.
         22    1    3    3    0    0  0.22805373043E+03  0.88213362233E+02  0.13512305301E+03  0.27937133120E+03  0.00000000000E+00 0.  1.
</event>
<event>
 7    1  0.5622879E-006  0.1306579E+03  0.7818608E-02  0.1414870E+00
          2   -1    0    0  502    0  0.00000000000E+00  0.00000000000E+00  0.40588352970E+03  0.40588352970E+03  0.00000000000E+00 0. -1.
          1   -1    0    0  501    0 -0.00000000000E+00 -0.00000000000E+00 -0.70620884998E+03  0.70620884998E+03  0.00000000000E+00 0. -1.
         25    2    1    2    0    0 -0.84490927194E+02 -0.72983187463E+02 -0.63965907486E+02  0.17939363916E+03  0.12500071208E+03 0.  0.
          2    1    1    2  501    0 -0.70715641407E+01 -0.23044966009E+02 -0.57162464967E+03  0.57213269229E+03  0.00000000000E+00 0. -1.
          1    1    1    2  502    0  0.91562491334E+02  0.96028153472E+02  0.33526523688E+03  0.36056604823E+03  0.00000000000E+00 0. -1.
         22    1    3    3    0    0 -0.99225414101E+02 -0.28345889492E+02 -0.40970294777E+01  0.10327612457E+03  0.00000000000E+00 0. -1.
         22    1    3    3    0    0  0.14734486908E+02 -0.44637297971E+02 -0.59868878008E+02  0.76117514598E+02  0.00000000000E+00 0. -1.
</event>
<event>
 7    1  0.5622879E-006  0.5608668E+02  0.7818608E-02  0.1479159E+00
          2   -1    0    0  502    0  0.00000000000E+00  0.00000000000E+00  0.22255232774E+03  0.22255232774E+03  0.00000000000E+00 0. -1.
          1   -1    0    0  501    0 -0.00000000000E+00 -0.00000000000E+00 -0.61871964104E+03  0.61871964104E+03  0.00000000000E+00 0. -1.
         25    2    1    2    0    0  0.27465128527E+02 -0.55086883786E+02 -0.31485210393E+03  0.34430441248E+03  0.12499913220E+03 0.  0.
          2    1    1    2  501    0  0.74074792816E+01  0.56240551673E+02 -0.28486030474E+03  0.29045354812E+03  0.00000000000E+00 0. -1.
          1    1    1    2  502    0 -0.34872607809E+02 -0.11536678873E+01  0.20354509537E+03  0.20651400818E+03  0.00000000000E+00 0. -1.
         22    1    3    3    0    0 -0.45708087139E+02 -0.46942707646E+02 -0.15720832442E+03  0.17031530846E+03  0.00000000000E+00 0. -1.
         22    1    3    3    0    0  0.73173215666E+02 -0.81441761399E+01 -0.15764377952E+03  0.17398910402E+03  0.00000000000E+00 0. -1.
</event>
<event>
 7    1  0.5622879E-006  0.1266930E+03  0.7818608E-02  0.1298207E+00
          2   -1    0    0  502    0  0.00000000000E+00  0.00000000000E+00  0.31944599863E+03  0.31944599863E+03  0.00000000000E+00 0. -1.
          1   -1    0    0  501    0 -0.00000000000E+00 -0.00000000000E+00 -0.28862903088E+03  0.28862903088E+03  0.00000000000E+00 0. -1.
         25    2    1    2    0    0  0.15467737681E+03  0.54777842294E+02  0.21804770411E+03  0.30016035143E+03  0.12500292958E+03 0.  0.
          2    1    1    2  501    0 -0.93902193770E+02 -0.82328792157E+02 -0.20392871332E+03  0.23912877729E+03  0.00000000000E+00 0. -1.
          1    1    1    2  502    0 -0.60775183040E+02  0.27550949863E+02  0.16697976971E+02  0.68785900785E+02  0.00000000000E+00 0. -1.
         22    1    3    3    0    0  0.10811748703E+03  0.15266644654E+02  0.21241501262E+03  0.23883592491E+03  0.00000000000E+00 0.  1.
         22    1    3    3    0    0  0.46559889776E+02  0.39511197640E+02  0.56326914855E+01  0.61324426522E+02  0.00000000000E+00 0.  1.
</event>
<event>
 7    1  0.5622879E-006  0.1758055E+03  0.7818608E-02  0.1305966E+00
          2   -1    0    0  502    0  0.00000000000E+00  0.00000000000E+00  0.38169893389E+03  0.38169893389E+03  0.00000000000E+00 0. -1.
          1   -1    0    0  501    0 -0.00000000000E+00 -0.00000000000E+00 -0.32071843314E+03  0.32071843314E+03  0.00000000000E+00 0. -1.
         25    2    1    2    0    0 -0.13695033947E+03 -0.40023127411E+02  0.18946299776E+03  0.26810228443E+03  0.12500144475E+03 0.  0.
          2    1    1    2  501    0  0.17866607473E+03  0.23746431226E+02 -0.24806158430E+03  0.30662682345E+03  0.00000000000E+00 0. -1.
          1    1    1    2  502    0 -0.41715735266E+02  0.16276696185E+02  0.11957908729E+03  0.12768825915E+03  0.00000000000E+00 0. -1.
         22    1    3    3    0    0 -0.68784004972E+02  0.43276111027E+02  0.93719058710E+02  0.12404564922E+03  0.00000000000E+00 0.  1.
         22    1    3    3    0    0 -0.68166334495E+02 -0.83299238438E+02  0.95743939053E+02  0.14405663521E+03  0.00000000000E+00 0.  1.
</event>
<event>
 7    1  0.5622879E-006  0.1748824E+03  0.7818608E-02  0.1215897E+00
          2   -1    0    0  502    0  0.00000000000E+00  0.00000000000E+00  0.18085771131E+04  0.18085771131E+04  0.00000000000E+00 0. -1.
          1   -1    0    0  501    0 -0.00000000000E+00 -0.00000000000E+00 -0.18771790201E+04  0.18771790201E+04  0.00000000000E+00 0. -1.
         25    2    1    2    0    0  0.79006015494E+02 -0.13322722233E+03  0.46460349065E+02  0.20439038913E+03  0.12500169550E+03 0.  0.
          2    1    1    2  501    0  0.21603092221E+02  0.17533854477E+03 -0.17920992239E+04  0.18007859193E+04  0.00000000000E+00 0. -1.
          1    1    1    2  502    0 -0.10060910772E+03 -0.42111322432E+02  0.16770369679E+04  0.16805798248E+04  0.00000000000E+00 0. -1.
         22    1    3    3    0    0  0.95324677993E+02 -0.11649697345E+03 -0.20532597335E+01  0.15054087463E+03  0.00000000000E+00 0.  1.
         22    1    3    3    0    0 -0.16318662499E+02 -0.16730248880E+02  0.48513608799E+02  0.53849514501E+02  0.00000000000E+00 0.  1.
</event>
<event>
 7    1  0.5622879E-006  0.1061286E+03  0.7818608E-02  0.1290974E+00
          2   -1    0    0  502    0  0.00000000000E+00  0.00000000000E+00  0.38137821770E+03  0.38137821770E+03  0.00000000000E+00 0. -1.
          1   -1    0    0  501    0 -0.00000000000E+00 -0.00000000000E+00 -0.37169531477E+03  0.37169531477E+03  0.00000000000E+00 0. -1.
         25    2    1    2    0    0  0.36593972549E+01 -0.14469865986E+03 -0.10084961954E+03  0.21620786903E+03  0.12499641402E+03 0.  0.
          2    1    1    2  501    0 -0.62861654171E+02  0.57509473967E+02 -0.19546585801E+03  0.21322717652E+03  0.00000000000E+00 0. -1.
          1    1    1    2  502    0  0.59202256916E+02  0.87189185896E+02  0.30599838048E+03  0.32363848692E+03  0.00000000000E+00 0. -1.
         22    1    3    3    0    0 -0.60517594965E+01  0.84620844069E+01 -0.55088615923E+02  0.56062342707E+02  0.00000000000E+00 0.  1.
         22    1    3    3    0    0  0.97111567514E+01 -0.15316074427E+03 -0.45761003613E+02  0.16014552633E+03  0.00000000000E+00 0.  1.
</event>
<event>
 7    1  0.9194002E-006  0.4879031E+02  0.7818608E-02  0.1473603E+00
          2   -1    0    0  502    0  0.00000000000E+00  0.00000000000E+00  0.17832325105E+04  0.17832325105E+04  0.00000000000E+00 0. -1.
          1   -1    0    0  501    0 -0.00000000000E+00 -0.00000000000E+00 -0.21690411854E+04  0.21690411854E+04  0.00000000000E+00 0. -1.
         25    2    1    2    0    0 -0.86699413977E+02  0.19737635548E+02 -0.45329175743E+03  0.47854357110E+03  0.12499667775E+03 0.  0.
          2    1    1    2  501    0  0.41712913746E+02 -0.92325592682E+00 -0.17025321612E+04  0.17030433288E+04  0.00000000000E+00 0. -1.
          1    1    1    2  502    0  0.44986500231E+02 -0.18814379621E+02  0.17700152438E+04  0.17706867959E+04  0.00000000000E+00 0. -1.
         22    1    3    3    0    0 -0.62222267455E+02  0.22185465117E+02 -0.44867863723E+03  0.45351551785E+03  0.00000000000E+00 0. -1.
         22    1    3    3    0    0 -0.24477146522E+02 -0.24478295697E+01 -0.46131202036E+01  0.25028053250E+02  0.00000000000E+00 0. -1.
</event>
<event>
 7    1  0.5622879E-006  0.1233581E+03  0.7818608E-02  0.1254642E+00
          2   -1    0    0  502    0  0.00000000000E+00  0.00000000000E+00  0.10883152586E+04  0.10883152586E+04  0.00000000000E+00 0. -1.
          1   -1    0    0  501    0 -0.00000000000E+00 -0.00000000000E+00 -0.97514676618E+02  0.97514676618E+02  0.00000000000E+00 0. -1.
         25    2    1    2    0    0 -0.18322350631E+03  0.31231885707E+02  0.38604606425E+03  0.44631939223E+03  0.12499260863E+03 0.  0.
          2    1    1    2  501    0  0.74857180765E+02 -0.72190897297E+02 -0.18458720404E+02  0.10562124561E+03  0.00000000000E+00 0. -1.
          1    1    1    2  502    0  0.10836632554E+03  0.40959011590E+02  0.62321323814E+03  0.63388929738E+03  0.00000000000E+00 0. -1.
         22    1    3    3    0    0 -0.14185254785E+03  0.68790765088E+02  0.21660711185E+03  0.26790475098E+03  0.00000000000E+00 0. -1.
         22    1    3    3    0    0 -0.41370958463E+02 -0.37558879381E+02  0.16943895240E+03  0.17841464125E+03  0.00000000000E+00 0. -1.
</event>
<event>
 7    1  0.5622879E-006  0.1071087E+03  0.7818608E-02  0.1415182E+00
          2   -1    0    0  502    0  0.00000000000E+00  0.00000000000E+00  0.12389953448E+03  0.12389953448E+03  0.00000000000E+00 0. -1.
          1   -1    0    0  501    0 -0.00000000000E+00 -0.00000000000E+00 -0.56375272312E+03  0.56375272312E+03  0.00000000000E+00 0. -1.
         25    2    1    2    0    0 -0.11565827195E+03 -0.35640111233E+02 -0.40550941444E+03  0.44125950569E+03  0.12500005107E+03 0.  0.
          2    1    1    2  501    0  0.93350100301E+02  0.16591393610E+02 -0.12168213602E+03  0.15425970891E+03  0.00000000000E+00 0. -1.
          1    1    1    2  502    0  0.22308171654E+02  0.19048717623E+02  0.87338361817E+02  0.92133042990E+02  0.00000000000E+00 0. -1.
         22    1    3    3    0    0 -0.11656895191E+03 -0.72387838263E+02 -0.31757944578E+03  0.34595523418E+03  0.00000000000E+00 0.  1.
         22    1    3    3    0    0  0.91067995256E+00  0.36747727031E+02 -0.87929968660E+02  0.95304271512E+02  0.00000000000E+00 0.  1.
</event>
<event>
 7    1  0.5622879E-006  0.1373262E+03  0.7818608E-02  0.1287179E+00
          2   -1    0    0  502    0  0.00000000000E+00  0.00000000000E+00  0.93688398560E+03  0.93688398560E+03  0.00000000000E+00 0. -1.
          1   -1    0    0  501    0 -0.00000000000E+00 -0.00000000000E+00 -0.14616889493E+04  0.14616889493E+04  0.00000000000E+00 0. -1.
         25    2    1    2    0    0  0.11417650904E+03 -0.11464766507E+03  0.28068533427E+03  0.34726012556E+03  0.12499990243E+03 0.  0.
          2    1    1    2  501    0 -0.12857055059E+03  0.47953875351E+02 -0.14232232848E+04  0.14298232335E+04  0.00000000000E+00 0. -1.
          1    1    1    2  502    0  0.14394041552E+02  0.66693789722E+02  0.61773298677E+03  0.62148957591E+03  0.00000000000E+00 0. -1.
         22    1    3    3    0    0  0.10322010425E+03 -0.53669461832E+02  0.25482284804E+03  0.28012405276E+03  0.00000000000E+00 0.  1.
         22    1    3    3    0    0  0.10956404787E+02 -0.60978203242E+02  0.25862486232E+02  0.67136072797E+02  0.00000000000E+00 0.  1.
</event>
<event>
 7    1  0.5622879E-006  0.1201553E+03  0.7818608E-02  0.1313187E+00
          2   -1    0    0  502    0  0.00000000000E+00  0.00000000000E+00  0.15169307157E+04  0.15169307157E+04  0.00000000000E+00 0. -1.
          1   -1    0    0  501    0 -0.00000000000E+00 -0.00000000000E+00 -0.13060971639E+04  0.13060971639E+04  0.00000000000E+00 0. -1.
         25    2    1    2    0    0 -0.16072563696E+03  0.98602286137E+01 -0.77003102784E+03  0.79655734215E+03  0.12500344400E+03 0.  0.
          2    1    1    2  501    0  0.10146232456E+03 -0.25763201584E+02 -0.51692831730E+03  0.52742130321E+03  0.00000000000E+00 0. -1.
          1    1    1    2  502    0  0.59263312396E+02  0.15902972970E+02  0.14977928969E+04  0.14990492343E+04  0.00000000000E+00 0. -1.
         22    1    3    3    0    0 -0.12839815412E+03  0.11328335578E+02 -0.31465091514E+03  0.34002884520E+03  0.00000000000E+00 0. -1.
         22    1    3    3    0    0 -0.32327482834E+02 -0.14681069642E+01 -0.45538011270E+03  0.45652849695E+03  0.00000000000E+00 0. -1.
</event>
<event>
 7    1  0.5622879E-006  0.1034803E+03  0.7818608E-02  0.1354398E+00
          2   -1    0    0  502    0  0.00000000000E+00  0.00000000000E+00  0.14043908731E+04  0.14043908731E+04  0.00000000000E+00 0. -1.
          1   -1    0    0  501    0 -0.00000000000E+00 -0.00000000000E+00 -0.85315441963E+02  0.85315441963E+02  0.00000000000E+00 0. -1.
         25    2    1    2    0    0  0.13597742270E+03  0.54925509282E+02  0.46204509338E+03  0.50061533112E+03  0.12499348137E+03 0.  0.
          2    1    1    2  501    0 -0.43082739851E+02 -0.24744407928E+02 -0.53688343900E+02  0.73149480295E+02  0.00000000000E+00 0. -1.
          1    1    1    2  502    0 -0.92894682849E+02 -0.30181101354E+02  0.91071868165E+03  0.91594150364E+03  0.00000000000E+00 0. -1.
         22    1    3    3    0    0 -0.15741095209E+02  0.31802681634E+02  0.13109064852E+03  0.13580850771E+03  0.00000000000E+00 0.  1.
         22    1    3    3    0    0  0.15171851791E+03  0.23122827648E+02  0.33095444486E+03  0.36480682341E+03  0.00000000000E+00 0.  1.
</event>
<event>
 7    1  0.5622879E-006  0.1190966E+03  0.7818608E-02  0.1360246E+00
          2   -1    0    0  502    0  0.00000000000E+00  0.00000000000E+00  0.23877575133E+03  0.23877575133E+03  0.00000000000E+00 0. -1.
          1   -1    0    0  501    0 -0.00000000000E+00 -0.00000000000E+00 -0.27193166402E+04  0.27193166402E+04  0.00000000000E+00 0. -1.
         25    2    1    2    0    0  0.10503942805E+02  0.10049751533E+03 -0.42180711676E+03  0.45139484146E+03  0.12500390291E+03 0.  0.
          2    1    1    2  501    0 -0.37702691170E+02  0.16337877116E+02 -0.22664541909E+04  0.22668266406E+04  0.00000000000E+00 0. -1.
          1    1    1    2  502    0  0.27198748365E+02 -0.11683539244E+03  0.20772041877E+03  0.23987090948E+03  0.00000000000E+00 0. -1.
         22    1    3    3    0    0 -0.14817621382E+02  0.78882575972E+02 -0.10167851305E+03  0.12953973410E+03  0.00000000000E+00 0.  1.
         22    1    3    3    0    0  0.25321564187E+02  0.21614939354E+02 -0.32012860372E+03  0.32185510736E+03  0.00000000000E+00 0.  1.
</event>
<event>
 7    1  0.5622879E-006  0.9807642E+02  0.7818608E-02  0.1334712E+00
          2   -1    0    0  502    0  0.00000000000E+00  0.00000000000E+00  0.68307409328E+03  0.68307409328E+03  0.00000000000E+00 0. -1.
          1   -1    0    0  501    0 -0.00000000000E+00 -0.00000000000E+00 -0.97132963139E+02  0.97132963139E+02  0.00000000000E+00 0. -1.
         25    2    1    2    0    0 -0.69687577473E+02  0.66811512303E+01  0.43645071105E+02  0.14977125884E+03  0.12500216601E+03 0.  0.
          2    1    1    2  501    0  0.11998290301E+03 -0.43097235879E+02  0.54409044459E+02  0.13861317713E+03  0.00000000000E+00 0. -1.
          1    1    1    2  502    0 -0.50295325534E+02  0.36416084649E+02  0.48788701458E+03  0.49182262045E+03  0.00000000000E+00 0. -1.
         22    1    3    3    0    0  0.34436819609E+02 -0.40469797934E+01  0.26634156780E+02  0.43722430143E+02  0.00000000000E+00 0.  1.
         22    1    3    3    0    0 -0.10412439708E+03  0.10728131024E+02  0.17010914325E+02  0.10604882870E+03  0.00000000000E+00 0.  1.
</event>
<event>
 7    1  0.5622879E-006  0.1182975E+03  0.7818608E-02  0.1365901E+00
          2   -1    0    0  502    0  0.00000000000E+00  0.00000000000E+00  0.10442319987E+04  0.10442319987E+04  0.00000000000E+00 0. -1.
          1   -1    0    0  501    0 -0.00000000000E+00 -0.00000000000E+00 -0.13645414591E+04  0.13645414591E+04  0.00000000000E+00 0. -1.
         25    2    1    2    0    0 -0.78739893685E+02  0.79643873682E+01  0.36920552002E+03  0.39774969372E+03  0.12501480120E+03 0.  0.
          2    1    1    2  501    0  0.11814837416E+03 -0.99121093093E+01 -0.13470741873E+04  0.13522818324E+04  0.00000000000E+00 0. -1.
          1    1    1    2  502    0 -0.39408480471E+02  0.19477219411E+01  0.65755920693E+03  0.65874193169E+03  0.00000000000E+00 0. -1.
         22    1    3    3    0    0  0.20509468446E+02  0.12262742561E+01  0.63497785586E+01  0.21504923442E+02  0.00000000000E+00 0. -1.
         22    1    3    3    0    0 -0.99249362131E+02  0.67381131121E+01  0.36285574146E+03  0.37624477028E+03  0.00000000000E+00 0. -1.
</event>
<event>
 7    1  0.5622879E-006  0.1075088E+03  0.7818608E-02  0.1448507E+00
          2   -1    0    0  502    0  0.00000000000E+00  0.00000000000E+00  0.12458802870E+04  0.12458802870E+04  0.00000000000E+00 0. -1.
          1   -1    0    0  501    0 -0.00000000000E+00 -0.00000000000E+00 -0.49945844950E+02  0.49945844950E+02  0.00000000000E+00 0. -1.
         25    2    1    2    0    0  0.11446501748E+03 -0.42240237956E+02  0.55393035123E+03  0.58081780938E+03  0.12499606296E+03 0.  0.
          2    1    1    2  501    0 -0.10326218714E+03  0.22479320544E+02  0.40655797561E+02  0.11323114863E+03  0.00000000000E+00 0. -1.
          1    1    1    2  502    0 -0.11202830340E+02  0.19760917412E+02  0.60134829328E+03  0.60177717396E+03  0.00000000000E+00 0. -1.
         22    1    3    3    0    0  0.27535842672E+02  0.29553236133E+02  0.30353822741E+03  0.30621409487E+03  0.00000000000E+00 0.  1.
         22    1    3    3    0    0  0.86929174807E+02 -0.71793474088E+02  0.25039212382E+03  0.27460371452E+03  0.00000000000E+00 0.  1.
</event>
<event>
 7    1  0.5622879E-006  0.3985856E+02  0.7818608E-02  0.1560139E+00
          2   -1    0    0  502    0  0.00000000000E+00  0.00000000000E+00  0.61730144470E+03  0.61730144470E+03  0.00000000000E+00 0. -1.
          1   -1    0    0  501    0 -0.00000000000E+00 -0.00000000000E+00 -0.10577728541E+04  0.10577728541E+04  0.00000000000E+00 0. -1.
         25    2    1    2    0    0  0.11734011798E+01 -0.22220992838E+02 -0.64837830236E+03  0.66069211903E+03  0.12499801508E+03 0.  0.
          2    1    1    2  501    0 -0.26740578906E+02  0.34927279224E+02 -0.40170289980E+03  0.40410418595E+03  0.00000000000E+00 0. -1.
          1    1    1    2  502    0  0.25567177726E+02 -0.12706286386E+02  0.60960979277E+03  0.61027799382E+03  0.00000000000E+00 0. -1.
         22    1    3    3    0    0  0.22863398008E+02 -0.33828132234E+02 -0.62632312740E+03  0.62765256107E+03  0.00000000000E+00 0.  1.
         22    1    3    3    0    0 -0.21689996828E+02  0.11607139396E+02 -0.22055174965E+02  0.33039557959E+02  0.00000000000E+00 0.  1.
</event>
<event>
 7    1  0.5622879E-006  0.9222765E+02  0.7818608E-02  0.1429785E+00
          2   -1    0    0  502    0  0.00000000000E+00  0.00000000000E+00  0.16997031046E+04  0.16997031046E+04  0.00000000000E+00 0. -1.
          1   -1    0    0  501    0 -0.00000000000E+00 -0.00000000000E+00 -0.42739541463E+03  0.42739541463E+03  0.00000000000E+00 0. -1.
         25    2    1    2    0    0 -0.42158264292E+02 -0.60705106766E+02 -0.22749866525E+02  0.14698433108E+03  0.12499763166E+03 0.  0.
          2    1    1    2  501    0 -0.30301188297E+02  0.31153769184E+01 -0.34054009366E+03  0.34189972649E+03  0.00000000000E+00 0. -1.
          1    1    1    2  502    0  0.72459452589E+02  0.57589729847E+02  0.16355976501E+04  0.16382144616E+04  0.00000000000E+00 0. -1.
         22    1    3    3    0    0  0.37001551305E+02 -0.20094289475E+02  0.21877108081E+02  0.47450006601E+02  0.00000000000E+00 0.  1.
         22    1    3    3    0    0 -0.79159815597E+02 -0.40610817291E+02 -0.44626974606E+02  0.99534324476E+02  0.00000000000E+00 0.  1.
</event>
<event>
 7    1  0.5622879E-006  0.1046401E+03  0.7818608E-02  0.1424100E+00
          2   -1    0    0  502    0  0.00000000000E+00  0.00000000000E+00  0.42331014727E+02  0.42331014727E+02  0.00000000000E+00 0. -1.
          1   -1    0    0  501    0 -0.00000000000E+00 -0.00000000000E+00 -0.76112669992E+03  0.76112669992E+03  0.00000000000E+00 0. -1.
         25    2    1    2    0    0  0.52687811000E+02 -0.10230373664E+03 -0.40824416991E+03  0.44219253178E+03  0.12501549078E+03 0.  0.
          2    1    1    2  501    0 -0.27901807442E+02  0.27323702356E+01 -0.22759720502E+03  0.22931738800E+03  0.00000000000E+00 0. -1.
          1    1    1    2  502    0 -0.24786003558E+02  0.99571366403E+02 -0.82954310259E+02  0.13194779487E+03  0.00000000000E+00 0. -1.
         22    1    3    3    0    0  0.87534232621E+02 -0.87509926772E+02 -0.24347713999E+03  0.27313247127E+03  0.00000000000E+00 0. -1.
         22    1    3    3    0    0 -0.34846421620E+02 -0.14793809866E+02 -0.16476702992E+03  0.16906006051E+03  0.00000000000E+00 0. -1.
</event>
<event>
 7    1  0.5622879E-006  0.2120253E+03  0.7818608E-02  0.1331837E+00
          2   -1    0    0  502    0  0.00000000000E+00  0.00000000000E+00  0.10348668126E+04  0.10348668126E+04  0.00000000000E+00 0. -1.
          1   -1    0    0  501    0 -0.00000000000E+00 -0.00000000000E+00 -0.62358830156E+03  0.62358830156E+03  0.00000000000E+00 0. -1.
         25    2    1    2    0    0  0.23889338167E+03 -0.16153672245E+02  0.27209674045E+03  0.38339624507E+03  0.12500022255E+03 0.  0.
          2    1    1    2  501    0 -0.21017907625E+03  0.95903321749E+01 -0.54812637160E+03  0.58711986664E+03  0.00000000000E+00 0. -1.
          1    1    1    2  502    0 -0.28714305422E+02  0.65633400705E+01  0.68730814214E+03  0.68793900240E+03  0.00000000000E+00 0. -1.
         22    1    3    3    0    0  0.21198661794E+03 -0.56301772702E+02  0.20151532807E+03  0.29785339219E+03  0.00000000000E+00 0. -1.
         22    1    3    3    0    0  0.26906763739E+02  0.40148100457E+02  0.70581412379E+02  0.85542852878E+02  0.00000000000E+00 0. -1.
</event>
<event>
 7    1  0.5622879E-006  0.6360712E+02  0.7818608E-02  0.1448519E+00
          2   -1    0    0  502    0  0.00000000000E+00  0.00000000000E+00  0.24301286450E+04  0.24301286450E+04  0.00000000000E+00 0. -1.
          1   -1    0    0  501    0 -0.00000000000E+00 -0.00000000000E+00 -0.90468554663E+01  0.90468554663E+01  0.00000000000E+00 0. -1.
         25    2    1    2    0    0 -0.19796811030E+02 -0.30126639802E+02  0.10404131393E+04  0.10485149599E+04  0.12499837009E+03 0.  0.
          2    1    1    2  501    0  0.25380949841E+01 -0.38306567114E+02  0.87307486783E+02  0.95375218263E+02  0.00000000000E+00 0. -1.
          1    1    1    2  502    0  0.17258716046E+02  0.68433206917E+02  0.12933611635E+04  0.12952853224E+04  0.00000000000E+00 0. -1.
         22    1    3    3    0    0  0.24251729892E+02  0.21333040467E+02  0.88760022719E+02  0.94454151054E+02  0.00000000000E+00 0.  1.
         22    1    3    3    0    0 -0.44048540923E+02 -0.51459680269E+02  0.95165311658E+03  0.95406080883E+03  0.00000000000E+00 0.  1.
</event>
<event>
 7    1  0.5622879E-006  0.7476480E+02  0.7818608E-02  0.1390837E+00
          2   -1    0    0  502    0  0.00000000000E+00  0.00000000000E+00  0.59951226000E+03  0.59951226000E+03  0.00000000000E+00 0. -1.
          1   -1    0    0  501    0 -0.00000000000E+00 -0.00000000000E+00 -0.44912574213E+02  0.44912574213E+02  0.00000000000E+00 0. -1.
         25    2    1    2    0    0  0.12842143332E+02  0.30911447221E+02  0.37013014871E+03  0.39209917833E+03  0.12500000180E+03 0.  0.
          2    1    1    2  501    0 -0.32102376966E+01 -0.80908817619E+02  0.24725675346E+02  0.84663459745E+02  0.00000000000E+00 0. -1.
          1    1    1    2  502    0 -0.96319056357E+01  0.49997370398E+02  0.15974386172E+03  0.16766219613E+03  0.00000000000E+00 0. -1.
         22    1    3    3    0    0  0.59578628841E+02 -0.89004376390E+01  0.11660485557E+03  0.13124604050E+03  0.00000000000E+00 0. -1.
         22    1    3    3    0    0 -0.46736485508E+02  0.39811884860E+02  0.25352529315E+03  0.26085313784E+03  0.00000000000E+00 0. -1.
</event>
<event>
 7    1  0.5622879E-006  0.9057967E+02  0.7818608E-02  0.1323921E+00
          2   -1    0    0  502    0  0.00000000000E+00  0.00000000000E+00  0.26110432082E+04  0.26110432082E+04  0.00000000000E+00 0. -1.
          1   -1    0    0  501    0 -0.00000000000E+00 -0.00000000000E+00 -0.34609249039E+03  0.34609249039E+03  0.00000000000E+00 0. -1.
         25    2    1    2    0    0  0.16221173529E+03  0.45882077051E+01  0.11790804333E+01  0.20484018439E+03  0.12499764876E+03 0.  0.
          2    1    1    2  501    0 -0.73312962265E+02  0.95776181646E+01 -0.23783881271E+03  0.24906589898E+03  0.00000000000E+00 0. -1.
          1    1    1    2  502    0 -0.88898773022E+02 -0.14165825870E+02  0.25016104501E+04  0.25032296152E+04  0.00000000000E+00 0. -1.
         22    1    3    3    0    0  0.14412026579E+03  0.46149430561E+02 -0.23636716333E+02  0.15316368796E+03  0.00000000000E+00 0. -1.
         22    1    3    3    0    0  0.18091469499E+02 -0.41561222856E+02  0.24815796766E+02  0.51676496428E+02  0.00000000000E+00 0. -1.
</event>
<event>
 7    1  0.5622879E-006  0.9859539E+02  0.7818608E-02  0.1440881E+00
          2   -1    0    0  502    0  0.00000000000E+00  0.00000000000E+00  0.75146918362E+03  0.75146918362E+03  0.00000000000E+00 0. -1.
          1   -1    0    0  501    0 -0.00000000000E+00 -0.00000000000E+00 -0.17920249817E+03  0.17920249817E+03  0.00000000000E+00 0. -1.
         25    2    1    2    0    0 -0.66187575229E+02  0.41723015534E+02 -0.31918819193E+02  0.15088023355E+03  0.12499771485E+03 0.  0.
          2    1    1    2  501    0 -0.74142892606E+01  0.25141275270E+02 -0.82180609247E+02  0.86259538276E+02  0.00000000000E+00 0. -1.
          1    1    1    2  502    0  0.73601864490E+02 -0.66864290804E+02  0.68636611389E+03  0.69353190997E+03  0.00000000000E+00 0. -1.
         22    1    3    3    0    0  0.43066939358E+01  0.83028881465E+01  0.42227590795E+02  0.43251069219E+02  0.00000000000E+00 0. -1.
         22    1    3    3    0    0 -0.70494269165E+02  0.33420127387E+02 -0.74146409989E+02  0.10762916433E+03  0.00000000000E+00 0. -1.
</event>
<event>
 7    1  0.5622879E-006  0.1808096E+03  0.7818608E-02  0.1297216E+00
          2   -1    0    0  502    0  0.00000000000E+00  0.00000000000E+00  0.10836091853E+04  0.10836091853E+04  0.00000000000E+00 0. -1.
          1   -1    0    0  501    0 -0.00000000000E+00 -0.00000000000E+00 -0.73883466308E+03  0.73883466308E+03  0.00000000000E+00 0. -1.
         25    2    1    2    0    0  0.19300336022E+03 -0.83758466378E+02 -0.12773632360E+03  0.27605874862E+03  0.12500434623E+03 0.  0.
          2    1    1    2  501    0 -0.17746452352E+02  0.43723034338E+02 -0.52787250188E+03  0.52997737550E+03  0.00000000000E+00 0. -1.
          1    1    1    2  502    0 -0.17525690787E+03  0.40035432040E+02  0.10003833477E+04  0.10164077243E+04  0.00000000000E+00 0. -1.
         22    1    3    3    0    0  0.18658890650E+03 -0.30824902491E+02 -0.83306317945E+02  0.20665318109E+03  0.00000000000E+00 0.  1.
         22    1    3    3    0    0  0.64144537160E+01 -0.52933563887E+02 -0.44430005651E+02  0.69405567532E+02  0.00000000000E+00 0.  1.
</event>
<event>
 7    1  0.5622879E-006  0.5469973E+02  0.7818608E-02  0.1433942E+00
          2   -1    0    0  502    0  0.00000000000E+00  0.00000000000E+00  0.32820455576E+03  0.32820455576E+03  0.00000000000E+00 0. -1.
          1   -1    0    0  501    0 -0.00000000000E+00 -0.00000000000E+00 -0.12306577062E+03  0.12306577062E+03  0.00000000000E+00 0. -1.
         25    2    1    2    0    0 -0.16822040602E+02  0.47520697369E+01  0.17666656598E+03  0.21712036251E+03  0.12499845226E+03 0.  0.
          2    1    1    2  501    0 -0.15618498431E+02  0.52422542377E+02 -0.86130622681E+02  0.10203207636E+03  0.00000000000E+00 0. -1.
          1    1    1    2  502    0  0.32440539033E+02 -0.57174612114E+02  0.11460284184E+03  0.13211788751E+03  0.00000000000E+00 0. -1.
         22    1    3    3    0    0  0.24603745017E+01 -0.40098486001E+02  0.72664465800E+01  0.40825767208E+02  0.00000000000E+00 0.  1.
         22    1    3    3    0    0 -0.19282415103E+02  0.44850555738E+02  0.16940011940E+03  0.17629459531E+03  0.00000000000E+00 0.  1.
</event>
<event>
 7    1  0.5622879E-006  0.6017769E+02  0.7818608E-02  0.1412612E+00
          2   -1    0    0  502    0  0.00000000000E+00  0.00000000000E+00  0.29458624720E+04  0.29458624720E+04  0.00000000000E+00 0. -1.
          1   -1    0    0  501    0 -0.00000000000E+00 -0.00000000000E+00 -0.17489262335E+02  0.17489262335E+02  0.00000000000E+00 0. -1.
         25    2    1    2    0    0 -0.28843884306E+02  0.17588687394E+01  0.56647069211E+03  0.58081767975E+03  0.12500027523E+03 0.  0.
          2    1    1    2  501    0  0.18668614102E+02  0.57552325329E+02  0.82351329710E+02  0.10218869217E+03  0.00000000000E+00 0. -1.
          1    1    1    2  502    0  0.10175270204E+02 -0.59311194068E+02  0.22795511878E+04  0.22803453624E+04  0.00000000000E+00 0. -1.
         22    1    3    3    0    0 -0.92191877466E+01  0.55141482143E+02  0.14292500001E+03  0.15347029714E+03  0.00000000000E+00 0. -1.
         22    1    3    3    0    0 -0.19624696559E+02 -0.53382613403E+02  0.42354569209E+03  0.42734738260E+03  0.00000000000E+00 0. -1.
</event>
<event>
 7    1  0.5622879E-006  0.1082748E+03  0.7818608E-02  0.1297942E+00
          2   -1    0    0  502    0  0.00000000000E+00  0.00000000000E+00  0.15697381940E+04  0.15697381940E+04  0.00000000000E+00 0. -1.
          1   -1    0    0  501    0 -0.00000000000E+00 -0.00000000000E+00 -0.53799013297E+03  0.53799013297E+03  0.00000000000E+00 0. -1.
         25    2    1    2    0    0 -0.36223636625E+02 -0.30723977511E+02  0.29352191786E+03  0.32254604166E+03  0.12499887231E+03 0.  0.
          2    1    1    2  501    0 -0.22955042911E+02 -0.74828940734E+02 -0.51762763550E+03  0.52351186557E+03  0.00000000000E+00 0. -1.
          1    1    1    2  502    0  0.59178679536E+02  0.10555291824E+03  0.12558537787E+04  0.12616704198E+04  0.00000000000E+00 0. -1.
         22    1    3    3    0    0  0.30595928562E+01 -0.73948555689E+02  0.14144792029E+03  0.15964104783E+03  0.00000000000E+00 0.  1.
         22    1    3    3    0    0 -0.39283229481E+02  0.43224578178E+02  0.15207399757E+03  0.16290499382E+03  0.00000000000E+00 0.  1.
</event>
<event>
 7    1  0.5622879E-006  0.9059638E+02  0.7818608E-02  0.1379998E+00
          2   -1    0    0  502    0  0.00000000000E+00  0.00000000000E+00  0.33689353129E+03  0.33689353129E+03  0.00000000000E+00 0. -1.
          1   -1    0    0  501    0 -0.00000000000E+00 -0.00000000000E+00 -0.45458876833E+03  0.45458876833E+03  0.00000000000E+00 0. -1.
         25    2    1    2    0    0 -0.18379349522E+02 -0.11095176322E+03 -0.64362938240E+02  0.18004051730E+03  0.12499562313E+03 0.  0.
          2    1    1    2  501    0  0.47436880685E+02  0.75459234533E+02 -0.32445049934E+03  0.33647062316E+03  0.00000000000E+00 0. -1.
          1    1    1    2  502    0 -0.29057531163E+02  0.35492528686E+02  0.27111820054E+03  0.27497115917E+03  0.00000000000E+00 0. -1.
         22    1    3    3    0    0 -0.25205413053E+02 -0.98104377394E+02  0.12277089734E+02  0.10203190013E+03  0.00000000000E+00 0.  1.
         22    1    3    3    0    0  0.68260635313E+01 -0.12847385824E+02 -0.76640027974E+02  0.78008617176E+02  0.00000000000E+00 0.  1.
</event>
<event>
 7    1  0.5622879E-006  0.6752620E+02  0.7818608E-02  0.1438875E+00
          2   -1    0    0  502    0  0.00000000000E+00  0.00000000000E+00  0.82508264167E+03  0.82508264167E+03  0.00000000000E+00 0. -1.
          1   -1    0    0  501    0 -0.00000000000E+00 -0.00000000000E+00 -0.44915251564E+03  0.44915251564E+03  0.00000000000E+00 0. -1.
         25    2    1    2    0    0  0.29377562446E+02  0.42105556593E+01  0.11297793240E+03  0.17108057853E+03  0.12499512466E+03 0.  0.
          2    1    1    2  501    0 -0.66282477631E+02 -0.16349510593E+02 -0.41676930929E+03  0.42232372714E+03  0.00000000000E+00 0. -1.
          1    1    1    2  502    0  0.36904915186E+02  0.12138954934E+02  0.67972150293E+03  0.68083085163E+03  0.00000000000E+00 0. -1.
         22    1    3    3    0    0 -0.46552377317E+02  0.17886646991E+02  0.32114065162E+02  0.59315842367E+02  0.00000000000E+00 0. -1.
         22    1    3    3    0    0  0.75929939763E+02 -0.13676091332E+02  0.80863867233E+02  0.11176473617E+03  0.00000000000E+00 0. -1.
</event>
<event>
 7    1  0.5622879E-006  0.2515335E+03  0.7818608E-02  0.1284552E+00
          2   -1    0    0  502    0  0.00000000000E+00  0.00000000000E+00  0.57749723810E+03  0.57749723810E+03  0.00000000000E+00 0. -1.
          1   -1    0    0  501    0 -0.00000000000E+00 -0.00000000000E+00 -0.14612065589E+04  0.14612065589E+04  0.00000000000E+00 0. -1.
         25    2    1    2    0    0  0.10839810615E+03  0.19255438858E+03 -0.10935260210E+03  0.27642361762E+03  0.12499873124E+03 0.  0.
          2    1    1    2  501    0 -0.13903144542E+03 -0.21534979721E+03 -0.12546016395E+04  0.12805196413E+04  0.00000000000E+00 0. -1.
          1    1    1    2  502    0  0.30633339265E+02  0.22795408633E+02  0.48024492077E+03  0.48176053809E+03  0.00000000000E+00 0. -1.
         22    1    3    3    0    0  0.92382768869E+01 -0.16318924136E+02  0.35971359426E+01  0.19094303648E+02  0.00000000000E+00 0.  1.
         22    1    3    3    0    0  0.99159829263E+02  0.20887331271E+03 -0.11294973805E+03  0.25732931397E+03  0.00000000000E+00 0.  1.
</event>
<event>
 7    1  0.5622879E-006  0.1393604E+03  0.7818608E-02  0.1306930E+00
          2   -1    0    0  502    0  0.00000000000E+00  0.00000000000E+00  0.11911271724E+03  0.11911271724E+03  0.00000000000E+00 0. -1.
          1   -1    0    0  501    0 -0.00000000000E+00 -0.00000000000E+00 -0.18149837835E+04  0.18149837835E+04  0.00000000000E+00 0. -1.
         25    2    1    2    0    0 -0.18935222055E+02 -0.10352890896E+03 -0.25938020584E+02  0.16545272821E+03  0.12500018695E+03 0.  0.
          2    1    1    2  501    0  0.72044679804E+02  0.12127015800E+03 -0.16994855796E+04  0.17053293296E+04  0.00000000000E+00 0. -1.
          1    1    1    2  502    0 -0.53109457749E+02 -0.17741249037E+02  0.29552533932E+02  0.63314442915E+02  0.00000000000E+00 0. -1.
         22    1    3    3    0    0  0.24340645346E+02 -0.11585234803E+03 -0.20182184169E+02  0.12008977524E+03  0.00000000000E+00 0. -1.
         22    1    3    3    0    0 -0.43275867402E+02  0.12323439065E+02 -0.57558364156E+01  0.45362952975E+02  0.00000000000E+00 0. -1.
</event>
<event>
 7    1  0.5622879E-006  0.3262360E+02  0.7818608E-02  0.1596204E+00
          2   -1    0    0  502    0  0.00000000000E+00  0.00000000000E+00  0.56759023485E+03  0.56759023485E+03  0.00000000000E+00 0. -1.
          1   -1    0    0  501    0 -0.00000000000E+00 -0.00000000000E+00 -0.36305750256E+03  0.36305750256E+03  0.00000000000E+00 0. -1.
         25    2    1    2    0    0 -0.35042357141E+02  0.46110100873E+02  0.22838727095E+03  0.26671956804E+03  0.12499789697E+03 0.  0.
          2    1    1    2  501    0  0.25868923780E+02 -0.19758034415E+02 -0.34251003005E+03  0.34405334154E+03  0.00000000000E+00 0. -1.
          1    1    1    2  502    0  0.91734333609E+01 -0.26352066457E+02  0.31865549139E+03  0.31987482783E+03  0.00000000000E+00 0. -1.
         22    1    3    3    0    0 -0.35172807750E+02  0.24626862889E+02  0.60671062548E+01  0.43363793181E+02  0.00000000000E+00 0.  1.
         22    1    3    3    0    0  0.13045060908E+00  0.21483237983E+02  0.22232016470E+03  0.22335577486E+03  0.00000000000E+00 0.  1.
</event>
<event>
 7    1  0.5622879E-006  0.5417356E+02  0.7818608E-02  0.1552402E+00
          2   -1    0    0  502    0  0.00000000000E+00  0.00000000000E+00  0.19434145040E+04  0.19434145040E+04  0.00000000000E+00 0. -1.
          1   -1    0    0  501    0 -0.00000000000E+00 -0.00000000000E+00 -0.11219456727E+03  0.11219456727E+03  0.00000000000E+00 0. -1.
         25    2    1    2    0    0  0.40180649781E+01 -0.40654078354E+02  0.53044115320E+03  0.54649938335E+03  0.12499944025E+03 0.  0.
          2    1    1    2  501    0  0.14685082621E+02  0.52365706598E+02 -0.96973570434E+02  0.11118314729E+03  0.00000000000E+00 0. -1.
          1    1    1    2  502    0 -0.18703147599E+02 -0.11711628244E+02  0.13977523540E+04  0.13979265407E+04  0.00000000000E+00 0. -1.
         22    1    3    3    0    0  0.32880611571E+02 -0.45327690343E+02  0.96471528890E+02  0.11154590990E+03  0.00000000000E+00 0. -1.
         22    1    3    3    0    0 -0.28862546593E+02  0.46736119890E+01  0.43396962431E+03  0.43495347345E+03  0.00000000000E+00 0. -1.
</event>
<event>
 7    1  0.5622879E-006  0.9014550E+02  0.7818608E-02  0.1445852E+00
          2   -1    0    0  502    0  0.00000000000E+00  0.00000000000E+00  0.56353374219E+03  0.56353374219E+03  0.00000000000E+00 0. -1.
          1   -1    0    0  501    0 -0.00000000000E+00 -0.00000000000E+00 -0.91695278081E+03  0.91695278081E+03  0.00000000000E+00 0. -1.
         25    2    1    2    0    0 -0.10257798597E+02  0.80028148429E+02  0.19003159191E+03  0.24136085817E+03  0.12503331940E+03 0.  0.
          2    1    1    2  501    0 -0.27126972471E+02  0.52384703059E+01 -0.88483873856E+03  0.88526996304E+03  0.00000000000E+00 0. -1.
          1    1    1    2  502    0  0.37384771068E+02 -0.85266618735E+02  0.34138810804E+03  0.35385570179E+03  0.00000000000E+00 0. -1.
         22    1    3    3    0    0 -0.27155887910E+02 -0.23869046740E+02  0.86338081695E+02  0.93602553337E+02  0.00000000000E+00 0.  1.
         22    1    3    3    0    0  0.16898089313E+02  0.10389719517E+03  0.10369351021E+03  0.14775830483E+03  0.00000000000E+00 0.  1.
</event>
<event>
 7    1  0.5622879E-006  0.4770507E+02  0.7818608E-02  0.1485695E+00
          2   -1    0    0  502    0  0.00000000000E+00  0.00000000000E+00  0.12087162705E+04  0.12087162705E+04  0.00000000000E+00 0. -1.
          1   -1    0    0  501    0 -0.00000000000E+00 -0.00000000000E+00 -0.54541542288E+02  0.54541542288E+02  0.00000000000E+00 0. -1.
         25    2    1    2    0    0 -0.78271748858E+02 -0.52075392865E+01  0.72089670923E+03  0.73584635123E+03  0.12499680838E+03 0.  0.
          2    1    1    2  501    0  0.37531784244E+02 -0.11234729115E+02 -0.37710905760E+02  0.54377995366E+02  0.00000000000E+00 0. -1.
          1    1    1    2  502    0  0.40739964614E+02  0.16442268402E+02  0.47098892470E+03  0.47303346615E+03  0.00000000000E+00 0. -1.
         22    1    3    3    0    0 -0.45629056199E+02  0.52328817119E+02  0.51305504602E+03  0.51773139379E+03  0.00000000000E+00 0.  1.
         22    1    3    3    0    0 -0.32642692659E+02 -0.57536356406E+02  0.20784166321E+03  0.21811495743E+03  0.00000000000E+00 0.  1.
</event>
<event>
 7    1  0.5622879E-006  0.2091168E+03  0.7818608E-02  0.1245706E+00
          2   -1    0    0  502    0  0.00000000000E+00  0.00000000000E+00  0.72500287907E+03  0.72500287907E+03  0.00000000000E+00 0. -1.
          1   -1    0    0  501    0 -0.00000000000E+00 -0.00000000000E+00 -0.12788987104E+04  0.12788987104E+04  0.00000000000E+00 0. -1.
         25    2    1    2    0    0  0.23431340675E+03 -0.65144953317E+02 -0.18018607632E+03  0.32747331501E+03  0.12500044967E+03 0.  0.
          2    1    1    2  501    0 -0.17818545727E+03  0.10186693441E+03 -0.10130227937E+04  0.10336063613E+04  0.00000000000E+00 0. -1.
          1    1    1    2  502    0 -0.56127949481E+02 -0.36721981096E+02  0.63931303870E+03  0.64282191317E+03  0.00000000000E+00 0. -1.
         22    1    3    3    0    0  0.19953428532E+03 -0.17928835787E+02 -0.89367595755E+02  0.21936713825E+03  0.00000000000E+00 0.  1.
         22    1    3    3    0    0  0.34779121431E+02 -0.47216117530E+02 -0.90818480568E+02  0.10810617677E+03  0.00000000000E+00 0.  1.
</event>
<event>
 7    1  0.5622879E-006  0.2878265E+03  0.7818608E-02  0.1289134E+00
          2   -1    0    0  502    0  0.00000000000E+00  0.00000000000E+00  0.16625831655E+04  0.16625831655E+04  0.00000000000E+00 0. -1.
          1   -1    0    0  501    0 -0.00000000000E+00 -0.00000000000E+00 -0.29217465925E+03  0.29217465925E+03  0.00000000000E+00 0. -1.
         25    2    1    2    0    0  0.26307681789E+03  0.12247738271E+03 -0.16749585150E+03  0.35761554953E+03  0.12499559836E+03 0.  0.
          2    1    1    2  501    0 -0.25752379677E+03 -0.91002654360E+02  0.60619879647E+03  0.66488868982E+03  0.00000000000E+00 0. -1.
          1    1    1    2  502    0 -0.55530211244E+01 -0.31474728354E+02  0.93170556123E+03  0.93225358535E+03  0.00000000000E+00 0. -1.
         22    1    3    3    0    0  0.10952497177E+03  0.20353898737E+02 -0.12676836549E+03  0.16876083409E+03  0.00000000000E+00 0. -1.
         22    1    3    3    0    0  0.15355184612E+03  0.10212348398E+03 -0.40727486010E+02  0.18885471544E+03  0.00000000000E+00 0. -1.
</event>
<event>
 7    1  0.5622879E-006  0.7690576E+02  0.7818608E-02  0.1406162E+00
          2   -1    0    0  502    0  0.00000000000E+00  0.00000000000E+00  0.17338713526E+02  0.17338713526E+02  0.00000000000E+00 0. -1.
          1   -1    0    0  501    0 -0.00000000000E+00 -0.00000000000E+00 -0.14533221911E+04  0.14533221911E+04  0.00000000000E+00 0. -1.
         25    2    1    2    0    0 -0.50939078205E+02  0.28933517202E+02 -0.68778845523E+03  0.70150696333E+03  0.12500848909E+03 0.  0.
          2    1    1    2  501    0  0.86056152297E+02 -0.27047293386E+01 -0.69461106722E+03  0.69992679018E+03  0.00000000000E+00 0. -1.
          1    1    1    2  502    0 -0.35117074092E+02 -0.26228787863E+02 -0.53583955139E+02  0.69227151132E+02  0.00000000000E+00 0. -1.
         22    1    3    3    0    0  0.37298945996E+02  0.28752057925E+02 -0.30958255716E+03  0.31314413918E+03  0.00000000000E+00 0. -1.
         22    1    3    3    0    0 -0.88238024201E+02  0.18145927726E+00 -0.37820589807E+03  0.38836282414E+03  0.00000000000E+00 0. -1.
</event>
<event>
 7    1  0.5622879E-006  0.5279313E+02  0.7818608E-02  0.1438291E+00
          2   -1    0    0  502    0  0.00000000000E+00  0.00000000000E+00  0.91289247240E+03  0.91289247240E+03  0.00000000000E+00 0. -1.
          1   -1    0    0  501    0 -0.00000000000E+00 -0.00000000000E+00 -0.92141662738E+03  0.92141662738E+03  0.00000000000E+00 0. -1.
         25    2    1    2    0    0  0.27107205916E+02 -0.60458750407E+01  0.12844371410E+03  0.18136215534E+03  0.12499236169E+03 0.  0.
          2    1    1    2  501    0 -0.16288699750E+02 -0.47177061063E+02 -0.89328703507E+03  0.89468023553E+03  0.00000000000E+00 0. -1.
          1    1    1    2  502    0 -0.10818506166E+02  0.53222936103E+02  0.75631916598E+03  0.75826670891E+03  0.00000000000E+00 0. -1.
         22    1    3    3    0    0  0.77264657827E+02 -0.69056786997E+01  0.71842839962E+02  0.10573036178E+03  0.00000000000E+00 0. -1.
         22    1    3    3    0    0 -0.50157451911E+02  0.85980365903E+00  0.56600874136E+02  0.75631793563E+02  0.00000000000E+00 0. -1.
</event>
<event>
 7    1  0.5622879E-006  0.2146604E+03  0.7818608E-02  0.1268849E+00
          2   -1    0    0  502    0  0.00000000000E+00  0.00000000000E+00  0.29093102334E+03  0.29093102334E+03  0.00000000000E+00 0. -1.
          1   -1    0    0  501    0 -0.00000000000E+00 -0.00000000000E+00 -0.12619631515E+04  0.12619631515E+04  0.00000000000E+00 0. -1.
         25    2    1    2    0    0 -0.10849957530E+03 -0.23779822454E+03 -0.39168611951E+03  0.48719950892E+03  0.12500076735E+03 0.  0.
          2    1    1    2  501    0  0.27026013986E+02  0.44420171864E+02 -0.77621909279E+03  0.77795863458E+03  0.00000000000E+00 0. -1.
          1    1    1    2  502    0  0.81473561312E+02  0.19337805267E+03  0.19687308417E+03  0.28773603132E+03  0.00000000000E+00 0. -1.
         22    1    3    3    0    0 -0.84094381290E+02 -0.22695905851E+03 -0.39175731261E+03  0.46049546272E+03  0.00000000000E+00 0. -1.
         22    1    3    3    0    0 -0.24405194008E+02 -0.10839166030E+02  0.71193097536E-01  0.26704046196E+02  0.00000000000E+00 0. -1.
</event>
<event>
 7    1  0.5622879E-006  0.8178739E+02  0.7818608E-02  0.1415286E+00
          2   -1    0    0  502    0  0.00000000000E+00  0.00000000000E+00  0.90006735809E+03  0.90006735809E+03  0.00000000000E+00 0. -1.
          1   -1    0    0  501    0 -0.00000000000E+00 -0.00000000000E+00 -0.70661500064E+03  0.70661500064E+03  0.00000000000E+00 0. -1.
         25    2    1    2    0    0  0.14015875251E+02 -0.42349689615E+02 -0.38968116581E+03  0.41166226127E+03  0.12499786157E+03 0.  0.
          2    1    1    2  501    0  0.13139193631E+00 -0.38385322931E+02 -0.30284007701E+03  0.30526310377E+03  0.00000000000E+00 0. -1.
          1    1    1    2  502    0 -0.14147267187E+02  0.80735012546E+02  0.88597360027E+03  0.88975699368E+03  0.00000000000E+00 0. -1.
         22    1    3    3    0    0 -0.83778513880E+01 -0.47341741248E+02 -0.38532033224E+03  0.38830810871E+03  0.00000000000E+00 0.  1.
         22    1    3    3    0    0  0.22393726639E+02  0.49920516329E+01 -0.43608335782E+01  0.23354152560E+02  0.00000000000E+00 0.  1.
</event>
<event>
 7    1  0.5622879E-006  0.3126663E+02  0.7818608E-02  0.1585365E+00
          2   -1    0    0  502    0  0.00000000000E+00  0.00000000000E+00  0.89663451049E+03  0.89663451049E+03  0.00000000000E+00 0. -1.
          1   -1    0    0  501    0 -0.00000000000E+00 -0.00000000000E+00 -0.95250629621E+03  0.95250629621E+03  0.00000000000E+00 0. -1.
         25    2    1    2    0    0 -0.39358461380E+01  0.13578995296E+02 -0.58361552364E+03  0.59701933708E+03  0.12500051766E+03 0.  0.
          2    1    1    2  501    0  0.33830398582E+02 -0.44183238330E+01 -0.36110991884E+03  0.36271805984E+03  0.00000000000E+00 0. -1.
          1    1    1    2  502    0 -0.29894552444E+02 -0.91606714632E+01  0.88885365676E+03  0.88940340977E+03  0.00000000000E+00 0. -1.
         22    1    3    3    0    0 -0.14580682006E+02 -0.34479929203E+02 -0.48840076734E+03  0.48983341183E+03  0.00000000000E+00 0. -1.
         22    1    3    3    0    0  0.10644835868E+02  0.48058924499E+02 -0.95214756304E+02  0.10718592525E+03  0.00000000000E+00 0. -1.
</event>
<event>
 7    1  0.5622879E-006  0.3813930E+02  0.7818608E-02  0.1588399E+00
          2   -1    0    0  502    0  0.00000000000E+00  0.00000000000E+00  0.11518083292E+03  0.11518083292E+03  0.00000000000E+00 0. -1.
          1   -1    0    0  501    0 -0.00000000000E+00 -0.00000000000E+00 -0.82233029410E+03  0.82233029410E+03  0.00000000000E+00 0. -1.
         25    2    1    2    0    0 -0.53102765051E+02  0.75101492876E+01 -0.33717511996E+03  0.36357699395E+03  0.12499945206E+03 0.  0.
          2    1    1    2  501    0  0.21233938187E+02  0.13246647839E+02 -0.46806230670E+03  0.46873092150E+03  0.00000000000E+00 0. -1.
          1    1    1    2  502    0  0.31868826863E+02 -0.20756797127E+02  0.98087965480E+02  0.10520321157E+03  0.00000000000E+00 0. -1.
         22    1    3    3    0    0 -0.33470964071E+02  0.36796985327E+02 -0.32092026884E+03  0.32475243266E+03  0.00000000000E+00 0. -1.
         22    1    3    3    0    0 -0.19631800979E+02 -0.29286836040E+02 -0.16254851117E+02  0.38824561295E+02  0.00000000000E+00 0. -1.
</event>
<event>
 7    1  0.5622879E-006  0.4161102E+02  0.7818608E-02  0.1576686E+00
          2   -1    0    0  502    0  0.00000000000E+00  0.00000000000E+00  0.12208074097E+03  0.12208074097E+03  0.00000000000E+00 0. -1.
          1   -1    0    0  501    0 -0.00000000000E+00 -0.00000000000E+00 -0.15837102334E+03  0.15837102334E+03  0.00000000000E+00 0. -1.
         25    2    1    2    0    0  0.44061417426E+02  0.31547031298E+02 -0.87457556145E+02  0.16189502646E+03  0.12499820709E+03 0.  0.
          2    1    1    2  501    0 -0.33931866001E+01 -0.24418932813E+02 -0.22971130837E+02  0.33696748315E+02  0.00000000000E+00 0. -1.
          1    1    1    2  502    0 -0.40668230826E+02 -0.71280984845E+01  0.74138404608E+02  0.84859989538E+02  0.00000000000E+00 0. -1.
         22    1    3    3    0    0 -0.18377910599E+01 -0.38639626848E+02 -0.64053404369E+02  0.74828048552E+02  0.00000000000E+00 0.  1.
         22    1    3    3    0    0  0.45899208486E+02  0.70186658146E+02 -0.23404151776E+02  0.87066977906E+02  0.00000000000E+00 0.  1.
</event>
<event>
 7    1  0.5622879E-006  0.1047554E+03  0.7818608E-02  0.1322874E+00
          2   -1    0    0  502    0  0.00000000000E+00  0.00000000000E+00  0.13642215811E+04  0.13642215811E+04  0.00000000000E+00 0. -1.
          1   -1    0    0  501    0 -0.00000000000E+00 -0.00000000000E+00 -0.96438335354E+02  0.96438335354E+02  0.00000000000E+00 0. -1.
         25    2    1    2    0    0  0.38419359803E+02 -0.50005736580E+02  0.67366950728E+02  0.15536745311E+03  0.12499647410E+03 0.  0.
          2    1    1    2  501    0 -0.29936235491E+02 -0.57164002895E+02 -0.29312130333E+02  0.70873848541E+02  0.00000000000E+00 0. -1.
          1    1    1    2  502    0 -0.84831243122E+01  0.10716973947E+03  0.12297284253E+04  0.12344186148E+04  0.00000000000E+00 0. -1.
         22    1    3    3    0    0  0.75270841316E+02 -0.45975418110E+02  0.12400987603E+02  0.89068642722E+02  0.00000000000E+00 0. -1.
         22    1    3    3    0    0 -0.36851481513E+02 -0.40303184693E+01  0.54965963125E+02  0.66298810389E+02  0.00000000000E+00 0. -1.
</event>
<event>
 7    1  0.5622879E-006  0.6542638E+02  0.7818608E-02  0.1465279E+00
          2   -1    0    0  502    0  0.00000000000E+00  0.00000000000E+00  0.70716008335E+02  0.70716008335E+02  0.00000000000E+00 0. -1.
          1   -1    0    0  501    0 -0.00000000000E+00 -0.00000000000E+00 -0.10711257383E+04  0.10711257383E+04  0.00000000000E+00 0. -1.
         25    2    1    2    0    0 -0.94810979579E+02 -0.67845677097E+01 -0.29719759722E+03  0.33613446986E+03  0.12499927130E+03 0.  0.
          2    1    1    2  501    0  0.32486580692E+02 -0.59504244553E+01 -0.73420442594E+03  0.73494688553E+03  0.00000000000E+00 0. -1.
          1    1    1    2  502    0  0.62324398887E+02  0.12734992165E+02  0.30992293245E+02  0.70760391200E+02  0.00000000000E+00 0. -1.
         22    1    3    3    0    0 -0.51645193214E+02 -0.38356682784E+02 -0.26716081233E+03  0.27479694457E+03  0.00000000000E+00 0. -1.
         22    1    3    3    0    0 -0.43165786365E+02  0.31572115074E+02 -0.30036784890E+02  0.61337525295E+02  0.00000000000E+00 0. -1.
</event>
<event>
 7    1  0.5622879E-006  0.8742689E+02  0.7818608E-02  0.1318278E+00
          2   -1    0    0  502    0  0.00000000000E+00  0.00000000000E+00  0.53521506810E+03  0.53521506810E+03  0.00000000000E+00 0. -1.
          1   -1    0    0  501    0 -0.00000000000E+00 -0.00000000000E+00 -0.40043577144E+03  0.40043577144E+03  0.00000000000E+00 0. -1.
         25    2    1    2    0    0 -0.17247971816E+02  0.73515196688E+01  0.15672075454E+03  0.20133291168E+03  0.12498803562E+03 0.  0.
          2    1    1    2  501    0  0.18045493186E+02 -0.87903457316E+02 -0.36811513668E+03  0.37889498742E+03  0.00000000000E+00 0. -1.
          1    1    1    2  502    0 -0.79752137034E+00  0.80551937647E+02  0.34617367880E+03  0.35542294045E+03  0.00000000000E+00 0. -1.
         22    1    3    3    0    0  0.33113971092E+02  0.18984706795E+02  0.14278540263E+03  0.14779927395E+03  0.00000000000E+00 0. -1.
         22    1    3    3    0    0 -0.50361942908E+02 -0.11633187126E+02  0.13935351908E+02  0.53533637733E+02  0.00000000000E+00 0. -1.
</event>
<event>
 7    1  0.5622879E-006  0.2110541E+03  0.7818608E-02  0.1178965E+00
          2   -1    0    0  502    0  0.00000000000E+00  0.00000000000E+00  0.24668669958E+04  0.24668669958E+04  0.00000000000E+00 0. -1.
          1   -1    0    0  501    0 -0.00000000000E+00 -0.00000000000E+00 -0.15605556385E+04  0.15605556385E+04  0.00000000000E+00 0. -1.
         25    2    1    2    0    0 -0.38340613112E+00 -0.15835945519E+03  0.17743469927E+03  0.26867398379E+03  0.12499909204E+03 0.  0.
          2    1    1    2  501    0 -0.13459552902E+03  0.16639863916E+03 -0.15053229257E+04  0.15204609743E+04  0.00000000000E+00 0. -1.
          1    1    1    2  502    0  0.13497893515E+03 -0.80391839659E+01  0.22341995838E+04  0.22382876762E+04  0.00000000000E+00 0. -1.
         22    1    3    3    0    0 -0.23740967862E+02 -0.17222367699E+03  0.16084981630E+03  0.23684866872E+03  0.00000000000E+00 0. -1.
         22    1    3    3    0    0  0.23357561731E+02  0.13864221798E+02  0.16584882963E+02  0.31825315065E+02  0.00000000000E+00 0. -1.
</event>
<event>
 7    1  0.5622879E-006  0.1217306E+03  0.7818608E-02  0.1404523E+00
          2   -1    0    0  502    0  0.00000000000E+00  0.00000000000E+00  0.16809900484E+02  0.16809900484E+02  0.00000000000E+00 0. -1.
          1   -1    0    0  501    0 -0.00000000000E+00 -0.00000000000E+00 -0.30649596316E+04  0.30649596316E+04  0.00000000000E+00 0. -1.
         25    2    1    2    0    0  0.57156508972E+02 -0.95600497584E+02 -0.23120953614E+04  0.23181478829E+04  0.12497329728E+03 0.  0.
          2    1    1    2  501    0 -0.18174304582E+02 -0.21365907405E+02 -0.46499147841E+03  0.46583675503E+03  0.00000000000E+00 0. -1.
          1    1    1    2  502    0 -0.38982204390E+02  0.11696640499E+03 -0.27106289133E+03  0.29778489420E+03  0.00000000000E+00 0. -1.
         22    1    3    3    0    0  0.19478332699E+02 -0.12008453502E+03 -0.15816017452E+04  0.15862735519E+04  0.00000000000E+00 0. -1.
         22    1    3    3    0    0  0.37678176273E+02  0.24484037436E+02 -0.73049361618E+03  0.73187433098E+03  0.00000000000E+00 0. -1.
</event>
<event>
 7    1  0.5622879E-006  0.5201608E+03  0.7818608E-02  0.1147673E+00
          2   -1    0    0  502    0  0.00000000000E+00  0.00000000000E+00  0.38788158338E+03  0.38788158338E+03  0.00000000000E+00 0. -1.
          1   -1    0    0  501    0 -0.00000000000E+00 -0.00000000000E+00 -0.15920699343E+04  0.15920699343E+04  0.00000000000E+00 0. -1.
         25    2    1    2    0    0  0.53353777161E+03  0.12386111491E+03 -0.89314191123E+03  0.10551456958E+04  0.12500334474E+03 0.  0.
          2    1    1    2  501    0 -0.48434890215E+03 -0.62287447025E+02 -0.51285062483E+03  0.70815912651E+03  0.00000000000E+00 0. -1.
          1    1    1    2  502    0 -0.49188869455E+02 -0.61573667885E+02  0.20180418518E+03  0.21664669536E+03  0.00000000000E+00 0. -1.
         22    1    3    3    0    0  0.70289777701E+01 -0.11069799009E+02 -0.52385583711E+02  0.54001818111E+02  0.00000000000E+00 0.  1.
         22    1    3    3    0    0  0.52650879384E+03  0.13493091392E+03 -0.84075632752E+03  0.10011438777E+04  0.00000000000E+00 0.  1.
</event>
<event>
 7    1  0.5622879E-006  0.5667427E+02  0.7818608E-02  0.1537270E+00
          2   -1    0    0  502    0  0.00000000000E+00  0.00000000000E+00  0.21591976883E+03  0.21591976883E+03  0.00000000000E+00 0. -1.
          1   -1    0    0  501    0 -0.00000000000E+00 -0.00000000000E+00 -0.43462320140E+03  0.43462320140E+03  0.00000000000E+00 0. -1.
         25    2    1    2    0    0 -0.72364689263E+02  0.18738015272E+02 -0.25284095403E+03  0.29178885150E+03  0.12499769741E+03 0.  0.
          2    1    1    2  501    0  0.49109286598E+02 -0.19306812940E+02 -0.15729664617E+03  0.16591175351E+03  0.00000000000E+00 0. -1.
          1    1    1    2  502    0  0.23255402664E+02  0.56879766856E+00  0.19143416763E+03  0.19284236521E+03  0.00000000000E+00 0. -1.
         22    1    3    3    0    0 -0.13565934991E+02 -0.33818187422E+02 -0.11997058084E+02  0.38361879455E+02  0.00000000000E+00 0. -1.
         22    1    3    3    0    0 -0.58798754272E+02  0.52556202693E+02 -0.24084389595E+03  0.25342697205E+03  0.00000000000E+00 0. -1.
</event>
<event>
 7    1  0.5622879E-006  0.3207155E+03  0.7818608E-02  0.1143172E+00
          2   -1    0    0  502    0  0.00000000000E+00  0.00000000000E+00  0.10785020057E+04  0.10785020057E+04  0.00000000000E+00 0. -1.
          1   -1    0    0  501    0 -0.00000000000E+00 -0.00000000000E+00 -0.10924841559E+04  0.10924841559E+04  0.00000000000E+00 0. -1.
         25    2    1    2    0    0  0.13164267625E+02 -0.20431446369E+03 -0.60081524183E+03  0.64693243228E+03  0.12499967646E+03 0.  0.
          2    1    1    2  501    0 -0.67509659836E+02 -0.11676731912E+03 -0.43298388258E+03  0.45350546145E+03  0.00000000000E+00 0. -1.
          1    1    1    2  502    0  0.54345392211E+02  0.32108178281E+03  0.10198169742E+04  0.10705482679E+04  0.00000000000E+00 0. -1.
         22    1    3    3    0    0 -0.97023947294E+01 -0.30526611413E+02 -0.27587985004E+03  0.27773314913E+03  0.00000000000E+00 0.  1.
         22    1    3    3    0    0  0.22866662355E+02 -0.17378785227E+03 -0.32493539178E+03  0.36919928315E+03  0.00000000000E+00 0.  1.
</event>
<event>
 7    1  0.6054421E-006  0.6475551E+02  0.7818608E-02  0.1393272E+00
          2   -1    0    0  502    0  0.00000000000E+00  0.00000000000E+00  0.17595171788E+04  0.17595171788E+04  0.00000000000E+00 0. -1.
          1   -1    0    0  501    0 -0.00000000000E+00 -0.00000000000E+00 -0.62772043553E+03  0.62772043553E+03  0.00000000000E+00 0. -1.
         25    2    1    2    0    0  0.43892453066E+02  0.45027251150E+02 -0.80815368190E+02  0.16157592001E+03  0.12498661292E+03 0.  0.
          2    1    1    2  501    0 -0.65610802500E+02  0.83764998982E+01 -0.50387949352E+03  0.50820221088E+03  0.00000000000E+00 0. -1.
          1    1    1    2  502    0  0.21718349434E+02 -0.53403751048E+02  0.17164916050E+04  0.17174594835E+04  0.00000000000E+00 0. -1.
         22    1    3    3    0    0  0.32869277276E+02  0.43288124871E+02 -0.11414633345E+03  0.12642640778E+03  0.00000000000E+00 0. -1.
         22    1    3    3    0    0  0.11023175790E+02  0.17391262788E+01  0.33330965261E+02  0.35149512229E+02  0.00000000000E+00 0. -1.
</event>
<event>
 7    1  0.5622879E-006  0.6752660E+02  0.7818608E-02  0.1371761E+00
          2   -1    0    0  502    0  0.00000000000E+00  0.00000000000E+00  0.35407675922E+04  0.35407675922E+04  0.00000000000E+00 0. -1.
          1   -1    0    0  501    0 -0.00000000000E+00 -0.00000000000E+00 -0.29980130752E+03  0.29980130752E+03  0.00000000000E+00 0. -1.
         25    2    1    2    0    0 -0.54456770008E+02 -0.43875799288E+01  0.14640930110E+04  0.14704343944E+04  0.12499669067E+03 0.  0.
          2    1    1    2  501    0  0.34305184482E+02 -0.58296880515E+02 -0.29224398354E+03  0.29996986161E+03  0.00000000000E+00 0. -1.
          1    1    1    2  502    0  0.20151585526E+02  0.62684460444E+02  0.20691172571E+04  0.20701646436E+04  0.00000000000E+00 0. -1.
         22    1    3    3    0    0 -0.54542621358E+02 -0.50945116004E+02  0.53562585013E+03  0.54080065987E+03  0.00000000000E+00 0.  1.
         22    1    3    3    0    0  0.85851350145E-01  0.46557536075E+02  0.92846716090E+03  0.92963373455E+03  0.00000000000E+00 0.  1.
</event>
<event>
 7    1  0.5622879E-006  0.7311755E+02  0.7818608E-02  0.1380544E+00
          2   -1    0    0  502    0  0.00000000000E+00  0.00000000000E+00  0.10593366012E+04  0.10593366012E+04  0.00000000000E+00 0. -1.
          1   -1    0    0  501    0 -0.00000000000E+00 -0.00000000000E+00 -0.27940853328E+04  0.27940853328E+04  0.00000000000E+00 0. -1.
         25    2    1    2    0    0 -0.10779530071E+03 -0.34125912131E+02 -0.10403887411E+03  0.19807266329E+03  0.12499715149E+03 0.  0.
          2    1    1    2  501    0  0.72141359858E+02 -0.98106342840E+01 -0.26417369792E+04  0.26427400348E+04  0.00000000000E+00 0. -1.
          1    1    1    2  502    0  0.35653940853E+02  0.43936546415E+02  0.10110271218E+04  0.10126092359E+04  0.00000000000E+00 0. -1.
         22    1    3    3    0    0 -0.11933993550E+03 -0.23545146174E+02 -0.12333079560E+03  0.17322493833E+03  0.00000000000E+00 0.  1.
         22    1    3    3    0    0  0.11544634794E+02 -0.10580765958E+02  0.19291921491E+02  0.24847724958E+02  0.00000000000E+00 0.  1.
</event>
<event>
 7    1  0.5622879E-006  0.9150027E+02  0.7818608E-02  0.1299457E+00
          2   -1    0    0  502    0  0.00000000000E+00  0.00000000000E+00  0.12799232001E+04  0.12799232001E+04  0.00000000000E+00 0. -1.
          1   -1    0    0  501    0 -0.00000000000E+00 -0.00000000000E+00 -0.38928217002E+03  0.38928217002E+03  0.00000000000E+00 0. -1.
         25    2    1    2    0    0 -0.62508172726E+02 -0.63483331571E+02  0.27954059620E+02  0.15602635660E+03  0.12500155783E+03 0.  0.
          2    1    1    2  501    0 -0.27236884075E+02  0.87177492297E+02 -0.31697495017E+03  0.32987100820E+03  0.00000000000E+00 0. -1.
          1    1    1    2  502    0  0.89745056801E+02 -0.23694160726E+02  0.11796619206E+04  0.11833080053E+04  0.00000000000E+00 0. -1.
         22    1    3    3    0    0 -0.90363618555E+02 -0.79658428606E+02  0.28593359868E+02  0.12380884070E+03  0.00000000000E+00 0.  1.
         22    1    3    3    0    0  0.27855445829E+02  0.16175097035E+02 -0.63930024726E+00  0.32217515907E+02  0.00000000000E+00 0.  1.
</event>
<event>
 7    1  0.5622879E-006  0.6314438E+02  0.7818608E-02  0.1429543E+00
          2   -1    0    0  502    0  0.00000000000E+00  0.00000000000E+00  0.12644017455E+04  0.12644017455E+04  0.00000000000E+00 0. -1.
          1   -1    0    0  501    0 -0.00000000000E+00 -0.00000000000E+00 -0.77052782071E+03  0.77052782071E+03  0.00000000000E+00 0. -1.
         25    2    1    2    0    0 -0.10346894060E+02  0.51840949329E+02 -0.45717382362E+03  0.47689619848E+03  0.12501014709E+03 0.  0.
          2    1    1    2  501    0  0.54532257949E+02 -0.45979157092E+02 -0.29889900526E+03  0.30729214990E+03  0.00000000000E+00 0. -1.
          1    1    1    2  502    0 -0.44185363889E+02 -0.58617922370E+01  0.12499467537E+04  0.12507412178E+04  0.00000000000E+00 0. -1.
         22    1    3    3    0    0 -0.58353104588E+02  0.17899918500E+01 -0.13083039753E+03  0.14326507531E+03  0.00000000000E+00 0. -1.
         22    1    3    3    0    0  0.48006210528E+02  0.50050957479E+02 -0.32634342609E+03  0.33363112317E+03  0.00000000000E+00 0. -1.
</event>
<event>
 7    1  0.5622879E-006  0.1468277E+03  0.7818608E-02  0.1238907E+00
          2   -1    0    0  502    0  0.00000000000E+00  0.00000000000E+00  0.13155654550E+04  0.13155654550E+04  0.00000000000E+00 0. -1.
          1   -1    0    0  501    0 -0.00000000000E+00 -0.00000000000E+00 -0.31680868527E+03  0.31680868527E+03  0.00000000000E+00 0. -1.
         25    2    1    2    0    0  0.14364253372E+03  0.16226427763E+03  0.62496377814E+03  0.67317774659E+03  0.12500272490E+03 0.  0.
          2    1    1    2  501    0 -0.30519515469E+02 -0.97673285166E+02 -0.27710271830E+03  0.29539368299E+03  0.00000000000E+00 0. -1.
          1    1    1    2  502    0 -0.11312301825E+03 -0.64590992462E+02  0.65089570992E+03  0.66380271072E+03  0.00000000000E+00 0. -1.
         22    1    3    3    0    0 -0.25562983360E+01  0.69255976447E+01  0.17557134234E+03  0.17572647727E+03  0.00000000000E+00 0. -1.
         22    1    3    3    0    0  0.14619883205E+03  0.15533867998E+03  0.44939243580E+03  0.49745126932E+03  0.00000000000E+00 0. -1.
</event>
<event>
 7    1  0.5622879E-006  0.1709680E+03  0.7818608E-02  0.1295331E+00
          2   -1    0    0  502    0  0.00000000000E+00  0.00000000000E+00  0.28345612547E+03  0.28345612547E+03  0.00000000000E+00 0. -1.
          1   -1    0    0  501    0 -0.00000000000E+00 -0.00000000000E+00 -0.12779671515E+04  0.12779671515E+04  0.00000000000E+00 0. -1.
         25    2    1    2    0    0 -0.15318862804E+03  0.14245171604E+03 -0.17957074295E+03  0.30270590897E+03  0.12500387370E+03 0.  0.
          2    1    1    2  501    0  0.13806549236E+03 -0.93972739467E+02 -0.10270870409E+04  0.10405771213E+04  0.00000000000E+00 0. -1.
          1    1    1    2  502    0  0.15123135676E+02 -0.48478976571E+02  0.21214675775E+03  0.21814024669E+03  0.00000000000E+00 0. -1.
         22    1    3    3    0    0 -0.13252760350E+03  0.10450850066E+03 -0.66048050759E+02  0.18123999947E+03  0.00000000000E+00 0. -1.
         22    1    3    3    0    0 -0.20661024539E+02  0.37943215378E+02 -0.11352269219E+03  0.12146590950E+03  0.00000000000E+00 0. -1.
</event>
<event>
 7    1  0.5622879E-006  0.2434063E+03  0.7818608E-02  0.1189105E+00
          2   -1    0    0  502    0  0.00000000000E+00  0.00000000000E+00  0.13073667582E+04  0.13073667582E+04  0.00000000000E+00 0. -1.
          1   -1    0    0  501    0 -0.00000000000E+00 -0.00000000000E+00 -0.21257685264E+04  0.21257685264E+04  0.00000000000E+00 0. -1.
         25    2    1    2    0    0  0.25405699946E+03  0.20691518933E+03  0.95934964837E+02  0.36357431763E+03  0.12499564959E+03 0.  0.
          2    1    1    2  501    0 -0.15114542668E+03 -0.18764669947E+03 -0.19820926388E+04  0.19966841144E+04  0.00000000000E+00 0. -1.
          1    1    1    2  502    0 -0.10291157278E+03 -0.19268489860E+02  0.10677559058E+04  0.10728768526E+04  0.00000000000E+00 0. -1.
         22    1    3    3    0    0  0.19266300109E+03  0.20041063760E+03  0.11210930151E+03  0.29975315033E+03  0.00000000000E+00 0.  1.
         22    1    3    3    0    0  0.61393998366E+02  0.65045517301E+01 -0.16174336669E+02  0.63821167297E+02  0.00000000000E+00 0.  1.
</event>
<event>
 7    1  0.5622879E-006  0.1181355E+03  0.7818608E-02  0.1337546E+00
          2   -1    0    0  502    0  0.00000000000E+00  0.00000000000E+00  0.24826051626E+04  0.24826051626E+04  0.00000000000E+00 0. -1.
          1   -1    0    0  501    0 -0.00000000000E+00 -0.00000000000E+00 -0.12167809308E+04  0.12167809308E+04  0.00000000000E+00 0. -1.
         25    2    1    2    0    0  0.74765242273E+02  0.14990573661E+03  0.10194033459E+03  0.23253188548E+03  0.12497069508E+03 0.  0.
          2    1    1    2  501    0 -0.53661561696E+02 -0.10425432329E+03 -0.11482260267E+04  0.11541973555E+04  0.00000000000E+00 0. -1.
          1    1    1    2  502    0 -0.21103680577E+02 -0.45651413312E+02  0.23121099239E+04  0.23126568524E+04  0.00000000000E+00 0. -1.
         22    1    3    3    0    0  0.78236733488E+02  0.55439994138E+02  0.33522141060E+01  0.95946947613E+02  0.00000000000E+00 0.  1.
         22    1    3    3    0    0 -0.34714912151E+01  0.94465742467E+02  0.98588120487E+02  0.13658493787E+03  0.00000000000E+00 0.  1.
</event>
<event>
 7    1  0.5622879E-006  0.1669427E+03  0.7818608E-02  0.1317295E+00
          2   -1    0    0  502    0  0.00000000000E+00  0.00000000000E+00  0.46756789459E+03  0.46756789459E+03  0.00000000000E+00 0. -1.
          1   -1    0    0  501    0 -0.00000000000E+00 -0.00000000000E+00 -0.20096115241E+03  0.20096115241E+03  0.00000000000E+00 0. -1.
         25    2    1    2    0    0  0.85004165109E+02  0.12258244805E+03  0.77346319080E+02  0.20942977407E+03  0.12500485004E+03 0.  0.
          2    1    1    2  501    0  0.42399338834E+02 -0.36955321555E+01 -0.10713201116E+03  0.11527631460E+03  0.00000000000E+00 0. -1.
          1    1    1    2  502    0 -0.12740350394E+03 -0.11888691590E+03  0.29639243426E+03  0.34382295833E+03  0.00000000000E+00 0. -1.
         22    1    3    3    0    0  0.74583990275E+02  0.14520880473E+03  0.46412696525E+02  0.16971301357E+03  0.00000000000E+00 0.  1.
         22    1    3    3    0    0  0.10420174834E+02 -0.22626356677E+02  0.30933622555E+02  0.39716760497E+02  0.00000000000E+00 0.  1.
</event>
<event>
 7    1  0.7368786E-006  0.5126587E+02  0.7818608E-02  0.1451778E+00
          2   -1    0    0  502    0  0.00000000000E+00  0.00000000000E+00  0.11580958612E+04  0.11580958612E+04  0.00000000000E+00 0. -1.
          1   -1    0    0  501    0 -0.00000000000E+00 -0.00000000000E+00 -0.57990142204E+03  0.57990142204E+03  0.00000000000E+00 0. -1.
         25    2    1    2    0    0 -0.26764506421E+02  0.28813738432E+02 -0.27502448463E+03  0.30464805421E+03  0.12500159783E+03 0.  0.
          2    1    1    2  501    0 -0.23271534310E+02 -0.40260762120E+02 -0.28762058296E+03  0.29135561264E+03  0.00000000000E+00 0. -1.
          1    1    1    2  502    0  0.50036040730E+02  0.11447023688E+02  0.11408395068E+04  0.11419936164E+04  0.00000000000E+00 0. -1.
         22    1    3    3    0    0 -0.26475568424E+01 -0.47948984366E+02 -0.13315156927E+03  0.14154665329E+03  0.00000000000E+00 0. -1.
         22    1    3    3    0    0 -0.24116949578E+02  0.76762722799E+02 -0.14187291536E+03  0.16310140092E+03  0.00000000000E+00 0. -1.
</event>
<event>
 7    1  0.5622879E-006  0.1142198E+03  0.7818608E-02  0.1323368E+00
          2   -1    0    0  502    0  0.00000000000E+00  0.00000000000E+00  0.33987413221E+03  0.33987413221E+03  0.00000000000E+00 0. -1.
          1   -1    0    0  501    0 -0.00000000000E+00 -0.00000000000E+00 -0.12566701739E+04  0.12566701739E+04  0.00000000000E+00 0. -1.
         25    2    1    2    0    0  0.61744259888E+02  0.15732360560E+02 -0.21327796398E+03  0.25528987964E+03  0.12500228771E+03 0.  0.
          2    1    1    2  501    0  0.37659767849E+02  0.45316270727E+02 -0.10108304803E+04  0.10125463359E+04  0.00000000000E+00 0. -1.
          1    1    1    2  502    0 -0.99404027737E+02 -0.61048631286E+02  0.30731240250E+03  0.32870809063E+03  0.00000000000E+00 0. -1.
         22    1    3    3    0    0 -0.20749910484E+02 -0.37571695939E+01 -0.14478036926E+03  0.14630799852E+03  0.00000000000E+00 0. -1.
         22    1    3    3    0    0  0.82494170372E+02  0.19489530153E+02 -0.68497594719E+02  0.10898188112E+03  0.00000000000E+00 0. -1.
</event>
<event>
 7    1  0.5622879E-006  0.1035212E+03  0.7818608E-02  0.1326313E+00
          2   -1    0    0  502    0  0.00000000000E+00  0.00000000000E+00  0.23573313897E+04  0.23573313897E+04  0.00000000000E+00 0. -1.
          1   -1    0    0  501    0 -0.00000000000E+00 -0.00000000000E+00 -0.21078138509E+04  0.21078138509E+04  0.00000000000E+00 0. -1.
         25    2    1    2    0    0  0.90211342755E+02 -0.79634241222E+02 -0.10501698653E+02  0.17382091393E+03  0.12499490273E+03 0.  0.
          2    1    1    2  501    0  0.11846672784E+02  0.62217919275E+02 -0.20139768805E+04  0.20149725279E+04  0.00000000000E+00 0. -1.
          1    1    1    2  502    0 -0.10205801554E+03  0.17416321947E+02  0.22739961180E+04  0.22763517987E+04  0.00000000000E+00 0. -1.
         22    1    3    3    0    0  0.86870855780E+02 -0.74261918799E+02  0.41385931940E+02  0.12154905812E+03  0.00000000000E+00 0.  1.
         22    1    3    3    0    0  0.33404869747E+01 -0.53723224230E+01 -0.51887630593E+02  0.52271855812E+02  0.00000000000E+00 0.  1.
</event>
<event>
 7    1  0.5622879E-006  0.1564360E+03  0.7818608E-02  0.1229129E+00
          2   -1    0    0  502    0  0.00000000000E+00  0.00000000000E+00  0.25449010043E+04  0.25449010043E+04  0.00000000000E+00 0. -1.
          1   -1    0    0  501    0 -0.00000000000E+00 -0.00000000000E+00 -0.91902796538E+02  0.91902796538E+02  0.00000000000E+00 0. -1.
         25    2    1    2    0    0 -0.14847620738E+02 -0.14876514278E+03  0.92756184581E+02  0.21582377386E+03  0.12499868814E+03 0.  0.
          2    1    1    2  501    0 -0.98871918330E+02  0.38700246850E+02  0.74358740743E+02  0.12962479572E+03  0.00000000000E+00 0. -1.
          1    1    1    2  502    0  0.11371953907E+03  0.11006489593E+03  0.22858832825E+04  0.22913552313E+04  0.00000000000E+00 0. -1.
         22    1    3    3    0    0 -0.48216613719E+02 -0.24679357082E+02  0.64559035501E+02  0.84272068738E+02  0.00000000000E+00 0. -1.
         22    1    3    3    0    0  0.33368992981E+02 -0.12408578570E+03  0.28197149080E+02  0.13155170512E+03  0.00000000000E+00 0. -1.
</event>
<event>
 7    1  0.5622879E-006  0.1329958E+03  0.7818608E-02  0.1414803E+00
          2   -1    0    0  502    0  0.00000000000E+00  0.00000000000E+00  0.55090653910E+03  0.55090653910E+03  0.00000000000E+00 0. -1.
          1   -1    0    0  501    0 -0.00000000000E+00 -0.00000000000E+00 -0.45036228742E+03  0.45036228742E+03  0.00000000000E+00 0. -1.
         25    2    1    2    0    0  0.14810422289E+03 -0.17837365823E+01  0.13715013172E+03  0.23743152775E+03  0.12500211672E+03 0.  0.
          2    1    1    2  501    0 -0.19029577101E+02  0.14116908924E+02 -0.38828980743E+03  0.38901206469E+03  0.00000000000E+00 0. -1.
          1    1    1    2  502    0 -0.12907464579E+03 -0.12333172341E+02  0.35168392738E+03  0.37482523408E+03  0.00000000000E+00 0. -1.
         22    1    3    3    0    0  0.89475852513E+02 -0.57024107162E+02  0.45594484229E+02  0.11548391218E+03  0.00000000000E+00 0.  1.
         22    1    3    3    0    0  0.58628370377E+02  0.55240370579E+02  0.91555647493E+02  0.12194761557E+03  0.00000000000E+00 0.  1.
</event>
<event>
 7    1  0.5622879E-006  0.1249389E+03  0.7818608E-02  0.1252271E+00
          2   -1    0    0  502    0  0.00000000000E+00  0.00000000000E+00  0.11528858555E+04  0.11528858555E+04  0.00000000000E+00 0. -1.
          1   -1    0    0  501    0 -0.00000000000E+00 -0.00000000000E+00 -0.68424561852E+03  0.68424561852E+03  0.00000000000E+00 0. -1.
         25    2    1    2    0    0  0.20772433167E+03  0.14954928152E+02 -0.32217578960E+03  0.40347858963E+03  0.12499874017E+03 0.  0.
          2    1    1    2  501    0 -0.10633093031E+03  0.12813754677E+02 -0.30992224604E+03  0.32790586704E+03  0.00000000000E+00 0. -1.
          1    1    1    2  502    0 -0.10139340135E+03 -0.27768682829E+02  0.11007382727E+04  0.11057470174E+04  0.00000000000E+00 0. -1.
         22    1    3    3    0    0  0.13530907767E+03  0.53275231502E+02 -0.26904416446E+03  0.30582929752E+03  0.00000000000E+00 0. -1.
         22    1    3    3    0    0  0.72415253993E+02 -0.38320303350E+02 -0.53131625144E+02  0.97649292113E+02  0.00000000000E+00 0. -1.
</event>
<event>
 7    1  0.5622879E-006  0.6323086E+02  0.7818608E-02  0.1442317E+00
          2   -1    0    0  502    0  0.00000000000E+00  0.00000000000E+00  0.12143457524E+03  0.12143457524E+03  0.00000000000E+00 0. -1.
          1   -1    0    0  501    0 -0.00000000000E+00 -0.00000000000E+00 -0.24769915716E+04  0.24769915716E+04  0.00000000000E+00 0. -1.
         25    2    1    2    0    0 -0.37827369582E+01 -0.27531265757E+02 -0.82928311877E+03  0.83911051654E+03  0.12499475262E+03 0.  0.
          2    1    1    2  501    0 -0.31385590138E+02 -0.25495905113E+02 -0.16338392870E+04  0.16343395951E+04  0.00000000000E+00 0. -1.
          1    1    1    2  502    0  0.35168327096E+02  0.53027170870E+02  0.10756540938E+03  0.12497603521E+03  0.00000000000E+00 0. -1.
         22    1    3    3    0    0 -0.24477130289E+02  0.11251312903E+02 -0.37852380570E+02  0.46459925356E+02  0.00000000000E+00 0.  1.
         22    1    3    3    0    0  0.20694393331E+02 -0.38782578660E+02 -0.79143073820E+03  0.79265059118E+03  0.00000000000E+00 0.  1.
</event>
<event>
 7    1  0.5622879E-006  0.7525071E+02  0.7818608E-02  0.1480985E+00
          2   -1    0    0  502    0  0.00000000000E+00  0.00000000000E+00  0.17659535840E+03  0.17659535840E+03  0.00000000000E+00 0. -1.
          1   -1    0    0  501    0 -0.00000000000E+00 -0.00000000000E+00 -0.27197728332E+03  0.27197728332E+03  0.00000000000E+00 0. -1.
         25    2    1    2    0    0 -0.89127854160E+02  0.49713949388E+01 -0.10863370758E+03  0.18814108974E+03  0.12500919195E+03 0.  0.
          2    1    1    2  501    0  0.68938807259E+02 -0.20829623562E+02 -0.11168145909E+03  0.13288784996E+03  0.00000000000E+00 0. -1.
          1    1    1    2  502    0  0.20189046901E+02  0.15858228624E+02  0.12493324174E+03  0.12754370201E+03  0.00000000000E+00 0. -1.
         22    1    3    3    0    0  0.73544584462E+01 -0.29245493896E+01  0.23239906599E+02  0.24550647789E+02  0.00000000000E+00 0.  1.
         22    1    3    3    0    0 -0.96482312606E+02  0.78959443284E+01 -0.13187361418E+03  0.16359044195E+03  0.00000000000E+00 0.  1.
</event>
<event>
 7    1  0.5622879E-006  0.1866038E+03  0.7818608E-02  0.1335565E+00
          2   -1    0    0  502    0  0.00000000000E+00  0.00000000000E+00  0.57610719883E+03  0.57610719883E+03  0.00000000000E+00 0. -1.
          1   -1    0    0  501    0 -0.00000000000E+00 -0.00000000000E+00 -0.52887709226E+03  0.52887709226E+03  0.00000000000E+00 0. -1.
         25    2    1    2    0    0 -0.14800942344E+03 -0.11696891180E+03 -0.23296221617E+03  0.32478458518E+03  0.12500046739E+03 0.  0.
          2    1    1    2  501    0  0.23616096880E+02 -0.22173007596E+02 -0.23242037511E+03  0.23466698332E+03  0.00000000000E+00 0. -1.
          1    1    1    2  502    0  0.12439332656E+03  0.13914191940E+03  0.51261269785E+03  0.54553272259E+03  0.00000000000E+00 0. -1.
         22    1    3    3    0    0 -0.53762246333E+02 -0.10534038990E+03 -0.18189459250E+03  0.21696225399E+03  0.00000000000E+00 0.  1.
         22    1    3    3    0    0 -0.94247177110E+02 -0.11628521899E+02 -0.51067623669E+02  0.10782233118E+03  0.00000000000E+00 0.  1.
</event>
<event>
 7    1  0.5622879E-006  0.5557665E+02  0.7818608E-02  0.1429459E+00
          2   -1    0    0  502    0  0.00000000000E+00  0.00000000000E+00  0.13525181930E+04  0.13525181930E+04  0.00000000000E+00 0. -1.
          1   -1    0    0  501    0 -0.00000000000E+00 -0.00000000000E+00 -0.28990462007E+02  0.28990462007E+02  0.00000000000E+00 0. -1.
         25    2    1    2    0    0  0.93744977706E+01 -0.28849608434E+01  0.15489802236E+03  0.19928317286E+03  0.12499672574E+03 0.  0.
          2    1    1    2  501    0  0.18181948480E+02 -0.47299842018E+02  0.10040745916E+03  0.11247006784E+03  0.00000000000E+00 0. -1.
          1    1    1    2  502    0 -0.27556446251E+02  0.50184802862E+02  0.10682222495E+04  0.10697554143E+04  0.00000000000E+00 0. -1.
         22    1    3    3    0    0 -0.47465277405E+02  0.33252043602E+02  0.75023588525E+02  0.94800790071E+02  0.00000000000E+00 0.  1.
         22    1    3    3    0    0  0.56839775175E+02 -0.36137004445E+02  0.79874433834E+02  0.10448238279E+03  0.00000000000E+00 0.  1.
</event>
<event>
 7    1  0.5622879E-006  0.1117627E+03  0.7818608E-02  0.1364442E+00
          2   -1    0    0  502    0  0.00000000000E+00  0.00000000000E+00  0.10106362368E+04  0.10106362368E+04  0.00000000000E+00 0. -1.
          1   -1    0    0  501    0 -0.00000000000E+00 -0.00000000000E+00 -0.62579679611E+03  0.62579679611E+03  0.00000000000E+00 0. -1.
         25    2    1    2    0    0 -0.52096003610E+02  0.53631117849E+02 -0.28752444871E+02  0.14846808578E+03  0.12500311602E+03 0.  0.
          2    1    1    2  501    0  0.89599106723E+02 -0.73142219156E+02 -0.53048216575E+03  0.54294485201E+03  0.00000000000E+00 0. -1.
          1    1    1    2  502    0 -0.37503103112E+02  0.19511101307E+02  0.94407405128E+03  0.94502009508E+03  0.00000000000E+00 0. -1.
         22    1    3    3    0    0  0.23259426241E+02  0.39380810783E+02 -0.51108330146E+02  0.68585060890E+02  0.00000000000E+00 0. -1.
         22    1    3    3    0    0 -0.75355429851E+02  0.14250307066E+02  0.22355885274E+02  0.79883024892E+02  0.00000000000E+00 0. -1.
</event>
<event>
 7    1  0.5622879E-006  0.8247577E+02  0.7818608E-02  0.1351266E+00
          2   -1    0    0  502    0  0.00000000000E+00  0.00000000000E+00  0.93894799095E+03  0.93894799095E+03  0.00000000000E+00 0. -1.
          1   -1    0    0  501    0 -0.00000000000E+00 -0.00000000000E+00 -0.47985814973E+03  0.47985814973E+03  0.00000000000E+00 0. -1.
         25    2    1    2    0    0 -0.80467073684E+02  0.78038162080E+01  0.78732306076E+02  0.16840010542E+03  0.12499587990E+03 0.  0.
          2    1    1    2  501    0  0.16566195470E+02 -0.61836587563E+02 -0.43050401435E+03  0.43523776119E+03  0.00000000000E+00 0. -1.
          1    1    1    2  502    0  0.63900878214E+02  0.54032771355E+02  0.81086154949E+03  0.81516827407E+03  0.00000000000E+00 0. -1.
         22    1    3    3    0    0 -0.79719757129E+02  0.57843846948E+02  0.46919150525E+02  0.10909884047E+03  0.00000000000E+00 0.  1.
         22    1    3    3    0    0 -0.74731655454E+00 -0.50040030740E+02  0.31813155550E+02  0.59301264949E+02  0.00000000000E+00 0.  1.
</event>
<event>
 7    1  0.5622879E-006  0.6592881E+02  0.7818608E-02  0.1450645E+00
          2   -1    0    0  502    0  0.00000000000E+00  0.00000000000E+00  0.17789293619E+04  0.17789293619E+04  0.00000000000E+00 0. -1.
          1   -1    0    0  501    0 -0.00000000000E+00 -0.00000000000E+00 -0.10653803815E+03  0.10653803815E+03  0.00000000000E+00 0. -1.
         25    2    1    2    0    0  0.36279791789E+02 -0.27869024581E+02  0.50342061120E+00  0.13310677367E+03  0.12499701573E+03 0.  0.
          2    1    1    2  501    0 -0.46579936163E+02  0.62846715042E+02 -0.18276491336E+01  0.78247941481E+02  0.00000000000E+00 0. -1.
          1    1    1    2  502    0  0.10300144374E+02 -0.34977690461E+02  0.16737155523E+04  0.16741126849E+04  0.00000000000E+00 0. -1.
         22    1    3    3    0    0  0.72166012865E+01 -0.38755449276E+02 -0.56092696271E+02  0.68559862585E+02  0.00000000000E+00 0. -1.
         22    1    3    3    0    0  0.29063190503E+02  0.10886424695E+02  0.56596116882E+02  0.64546911088E+02  0.00000000000E+00 0. -1.
</event>
<event>
 7    1  0.5622879E-006  0.9263223E+02  0.7818608E-02  0.1298782E+00
          2   -1    0    0  502    0  0.00000000000E+00  0.00000000000E+00  0.22043977380E+03  0.22043977380E+03  0.00000000000E+00 0. -1.
          1   -1    0    0  501    0 -0.00000000000E+00 -0.00000000000E+00 -0.40989969945E+03  0.40989969945E+03  0.00000000000E+00 0. -1.
         25    2    1    2    0    0  0.33836314083E+02  0.31854995115E+02 -0.19845811959E+03  0.23910396180E+03  0.12500176979E+03 0.  0.
          2    1    1    2  501    0 -0.69699360927E+02  0.58164648251E+02 -0.16714000424E+03  0.19020228242E+03  0.00000000000E+00 0. -1.
          1    1    1    2  502    0  0.35863046844E+02 -0.90019643366E+02  0.17613819817E+03  0.20103322904E+03  0.00000000000E+00 0. -1.
         22    1    3    3    0    0  0.65010898536E+02 -0.63327352167E+01 -0.17015186041E+03  0.18225854182E+03  0.00000000000E+00 0. -1.
         22    1    3    3    0    0 -0.31174584453E+02  0.38187730332E+02 -0.28306259177E+02  0.56845419977E+02  0.00000000000E+00 0. -1.
</event>
<event>
 7    1  0.5622879E-006  0.1753569E+03  0.7818608E-02  0.1297384E+00
          2   -1    0    0  502    0  0.00000000000E+00  0.00000000000E+00  0.10793854568E+03  0.10793854568E+03  0.00000000000E+00 0. -1.
          1   -1    0    0  501    0 -0.00000000000E+00 -0.00000000000E+00 -0.49303047766E+03  0.49303047766E+03  0.00000000000E+00 0. -1.
         25    2    1    2    0    0 -0.12571135407E+03  0.15056109866E+03 -0.22643647882E+03  0.32460687830E+03  0.12499663006E+03 0.  0.
          2    1    1    2  501    0  0.48491951562E+02 -0.29034047206E+01 -0.76397165984E+02  0.90534115645E+02  0.00000000000E+00 0. -1.
          1    1    1    2  502    0  0.77219402509E+02 -0.14765769394E+03 -0.82258287175E+02  0.18582802940E+03  0.00000000000E+00 0. -1.
         22    1    3    3    0    0 -0.61054846347E+02  0.45609044043E+02 -0.17530454581E+03  0.19115324466E+03  0.00000000000E+00 0. -1.
         22    1    3    3    0    0 -0.64656507724E+02  0.10495205461E+03 -0.51131933012E+02  0.13345363364E+03  0.00000000000E+00 0. -1.
</event>
<event>
 7    1  0.5622879E-006  0.2247980E+03  0.7818608E-02  0.1349094E+00
          2   -1    0    0  502    0  0.00000000000E+00  0.00000000000E+00  0.64061245963E+03  0.64061245963E+03  0.00000000000E+00 0. -1.
          1   -1    0    0  501    0 -0.00000000000E+00 -0.00000000000E+00 -0.18436210852E+04  0.18436210852E+04  0.00000000000E+00 0. -1.
         25    2    1    2    0    0 -0.13333703926E+03  0.16015343780E+03 -0.43572849414E+03  0.49891254212E+03  0.12500605746E+03 0.  0.
          2    1    1    2  501    0  0.13832727335E+03 -0.18355353099E+03 -0.13664644331E+04  0.13856591862E+04  0.00000000000E+00 0. -1.
          1    1    1    2  502    0 -0.49902340864E+01  0.23400093191E+02  0.59918430169E+03  0.59966181652E+03  0.00000000000E+00 0. -1.
         22    1    3    3    0    0 -0.14177560871E+03  0.92792111047E+02 -0.35549791200E+03  0.39381399738E+03  0.00000000000E+00 0. -1.
         22    1    3    3    0    0  0.84385694432E+01  0.67361326752E+02 -0.80230582139E+02  0.10509854474E+03  0.00000000000E+00 0. -1.
</event>
<event>
 7    1  0.5622879E-006  0.9008717E+02  0.7818608E-02  0.1405242E+00
          2   -1    0    0  502    0  0.00000000000E+00  0.00000000000E+00  0.75813194112E+03  0.75813194112E+03  0.00000000000E+00 0. -1.
          1   -1    0    0  501    0 -0.00000000000E+00 -0.00000000000E+00 -0.62333628932E+03  0.62333628932E+03  0.00000000000E+00 0. -1.
         25    2    1    2    0    0 -0.31440846564E+02 -0.12120682719E+03  0.59894251042E+03  0.62452916621E+03  0.12499970747E+03 0.  0.
          2    1    1    2  501    0  0.33172758071E+02  0.83557483504E+02 -0.60473791184E+03  0.61138386218E+03  0.00000000000E+00 0. -1.
          1    1    1    2  502    0 -0.17319115068E+01  0.37649343683E+02  0.14059105322E+03  0.14555520204E+03  0.00000000000E+00 0. -1.
         22    1    3    3    0    0 -0.55585985851E+02 -0.69364308086E+02  0.51710499489E+03  0.52468922687E+03  0.00000000000E+00 0. -1.
         22    1    3    3    0    0  0.24145139287E+02 -0.51842519101E+02  0.81837515533E+02  0.99839939335E+02  0.00000000000E+00 0. -1.
</event>
<event>
 7    1  0.5622879E-006  0.3901940E+02  0.7818608E-02  0.1549580E+00
          2   -1    0    0  502    0  0.00000000000E+00  0.00000000000E+00  0.17844146913E+04  0.17844146913E+04  0.00000000000E+00 0. -1.
          1   -1    0    0  501    0 -0.00000000000E+00 -0.00000000000E+00 -0.42371442235E+02  0.42371442235E+02  0.00000000000E+00 0. -1.
         25    2    1    2    0    0 -0.22142376186E+02 -0.28100896139E+02  0.96015770313E+03  0.96892052341E+03  0.12499688239E+03 0.  0.
          2    1    1    2  501    0  0.39134281438E+02  0.19368442372E+01 -0.27506032932E+02  0.47873011154E+02  0.00000000000E+00 0. -1.
          1    1    1    2  502    0 -0.16991905252E+02  0.26164051902E+02  0.80939157889E+03  0.80999259900E+03  0.00000000000E+00 0. -1.
         22    1    3    3    0    0  0.24723741008E+02 -0.63935752915E+02  0.60841457135E+03  0.61226410519E+03  0.00000000000E+00 0. -1.
         22    1    3    3    0    0 -0.46866117194E+02  0.35834856775E+02  0.35174313178E+03  0.35665641822E+03  0.00000000000E+00 0. -1.
</event>
<event>
 7    1  0.5622879E-006  0.5901867E+02  0.7818608E-02  0.1424980E+00
          2   -1    0    0  502    0  0.00000000000E+00  0.00000000000E+00  0.10180296085E+04  0.10180296085E+04  0.00000000000E+00 0. -1.
          1   -1    0    0  501    0 -0.00000000000E+00 -0.00000000000E+00 -0.86695835512E+02  0.86695835512E+02  0.00000000000E+00 0. -1.
         25    2    1    2    0    0 -0.10122099144E+03  0.34500849986E+02  0.16580631702E+03  0.23357010332E+03  0.12500904226E+03 0.  0.
          2    1    1    2  501    0  0.46759859253E+02 -0.15850793978E+02 -0.40018693514E+02  0.63554920641E+02  0.00000000000E+00 0. -1.
          1    1    1    2  502    0  0.54461132190E+02 -0.18650056008E+02  0.80554614953E+03  0.80760042009E+03  0.00000000000E+00 0. -1.
         22    1    3    3    0    0 -0.37004636531E+00 -0.32959032976E+02  0.69643252034E+01  0.33688820320E+02  0.00000000000E+00 0.  1.
         22    1    3    3    0    0 -0.10085094508E+03  0.67459882962E+02  0.15884199181E+03  0.19988128300E+03  0.00000000000E+00 0.  1.
</event>
<event>
 7    1  0.5622879E-006  0.5923912E+02  0.7818608E-02  0.1521584E+00
          2   -1    0    0  502    0  0.00000000000E+00  0.00000000000E+00  0.94409031766E+03  0.94409031766E+03  0.00000000000E+00 0. -1.
          1   -1    0    0  501    0 -0.00000000000E+00 -0.00000000000E+00 -0.45229783649E+03  0.45229783649E+03  0.00000000000E+00 0. -1.
         25    2    1    2    0    0 -0.47105271333E+02  0.65142903765E+02 -0.52219079745E+02  0.15752642687E+03  0.12500095350E+03 0.  0.
          2    1    1    2  501    0  0.41298865436E+02 -0.41151953517E+02 -0.34480662743E+03  0.34970085771E+03  0.00000000000E+00 0. -1.
          1    1    1    2  502    0  0.58064058969E+01 -0.23990950248E+02  0.88881818834E+03  0.88916086957E+03  0.00000000000E+00 0. -1.
         22    1    3    3    0    0 -0.56608500127E+02  0.31761163712E+02  0.27564569717E+02  0.70520204981E+02  0.00000000000E+00 0. -1.
         22    1    3    3    0    0  0.95032287940E+01  0.33381740053E+02 -0.79783649462E+02  0.87006221892E+02  0.00000000000E+00 0. -1.
</event>
<event>
 7    1  0.5622879E-006  0.8980068E+02  0.7818608E-02  0.1331343E+00
          2   -1    0    0  502    0  0.00000000000E+00  0.00000000000E+00  0.23765566158E+04  0.23765566158E+04  0.00000000000E+00 0. -1.
          1   -1    0    0  501    0 -0.00000000000E+00 -0.00000000000E+00 -0.43637886973E+03  0.43637886973E+03  0.00000000000E+00 0. -1.
         25    2    1    2    0    0  0.86708491320E+01  0.35065816685E+02  0.70873461317E+03  0.72058036332E+03  0.12500605175E+03 0.  0.
          2    1    1    2  501    0  0.47319085663E+02 -0.76824357643E+02 -0.42498373168E+03  0.43445626936E+03  0.00000000000E+00 0. -1.
          1    1    1    2  502    0 -0.55989934795E+02  0.41758540958E+02  0.16564268646E+04  0.16578988528E+04  0.00000000000E+00 0. -1.
         22    1    3    3    0    0  0.57988146124E+02  0.38642159400E+02  0.26167248775E+03  0.27079204644E+03  0.00000000000E+00 0. -1.
         22    1    3    3    0    0 -0.49317296992E+02 -0.35763427154E+01  0.44706212542E+03  0.44978831688E+03  0.00000000000E+00 0. -1.
</event>
<event>
 7    1  0.5622879E-006  0.4775706E+02  0.7818608E-02  0.1476047E+00
          2   -1    0    0  502    0  0.00000000000E+00  0.00000000000E+00  0.10154613197E+04  0.10154613197E+04  0.00000000000E+00 0. -1.
          1   -1    0    0  501    0 -0.00000000000E+00 -0.00000000000E+00 -0.47700434918E+02  0.47700434918E+02  0.00000000000E+00 0. -1.
         25    2    1    2    0    0 -0.15115954169E+02 -0.13406148002E+01  0.55553602117E+03  0.56962801664E+03  0.12500206881E+03 0.  0.
          2    1    1    2  501    0 -0.39857622027E+02  0.12893119829E+02 -0.27580641764E+02  0.50155302538E+02  0.00000000000E+00 0. -1.
          1    1    1    2  502    0  0.54973576196E+02 -0.11552505028E+02  0.43980550537E+03  0.44337843543E+03  0.00000000000E+00 0. -1.
         22    1    3    3    0    0 -0.23343475534E+02 -0.57823214588E+02  0.37894864132E+03  0.38404493846E+03  0.00000000000E+00 0. -1.
         22    1    3    3    0    0  0.82275213648E+01  0.56482599788E+02  0.17658737985E+03  0.18558307819E+03  0.00000000000E+00 0. -1.
</event>
<event>
 7    1  0.5622879E-006  0.1507756E+03  0.7818608E-02  0.1290190E+00
          2   -1    0    0  502    0  0.00000000000E+00  0.00000000000E+00  0.13854675270E+04  0.13854675270E+04  0.00000000000E+00 0. -1.
          1   -1    0    0  501    0 -0.00000000000E+00 -0.00000000000E+00 -0.32966429672E+04  0.32966429672E+04  0.00000000000E+00 0. -1.
         25    2    1    2    0    0 -0.14339754570E+03 -0.45670776768E+02 -0.46314931529E+03  0.50277664165E+03  0.12501354796E+03 0.  0.
          2    1    1    2  501    0  0.11517911023E+03  0.99087014176E+02 -0.28109593036E+04  0.28150624630E+04  0.00000000000E+00 0. -1.
          1    1    1    2  502    0  0.28218435469E+02 -0.53416237408E+02  0.13629331788E+04  0.13642713895E+04  0.00000000000E+00 0. -1.
         22    1    3    3    0    0 -0.13558720282E+03  0.50155740315E+01 -0.39384375179E+03  0.41655965524E+03  0.00000000000E+00 0.  1.
         22    1    3    3    0    0 -0.78103428756E+01 -0.50686350800E+02 -0.69305563508E+02  0.86216986414E+02  0.00000000000E+00 0.  1.
</event>
<event>
 7    1  0.5622879E-006  0.9254414E+02  0.7818608E-02  0.1485652E+00
          2   -1    0    0  502    0  0.00000000000E+00  0.00000000000E+00  0.45145773577E+02  0.45145773577E+02  0.00000000000E+00 0. -1.
          1   -1    0    0  501    0 -0.00000000000E+00 -0.00000000000E+00 -0.17660181917E+04  0.17660181917E+04  0.00000000000E+00 0. -1.
         25    2    1    2    0    0 -0.66135729189E+02  0.65219365303E+02 -0.23727418675E+03  0.28381768002E+03  0.12500374198E+03 0.  0.
          2    1    1    2  501    0  0.78486966114E+02 -0.49233779177E+02 -0.14990516079E+04  0.15019120787E+04  0.00000000000E+00 0. -1.
          1    1    1    2  502    0 -0.12351236925E+02 -0.15985586127E+02  0.15453376550E+02  0.25434206577E+02  0.00000000000E+00 0. -1.
         22    1    3    3    0    0 -0.58547575776E+01  0.76828793536E+02 -0.64577620537E+02  0.10053462477E+03  0.00000000000E+00 0. -1.
         22    1    3    3    0    0 -0.60280971612E+02 -0.11609428232E+02 -0.17269656621E+03  0.18328305525E+03  0.00000000000E+00 0. -1.
</event>
<event>
 7    1  0.5622879E-006  0.4385076E+02  0.7818608E-02  0.1529066E+00
          2   -1    0    0  502    0  0.00000000000E+00  0.00000000000E+00  0.46764664017E+03  0.46764664017E+03  0.00000000000E+00 0. -1.
          1   -1    0    0  501    0 -0.00000000000E+00 -0.00000000000E+00 -0.17294583339E+03  0.17294583339E+03  0.00000000000E+00 0. -1.
         25    2    1    2    0    0  0.47378841201E+02  0.50525326530E+02 -0.35987391430E+02  0.14737544176E+03  0.12500746088E+03 0.  0.
          2    1    1    2  501    0 -0.29905826952E+02 -0.10603366989E+02 -0.76960908651E+02  0.83245248138E+02  0.00000000000E+00 0. -1.
          1    1    1    2  502    0 -0.17473014249E+02 -0.39921959541E+02  0.40764910686E+03  0.40997178367E+03  0.00000000000E+00 0. -1.
         22    1    3    3    0    0  0.15602547317E+02 -0.34095672303E+02 -0.42590321452E+02  0.56744073117E+02  0.00000000000E+00 0. -1.
         22    1    3    3    0    0  0.31776293884E+02  0.84620998833E+02  0.66029300214E+01  0.90631368639E+02  0.00000000000E+00 0. -1.
</event>
<event>
 7    1  0.5622879E-006  0.6201891E+02  0.7818608E-02  0.1473039E+00
          2   -1    0    0  502    0  0.00000000000E+00  0.00000000000E+00  0.47345295580E+03  0.47345295580E+03  0.00000000000E+00 0. -1.
          1   -1    0    0  501    0 -0.00000000000E+00 -0.00000000000E+00 -0.73711410259E+03  0.73711410259E+03  0.00000000000E+00 0. -1.
         25    2    1    2    0    0 -0.66024540658E+01 -0.62084863167E+02 -0.61413813893E+02  0.15262529907E+03  0.12499881098E+03 0.  0.
          2    1    1    2  501    0 -0.30596473661E+02  0.12245377978E+02 -0.62739978429E+03  0.62826473942E+03  0.00000000000E+00 0. -1.
          1    1    1    2  502    0  0.37198927726E+02  0.49839485190E+02  0.42515245138E+03  0.42967701990E+03  0.00000000000E+00 0. -1.
         22    1    3    3    0    0 -0.41400703081E+02 -0.83422501604E+02 -0.21596014430E+02  0.95601881931E+02  0.00000000000E+00 0.  1.
         22    1    3    3    0    0  0.34798249015E+02  0.21337638436E+02 -0.39817799463E+02  0.57023417143E+02  0.00000000000E+00 0.  1.
</event>
<event>
 7    1  0.5622879E-006  0.3005970E+02  0.7818608E-02  0.1651026E+00
          2   -1    0    0  502    0  0.00000000000E+00  0.00000000000E+00  0.16064115664E+04  0.16064115664E+04  0.00000000000E+00 0. -1.
          1   -1    0    0  501    0 -0.00000000000E+00 -0.00000000000E+00 -0.37168182079E+03  0.37168182079E+03  0.00000000000E+00 0. -1.
         25    2    1    2    0    0  0.49781709748E+02  0.11302860026E+02  0.83017536865E+02  0.15850570746E+03  0.12500469831E+03 0.  0.
          2    1    1    2  501    0 -0.29883001054E+02 -0.19490424453E+01 -0.33318480428E+03  0.33452788572E+03  0.00000000000E+00 0. -1.
          1    1    1    2  502    0 -0.19898708694E+02 -0.93538175807E+01  0.14848970130E+04  0.14850597940E+04  0.00000000000E+00 0. -1.
         22    1    3    3    0    0  0.66308028275E+02 -0.34058414725E+02  0.81150896618E+02  0.11019164328E+03  0.00000000000E+00 0. -1.
         22    1    3    3    0    0 -0.16526318527E+02  0.45361274751E+02  0.18666402463E+01  0.48314064173E+02  0.00000000000E+00 0. -1.
</event>
<event>
 7    1  0.5622879E-006  0.9856076E+02  0.7818608E-02  0.1402807E+00
          2   -1    0    0  502    0  0.00000000000E+00  0.00000000000E+00  0.15863975654E+04  0.15863975654E+04  0.00000000000E+00 0. -1.
          1   -1    0    0  501    0 -0.00000000000E+00 -0.00000000000E+00 -0.51690335704E+02  0.51690335704E+02  0.00000000000E+00 0. -1.
         25    2    1    2    0    0 -0.86644053711E+02 -0.77325013797E+02  0.16097010473E+03  0.23456867867E+03  0.12499896236E+03 0.  0.
          2    1    1    2  501    0 -0.17031353011E+01  0.35074105643E+02  0.10335241420E+02  0.36604791650E+02  0.00000000000E+00 0. -1.
          1    1    1    2  502    0  0.88347189012E+02  0.42250908154E+02  0.13634018836E+04  0.13669144308E+04  0.00000000000E+00 0. -1.
         22    1    3    3    0    0 -0.82392632930E+02 -0.69502664436E+01  0.13715688472E+03  0.16015262468E+03  0.00000000000E+00 0. -1.
         22    1    3    3    0    0 -0.42514207804E+01 -0.70374747354E+02  0.23813220011E+02  0.74416053987E+02  0.00000000000E+00 0. -1.
</event>
<event>
 7    1  0.5622879E-006  0.7634406E+02  0.7818608E-02  0.1402210E+00
          2   -1    0    0  502    0  0.00000000000E+00  0.00000000000E+00  0.65614854213E+02  0.65614854213E+02  0.00000000000E+00 0. -1.
          1   -1    0    0  501    0 -0.00000000000E+00 -0.00000000000E+00 -0.11737603402E+04  0.11737603402E+04  0.00000000000E+00 0. -1.
         25    2    1    2    0    0  0.39984939757E+02 -0.39765378761E+02 -0.32541822142E+03  0.35313160106E+03  0.12499931232E+03 0.  0.
          2    1    1    2  501    0 -0.78784690991E+02  0.15906565083E+02 -0.82211031007E+03  0.82602990761E+03  0.00000000000E+00 0. -1.
          1    1    1    2  502    0  0.38799751234E+02  0.23858813678E+02  0.39383045460E+02  0.60213685784E+02  0.00000000000E+00 0. -1.
         22    1    3    3    0    0  0.56620161759E+02  0.30886866612E+02 -0.15787271076E+03  0.17053924489E+03  0.00000000000E+00 0.  1.
         22    1    3    3    0    0 -0.16635222003E+02 -0.70652245373E+02 -0.16754551066E+03  0.18259235616E+03  0.00000000000E+00 0.  1.
</event>
<event>
 7    1  0.5622879E-006  0.7645436E+02  0.7818608E-02  0.1390388E+00
          2   -1    0    0  502    0  0.00000000000E+00  0.00000000000E+00  0.31766320988E+04  0.31766320988E+04  0.00000000000E+00 0. -1.
          1   -1    0    0  501    0 -0.00000000000E+00 -0.00000000000E+00 -0.71628005295E+02  0.71628005295E+02  0.00000000000E+00 0. -1.
         25    2    1    2    0    0 -0.99701181385E+02  0.68114179795E+02  0.93804005741E+03  0.95400404774E+03  0.12499882697E+03 0.  0.
          2    1    1    2  501    0  0.46811865362E+02 -0.17486614128E+02 -0.53139983018E+02  0.72945117777E+02  0.00000000000E+00 0. -1.
          1    1    1    2  502    0  0.52889316023E+02 -0.50627565667E+02  0.22201040192E+04  0.22213109386E+04  0.00000000000E+00 0. -1.
         22    1    3    3    0    0  0.27513601130E+01 -0.17673084643E+02  0.22399680929E+02  0.28664500850E+02  0.00000000000E+00 0. -1.
         22    1    3    3    0    0 -0.10245254150E+03  0.85787264439E+02  0.91564037648E+03  0.92533954689E+03  0.00000000000E+00 0. -1.
</event>
<event>
 7    1  0.5622879E-006  0.1582259E+03  0.7818608E-02  0.1311047E+00
          2   -1    0    0  502    0  0.00000000000E+00  0.00000000000E+00  0.20202478001E+04  0.20202478001E+04  0.00000000000E+00 0. -1.
          1   -1    0    0  501    0 -0.00000000000E+00 -0.00000000000E+00 -0.28728679879E+03  0.28728679879E+03  0.00000000000E+00 0. -1.
         25    2    1    2    0    0 -0.17190761064E+02 -0.13181631624E+03 -0.13088196349E+03  0.22455452606E+03  0.12499433313E+03 0.  0.
          2    1    1    2  501    0  0.40225743488E+02 -0.25274237544E+02 -0.10106195408E+03  0.11167101722E+03  0.00000000000E+00 0. -1.
          1    1    1    2  502    0 -0.23034982424E+02  0.15709055378E+03  0.19649049188E+04  0.19713090556E+04  0.00000000000E+00 0. -1.
         22    1    3    3    0    0 -0.46840972816E+02 -0.52428179606E+01 -0.12578985334E+02  0.48783139982E+02  0.00000000000E+00 0.  1.
         22    1    3    3    0    0  0.29650211752E+02 -0.12657349828E+03 -0.11830297816E+03  0.17577138608E+03  0.00000000000E+00 0.  1.
</event>
<event>
 7    1  0.5622879E-006  0.1620259E+03  0.7818608E-02  0.1245985E+00
          2   -1    0    0  502    0  0.00000000000E+00  0.00000000000E+00  0.61561660370E+03  0.61561660370E+03  0.00000000000E+00 0. -1.
          1   -1    0    0  501    0 -0.00000000000E+00 -0.00000000000E+00 -0.65760492168E+03  0.65760492168E+03  0.00000000000E+00 0. -1.
         25    2    1    2    0    0  0.18814177485E+03 -0.55864503485E+02 -0.29461933881E+02  0.23454428727E+03  0.12499938778E+03 0.  0.
          2    1    1    2  501    0 -0.69138661697E+02 -0.51690045449E+02 -0.50934366845E+03  0.51660718920E+03  0.00000000000E+00 0. -1.
          1    1    1    2  502    0 -0.11900311316E+03  0.10755454893E+03  0.49681728435E+03  0.52207004891E+03  0.00000000000E+00 0. -1.
         22    1    3    3    0    0  0.32631769530E+02  0.38739622731E+02 -0.72799112099E+01  0.51172139483E+02  0.00000000000E+00 0.  1.
         22    1    3    3    0    0  0.15551000533E+03 -0.94604126216E+02 -0.22182022671E+02  0.18337214778E+03  0.00000000000E+00 0.  1.
</event>
<event>
 7    1  0.5622879E-006  0.6106173E+02  0.7818608E-02  0.1434880E+00
          2   -1    0    0  502    0  0.00000000000E+00  0.00000000000E+00  0.15458767643E+04  0.15458767643E+04  0.00000000000E+00 0. -1.
          1   -1    0    0  501    0 -0.00000000000E+00 -0.00000000000E+00 -0.11660888778E+03  0.11660888778E+03  0.00000000000E+00 0. -1.
         25    2    1    2    0    0  0.15395616854E+02 -0.14826061501E+02  0.21156826322E+03  0.24665954279E+03  0.12499185145E+03 0.  0.
          2    1    1    2  501    0  0.43838956358E+02 -0.61686022555E+01 -0.93326580572E+02  0.10329451287E+03  0.00000000000E+00 0. -1.
          1    1    1    2  502    0 -0.59234573212E+02  0.20994663756E+02  0.13110261938E+04  0.13125315964E+04  0.00000000000E+00 0. -1.
         22    1    3    3    0    0 -0.54146119190E+02 -0.16099167114E+02  0.10839648561E+03  0.12223249772E+03  0.00000000000E+00 0.  1.
         22    1    3    3    0    0  0.69541736044E+02  0.12731056133E+01  0.10317177761E+03  0.12442704507E+03  0.00000000000E+00 0.  1.
</event>
<event>
 7    1  0.5622879E-006  0.6741023E+02  0.7818608E-02  0.1371566E+00
          2   -1    0    0  502    0  0.00000000000E+00  0.00000000000E+00  0.74528319006E+03  0.74528319006E+03  0.00000000000E+00 0. -1.
          1   -1    0    0  501    0 -0.00000000000E+00 -0.00000000000E+00 -0.49098338302E+02  0.49098338302E+02  0.00000000000E+00 0. -1.
         25    2    1    2    0    0 -0.55415538386E+02 -0.49613106766E+02  0.27780134641E+03  0.31357676952E+03  0.12499784021E+03 0.  0.
          2    1    1    2  501    0 -0.11918332360E+02  0.66348266604E+02  0.11912541668E+02  0.68454713327E+02  0.00000000000E+00 0. -1.
          1    1    1    2  502    0  0.67333870746E+02 -0.16735159839E+02  0.40647096367E+03  0.41235004551E+03  0.00000000000E+00 0. -1.
         22    1    3    3    0    0 -0.48838667410E+02 -0.75621905652E+02  0.27147777161E+03  0.28601410547E+03  0.00000000000E+00 0.  1.
         22    1    3    3    0    0 -0.65768709760E+01  0.26008798886E+02  0.63235748034E+01  0.27562664052E+02  0.00000000000E+00 0.  1.
</event>
<event>
 7    1  0.5622879E-006  0.9232610E+02  0.7818608E-02  0.1464744E+00
          2   -1    0    0  502    0  0.00000000000E+00  0.00000000000E+00  0.26618502953E+03  0.26618502953E+03  0.00000000000E+00 0. -1.
          1   -1    0    0  501    0 -0.00000000000E+00 -0.00000000000E+00 -0.30895073723E+03  0.30895073723E+03  0.00000000000E+00 0. -1.
         25    2    1    2    0    0  0.44242890027E+02 -0.60375483940E+02 -0.82937118585E+02  0.16765309906E+03  0.12500545431E+03 0.  0.
          2    1    1    2  501    0 -0.62524079798E+02  0.75133982615E+02 -0.16994851966E+03  0.19605324591E+03  0.00000000000E+00 0. -1.
          1    1    1    2  502    0  0.18281189771E+02 -0.14758498675E+02  0.21011993055E+03  0.21142942179E+03  0.00000000000E+00 0. -1.
         22    1    3    3    0    0  0.73774595184E+02  0.30253926373E+01 -0.28990413052E+02  0.79323943069E+02  0.00000000000E+00 0.  1.
         22    1    3    3    0    0 -0.29531705156E+02 -0.63400876578E+02 -0.53946705533E+02  0.88329155991E+02  0.00000000000E+00 0.  1.
</event>
<event>
 7    1  0.5622879E-006  0.1853901E+03  0.7818608E-02  0.1177554E+00
          2   -1    0    0  502    0  0.00000000000E+00  0.00000000000E+00  0.73288751762E+03  0.73288751762E+03  0.00000000000E+00 0. -1.
          1   -1    0    0  501    0 -0.00000000000E+00 -0.00000000000E+00 -0.11892984734E+04  0.11892984734E+04  0.00000000000E+00 0. -1.
         25    2    1    2    0    0  0.11041096300E+03  0.24077776396E+03  0.22792550372E+03  0.37113452019E+03  0.12500513774E+03 0.  0.
          2    1    1    2  501    0  0.34264756728E+02 -0.18134936462E+03 -0.10956077521E+04  0.11110436589E+04  0.00000000000E+00 0. -1.
          1    1    1    2  502    0 -0.14467571973E+03 -0.59428399345E+02  0.41127129252E+03  0.44000781196E+03  0.00000000000E+00 0. -1.
         22    1    3    3    0    0  0.13883058403E+02 -0.14256911826E+02  0.20021597965E+02  0.28228766012E+02  0.00000000000E+00 0. -1.
         22    1    3    3    0    0  0.96527904596E+02  0.25503467579E+03  0.20790390576E+03  0.34290575418E+03  0.00000000000E+00 0. -1.
</event>
<event>
 7    1  0.5622879E-006  0.6167017E+02  0.7818608E-02  0.1504194E+00
          2   -1    0    0  502    0  0.00000000000E+00  0.00000000000E+00  0.16300832963E+04  0.16300832963E+04  0.00000000000E+00 0. -1.
          1   -1    0    0  501    0 -0.00000000000E+00 -0.00000000000E+00 -0.71171180200E+03  0.71171180200E+03  0.00000000000E+00 0. -1.
         25    2    1    2    0    0 -0.39110394168E+02 -0.53121924698E+02  0.61294138872E+03  0.62902577983E+03  0.12499889547E+03 0.  0.
          2    1    1    2  501    0  0.13402416325E+02  0.60199133957E+02 -0.70214155710E+03  0.70484489549E+03  0.00000000000E+00 0. -1.
          1    1    1    2  502    0  0.25707977842E+02 -0.70772092586E+01  0.10075716627E+04  0.10079244230E+04  0.00000000000E+00 0. -1.
         22    1    3    3    0    0 -0.63662494345E+02 -0.80774423729E+02  0.40717779715E+03  0.41996568813E+03  0.00000000000E+00 0.  1.
         22    1    3    3    0    0  0.24552100177E+02  0.27652499031E+02  0.20576359157E+03  0.20906009170E+03  0.00000000000E+00 0.  1.
</event>
<event>
 7    1  0.5622879E-006  0.1841056E+03  0.7818608E-02  0.1256872E+00
          2   -1    0    0  502    0  0.00000000000E+00  0.00000000000E+00  0.67516590662E+03  0.67516590662E+03  0.00000000000E+00 0. -1.
          1   -1    0    0  501    0 -0.00000000000E+00 -0.00000000000E+00 -0.49832084916E+03  0.49832084916E+03  0.00000000000E+00 0. -1.
         25    2    1    2    0    0  0.85614360585E+02  0.23149986677E+03 -0.16397500320E+03  0.32161254943E+03  0.12499929288E+03 0.  0.
          2    1    1    2  501    0 -0.36036243760E+02 -0.57855784211E+02 -0.23694065595E+03  0.24654974564E+03  0.00000000000E+00 0. -1.
          1    1    1    2  502    0 -0.49578116825E+02 -0.17364408256E+03  0.57776071662E+03  0.60532446072E+03  0.00000000000E+00 0. -1.
         22    1    3    3    0    0  0.45455531672E+02  0.33359744154E+02 -0.90261000257E+02  0.10642427382E+03  0.00000000000E+00 0.  1.
         22    1    3    3    0    0  0.40158828912E+02  0.19814012262E+03 -0.73714002946E+02  0.21518827561E+03  0.00000000000E+00 0.  1.
</event>
<event>
 7    1  0.5622879E-006  0.1134969E+03  0.7818608E-02  0.1274884E+00
          2   -1    0    0  502    0  0.00000000000E+00  0.00000000000E+00  0.19838358185E+03  0.19838358185E+03  0.00000000000E+00 0. -1.
          1   -1    0    0  501    0 -0.00000000000E+00 -0.00000000000E+00 -0.42426806256E+03  0.42426806256E+03  0.00000000000E+00 0. -1.
         25    2    1    2    0    0 -0.20670416686E+02 -0.34887946242E+02 -0.24066297610E+03  0.27420497478E+03  0.12500106084E+03 0.  0.
          2    1    1    2  501    0  0.39197123861E+02 -0.84096755779E+02 -0.13026545029E+03  0.15993050488E+03  0.00000000000E+00 0. -1.
          1    1    1    2  502    0 -0.18526707175E+02  0.11898470202E+03  0.14504394568E+03  0.18851616475E+03  0.00000000000E+00 0. -1.
         22    1    3    3    0    0 -0.37377129461E+02 -0.29711611030E+02 -0.18267354169E+02  0.51122655106E+02  0.00000000000E+00 0. -1.
         22    1    3    3    0    0  0.16706712775E+02 -0.51763352115E+01 -0.22239562193E+03  0.22308231967E+03  0.00000000000E+00 0. -1.
</event>
<event>
 7    1  0.5714335E-006  0.6830960E+02  0.7818608E-02  0.1383569E+00
          2   -1    0    0  502    0  0.00000000000E+00  0.00000000000E+00  0.70741820419E+03  0.70741820419E+03  0.00000000000E+00 0. -1.
          1   -1    0    0  501    0 -0.00000000000E+00 -0.00000000000E+00 -0.70698139446E+03  0.70698139446E+03  0.00000000000E+00 0. -1.
         25    2    1    2    0    0  0.57342306680E+02  0.60194351504E+02 -0.89271886808E+02  0.17466002110E+03  0.12500061243E+03 0.  0.
          2    1    1    2  501    0  0.11389936858E+01 -0.68682051134E+02 -0.57164181257E+03  0.57575418656E+03  0.00000000000E+00 0. -1.
          1    1    1    2  502    0 -0.58481300366E+02  0.84876996301E+01  0.66135050912E+03  0.66398539099E+03  0.00000000000E+00 0. -1.
         22    1    3    3    0    0 -0.35749427692E+02  0.28419917400E+00 -0.39518596012E+02  0.53289978235E+02  0.00000000000E+00 0. -1.
         22    1    3    3    0    0  0.93091734372E+02  0.59910152330E+02 -0.49753290795E+02  0.12137004287E+03  0.00000000000E+00 0. -1.
</event>
<event>
 7    1  0.7613976E-006  0.7550541E+02  0.7818608E-02  0.1413411E+00
          2   -1    0    0  502    0  0.00000000000E+00  0.00000000000E+00  0.22459389393E+04  0.22459389393E+04  0.00000000000E+00 0. -1.
          1   -1    0    0  501    0 -0.00000000000E+00 -0.00000000000E+00 -0.57083230427E+03  0.57083230427E+03  0.00000000000E+00 0. -1.
         25    2    1    2    0    0  0.44580721909E+02  0.36502846083E+02 -0.11163238498E+03  0.17721722882E+03  0.12499703306E+03 0.  0.
          2    1    1    2  501    0 -0.22346694866E+02  0.35783406578E+02 -0.42471600682E+03  0.42680617780E+03  0.00000000000E+00 0. -1.
          1    1    1    2  502    0 -0.22234027043E+02 -0.72286252661E+02  0.22114550268E+04  0.22127478369E+04  0.00000000000E+00 0. -1.
         22    1    3    3    0    0  0.67836889366E+01  0.76901899614E+02 -0.87982685200E+02  0.11705073043E+03  0.00000000000E+00 0.  1.
         22    1    3    3    0    0  0.37797032973E+02 -0.40399053531E+02 -0.23649699783E+02  0.60166498383E+02  0.00000000000E+00 0.  1.
</event>
<event>
 7    1  0.5622879E-006  0.6637994E+02  0.7818608E-02  0.1406963E+00
          2   -1    0    0  502    0  0.00000000000E+00  0.00000000000E+00  0.40618642848E+02  0.40618642848E+02  0.00000000000E+00 0. -1.
          1   -1    0    0  501    0 -0.00000000000E+00 -0.00000000000E+00 -0.13291760671E+04  0.13291760671E+04  0.00000000000E+00 0. -1.
         25    2    1    2    0    0  0.10019059940E+03 -0.48050484405E+02 -0.62726421411E+03  0.64917840798E+03  0.12500082329E+03 0.  0.
          2    1    1    2  501    0 -0.49707913943E+02  0.86993525568E+01 -0.65428240224E+03  0.65622558417E+03  0.00000000000E+00 0. -1.
          1    1    1    2  502    0 -0.50482685460E+02  0.39351131848E+02 -0.70108078870E+01  0.64390717780E+02  0.00000000000E+00 0. -1.
         22    1    3    3    0    0  0.88734447474E+02  0.20730190874E+02 -0.44040093285E+03  0.44972939046E+03  0.00000000000E+00 0.  1.
         22    1    3    3    0    0  0.11456151929E+02 -0.68780675278E+02 -0.18686328125E+03  0.19944901752E+03  0.00000000000E+00 0.  1.
</event>
<event>
 7    1  0.5622879E-006  0.1214883E+03  0.7818608E-02  0.1432030E+00
          2   -1    0    0  502    0  0.00000000000E+00  0.00000000000E+00  0.14735567113E+04  0.14735567113E+04  0.00000000000E+00 0. -1.
          1   -1    0    0  501    0 -0.00000000000E+00 -0.00000000000E+00 -0.13935540525E+04  0.13935540525E+04  0.00000000000E+00 0. -1.
         25    2    1    2    0    0  0.11661383703E+03  0.42114606191E+02 -0.50437548813E+03  0.53422079295E+03  0.12499918223E+03 0.  0.
          2    1    1    2  501    0 -0.11965280414E+03 -0.19583950329E+02 -0.86996297390E+03  0.87837116335E+03  0.00000000000E+00 0. -1.
          1    1    1    2  502    0  0.30389671108E+01 -0.22530655862E+02  0.14543411208E+04  0.14545188075E+04  0.00000000000E+00 0. -1.
         22    1    3    3    0    0  0.79562990366E+02  0.29507057288E+02 -0.11518923192E+03  0.14307164295E+03  0.00000000000E+00 0.  1.
         22    1    3    3    0    0  0.37050846661E+02  0.12607548902E+02 -0.38918625620E+03  0.39114915000E+03  0.00000000000E+00 0.  1.
</event>
<event>
 7    1  0.5622879E-006  0.7007448E+02  0.7818608E-02  0.1423930E+00
          2   -1    0    0  502    0  0.00000000000E+00  0.00000000000E+00  0.33003457226E+02  0.33003457226E+02  0.00000000000E+00 0. -1.
          1   -1    0    0  501    0 -0.00000000000E+00 -0.00000000000E+00 -0.39265869759E+04  0.39265869759E+04  0.00000000000E+00 0. -1.
         25    2    1    2    0    0  0.11376811070E+02 -0.10942624180E+03 -0.95292396336E+03  0.96736411991E+03  0.12500290522E+03 0.  0.
          2    1    1    2  501    0 -0.65124843253E+01  0.41409556260E+02 -0.29209415122E+04  0.29212422839E+04  0.00000000000E+00 0. -1.
          1    1    1    2  502    0 -0.48643267446E+01  0.68016685537E+02 -0.19718043093E+02  0.70984029257E+02  0.00000000000E+00 0. -1.
         22    1    3    3    0    0  0.22835221653E+02  0.38175890550E+01 -0.32355438420E+02  0.39785622145E+02  0.00000000000E+00 0. -1.
         22    1    3    3    0    0 -0.11458410583E+02 -0.11324383085E+03 -0.92056852494E+03  0.92757849776E+03  0.00000000000E+00 0. -1.
</event>
<event>
 7    1  0.5622879E-006  0.6166507E+02  0.7818608E-02  0.1494860E+00
          2   -1    0    0  502    0  0.00000000000E+00  0.00000000000E+00  0.64885049266E+03  0.64885049266E+03  0.00000000000E+00 0. -1.
          1   -1    0    0  501    0 -0.00000000000E+00 -0.00000000000E+00 -0.34450828300E+03  0.34450828300E+03  0.00000000000E+00 0. -1.
         25    2    1    2    0    0  0.83524147903E+01  0.48207926768E+02 -0.16080982502E+03  0.20947308482E+03  0.12500162562E+03 0.  0.
          2    1    1    2  501    0 -0.26236243035E+02  0.10961743641E+02 -0.15655353850E+03  0.15911477207E+03  0.00000000000E+00 0. -1.
          1    1    1    2  502    0  0.17883828245E+02 -0.59169670409E+02  0.62170557318E+03  0.62477091876E+03  0.00000000000E+00 0. -1.
         22    1    3    3    0    0 -0.20366484651E+02 -0.21682401448E+01 -0.14886611510E+03  0.15026847703E+03  0.00000000000E+00 0. -1.
         22    1    3    3    0    0  0.28718899442E+02  0.50376166913E+02 -0.11943709919E+02  0.59204607799E+02  0.00000000000E+00 0. -1.
</event>
<event>
 7    1  0.5622879E-006  0.9824053E+02  0.7818608E-02  0.1377469E+00
          2   -1    0    0  502    0  0.00000000000E+00  0.00000000000E+00  0.35333474032E+03  0.35333474032E+03  0.00000000000E+00 0. -1.
          1   -1    0    0  501    0 -0.00000000000E+00 -0.00000000000E+00 -0.72837382016E+03  0.72837382016E+03  0.00000000000E+00 0. -1.
         25    2    1    2    0    0 -0.78331538589E+02  0.63776107127E+02 -0.76831228370E+02  0.17814002876E+03  0.12501044122E+03 0.  0.
          2    1    1    2  501    0  0.95697266132E+02 -0.24237888134E+02 -0.59526179119E+03  0.60339211299E+03  0.00000000000E+00 0. -1.
          1    1    1    2  502    0 -0.17365727543E+02 -0.39538218993E+02  0.29705393973E+03  0.30017641873E+03  0.00000000000E+00 0. -1.
         22    1    3    3    0    0 -0.67558204139E+02 -0.68422265766E+01 -0.82062024003E+02  0.10651339256E+03  0.00000000000E+00 0.  1.
         22    1    3    3    0    0 -0.10773334450E+02  0.70618333703E+02  0.52307956327E+01  0.71626636199E+02  0.00000000000E+00 0.  1.
</event>
<event>
 7    1  0.5622879E-006  0.1006448E+03  0.7818608E-02  0.1365927E+00
          2   -1    0    0  502    0  0.00000000000E+00  0.00000000000E+00  0.44522627129E+02  0.44522627129E+02  0.00000000000E+00 0. -1.
          1   -1    0    0  501    0 -0.00000000000E+00 -0.00000000000E+00 -0.10321023192E+04  0.10321023192E+04  0.00000000000E+00 0. -1.
         25    2    1    2    0    0  0.73155715342E+02  0.40378090118E+02 -0.55080542292E+03  0.57095855882E+03  0.12499965250E+03 0.  0.
          2    1    1    2  501    0 -0.11404301332E+03 -0.18511888446E+02 -0.44395881017E+03  0.45874603435E+03  0.00000000000E+00 0. -1.
          1    1    1    2  502    0  0.40887297979E+02 -0.21866201673E+02  0.71845410130E+01  0.46920353166E+02  0.00000000000E+00 0. -1.
         22    1    3    3    0    0 -0.10784160881E+01 -0.29618905624E+02 -0.28009383699E+03  0.28165759367E+03  0.00000000000E+00 0. -1.
         22    1    3    3    0    0  0.74234131430E+02  0.69996995742E+02 -0.27071158592E+03  0.28930096515E+03  0.00000000000E+00 0. -1.
</event>
<event>
 7    1  0.5622879E-006  0.6818594E+02  0.7818608E-02  0.1377906E+00
          2   -1    0    0  502    0  0.00000000000E+00  0.00000000000E+00  0.73745974419E+03  0.73745974419E+03  0.00000000000E+00 0. -1.
          1   -1    0    0  501    0 -0.00000000000E+00 -0.00000000000E+00 -0.20196392206E+03  0.20196392206E+03  0.00000000000E+00 0. -1.
         25    2    1    2    0    0 -0.93288467651E+02  0.63076976606E+02 -0.10454090828E+03  0.19807958427E+03  0.12500110809E+03 0.  0.
          2    1    1    2  501    0  0.25786467119E+02 -0.56379104653E+02 -0.29305255256E+02  0.68573634245E+02  0.00000000000E+00 0. -1.
          1    1    1    2  502    0  0.67502000532E+02 -0.66978719529E+01  0.66934198567E+03  0.67277044773E+03  0.00000000000E+00 0. -1.
         22    1    3    3    0    0 -0.40967222071E+02  0.38115056183E+02 -0.12471986908E+03  0.13669717092E+03  0.00000000000E+00 0. -1.
         22    1    3    3    0    0 -0.52321245580E+02  0.24961920423E+02  0.20178960799E+02  0.61382413354E+02  0.00000000000E+00 0. -1.
</event>
<event>
 7    1  0.5622879E-006  0.3822564E+02  0.7818608E-02  0.1547770E+00
          2   -1    0    0  502    0  0.00000000000E+00  0.00000000000E+00  0.37085047329E+03  0.37085047329E+03  0.00000000000E+00 0. -1.
          1   -1    0    0  501    0 -0.00000000000E+00 -0.00000000000E+00 -0.27448431464E+03  0.27448431464E+03  0.00000000000E+00 0. -1.
         25    2    1    2    0    0 -0.18389681649E+02 -0.18584780955E+02  0.14720693609E+03  0.19487697950E+03  0.12499432240E+03 0.  0.
          2    1    1    2  501    0 -0.75614601534E+01  0.37678448908E+02 -0.24786006962E+03  0.25082156069E+03  0.00000000000E+00 0. -1.
          1    1    1    2  502    0  0.25951141803E+02 -0.19093667953E+02  0.19701929218E+03  0.19963624773E+03  0.00000000000E+00 0. -1.
         22    1    3    3    0    0 -0.32019518286E+02  0.28312741002E+02  0.32543844866E+01  0.42865509126E+02  0.00000000000E+00 0.  1.
         22    1    3    3    0    0  0.13629836636E+02 -0.46897521957E+02  0.14395255160E+03  0.15201147037E+03  0.00000000000E+00 0.  1.
</event>
<event>
 7    1  0.5622879E-006  0.1109877E+03  0.7818608E-02  0.1322386E+00
          2   -1    0    0  502    0  0.00000000000E+00  0.00000000000E+00  0.14840289379E+03  0.14840289379E+03  0.00000000000E+00 0. -1.
          1   -1    0    0  501    0 -0.00000000000E+00 -0.00000000000E+00 -0.14871378309E+04  0.14871378309E+04  0.00000000000E+00 0. -1.
         25    2    1    2    0    0 -0.25813601325E+02 -0.61671276442E+02 -0.64121545948E+02  0.15558409098E+03  0.12500059343E+03 0.  0.
          2    1    1    2  501    0 -0.88921649554E+01 -0.60519960063E+02 -0.13370279875E+04  0.13384265298E+04  0.00000000000E+00 0. -1.
          1    1    1    2  502    0  0.34705766280E+02  0.12219123651E+03  0.62414596344E+02  0.14153010397E+03  0.00000000000E+00 0. -1.
         22    1    3    3    0    0 -0.34471560356E+02  0.26446985671E+02  0.43354644527E+01  0.43663803963E+02  0.00000000000E+00 0.  1.
         22    1    3    3    0    0  0.86579590315E+01 -0.88118262113E+02 -0.68457010401E+02  0.11192028701E+03  0.00000000000E+00 0.  1.
</event>
<event>
 7    1  0.5622879E-006  0.6634567E+02  0.7818608E-02  0.1391141E+00
          2   -1    0    0  502    0  0.00000000000E+00  0.00000000000E+00  0.13576005355E+04  0.13576005355E+04  0.00000000000E+00 0. -1.
          1   -1    0    0  501    0 -0.00000000000E+00 -0.00000000000E+00 -0.14138974421E+04  0.14138974421E+04  0.00000000000E+00 0. -1.
         25    2    1    2    0    0 -0.25609620935E+02 -0.34640995969E+02 -0.31992732607E+02  0.13603000960E+03  0.12499910914E+03 0.  0.
          2    1    1    2  501    0  0.66858882506E+02 -0.50415661084E+01 -0.13284128228E+04  0.13301038138E+04  0.00000000000E+00 0. -1.
          1    1    1    2  502    0 -0.41249261570E+02  0.39682562077E+02  0.13041086488E+04  0.13053641543E+04  0.00000000000E+00 0. -1.
         22    1    3    3    0    0  0.23505382929E+01 -0.63581016612E+02 -0.59640438009E+02  0.87206952415E+02  0.00000000000E+00 0. -1.
         22    1    3    3    0    0 -0.27960159228E+02  0.28940020643E+02  0.27647705402E+02  0.48823057185E+02  0.00000000000E+00 0. -1.
</event>
<event>
 7    1  0.5622879E-006  0.1011079E+03  0.7818608E-02  0.1405703E+00
          2   -1    0    0  502    0  0.00000000000E+00  0.00000000000E+00  0.23908951984E+04  0.23908951984E+04  0.00000000000E+00 0. -1.
          1   -1    0    0  501    0 -0.00000000000E+00 -0.00000000000E+00 -0.29242288996E+02  0.29242288996E+02  0.00000000000E+00 0. -1.
         25    2    1    2    0    0 -0.36591599320E+02 -0.11826492335E+03  0.49687810043E+03  0.52710442943E+03  0.12500278239E+03 0.  0.
          2    1    1    2  501    0  0.14380306819E+02  0.93240769886E+02  0.14535637454E+03  0.17328909375E+03  0.00000000000E+00 0. -1.
          1    1    1    2  502    0  0.22211292500E+02  0.25024153468E+02  0.17194184345E+04  0.17197439642E+04  0.00000000000E+00 0. -1.
         22    1    3    3    0    0  0.25674474218E+02 -0.18570440535E+02  0.26743563871E+03  0.26930625827E+03  0.00000000000E+00 0. -1.
         22    1    3    3    0    0 -0.62266073538E+02 -0.99694482818E+02  0.22944246172E+03  0.25779817117E+03  0.00000000000E+00 0. -1.
</event>
<event>
 7    1  0.5622879E-006  0.6216985E+02  0.7818608E-02  0.1475534E+00
          2   -1    0    0  502    0  0.00000000000E+00  0.00000000000E+00  0.98545053341E+03  0.98545053341E+03  0.00000000000E+00 0. -1.
          1   -1    0    0  501    0 -0.00000000000E+00 -0.00000000000E+00 -0.23440175272E+03  0.23440175272E+03  0.00000000000E+00 0. -1.
         25    2    1    2    0    0  0.65298041922E+02 -0.16758880772E+02 -0.15325717511E+02  0.14284592874E+03  0.12500154950E+03 0.  0.
          2    1    1    2  501    0 -0.45718308907E+02  0.42444125740E+02 -0.14875543369E+03  0.16130668501E+03  0.00000000000E+00 0. -1.
          1    1    1    2  502    0 -0.19579733015E+02 -0.25685244968E+02  0.91512993189E+03  0.91569967238E+03  0.00000000000E+00 0. -1.
         22    1    3    3    0    0  0.86841422690E+02  0.49843128122E+00 -0.48676021793E+02  0.99554187386E+02  0.00000000000E+00 0. -1.
         22    1    3    3    0    0 -0.21543380768E+02 -0.17257312053E+02  0.33350304281E+02  0.43291741359E+02  0.00000000000E+00 0. -1.
</event>
<event>
 7    1  0.5622879E-006  0.1339122E+03  0.7818608E-02  0.1286124E+00
          2   -1    0    0  502    0  0.00000000000E+00  0.00000000000E+00  0.17851094924E+04  0.17851094924E+04  0.00000000000E+00 0. -1.
          1   -1    0    0  501    0 -0.00000000000E+00 -0.00000000000E+00 -0.13309051777E+03  0.13309051777E+03  0.00000000000E+00 0. -1.
         25    2    1    2    0    0  0.18317782492E+03 -0.38545772627E+02  0.66134377404E+03  0.69859837639E+03  0.12499684756E+03 0.  0.
          2    1    1    2  501    0 -0.11621109665E+03  0.61114090655E+02 -0.75250489300E+02  0.15133600762E+03  0.00000000000E+00 0. -1.
          1    1    1    2  502    0 -0.66966728275E+02 -0.22568318028E+02  0.10659256898E+04  0.10682656261E+04  0.00000000000E+00 0. -1.
         22    1    3    3    0    0  0.17407682296E+02 -0.29401084048E+02  0.28976806709E+02  0.44800741882E+02  0.00000000000E+00 0.  1.
         22    1    3    3    0    0  0.16577014263E+03 -0.91446885790E+01  0.63236696733E+03  0.65379763451E+03  0.00000000000E+00 0.  1.
</event>
<event>
 7    1  0.5622879E-006  0.1505921E+03  0.7818608E-02  0.1393090E+00
          2   -1    0    0  502    0  0.00000000000E+00  0.00000000000E+00  0.15671489429E+03  0.15671489429E+03  0.00000000000E+00 0. -1.
          1   -1    0    0  501    0 -0.00000000000E+00 -0.00000000000E+00 -0.44816745909E+03  0.44816745909E+03  0.00000000000E+00 0. -1.
         25    2    1    2    0    0  0.12735203946E+03  0.44108294388E+02 -0.66696098413E+02  0.19551453411E+03  0.12495391117E+03 0.  0.
          2    1    1    2  501    0  0.24743263655E+02  0.20316163572E+01 -0.24755887514E+03  0.24880062947E+03  0.00000000000E+00 0. -1.
          1    1    1    2  502    0 -0.15209530312E+03 -0.46139910745E+02  0.22802408757E+02  0.16056718979E+03  0.00000000000E+00 0. -1.
         22    1    3    3    0    0  0.12972169872E+03  0.76520085725E+02 -0.48265250819E+02  0.15815365021E+03  0.00000000000E+00 0.  1.
         22    1    3    3    0    0 -0.23696592604E+01 -0.32411791337E+02 -0.18430847594E+02  0.37360883899E+02  0.00000000000E+00 0.  1.
</event>
<event>
 7    1  0.6336761E-006  0.1171382E+03  0.7818608E-02  0.1375969E+00
          2   -1    0    0  502    0  0.00000000000E+00  0.00000000000E+00  0.23007550278E+04  0.23007550278E+04  0.00000000000E+00 0. -1.
          1   -1    0    0  501    0 -0.00000000000E+00 -0.00000000000E+00 -0.67780553480E+03  0.67780553480E+03  0.00000000000E+00 0. -1.
         25    2    1    2    0    0 -0.10927744951E+03  0.72366371928E+02 -0.38084006601E+03  0.42171465763E+03  0.12500257527E+03 0.  0.
          2    1    1    2  501    0 -0.22302995829E+01 -0.36597119395E+02 -0.27380190626E+03  0.27624591808E+03  0.00000000000E+00 0. -1.
          1    1    1    2  502    0  0.11150774910E+03 -0.35769252532E+02  0.22775914653E+04  0.22805999869E+04  0.00000000000E+00 0. -1.
         22    1    3    3    0    0 -0.17884362352E+02 -0.44656444254E+01 -0.22320890548E+03  0.22396876541E+03  0.00000000000E+00 0.  1.
         22    1    3    3    0    0 -0.91393087163E+02  0.76832016353E+02 -0.15763116053E+03  0.19774589221E+03  0.00000000000E+00 0.  1.
</event>
<event>
 7    1  0.5622879E-006  0.1131073E+03  0.7818608E-02  0.1402793E+00
          2   -1    0    0  502    0  0.00000000000E+00  0.00000000000E+00  0.59169093489E+03  0.59169093489E+03  0.00000000000E+00 0. -1.
          1   -1    0    0  501    0 -0.00000000000E+00 -0.00000000000E+00 -0.86026566406E+02  0.86026566406E+02  0.00000000000E+00 0. -1.
         25    2    1    2    0    0  0.86240540148E+02 -0.18880945402E+02  0.27339928121E+03  0.31331413336E+03  0.12499863333E+03 0.  0.
          2    1    1    2  501    0 -0.11664361804E+03  0.15391431478E+02 -0.11966749660E+02  0.11826171355E+03  0.00000000000E+00 0. -1.
          1    1    1    2  502    0  0.30403077896E+02  0.34895139233E+01  0.24423183693E+03  0.24614165439E+03  0.00000000000E+00 0. -1.
         22    1    3    3    0    0  0.26719277097E+02 -0.19072814581E+02  0.24531121414E+03  0.24749804809E+03  0.00000000000E+00 0. -1.
         22    1    3    3    0    0  0.59521263051E+02  0.19186917898E+00  0.28088067071E+02  0.65816085273E+02  0.00000000000E+00 0. -1.
</event>
<event>
 7    1  0.5622879E-006  0.1318809E+03  0.7818608E-02  0.1282034E+00
          2   -1    0    0  502    0  0.00000000000E+00  0.00000000000E+00  0.10281008090E+04  0.10281008090E+04  0.00000000000E+00 0. -1.
          1   -1    0    0  501    0 -0.00000000000E+00 -0.00000000000E+00 -0.85243754974E+02  0.85243754974E+02  0.00000000000E+00 0. -1.
         25    2    1    2    0    0  0.68090407887E+02 -0.11882920192E+03  0.57960756004E+02  0.19427068897E+03  0.12499987392E+03 0.  0.
          2    1    1    2  501    0 -0.73232517951E+02 -0.14137306831E+02  0.11042078682E+03  0.13325019809E+03  0.00000000000E+00 0. -1.
          1    1    1    2  502    0  0.51421100635E+01  0.13296650875E+03  0.77447551121E+03  0.78582367692E+03  0.00000000000E+00 0. -1.
         22    1    3    3    0    0  0.30505057066E+02 -0.26500375531E+02 -0.38313906057E+02  0.55684681980E+02  0.00000000000E+00 0. -1.
         22    1    3    3    0    0  0.37585350821E+02 -0.92328826385E+02  0.96274662060E+02  0.13858600699E+03  0.00000000000E+00 0. -1.
</event>
<event>
 7    1  0.5622879E-006  0.7024738E+02  0.7818608E-02  0.1457419E+00
          2   -1    0    0  502    0  0.00000000000E+00  0.00000000000E+00  0.36246743200E+02  0.36246743200E+02  0.00000000000E+00 0. -1.
          1   -1    0    0  501    0 -0.00000000000E+00 -0.00000000000E+00 -0.15117672523E+04  0.15117672523E+04  0.00000000000E+00 0. -1.
         25    2    1    2    0    0 -0.38951161117E+02 -0.75615206815E+02 -0.37036167703E+03  0.40003459095E+03  0.12500019877E+03 0.  0.
          2    1    1    2  501    0  0.52268278596E+02  0.45898281066E+02 -0.11124385589E+04  0.11146112204E+04  0.00000000000E+00 0. -1.
          1    1    1    2  502    0 -0.13317117479E+02  0.29716925749E+02  0.72797268486E+01  0.33368184202E+02  0.00000000000E+00 0. -1.
         22    1    3    3    0    0 -0.16955737790E+01 -0.71599128782E+01  0.96376502645E+01  0.12125329912E+02  0.00000000000E+00 0. -1.
         22    1    3    3    0    0 -0.37255587338E+02 -0.68455293937E+02 -0.37999932729E+03  0.38790926104E+03  0.00000000000E+00 0. -1.
</event>
<event>
 7    1  0.5622879E-006  0.7105214E+02  0.7818608E-02  0.1458576E+00
          2   -1    0    0  502    0  0.00000000000E+00  0.00000000000E+00  0.82163479706E+03  0.82163479706E+03  0.00000000000E+00 0. -1.
          1   -1    0    0  501    0 -0.00000000000E+00 -0.00000000000E+00 -0.87064799233E+03  0.87064799233E+03  0.00000000000E+00 0. -1.
         25    2    1    2    0    0  0.73813546321E+02 -0.22255596114E+02  0.50298973801E+03  0.52398074912E+03  0.12495358230E+03 0.  0.
          2    1    1    2  501    0 -0.53436767201E+02  0.46832309511E+02 -0.85785281307E+03  0.86079045197E+03  0.00000000000E+00 0. -1.
          1    1    1    2  502    0 -0.20376779120E+02 -0.24576713397E+02  0.30584987980E+03  0.30751158830E+03  0.00000000000E+00 0. -1.
         22    1    3    3    0    0 -0.11140819361E+02 -0.46459969627E+02  0.28150126637E+03  0.28552689821E+03  0.00000000000E+00 0.  1.
         22    1    3    3    0    0  0.84954365682E+02  0.24204373513E+02  0.22148847164E+03  0.23845385092E+03  0.00000000000E+00 0.  1.
</event>
<event>
 7    1  0.5622879E-006  0.7608525E+02  0.7818608E-02  0.1341034E+00
          2   -1    0    0  502    0  0.00000000000E+00  0.00000000000E+00  0.84974451142E+02  0.84974451142E+02  0.00000000000E+00 0. -1.
          1   -1    0    0  501    0 -0.00000000000E+00 -0.00000000000E+00 -0.29275292823E+04  0.29275292823E+04  0.00000000000E+00 0. -1.
         25    2    1    2    0    0 -0.45851100892E+02  0.11097808083E+02 -0.35908989357E+03  0.38313966281E+03  0.12499985902E+03 0.  0.
          2    1    1    2  501    0  0.34321758953E+02  0.67542304935E+02 -0.25340298316E+04  0.25351621513E+04  0.00000000000E+00 0. -1.
          1    1    1    2  502    0  0.11529341939E+02 -0.78640113018E+02  0.50564893989E+02  0.94201919328E+02  0.00000000000E+00 0. -1.
         22    1    3    3    0    0 -0.39011368649E+02  0.93670219044E+01 -0.21579417206E+02  0.45555452255E+02  0.00000000000E+00 0. -1.
         22    1    3    3    0    0 -0.68397322430E+01  0.17307861783E+01 -0.33751047636E+03  0.33758421055E+03  0.00000000000E+00 0. -1.
</event>
<event>
 7    1  0.5622879E-006  0.8785409E+02  0.7818608E-02  0.1486960E+00
          2   -1    0    0  502    0  0.00000000000E+00  0.00000000000E+00  0.72529813418E+03  0.72529813418E+03  0.00000000000E+00 0. -1.
          1   -1    0    0  501    0 -0.00000000000E+00 -0.00000000000E+00 -0.53878816266E+03  0.53878816266E+03  0.00000000000E+00 0. -1.
         25    2    1    2    0    0  0.82582408209E+02  0.43470830802E+02 -0.14045476398E+01  0.15600380863E+03  0.12500259308E+03 0.  0.
          2    1    1    2  501    0 -0.66514976820E+02 -0.57125446343E+02 -0.45573251229E+03  0.46409016529E+03  0.00000000000E+00 0. -1.
          1    1    1    2  502    0 -0.16067431389E+02  0.13654615541E+02  0.64364703146E+03  0.64399232292E+03  0.00000000000E+00 0. -1.
         22    1    3    3    0    0  0.78231405013E+02  0.77780138761E+02  0.24240178657E+02  0.11294905479E+03  0.00000000000E+00 0. -1.
         22    1    3    3    0    0  0.43510031963E+01 -0.34309307959E+02 -0.25644726297E+02  0.43054753841E+02  0.00000000000E+00 0. -1.
</event>
<event>
 7    1  0.5622879E-006  0.1078112E+03  0.7818608E-02  0.1268764E+00
          2   -1    0    0  502    0  0.00000000000E+00  0.00000000000E+00  0.12808982455E+04  0.12808982455E+04  0.00000000000E+00 0. -1.
          1   -1    0    0  501    0 -0.00000000000E+00 -0.00000000000E+00 -0.15496249173E+03  0.15496249173E+03  0.00000000000E+00 0. -1.
         25    2    1    2    0    0  0.39116127643E+02 -0.11281008321E+02  0.42405032902E+03  0.44396047219E+03  0.12499954694E+03 0.  0.
          2    1    1    2  501    0 -0.13588184355E+02  0.11169914131E+03 -0.11942251730E+03  0.16408252363E+03  0.00000000000E+00 0. -1.
          1    1    1    2  502    0 -0.25527943287E+02 -0.10041813299E+03  0.82130794209E+03  0.82781774146E+03  0.00000000000E+00 0. -1.
         22    1    3    3    0    0 -0.14927458246E+02 -0.52801836940E+02  0.11413178973E+03  0.12663699468E+03  0.00000000000E+00 0.  1.
         22    1    3    3    0    0  0.54043585889E+02  0.41520828618E+02  0.30991853929E+03  0.31732347751E+03  0.00000000000E+00 0.  1.
</event>
<event>
 7    1  0.5622879E-006  0.1037341E+03  0.7818608E-02  0.1377929E+00
          2   -1    0    0  502    0  0.00000000000E+00  0.00000000000E+00  0.82533952451E+03  0.82533952451E+03  0.00000000000E+00 0. -1.
          1   -1    0    0  501    0 -0.00000000000E+00 -0.00000000000E+00 -0.10704763999E+03  0.10704763999E+03  0.00000000000E+00 0. -1.
         25    2    1    2    0    0  0.62651331274E+02 -0.67078849968E+02  0.26368216369E+03  0.30590765726E+03  0.12500579944E+03 0.  0.
          2    1    1    2  501    0 -0.37366326236E+02  0.99026878384E+02 -0.52214101055E+02  0.11802066483E+03  0.00000000000E+00 0. -1.
          1    1    1    2  502    0 -0.25285005038E+02 -0.31948028415E+02  0.50682382188E+03  0.50845884241E+03  0.00000000000E+00 0. -1.
         22    1    3    3    0    0 -0.83875249887E+01  0.11224605569E+02 -0.67426244398E+01  0.15550090995E+02  0.00000000000E+00 0.  1.
         22    1    3    3    0    0  0.71038856263E+02 -0.78303455537E+02  0.27042478813E+03  0.29035756626E+03  0.00000000000E+00 0.  1.
</event>
<event>
 7    1  0.5622879E-006  0.7661743E+02  0.7818608E-02  0.1439434E+00
          2   -1    0    0  502    0  0.00000000000E+00  0.00000000000E+00  0.17350433177E+03  0.17350433177E+03  0.00000000000E+00 0. -1.
          1   -1    0    0  501    0 -0.00000000000E+00 -0.00000000000E+00 -0.53635698153E+03  0.53635698153E+03  0.00000000000E+00 0. -1.
         25    2    1    2    0    0 -0.33971154316E+02  0.51826058203E+02 -0.12039439303E+03  0.18428110087E+03  0.12499893852E+03 0.  0.
          2    1    1    2  501    0  0.12327695244E+02 -0.78173433216E+02 -0.37780489363E+03  0.38600465721E+03  0.00000000000E+00 0. -1.
          1    1    1    2  502    0  0.21643459072E+02  0.26347375013E+02  0.13534663691E+03  0.13957555522E+03  0.00000000000E+00 0. -1.
         22    1    3    3    0    0  0.26326139255E+02  0.69681072583E+02 -0.49097472899E+02  0.89213672324E+02  0.00000000000E+00 0. -1.
         22    1    3    3    0    0 -0.60297293572E+02 -0.17855014380E+02 -0.71296920133E+02  0.95067428550E+02  0.00000000000E+00 0. -1.
</event>
<event>
 7    1  0.5622879E-006  0.9581298E+02  0.7818608E-02  0.1444049E+00
          2   -1    0    0  502    0  0.00000000000E+00  0.00000000000E+00  0.16337316534E+03  0.16337316534E+03  0.00000000000E+00 0. -1.
          1   -1    0    0  501    0 -0.00000000000E+00 -0.00000000000E+00 -0.20969532659E+04  0.20969532659E+04  0.00000000000E+00 0. -1.
         25    2    1    2    0    0  0.11844849990E+03  0.19749345989E+02 -0.48091354684E+02  0.17988120011E+03  0.12499753582E+03 0.  0.
          2    1    1    2  501    0 -0.95098131068E+02 -0.75524381087E+01 -0.19800174727E+04  0.19823142753E+04  0.00000000000E+00 0. -1.
          1    1    1    2  502    0 -0.23350368831E+02 -0.12196907880E+02  0.94528726856E+02  0.98130955806E+02  0.00000000000E+00 0. -1.
         22    1    3    3    0    0 -0.14398247991E+02  0.87303843041E+01 -0.43337244342E+02  0.46493503874E+02  0.00000000000E+00 0.  1.
         22    1    3    3    0    0  0.13284674789E+03  0.11018961685E+02 -0.47541103428E+01  0.13338769623E+03  0.00000000000E+00 0.  1.
</event>
<event>
 7    1  0.5622879E-006  0.8170206E+02  0.7818608E-02  0.1436463E+00
          2   -1    0    0  502    0  0.00000000000E+00  0.00000000000E+00  0.52425385720E+03  0.52425385720E+03  0.00000000000E+00 0. -1.
          1   -1    0    0  501    0 -0.00000000000E+00 -0.00000000000E+00 -0.93313373545E+02  0.93313373545E+02  0.00000000000E+00 0. -1.
         25    2    1    2    0    0  0.74266294407E+01  0.70541446843E+02  0.36294301664E+03  0.39036102419E+03  0.12499138103E+03 0.  0.
          2    1    1    2  501    0  0.24144380237E+02 -0.79041594283E+02 -0.55435173130E+02  0.99516748057E+02  0.00000000000E+00 0. -1.
          1    1    1    2  502    0 -0.31571009678E+02  0.85001474407E+01  0.12343264014E+03  0.12768945850E+03  0.00000000000E+00 0. -1.
         22    1    3    3    0    0  0.58679244429E+02  0.63838610605E+01  0.11654054405E+03  0.13063577540E+03  0.00000000000E+00 0.  1.
         22    1    3    3    0    0 -0.51252614988E+02  0.64157585782E+02  0.24640247260E+03  0.25972524879E+03  0.00000000000E+00 0.  1.
</event>
<event>
 7    1  0.5622879E-006  0.1296468E+03  0.7818608E-02  0.1333524E+00
          2   -1    0    0  502    0  0.00000000000E+00  0.00000000000E+00  0.48336550171E+03  0.48336550171E+03  0.00000000000E+00 0. -1.
          1   -1    0    0  501    0 -0.00000000000E+00 -0.00000000000E+00 -0.88486823631E+02  0.88486823631E+02  0.00000000000E+00 0. -1.
         25    2    1    2    0    0 -0.98980719352E+02  0.31103533778E+02  0.13697073265E+03  0.21248789224E+03  0.12500204050E+03 0.  0.
          2    1    1    2  501    0 -0.43072805938E+02 -0.19938983048E+02 -0.16430867293E+02  0.50227512942E+02  0.00000000000E+00 0. -1.
          1    1    1    2  502    0  0.14205352529E+03 -0.11164550730E+02  0.27433881272E+03  0.30913692016E+03  0.00000000000E+00 0. -1.
         22    1    3    3    0    0  0.35089933036E+01  0.56525156355E+02  0.42590667999E+02  0.70861635145E+02  0.00000000000E+00 0.  1.
         22    1    3    3    0    0 -0.10248971266E+03 -0.25421622577E+02  0.94380064650E+02  0.14162625709E+03  0.00000000000E+00 0.  1.
</event>
<event>
 7    1  0.5622879E-006  0.3664644E+02  0.7818608E-02  0.1602985E+00
          2   -1    0    0  502    0  0.00000000000E+00  0.00000000000E+00  0.11922732693E+03  0.11922732693E+03  0.00000000000E+00 0. -1.
          1   -1    0    0  501    0 -0.00000000000E+00 -0.00000000000E+00 -0.20416851701E+04  0.20416851701E+04  0.00000000000E+00 0. -1.
         25    2    1    2    0    0  0.38692193987E+02  0.31468973447E+02 -0.56121926472E+03  0.57713224418E+03  0.12500872774E+03 0.  0.
          2    1    1    2  501    0 -0.14910313176E+02 -0.33224881629E+02 -0.14710038145E+04  0.14714545296E+04  0.00000000000E+00 0. -1.
          1    1    1    2  502    0 -0.23781880811E+02  0.17559081816E+01  0.10976523606E+03  0.11232572330E+03  0.00000000000E+00 0. -1.
         22    1    3    3    0    0  0.65202234809E+02 -0.25847991033E+02 -0.33500736110E+03  0.34227091910E+03  0.00000000000E+00 0.  1.
         22    1    3    3    0    0 -0.26510040822E+02  0.57316964480E+02 -0.22621190362E+03  0.23486132508E+03  0.00000000000E+00 0.  1.
</event>
<event>
 7    1  0.5622879E-006  0.2948648E+02  0.7818608E-02  0.1609708E+00
          2   -1    0    0  502    0  0.00000000000E+00  0.00000000000E+00  0.42306967884E+03  0.42306967884E+03  0.00000000000E+00 0. -1.
          1   -1    0    0  501    0 -0.00000000000E+00 -0.00000000000E+00 -0.19671794225E+04  0.19671794225E+04  0.00000000000E+00 0. -1.
         25    2    1    2    0    0  0.53163908669E+02 -0.48988977838E+01 -0.20572297471E+03  0.24657624651E+03  0.12501001014E+03 0.  0.
          2    1    1    2  501    0 -0.26043775492E+02  0.13566430995E+02 -0.17404024804E+04  0.17406502004E+04  0.00000000000E+00 0. -1.
          1    1    1    2  502    0 -0.27120133177E+02 -0.86675332109E+01  0.40201571145E+03  0.40302265446E+03  0.00000000000E+00 0. -1.
         22    1    3    3    0    0  0.41346201727E+02  0.42122553736E+02 -0.18439033534E+03  0.19360685343E+03  0.00000000000E+00 0. -1.
         22    1    3    3    0    0  0.11817706942E+02 -0.47021451520E+02 -0.21332639374E+02  0.52969393079E+02  0.00000000000E+00 0. -1.
</event>
<event>
 7    1  0.5622879E-006  0.5242933E+02  0.7818608E-02  0.1446339E+00
          2   -1    0    0  502    0  0.00000000000E+00  0.00000000000E+00  0.76823517561E+03  0.76823517561E+03  0.00000000000E+00 0. -1.
          1   -1    0    0  501    0 -0.00000000000E+00 -0.00000000000E+00 -0.48199990775E+02  0.48199990775E+02  0.00000000000E+00 0. -1.
         25    2    1    2    0    0 -0.56791223206E+02 -0.12778833029E+02  0.27632874542E+03  0.30882248472E+03  0.12500083965E+03 0.  0.
          2    1    1    2  501    0  0.24627848173E+02  0.47504017170E+02 -0.74106929481E+01  0.54019264368E+02  0.00000000000E+00 0. -1.
          1    1    1    2  502    0  0.32163375033E+02 -0.34725184141E+02  0.45111713236E+03  0.45359341730E+03  0.00000000000E+00 0. -1.
         22    1    3    3    0    0 -0.28348840468E+02 -0.59883969415E+02  0.74834135818E+02  0.99949459390E+02  0.00000000000E+00 0. -1.
         22    1    3    3    0    0 -0.28442382739E+02  0.47105136386E+02  0.20149460960E+03  0.20887302533E+03  0.00000000000E+00 0. -1.
</event>
<event>
 7    1  0.5622879E-006  0.9963232E+02  0.7818608E-02  0.1308147E+00
          2   -1    0    0  502    0  0.00000000000E+00  0.00000000000E+00  0.22717067614E+04  0.22717067614E+04  0.00000000000E+00 0. -1.
          1   -1    0    0  501    0 -0.00000000000E+00 -0.00000000000E+00 -0.30073503958E+03  0.30073503958E+03  0.00000000000E+00 0. -1.
         25    2    1    2    0    0 -0.12112770641E+02 -0.22368399654E+02  0.76919240867E+02  0.14895654924E+03  0.12499767770E+03 0.  0.
          2    1    1    2  501    0 -0.54274864993E+02 -0.55263078107E+02 -0.25781259226E+03  0.26919714245E+03  0.00000000000E+00 0. -1.
          1    1    1    2  502    0  0.66387635634E+02  0.77631477761E+02  0.21518650732E+04  0.21542881093E+04  0.00000000000E+00 0. -1.
         22    1    3    3    0    0 -0.83914666531E+01  0.52019412131E+02  0.37622037864E+02  0.64744526286E+02  0.00000000000E+00 0.  1.
         22    1    3    3    0    0 -0.37213039883E+01 -0.74387811785E+02  0.39297203003E+02  0.84212022950E+02  0.00000000000E+00 0.  1.
</event>
<event>
 7    1  0.5622879E-006  0.6114772E+02  0.7818608E-02  0.1498548E+00
          2   -1    0    0  502    0  0.00000000000E+00  0.00000000000E+00  0.44919747065E+03  0.44919747065E+03  0.00000000000E+00 0. -1.
          1   -1    0    0  501    0 -0.00000000000E+00 -0.00000000000E+00 -0.15788539411E+03  0.15788539411E+03  0.00000000000E+00 0. -1.
         25    2    1    2    0    0  0.79759257744E+02 -0.20497177642E+02 -0.82719728655E+02  0.17102733615E+03  0.12500449078E+03 0.  0.
          2    1    1    2  501    0 -0.18952874135E+02  0.20547868102E+02 -0.21881682088E+02  0.35499779331E+02  0.00000000000E+00 0. -1.
          1    1    1    2  502    0 -0.60806383609E+02 -0.50690460000E-01  0.39591348729E+03  0.40055574927E+03  0.00000000000E+00 0. -1.
         22    1    3    3    0    0  0.10358186574E+03 -0.78560526874E+01 -0.95569277811E+02  0.14115384279E+03  0.00000000000E+00 0.  1.
         22    1    3    3    0    0 -0.23822607998E+02 -0.12641124955E+02  0.12849549157E+02  0.29873493359E+02  0.00000000000E+00 0.  1.
</event>
<event>
 7    1  0.5622879E-006  0.1066520E+03  0.7818608E-02  0.1321306E+00
          2   -1    0    0  502    0  0.00000000000E+00  0.00000000000E+00  0.17318250672E+03  0.17318250672E+03  0.00000000000E+00 0. -1.
          1   -1    0    0  501    0 -0.00000000000E+00 -0.00000000000E+00 -0.13159442815E+04  0.13159442815E+04  0.00000000000E+00 0. -1.
         25    2    1    2    0    0 -0.44123469748E+02  0.12836392964E+03 -0.10313700760E+03  0.21139056844E+03  0.12499820429E+03 0.  0.
          2    1    1    2  501    0 -0.15684404628E+02 -0.10482783198E+03 -0.11473816895E+04  0.11522671636E+04  0.00000000000E+00 0. -1.
          1    1    1    2  502    0  0.59807874376E+02 -0.23536097655E+02  0.10775692236E+03  0.12546905614E+03  0.00000000000E+00 0. -1.
         22    1    3    3    0    0 -0.10831781272E+02  0.14264341044E+03 -0.60175870240E+02  0.15519537811E+03  0.00000000000E+00 0.  1.
         22    1    3    3    0    0 -0.33291688476E+02 -0.14279480800E+02 -0.42961137362E+02  0.56195190336E+02  0.00000000000E+00 0.  1.
</event>
<event>
 7    1  0.5622879E-006  0.8838696E+02  0.7818608E-02  0.1461950E+00
          2   -1    0    0  502    0  0.00000000000E+00  0.00000000000E+00  0.87756823892E+02  0.87756823892E+02  0.00000000000E+00 0. -1.
          1   -1    0    0  501    0 -0.00000000000E+00 -0.00000000000E+00 -0.18800346953E+04  0.18800346953E+04  0.00000000000E+00 0. -1.
         25    2    1    2    0    0  0.94030980971E+01  0.74471155240E+02 -0.14968514051E+03  0.20896220019E+03  0.12500075440E+03 0.  0.
          2    1    1    2  501    0 -0.33080345668E+02 -0.82628065544E+02 -0.16967917000E+04  0.16991244156E+04  0.00000000000E+00 0. -1.
          1    1    1    2  502    0  0.23677247571E+02  0.81569103036E+01  0.54198969107E+02  0.59704903404E+02  0.00000000000E+00 0. -1.
         22    1    3    3    0    0  0.11249133528E+02 -0.34334667933E+02 -0.47540742868E+02  0.59712098101E+02  0.00000000000E+00 0.  1.
         22    1    3    3    0    0 -0.18460354310E+01  0.10880582317E+03 -0.10214439765E+03  0.14925010209E+03  0.00000000000E+00 0.  1.
</event>
<event>
 7    1  0.5622879E-006  0.9736492E+02  0.7818608E-02  0.1352818E+00
          2   -1    0    0  502    0  0.00000000000E+00  0.00000000000E+00  0.14289919839E+03  0.14289919839E+03  0.00000000000E+00 0. -1.
          1   -1    0    0  501    0 -0.00000000000E+00 -0.00000000000E+00 -0.58449931168E+03  0.58449931168E+03  0.00000000000E+00 0. -1.
         25    2    1    2    0    0  0.21089364007E+02 -0.95952030207E+02 -0.16104099159E+03  0.22629612009E+03  0.12499671843E+03 0.  0.
          2    1    1    2  501    0  0.32397706819E+02  0.94178612805E+02 -0.37747474780E+03  0.39039263280E+03  0.00000000000E+00 0. -1.
          1    1    1    2  502    0 -0.53487070827E+02  0.17734174026E+01  0.96915626101E+02  0.11070975719E+03  0.00000000000E+00 0. -1.
         22    1    3    3    0    0 -0.26175573263E+02 -0.10412962095E+03 -0.87564308323E+02  0.13854835505E+03  0.00000000000E+00 0. -1.
         22    1    3    3    0    0  0.47264937271E+02  0.81775907402E+01 -0.73476683270E+02  0.87747765042E+02  0.00000000000E+00 0. -1.
</event>
<event>
 7    1  0.5622879E-006  0.4075829E+02  0.7818608E-02  0.1592006E+00
          2   -1    0    0  502    0  0.00000000000E+00  0.00000000000E+00  0.48945988657E+03  0.48945988657E+03  0.00000000000E+00 0. -1.
          1   -1    0    0  501    0 -0.00000000000E+00 -0.00000000000E+00 -0.13922055537E+04  0.13922055537E+04  0.00000000000E+00 0. -1.
         25    2    1    2    0    0 -0.27523059052E+01 -0.19027617704E+02 -0.19666356321E+03  0.23382104156E+03  0.12500438775E+03 0.  0.
          2    1    1    2  501    0  0.15128945513E+02  0.38306602968E+02 -0.11763239850E+04  0.11770447733E+04  0.00000000000E+00 0. -1.
          1    1    1    2  502    0 -0.12376639607E+02 -0.19278985263E+02  0.47024188109E+03  0.47079962534E+03  0.00000000000E+00 0. -1.
         22    1    3    3    0    0  0.41751940284E+02  0.26804763247E+02 -0.37126665528E+02  0.61968614180E+02  0.00000000000E+00 0.  1.
         22    1    3    3    0    0 -0.44504246190E+02 -0.45832380951E+02 -0.15953689768E+03  0.17185242738E+03  0.00000000000E+00 0.  1.
</event>
<event>
 7    1  0.6604011E-006  0.1203578E+03  0.7818608E-02  0.1281903E+00
          2   -1    0    0  502    0  0.00000000000E+00  0.00000000000E+00  0.25801371376E+04  0.25801371376E+04  0.00000000000E+00 0. -1.
          1   -1    0    0  501    0 -0.00000000000E+00 -0.00000000000E+00 -0.36677528098E+03  0.36677528098E+03  0.00000000000E+00 0. -1.
         25    2    1    2    0    0 -0.15993072693E+03  0.98880683832E+02 -0.88190566809E+02  0.24242069320E+03  0.12503995108E+03 0.  0.
          2    1    1    2  501    0  0.84668542537E+02 -0.66768041122E+02 -0.18632127703E+03  0.21527273790E+03  0.00000000000E+00 0. -1.
          1    1    1    2  502    0  0.75262184392E+02 -0.32112642709E+02  0.24878737005E+04  0.24892189875E+04  0.00000000000E+00 0. -1.
         22    1    3    3    0    0 -0.12325321692E+03  0.74703431769E+02 -0.12052191153E+03  0.18787626076E+03  0.00000000000E+00 0. -1.
         22    1    3    3    0    0 -0.36677510013E+02  0.24177252062E+02  0.32331344726E+02  0.54544432436E+02  0.00000000000E+00 0. -1.
</event>
<event>
 7    1  0.5622879E-006  0.1242530E+03  0.7818608E-02  0.1343979E+00
          2   -1    0    0  502    0  0.00000000000E+00  0.00000000000E+00  0.93456706831E+03  0.93456706831E+03  0.00000000000E+00 0. -1.
          1   -1    0    0  501    0 -0.00000000000E+00 -0.00000000000E+00 -0.51075887234E+03  0.51075887234E+03  0.00000000000E+00 0. -1.
         25    2    1    2    0    0 -0.76488406989E+02  0.25361740165E+02  0.36289349028E+03  0.39218140926E+03  0.12498351177E+03 0.  0.
          2    1    1    2  501    0  0.11550299637E+03 -0.48241719824E+02 -0.48727328762E+03  0.50309389038E+03  0.00000000000E+00 0. -1.
          1    1    1    2  502    0 -0.39014589380E+02  0.22879979659E+02  0.54818799331E+03  0.55005064100E+03  0.00000000000E+00 0. -1.
         22    1    3    3    0    0  0.37669883699E+01 -0.42343083919E+02  0.12837578888E+03  0.13523117291E+03  0.00000000000E+00 0.  1.
         22    1    3    3    0    0 -0.80255395359E+02  0.67704824084E+02  0.23451770140E+03  0.25695023635E+03  0.00000000000E+00 0.  1.
</event>
<event>
 7    1  0.5622879E-006  0.1544673E+03  0.7818608E-02  0.1416269E+00
          2   -1    0    0  502    0  0.00000000000E+00  0.00000000000E+00  0.88100332768E+03  0.88100332768E+03  0.00000000000E+00 0. -1.
          1   -1    0    0  501    0 -0.00000000000E+00 -0.00000000000E+00 -0.10707514877E+04  0.10707514877E+04  0.00000000000E+00 0. -1.
         25    2    1    2    0    0  0.13430790131E+03 -0.22951425203E+02  0.17699468398E+03  0.25596412145E+03  0.12500053217E+03 0.  0.
          2    1    1    2  501    0 -0.15118757320E+03  0.33993135793E+02 -0.10252901955E+04  0.10369345209E+04  0.00000000000E+00 0. -1.
          1    1    1    2  502    0  0.16879671895E+02 -0.11041710590E+02  0.65854735147E+03  0.65885617310E+03  0.00000000000E+00 0. -1.
         22    1    3    3    0    0  0.11681150740E+03 -0.56642280373E+02  0.17507123362E+03  0.21795231825E+03  0.00000000000E+00 0.  1.
         22    1    3    3    0    0  0.17496393903E+02  0.33690855170E+02  0.19234503596E+01  0.38011803206E+02  0.00000000000E+00 0.  1.
</event>
<event>
 7    1  0.5622879E-006  0.6332978E+02  0.7818608E-02  0.1387240E+00
          2   -1    0    0  502    0  0.00000000000E+00  0.00000000000E+00  0.94875985991E+03  0.94875985991E+03  0.00000000000E+00 0. -1.
          1   -1    0    0  501    0 -0.00000000000E+00 -0.00000000000E+00 -0.32913554576E+03  0.32913554576E+03  0.00000000000E+00 0. -1.
         25    2    1    2    0    0 -0.36775660223E+02  0.12958535944E+02  0.46265525773E+02  0.13887618723E+03  0.12500289463E+03 0.  0.
          2    1    1    2  501    0  0.39200462657E+02  0.50324806151E+02 -0.27804224288E+03  0.28526610596E+03  0.00000000000E+00 0. -1.
          1    1    1    2  502    0 -0.24248024338E+01 -0.63283342095E+02  0.85140103126E+03  0.85375311249E+03  0.00000000000E+00 0. -1.
         22    1    3    3    0    0 -0.58636387001E+02  0.54261127105E+02  0.11682226811E+02  0.80740140070E+02  0.00000000000E+00 0.  1.
         22    1    3    3    0    0  0.21860726777E+02 -0.41302591162E+02  0.34583298962E+02  0.58136047156E+02  0.00000000000E+00 0.  1.
</event>
<event>
 7    1  0.5622879E-006  0.1055135E+03  0.7818608E-02  0.1447384E+00
          2   -1    0    0  502    0  0.00000000000E+00  0.00000000000E+00  0.32257495576E+04  0.32257495576E+04  0.00000000000E+00 0. -1.
          1   -1    0    0  501    0 -0.00000000000E+00 -0.00000000000E+00 -0.36879120216E+03  0.36879120216E+03  0.00000000000E+00 0. -1.
         25    2    1    2    0    0  0.54971586885E+02  0.10534983232E+03  0.52746773706E+02  0.18035083191E+03  0.12499495149E+03 0.  0.
          2    1    1    2  501    0  0.89045719903E+01 -0.21572367228E+02 -0.30364885891E+03  0.30454439405E+03  0.00000000000E+00 0. -1.
          1    1    1    2  502    0 -0.63876158875E+02 -0.83777465095E+02  0.31078604406E+04  0.31096455338E+04  0.00000000000E+00 0. -1.
         22    1    3    3    0    0  0.77266153414E+02  0.83405787597E+02 -0.59368479392E+01  0.11385003308E+03  0.00000000000E+00 0. -1.
         22    1    3    3    0    0 -0.22294566529E+02  0.21944044727E+02  0.58683621645E+02  0.66500798830E+02  0.00000000000E+00 0. -1.
</event>
<event>
 7    1  0.5622879E-006  0.9822992E+02  0.7818608E-02  0.1476452E+00
          2   -1    0    0  502    0  0.00000000000E+00  0.00000000000E+00  0.11077943080E+04  0.11077943080E+04  0.00000000000E+00 0. -1.
          1   -1    0    0  501    0 -0.00000000000E+00 -0.00000000000E+00 -0.33666412094E+02  0.33666412094E+02  0.00000000000E+00 0. -1.
         25    2    1    2    0    0  0.87026566566E+02 -0.25476910278E+02  0.28055422978E+03  0.32024456046E+03  0.12499282544E+03 0.  0.
          2    1    1    2  501    0 -0.93526734182E+02  0.44716467115E+02  0.18314119508E+03  0.21044597828E+03  0.00000000000E+00 0. -1.
          1    1    1    2  502    0  0.65001676155E+01 -0.19239556837E+02  0.61043247106E+03  0.61077018137E+03  0.00000000000E+00 0. -1.
         22    1    3    3    0    0 -0.55220943253E+01 -0.47413535876E+02  0.15835279878E+03  0.16539088788E+03  0.00000000000E+00 0.  1.
         22    1    3    3    0    0  0.92548660891E+02  0.21936625598E+02  0.12220143100E+03  0.15485367259E+03  0.00000000000E+00 0.  1.
</event>
<event>
 7    1  0.5622879E-006  0.6036474E+02  0.7818608E-02  0.1444991E+00
          2   -1    0    0  502    0  0.00000000000E+00  0.00000000000E+00  0.20944578911E+02  0.20944578911E+02  0.00000000000E+00 0. -1.
          1   -1    0    0  501    0 -0.00000000000E+00 -0.00000000000E+00 -0.77444774045E+03  0.77444774045E+03  0.00000000000E+00 0. -1.
         25    2    1    2    0    0 -0.32012070270E+02 -0.23200083739E+01 -0.46931886004E+03  0.48674009787E+03  0.12500230157E+03 0.  0.
          2    1    1    2  501    0 -0.31265974735E+02  0.27323481945E+02 -0.17615210671E+03  0.18097982910E+03  0.00000000000E+00 0. -1.
          1    1    1    2  502    0  0.63278045005E+02 -0.25003473572E+02 -0.10803219479E+03  0.12767239240E+03  0.00000000000E+00 0. -1.
         22    1    3    3    0    0 -0.46915041779E+02  0.46756259203E+02 -0.15952507795E+03  0.17272932413E+03  0.00000000000E+00 0.  1.
         22    1    3    3    0    0  0.14902971510E+02 -0.49076267577E+02 -0.30979378210E+03  0.31401077374E+03  0.00000000000E+00 0.  1.
</event>
<event>
 7    1  0.5622879E-006  0.3301079E+02  0.7818608E-02  0.1592042E+00
          2   -1    0    0  502    0  0.00000000000E+00  0.00000000000E+00  0.89239170887E+03  0.89239170887E+03  0.00000000000E+00 0. -1.
          1   -1    0    0  501    0 -0.00000000000E+00 -0.00000000000E+00 -0.72825778550E+02  0.72825778550E+02  0.00000000000E+00 0. -1.
         25    2    1    2    0    0 -0.11496894090E+02  0.73772491121E+01  0.47045435693E+02  0.13425745139E+03  0.12500075143E+03 0.  0.
          2    1    1    2  501    0  0.11498342276E+02  0.25837405330E+02 -0.21947700727E+02  0.35797834522E+02  0.00000000000E+00 0. -1.
          1    1    1    2  502    0 -0.14481853762E-02 -0.33214654442E+02  0.79446819535E+03  0.79516220150E+03  0.00000000000E+00 0. -1.
         22    1    3    3    0    0 -0.37914723050E+01 -0.49593547193E+02 -0.12710759765E+02  0.51336717846E+02  0.00000000000E+00 0.  1.
         22    1    3    3    0    0 -0.77054217853E+01  0.56970796305E+02  0.59756195458E+02  0.82920733548E+02  0.00000000000E+00 0.  1.
</event>
<event>
 7    1  0.5622879E-006  0.4996814E+02  0.7818608E-02  0.1451648E+00
          2   -1    0    0  502    0  0.00000000000E+00  0.00000000000E+00  0.28487942344E+03  0.28487942344E+03  0.00000000000E+00 0. -1.
          1   -1    0    0  501    0 -0.00000000000E+00 -0.00000000000E+00 -0.65550143194E+03  0.65550143194E+03  0.00000000000E+00 0. -1.
         25    2    1    2    0    0 -0.13937945786E+02 -0.16566114453E+02 -0.33455909593E+03  0.35780378298E+03  0.12500022386E+03 0.  0.
          2    1    1    2  501    0 -0.10571519859E+02  0.57552805710E+02 -0.30442556263E+03  0.30999839622E+03  0.00000000000E+00 0. -1.
          1    1    1    2  502    0  0.24509465645E+02 -0.40986691257E+02  0.26836265006E+03  0.27257867619E+03  0.00000000000E+00 0. -1.
         22    1    3    3    0    0  0.25085093481E+02 -0.11699646844E+02 -0.31043941984E+03  0.31167094353E+03  0.00000000000E+00 0. -1.
         22    1    3    3    0    0 -0.39023039267E+02 -0.48664676093E+01 -0.24119676083E+02  0.46132839442E+02  0.00000000000E+00 0. -1.
</event>
<event>
 7    1  0.5622879E-006  0.7049650E+02  0.7818608E-02  0.1456532E+00
          2   -1    0    0  502    0  0.00000000000E+00  0.00000000000E+00  0.35589019815E+03  0.35589019815E+03  0.00000000000E+00 0. -1.
          1   -1    0    0  501    0 -0.00000000000E+00 -0.00000000000E+00 -0.63691996071E+03  0.63691996071E+03  0.00000000000E+00 0. -1.
         25    2    1    2    0    0  0.28926714507E+02  0.35763021322E+02 -0.48357204098E+01  0.13327831117E+03  0.12499590205E+03 0.  0.
          2    1    1    2  501    0 -0.61583117219E+02 -0.36241748176E+02 -0.56469002040E+03  0.56919308128E+03  0.00000000000E+00 0. -1.
          1    1    1    2  502    0  0.32656402712E+02  0.47872685374E+00  0.28849597825E+03  0.29033876641E+03  0.00000000000E+00 0. -1.
         22    1    3    3    0    0 -0.26830058944E+02 -0.21641402189E+02  0.30285726117E+02  0.45884938249E+02  0.00000000000E+00 0. -1.
         22    1    3    3    0    0  0.55756773451E+02  0.57404423511E+02 -0.35121446527E+02  0.87393372921E+02  0.00000000000E+00 0. -1.
</event>
<event>
 7    1  0.5622879E-006  0.1180883E+03  0.7818608E-02  0.1318122E+00
          2   -1    0    0  502    0  0.00000000000E+00  0.00000000000E+00  0.13966705931E+04  0.13966705931E+04  0.00000000000E+00 0. -1.
          1   -1    0    0  501    0 -0.00000000000E+00 -0.00000000000E+00 -0.54984804420E+03  0.54984804420E+03  0.00000000000E+00 0. -1.
         25    2    1    2    0    0  0.15670902938E+03  0.31794319325E+02  0.20680712371E+03  0.28976072812E+03  0.12499397792E+03 0.  0.
          2    1    1    2  501    0 -0.11649133735E+03  0.12358070881E+02 -0.50083126807E+03  0.51434901835E+03  0.00000000000E+00 0. -1.
          1    1    1    2  502    0 -0.40217692024E+02 -0.44152390206E+02  0.11408466932E+04  0.11424088908E+04  0.00000000000E+00 0. -1.
         22    1    3    3    0    0  0.37753195713E+02  0.46049647571E+01 -0.11441147998E+02  0.39716613079E+02  0.00000000000E+00 0. -1.
         22    1    3    3    0    0  0.11895583366E+03  0.27189354568E+02  0.21824827170E+03  0.25004411504E+03  0.00000000000E+00 0. -1.
</event>
<event>
 7    1  0.5622879E-006  0.7404627E+02  0.7818608E-02  0.1398389E+00
          2   -1    0    0  502    0  0.00000000000E+00  0.00000000000E+00  0.28463099436E+03  0.28463099436E+03  0.00000000000E+00 0. -1.
          1   -1    0    0  501    0 -0.00000000000E+00 -0.00000000000E+00 -0.10275074162E+03  0.10275074162E+03  0.00000000000E+00 0. -1.
         25    2    1    2    0    0  0.92751667321E+02 -0.42496687156E+02  0.20702281152E+03  0.26247020934E+03  0.12499330420E+03 0.  0.
          2    1    1    2  501    0 -0.45826851379E+02  0.54370003352E+02 -0.16936956580E+01  0.71127112811E+02  0.00000000000E+00 0. -1.
          1    1    1    2  502    0 -0.46924815942E+02 -0.11873316196E+02 -0.23448863115E+02  0.53784413821E+02  0.00000000000E+00 0. -1.
         22    1    3    3    0    0  0.10715766900E+02  0.41161105432E+02  0.39554083727E+02  0.58082611857E+02  0.00000000000E+00 0.  1.
         22    1    3    3    0    0  0.82035900421E+02 -0.83657792589E+02  0.16746872779E+03  0.20438759749E+03  0.00000000000E+00 0.  1.
</event>
<event>
 7    1  0.5622879E-006  0.1205105E+03  0.7818608E-02  0.1278842E+00
          2   -1    0    0  502    0  0.00000000000E+00  0.00000000000E+00  0.47893968119E+03  0.47893968119E+03  0.00000000000E+00 0. -1.
          1   -1    0    0  501    0 -0.00000000000E+00 -0.00000000000E+00 -0.33261201690E+04  0.33261201690E+04  0.00000000000E+00 0. -1.
         25    2    1    2    0    0 -0.12649905118E+03  0.29909645177E+02 -0.99746702373E+02  0.20608703516E+03  0.12500345836E+03 0.  0.
          2    1    1    2  501    0  0.16904713317E+02 -0.82421017900E+02 -0.31639610767E+04  0.31650795706E+04  0.00000000000E+00 0. -1.
          1    1    1    2  502    0  0.10959433786E+03  0.52511372723E+02  0.41652729127E+03  0.43389324439E+03  0.00000000000E+00 0. -1.
         22    1    3    3    0    0 -0.21526551459E+02 -0.19007601181E+02 -0.84537398536E+02  0.89281874261E+02  0.00000000000E+00 0.  1.
         22    1    3    3    0    0 -0.10497249972E+03  0.48917246358E+02 -0.15209303837E+02  0.11680516089E+03  0.00000000000E+00 0.  1.
</event>
<event>
 7    1  0.5622879E-006  0.1684391E+03  0.7818608E-02  0.1282961E+00
          2   -1    0    0  502    0  0.00000000000E+00  0.00000000000E+00  0.24231720826E+04  0.24231720826E+04  0.00000000000E+00 0. -1.
          1   -1    0    0  501    0 -0.00000000000E+00 -0.00000000000E+00 -0.57900699610E+02  0.57900699610E+02  0.00000000000E+00 0. -1.
         25    2    1    2    0    0  0.67544480435E+02 -0.98374553213E+02  0.31721581110E+03  0.36123503023E+03  0.12500026678E+03 0.  0.
          2    1    1    2  501    0  0.38209910841E+02 -0.43483103168E+02 -0.59811858854E+01  0.58194090183E+02  0.00000000000E+00 0. -1.
          1    1    1    2  502    0 -0.10575439128E+03  0.14185765638E+03  0.20540367578E+04  0.20616436618E+04  0.00000000000E+00 0. -1.
         22    1    3    3    0    0  0.61307386452E+02 -0.55561556519E+02  0.30536628003E+03  0.31637674879E+03  0.00000000000E+00 0.  1.
         22    1    3    3    0    0  0.62370939829E+01 -0.42812996694E+02  0.11849531077E+02  0.44858281443E+02  0.00000000000E+00 0.  1.
</event>
<event>
 7    1  0.5622879E-006  0.3157754E+02  0.7818608E-02  0.1590071E+00
          2   -1    0    0  502    0  0.00000000000E+00  0.00000000000E+00  0.20518294035E+04  0.20518294035E+04  0.00000000000E+00 0. -1.
          1   -1    0    0  501    0 -0.00000000000E+00 -0.00000000000E+00 -0.11763636970E+03  0.11763636970E+03  0.00000000000E+00 0. -1.
         25    2    1    2    0    0 -0.25867591591E+01 -0.40169463089E+01  0.18941328286E+04  0.18982589257E+04  0.12499979764E+03 0.  0.
          2    1    1    2  501    0 -0.16931827136E+02  0.26694783824E+02 -0.11192547375E+03  0.11630395491E+03  0.00000000000E+00 0. -1.
          1    1    1    2  502    0  0.19518586295E+02 -0.22677837515E+02  0.15198567903E+03  0.15490289266E+03  0.00000000000E+00 0. -1.
         22    1    3    3    0    0  0.56777957782E+02 -0.24866400294E+02  0.88811263714E+03  0.89027306519E+03  0.00000000000E+00 0. -1.
         22    1    3    3    0    0 -0.59364716941E+02  0.20849453985E+02  0.10060201914E+04  0.10079858605E+04  0.00000000000E+00 0. -1.
</event>
<event>
 7    1  0.5622879E-006  0.5181350E+02  0.7818608E-02  0.1490322E+00
          2   -1    0    0  502    0  0.00000000000E+00  0.00000000000E+00  0.90675971280E+03  0.90675971280E+03  0.00000000000E+00 0. -1.
          1   -1    0    0  501    0 -0.00000000000E+00 -0.00000000000E+00 -0.19979228193E+03  0.19979228193E+03  0.00000000000E+00 0. -1.
         25    2    1    2    0    0 -0.27189027990E+02  0.38243933508E+02  0.52057453193E+02  0.14328054613E+03  0.12496997549E+03 0.  0.
          2    1    1    2  501    0  0.50985647356E+02 -0.12682738474E+02 -0.14931484950E+03  0.15828869945E+03  0.00000000000E+00 0. -1.
          1    1    1    2  502    0 -0.23796619365E+02 -0.25561195034E+02  0.80422482718E+03  0.80498274915E+03  0.00000000000E+00 0. -1.
         22    1    3    3    0    0 -0.74047812043E+02  0.89726032461E+01  0.13234605041E+02  0.75754477412E+02  0.00000000000E+00 0. -1.
         22    1    3    3    0    0  0.46858784053E+02  0.29271330261E+02  0.38822848153E+02  0.67526068721E+02  0.00000000000E+00 0. -1.
</event>
<event>
 7    1  0.5622879E-006  0.1088249E+03  0.7818608E-02  0.1362036E+00
          2   -1    0    0  502    0  0.00000000000E+00  0.00000000000E+00  0.15784973693E+04  0.15784973693E+04  0.00000000000E+00 0. -1.
          1   -1    0    0  501    0 -0.00000000000E+00 -0.00000000000E+00 -0.42770829519E+03  0.42770829519E+03  0.00000000000E+00 0. -1.
         25    2    1    2    0    0  0.40172322574E+02  0.91715635222E+02 -0.93126666144E+02  0.18527369689E+03  0.12501277361E+03 0.  0.
          2    1    1    2  501    0 -0.81968106895E+02 -0.77036463491E+02 -0.27720889636E+03  0.29916242992E+03  0.00000000000E+00 0. -1.
          1    1    1    2  502    0  0.41795784321E+02 -0.14679171731E+02  0.15211246367E+04  0.15217695377E+04  0.00000000000E+00 0. -1.
         22    1    3    3    0    0 -0.12040947243E+02 -0.44507342546E+01  0.22607845534E+02  0.25998233125E+02  0.00000000000E+00 0.  1.
         22    1    3    3    0    0  0.52213269817E+02  0.96166369477E+02 -0.11573451168E+03  0.15927546376E+03  0.00000000000E+00 0.  1.
</event>
<event>
 7    1  0.5622879E-006  0.9473044E+02  0.7818608E-02  0.1463642E+00
          2   -1    0    0  502    0  0.00000000000E+00  0.00000000000E+00  0.41405622631E+03  0.41405622631E+03  0.00000000000E+00 0. -1.
          1   -1    0    0  501    0 -0.00000000000E+00 -0.00000000000E+00 -0.13736548150E+03  0.13736548150E+03  0.00000000000E+00 0. -1.
         25    2    1    2    0    0 -0.81379221097E+02  0.54534999961E+02 -0.20942663520E+02  0.16018954538E+03  0.12500180577E+03 0.  0.
          2    1    1    2  501    0 -0.74776432426E+01 -0.21836858936E+02 -0.36918570708E+02  0.43540147218E+02  0.00000000000E+00 0. -1.
          1    1    1    2  502    0  0.88856864340E+02 -0.32698141025E+02  0.33455197904E+03  0.34769201521E+03  0.00000000000E+00 0. -1.
         22    1    3    3    0    0  0.23689402017E+01 -0.42066296113E+01 -0.52821766955E+02  0.53041933172E+02  0.00000000000E+00 0.  1.
         22    1    3    3    0    0 -0.83748161299E+02  0.58741629572E+02  0.31879103435E+02  0.10714761221E+03  0.00000000000E+00 0.  1.
</event>
<event>
 7    1  0.5622879E-006  0.7650989E+02  0.7818608E-02  0.1348360E+00
          2   -1    0    0  502    0  0.00000000000E+00  0.00000000000E+00  0.16938994094E+03  0.16938994094E+03  0.00000000000E+00 0. -1.
          1   -1    0    0  501    0 -0.00000000000E+00 -0.00000000000E+00 -0.13337412332E+04  0.13337412332E+04  0.00000000000E+00 0. -1.
         25    2    1    2    0    0 -0.29899532399E+02  0.68959866777E+01 -0.61212128413E+03  0.62550722146E+03  0.12500112375E+03 0.  0.
          2    1    1    2  501    0  0.99367914653E+02 -0.20255655731E+02 -0.70342525623E+03  0.71069780157E+03  0.00000000000E+00 0. -1.
          1    1    1    2  502    0 -0.69468382253E+02  0.13359669053E+02  0.15119524808E+03  0.16692615113E+03  0.00000000000E+00 0. -1.
         22    1    3    3    0    0 -0.41673568691E+02  0.56139391270E+02 -0.24063252322E+03  0.25058397557E+03  0.00000000000E+00 0. -1.
         22    1    3    3    0    0  0.11774036292E+02 -0.49243404593E+02 -0.37148876091E+03  0.37492324589E+03  0.00000000000E+00 0. -1.
</event>
<event>
 7    1  0.5622879E-006  0.1453659E+03  0.7818608E-02  0.1307960E+00
          2   -1    0    0  502    0  0.00000000000E+00  0.00000000000E+00  0.98451945015E+03  0.98451945015E+03  0.00000000000E+00 0. -1.
          1   -1    0    0  501    0 -0.00000000000E+00 -0.00000000000E+00 -0.47001132822E+03  0.47001132822E+03  0.00000000000E+00 0. -1.
         25    2    1    2    0    0  0.11442238512E+03 -0.15851663133E+03  0.14918527782E+03  0.27586405023E+03  0.12499888986E+03 0.  0.
          2    1    1    2  501    0 -0.81083154080E+02  0.11708501836E+03 -0.39324329831E+03  0.41823877279E+03  0.00000000000E+00 0. -1.
          1    1    1    2  502    0 -0.33339231037E+02  0.41431612972E+02  0.75856614241E+03  0.76042795536E+03  0.00000000000E+00 0. -1.
         22    1    3    3    0    0  0.15818971568E+02  0.20770102467E+02  0.81382070000E+01  0.27347164956E+02  0.00000000000E+00 0. -1.
         22    1    3    3    0    0  0.98603413550E+02 -0.17928673379E+03  0.14104707082E+03  0.24851688527E+03  0.00000000000E+00 0. -1.
</event>
<event>
 7    1  0.5622879E-006  0.1212420E+03  0.7818608E-02  0.1296260E+00
          2   -1    0    0  502    0  0.00000000000E+00  0.00000000000E+00  0.21841664014E+03  0.21841664014E+03  0.00000000000E+00 0. -1.
          1   -1    0    0  501    0 -0.00000000000E+00 -0.00000000000E+00 -0.75621954712E+03  0.75621954712E+03  0.00000000000E+00 0. -1.
         25    2    1    2    0    0  0.42309649100E+02  0.77153864913E+02 -0.55968238858E+02  0.16278676684E+03  0.12499704964E+03 0.  0.
          2    1    1    2  501    0 -0.11131740899E+03 -0.60467006214E+02 -0.63262366682E+03  0.64518255417E+03  0.00000000000E+00 0. -1.
          1    1    1    2  502    0  0.69007759886E+02 -0.16686858698E+02  0.15078899870E+03  0.16666686625E+03  0.00000000000E+00 0. -1.
         22    1    3    3    0    0 -0.32385360795E+02  0.65015783624E+02 -0.47157489854E+02  0.86600765375E+02  0.00000000000E+00 0.  1.
         22    1    3    3    0    0  0.74695009895E+02  0.12138081289E+02 -0.88107490037E+01  0.76186001461E+02  0.00000000000E+00 0.  1.
</event>
<event>
 7    1  0.5622879E-006  0.1273338E+03  0.7818608E-02  0.1290627E+00
          2   -1    0    0  502    0  0.00000000000E+00  0.00000000000E+00  0.30224032505E+04  0.30224032505E+04  0.00000000000E+00 0. -1.
          1   -1    0    0  501    0 -0.00000000000E+00 -0.00000000000E+00 -0.46016115225E+02  0.46016115225E+02  0.00000000000E+00 0. -1.
         25    2    1    2    0    0  0.12415584025E+03  0.12457354701E+03  0.19763897802E+04  0.19881335060E+04  0.12500013261E+03 0.  0.
          2    1    1    2  501    0 -0.47569234895E+02 -0.53033053452E+02 -0.35032471983E+01  0.71327481435E+02  0.00000000000E+00 0. -1.
          1    1    1    2  502    0 -0.76586605357E+02 -0.71540493558E+02  0.10035006022E+04  0.10089583782E+04  0.00000000000E+00 0. -1.
         22    1    3    3    0    0  0.21227329692E+02  0.91838073181E+02  0.12746284579E+04  0.12781089691E+04  0.00000000000E+00 0.  1.
         22    1    3    3    0    0  0.10292851056E+03  0.32735473830E+02  0.70176132230E+03  0.71002453691E+03  0.00000000000E+00 0.  1.
</event>
<event>
 7    1  0.5622879E-006  0.8202612E+02  0.7818608E-02  0.1418157E+00
          2   -1    0    0  502    0  0.00000000000E+00  0.00000000000E+00  0.16779299025E+04  0.16779299025E+04  0.00000000000E+00 0. -1.
          1   -1    0    0  501    0 -0.00000000000E+00 -0.00000000000E+00 -0.86583244287E+03  0.86583244287E+03  0.00000000000E+00 0. -1.
         25    2    1    2    0    0  0.39179638309E+02 -0.88465590839E+02  0.56865404538E+02  0.16798785305E+03  0.12500015887E+03 0.  0.
          2    1    1    2  501    0  0.19857956753E+02  0.31732901220E+02 -0.80876740235E+03  0.80963326671E+03  0.00000000000E+00 0. -1.
          1    1    1    2  502    0 -0.59037595062E+02  0.56732689619E+02  0.15639994574E+04  0.15661412256E+04  0.00000000000E+00 0. -1.
         22    1    3    3    0    0 -0.10754527644E+02  0.25139600062E+02 -0.72782488356E+01  0.28295445963E+02  0.00000000000E+00 0.  1.
         22    1    3    3    0    0  0.49934165953E+02 -0.11360519090E+03  0.64143653374E+02  0.13969240709E+03  0.00000000000E+00 0.  1.
</event>
<event>
 7    1  0.5622879E-006  0.6253702E+02  0.7818608E-02  0.1484153E+00
          2   -1    0    0  502    0  0.00000000000E+00  0.00000000000E+00  0.10126840943E+03  0.10126840943E+03  0.00000000000E+00 0. -1.
          1   -1    0    0  501    0 -0.00000000000E+00 -0.00000000000E+00 -0.80370044165E+03  0.80370044165E+03  0.00000000000E+00 0. -1.
         25    2    1    2    0    0  0.60461561359E+01  0.56333552124E+02 -0.15998185358E+02  0.13817550779E+03  0.12500601553E+03 0.  0.
          2    1    1    2  501    0  0.30201144067E+02 -0.75613475486E+00 -0.69866891900E+03  0.69932177088E+03  0.00000000000E+00 0. -1.
          1    1    1    2  502    0 -0.36247300202E+02 -0.55577417369E+02  0.12235072139E+02  0.67471572411E+02  0.00000000000E+00 0. -1.
         22    1    3    3    0    0  0.63638642188E+02  0.30174270093E+02 -0.24021405261E+02  0.74413649728E+02  0.00000000000E+00 0. -1.
         22    1    3    3    0    0 -0.57592486052E+02  0.26159282031E+02  0.80232199032E+01  0.63761858063E+02  0.00000000000E+00 0. -1.
</event>
<event>
 7    1  0.5622879E-006  0.1846417E+03  0.7818608E-02  0.1282581E+00
          2   -1    0    0  502    0  0.00000000000E+00  0.00000000000E+00  0.80248528314E+03  0.80248528314E+03  0.00000000000E+00 0. -1.
          1   -1    0    0  501    0 -0.00000000000E+00 -0.00000000000E+00 -0.75492249613E+03  0.75492249613E+03  0.00000000000E+00 0. -1.
         25    2    1    2    0    0 -0.11342414759E+03 -0.10554491327E+03  0.49568591324E+01  0.19913463745E+03  0.12500106962E+03 0.  0.
          2    1    1    2  501    0  0.16484392101E+03  0.92712129562E+02 -0.64319660384E+03  0.67042593062E+03  0.00000000000E+00 0. -1.
          1    1    1    2  502    0 -0.51419773426E+02  0.12832783709E+02  0.68580253172E+03  0.68784721119E+03  0.00000000000E+00 0. -1.
         22    1    3    3    0    0 -0.68292184936E+02 -0.13019239102E+03  0.10622260788E+02  0.14739984270E+03  0.00000000000E+00 0.  1.
         22    1    3    3    0    0 -0.45131962653E+02  0.24647477750E+02 -0.56654016558E+01  0.51734794754E+02  0.00000000000E+00 0.  1.
</event>
<event>
 7    1  0.5622879E-006  0.1084893E+03  0.7818608E-02  0.1297011E+00
          2   -1    0    0  502    0  0.00000000000E+00  0.00000000000E+00  0.70801864974E+03  0.70801864974E+03  0.00000000000E+00 0. -1.
          1   -1    0    0  501    0 -0.00000000000E+00 -0.00000000000E+00 -0.86252042132E+03  0.86252042132E+03  0.00000000000E+00 0. -1.
         25    2    1    2    0    0  0.17586788996E+03  0.35999997941E+02 -0.55228161768E+02  0.22561208859E+03  0.12500060037E+03 0.  0.
          2    1    1    2  501    0 -0.97219302522E+02 -0.40749169128E+02 -0.71573227966E+03  0.72345337356E+03  0.00000000000E+00 0. -1.
          1    1    1    2  502    0 -0.78648587442E+02  0.47491711873E+01  0.61645866986E+03  0.62147360891E+03  0.00000000000E+00 0. -1.
         22    1    3    3    0    0  0.14570479216E+03  0.79022741592E+02 -0.48068672599E+02  0.17258353755E+03  0.00000000000E+00 0.  1.
         22    1    3    3    0    0  0.30163097803E+02 -0.43022743651E+02 -0.71594891691E+01  0.53028551041E+02  0.00000000000E+00 0.  1.
</event>
<event>
 7    1  0.5622879E-006  0.1462573E+03  0.7818608E-02  0.1221344E+00
          2   -1    0    0  502    0  0.00000000000E+00  0.00000000000E+00  0.36541015774E+03  0.36541015774E+03  0.00000000000E+00 0. -1.
          1   -1    0    0  501    0 -0.00000000000E+00 -0.00000000000E+00 -0.99600659278E+03  0.99600659278E+03  0.00000000000E+00 0. -1.
         25    2    1    2    0    0  0.56543459464E+02 -0.17938379793E+03 -0.31367610003E+03  0.38651528829E+03  0.12500265030E+03 0.  0.
          2    1    1    2  501    0 -0.12346432592E+03  0.76005101778E+02 -0.62580121071E+03  0.64237634654E+03  0.00000000000E+00 0. -1.
          1    1    1    2  502    0  0.66920866453E+02  0.10337869615E+03  0.30888087571E+03  0.33252511568E+03  0.00000000000E+00 0. -1.
         22    1    3    3    0    0  0.24163545035E+02 -0.79391099846E+02 -0.37597642584E+02  0.91106566017E+02  0.00000000000E+00 0.  1.
         22    1    3    3    0    0  0.32379914429E+02 -0.99992698081E+02 -0.27607845745E+03  0.29540872227E+03  0.00000000000E+00 0.  1.
</event>
<event>
 7    1  0.5622879E-006  0.8960605E+02  0.7818608E-02  0.1450046E+00
          2   -1    0    0  502    0  0.00000000000E+00  0.00000000000E+00  0.91196710568E+03  0.91196710568E+03  0.00000000000E+00 0. -1.
          1   -1    0    0  501    0 -0.00000000000E+00 -0.00000000000E+00 -0.91855006750E+03  0.91855006750E+03  0.00000000000E+00 0. -1.
         25    2    1    2    0    0  0.12089643872E+02  0.70643468211E+02  0.84488274083E+02  0.16703172351E+03  0.12499867644E+03 0.  0.
          2    1    1    2  501    0  0.23660857154E+02  0.12894819387E+02 -0.87444460731E+03  0.87485969377E+03  0.00000000000E+00 0. -1.
          1    1    1    2  502    0 -0.35750501026E+02 -0.83538287597E+02  0.78337337141E+03  0.78862575589E+03  0.00000000000E+00 0. -1.
         22    1    3    3    0    0  0.54342218859E+02  0.37299461871E+01  0.66345931469E+02  0.85841550962E+02  0.00000000000E+00 0. -1.
         22    1    3    3    0    0 -0.42252574987E+02  0.66913522023E+02  0.18142342614E+02  0.81190172547E+02  0.00000000000E+00 0. -1.
</event>
<event>
 7    1  0.5622879E-006  0.3040459E+03  0.7818608E-02  0.1278064E+00
          2   -1    0    0  502    0  0.00000000000E+00  0.00000000000E+00  0.90343263575E+03  0.90343263575E+03  0.00000000000E+00 0. -1.
          1   -1    0    0  501    0 -0.00000000000E+00 -0.00000000000E+00 -0.27004115209E+04  0.27004115209E+04  0.00000000000E+00 0. -1.
         25    2    1    2    0    0 -0.29277904336E+03  0.14890936693E+03 -0.60045403168E+03  0.69574687195E+03  0.12500039148E+03 0.  0.
          2    1    1    2  501    0  0.13733320295E+02 -0.30661432319E+02 -0.20253355982E+04  0.20256142310E+04  0.00000000000E+00 0. -1.
          1    1    1    2  502    0  0.27904572307E+03 -0.11824793461E+03  0.82881074470E+03  0.88248305373E+03  0.00000000000E+00 0. -1.
         22    1    3    3    0    0 -0.18182666223E+03  0.10957270250E+03 -0.49132306064E+03  0.53522468380E+03  0.00000000000E+00 0.  1.
         22    1    3    3    0    0 -0.11095238113E+03  0.39336664428E+02 -0.10913097104E+03  0.16052218814E+03  0.00000000000E+00 0.  1.
</event>
<event>
 7    1  0.5622879E-006  0.9840197E+02  0.7818608E-02  0.1415423E+00
          2   -1    0    0  502    0  0.00000000000E+00  0.00000000000E+00  0.25842523568E+04  0.25842523568E+04  0.00000000000E+00 0. -1.
          1   -1    0    0  501    0 -0.00000000000E+00 -0.00000000000E+00 -0.62505383296E+02  0.62505383296E+02  0.00000000000E+00 0. -1.
         25    2    1    2    0    0 -0.81583532611E+02  0.62437475748E+02  0.14364810234E+04  0.14455645878E+04  0.12499974288E+03 0.  0.
          2    1    1    2  501    0  0.26084730410E+02  0.18311543215E+02 -0.51309591839E+02  0.60401986641E+02  0.00000000000E+00 0. -1.
          1    1    1    2  502    0  0.55498802201E+02 -0.80749018963E+02  0.11365755419E+04  0.11407911657E+04  0.00000000000E+00 0. -1.
         22    1    3    3    0    0  0.30432587828E+02  0.31855116845E+02  0.49316831064E+03  0.49513217780E+03  0.00000000000E+00 0. -1.
         22    1    3    3    0    0 -0.11201612044E+03  0.30582358903E+02  0.94331271275E+03  0.95043240999E+03  0.00000000000E+00 0. -1.
</event>
<event>
 7    1  0.5622879E-006  0.8260056E+02  0.7818608E-02  0.1405474E+00
          2   -1    0    0  502    0  0.00000000000E+00  0.00000000000E+00  0.19392123896E+03  0.19392123896E+03  0.00000000000E+00 0. -1.
          1   -1    0    0  501    0 -0.00000000000E+00 -0.00000000000E+00 -0.30765453295E+04  0.30765453295E+04  0.00000000000E+00 0. -1.
         25    2    1    2    0    0 -0.53061544873E+02  0.97105799855E+02 -0.43858378630E+02  0.17264609763E+03  0.12505220406E+03 0.  0.
          2    1    1    2  501    0  0.59844667463E+02 -0.56640090007E+02 -0.29644569205E+04  0.29656018475E+04  0.00000000000E+00 0. -1.
          1    1    1    2  502    0 -0.67831225894E+01 -0.40465709848E+02  0.12569120865E+03  0.13221862334E+03  0.00000000000E+00 0. -1.
         22    1    3    3    0    0 -0.51319963589E+01 -0.26530542180E+02 -0.28309273936E+02  0.39135943144E+02  0.00000000000E+00 0. -1.
         22    1    3    3    0    0 -0.47929548514E+02  0.12363634204E+03 -0.15549104694E+02  0.13351015448E+03  0.00000000000E+00 0. -1.
</event>
<event>
 7    1  0.5622879E-006  0.1750381E+03  0.7818608E-02  0.1360664E+00
          2   -1    0    0  502    0  0.00000000000E+00  0.00000000000E+00  0.59824080051E+03  0.59824080051E+03  0.00000000000E+00 0. -1.
          1   -1    0    0  501    0 -0.00000000000E+00 -0.00000000000E+00 -0.19280807396E+03  0.19280807396E+03  0.00000000000E+00 0. -1.
         25    2    1    2    0    0  0.31946568291E+02  0.14909359176E+03  0.18965998398E+03  0.27357932989E+03  0.12500103156E+03 0.  0.
          2    1    1    2  501    0 -0.39127651572E+02 -0.17601220956E+03 -0.96124094642E+02  0.20433088999E+03  0.00000000000E+00 0. -1.
          1    1    1    2  502    0  0.71810832814E+01  0.26918617799E+02  0.31189683721E+03  0.31313865460E+03  0.00000000000E+00 0. -1.
         22    1    3    3    0    0  0.43478742219E+02  0.38495819625E+02  0.14044546560E+03  0.15197782062E+03  0.00000000000E+00 0. -1.
         22    1    3    3    0    0 -0.11532173929E+02  0.11059777214E+03  0.49214518380E+02  0.12160150927E+03  0.00000000000E+00 0. -1.
</event>
<event>
 7    1  0.5622879E-006  0.8131081E+02  0.7818608E-02  0.1484707E+00
          2   -1    0    0  502    0  0.00000000000E+00  0.00000000000E+00  0.33250468607E+03  0.33250468607E+03  0.00000000000E+00 0. -1.
          1   -1    0    0  501    0 -0.00000000000E+00 -0.00000000000E+00 -0.37417572970E+03  0.37417572970E+03  0.00000000000E+00 0. -1.
         25    2    1    2    0    0  0.47957208867E+02  0.59083904665E+02 -0.32663474487E+02  0.14993788710E+03  0.12499466288E+03 0.  0.
          2    1    1    2  501    0 -0.31844708564E+02 -0.75699683954E+02 -0.27640389046E+03  0.28834638593E+03  0.00000000000E+00 0. -1.
          1    1    1    2  502    0 -0.16112500303E+02  0.16615779288E+02  0.26739632131E+03  0.26839614274E+03  0.00000000000E+00 0. -1.
         22    1    3    3    0    0  0.38552394825E+01  0.39821319012E+02  0.43969501509E+02  0.59446760907E+02  0.00000000000E+00 0. -1.
         22    1    3    3    0    0  0.44101969384E+02  0.19262585653E+02 -0.76632975995E+02  0.90491126192E+02  0.00000000000E+00 0. -1.
</event>
<event>
 7    1  0.5622879E-006  0.4896943E+02  0.7818608E-02  0.1503337E+00
          2   -1    0    0  502    0  0.00000000000E+00  0.00000000000E+00  0.80405159784E+03  0.80405159784E+03  0.00000000000E+00 0. -1.
          1   -1    0    0  501    0 -0.00000000000E+00 -0.00000000000E+00 -0.78081805513E+03  0.78081805513E+03  0.00000000000E+00 0. -1.
         25    2    1    2    0    0  0.23639081363E+01 -0.24031380096E+02 -0.11404659440E+03  0.17092981644E+03  0.12500912432E+03 0.  0.
          2    1    1    2  501    0  0.25651743222E+02  0.42900319474E+02 -0.63698256264E+03  0.63894071278E+03  0.00000000000E+00 0. -1.
          1    1    1    2  502    0 -0.28015651359E+02 -0.18868939378E+02  0.77426269975E+03  0.77499912375E+03  0.00000000000E+00 0. -1.
         22    1    3    3    0    0  0.13324027929E+01 -0.73243065456E+02 -0.44451287755E+02  0.85686865491E+02  0.00000000000E+00 0. -1.
         22    1    3    3    0    0  0.10315053434E+01  0.49211685360E+02 -0.69595306647E+02  0.85242950949E+02  0.00000000000E+00 0. -1.
</event>
<event>
 7    1  0.5622879E-006  0.9644397E+02  0.7818608E-02  0.1352337E+00
          2   -1    0    0  502    0  0.00000000000E+00  0.00000000000E+00  0.35308986540E+03  0.35308986540E+03  0.00000000000E+00 0. -1.
          1   -1    0    0  501    0 -0.00000000000E+00 -0.00000000000E+00 -0.29214637188E+03  0.29214637188E+03  0.00000000000E+00 0. -1.
         25    2    1    2    0    0  0.92280528321E+02  0.86461177230E+02  0.16353995493E+03  0.24156790901E+03  0.12497402422E+03 0.  0.
          2    1    1    2  501    0 -0.89913505971E+02 -0.32264167138E+02 -0.23872506928E+03  0.25712851600E+03  0.00000000000E+00 0. -1.
          1    1    1    2  502    0 -0.23670223498E+01 -0.54197010092E+02  0.13612860787E+03  0.14653981226E+03  0.00000000000E+00 0. -1.
         22    1    3    3    0    0  0.59865724626E+02  0.81427516145E+02  0.17880147589E+03  0.20538820110E+03  0.00000000000E+00 0. -1.
         22    1    3    3    0    0  0.32414803695E+02  0.50336610852E+01 -0.15261520960E+02  0.36179707911E+02  0.00000000000E+00 0. -1.
</event>
<event>
 7    1  0.5622879E-006  0.6452867E+02  0.7818608E-02  0.1463135E+00
          2   -1    0    0  502    0  0.00000000000E+00  0.00000000000E+00  0.58337633198E+03  0.58337633198E+03  0.00000000000E+00 0. -1.
          1   -1    0    0  501    0 -0.00000000000E+00 -0.00000000000E+00 -0.75791454415E+02  0.75791454415E+02  0.00000000000E+00 0. -1.
         25    2    1    2    0    0 -0.36436532510E+02  0.55865784579E+01  0.15507420709E+03  0.20256770189E+03  0.12500733332E+03 0.  0.
          2    1    1    2  501    0 -0.31153082764E+02 -0.13641850953E+02 -0.43254906979E+02  0.55023646197E+02  0.00000000000E+00 0. -1.
          1    1    1    2  502    0  0.67589615274E+02  0.80552724953E+01  0.39576557745E+03  0.40157643831E+03  0.00000000000E+00 0. -1.
         22    1    3    3    0    0  0.30730405048E+02  0.17825730263E+00  0.12509679910E+03  0.12881614306E+03  0.00000000000E+00 0. -1.
         22    1    3    3    0    0 -0.67166937558E+02  0.54083211553E+01  0.29977407992E+02  0.73751558821E+02  0.00000000000E+00 0. -1.
</event>
<event>
 7    1  0.5622879E-006  0.1876342E+03  0.7818608E-02  0.1296678E+00
          2   -1    0    0  502    0  0.00000000000E+00  0.00000000000E+00  0.73159229933E+03  0.73159229933E+03  0.00000000000E+00 0. -1.
          1   -1    0    0  501    0 -0.00000000000E+00 -0.00000000000E+00 -0.22439644544E+04  0.22439644544E+04  0.00000000000E+00 0. -1.
         25    2    1    2    0    0  0.20049891270E+02  0.22138434280E+03 -0.25299192005E+03  0.35922614155E+03  0.12500193512E+03 0.  0.
          2    1    1    2  501    0  0.72716894593E+01 -0.18475346180E+03 -0.19326687637E+04  0.19414930516E+04  0.00000000000E+00 0. -1.
          1    1    1    2  502    0 -0.27321580730E+02 -0.36630880997E+02  0.67328852873E+03  0.67483756055E+03  0.00000000000E+00 0. -1.
         22    1    3    3    0    0  0.36209287842E+02  0.30660182054E+02 -0.76617281370E+01  0.48061017131E+02  0.00000000000E+00 0. -1.
         22    1    3    3    0    0 -0.16159396572E+02  0.19072416074E+03 -0.24533019192E+03  0.31116512442E+03  0.00000000000E+00 0. -1.
</event>
<event>
 7    1  0.5622879E-006  0.5512640E+02  0.7818608E-02  0.1538796E+00
          2   -1    0    0  502    0  0.00000000000E+00  0.00000000000E+00  0.19715038650E+04  0.19715038650E+04  0.00000000000E+00 0. -1.
          1   -1    0    0  501    0 -0.00000000000E+00 -0.00000000000E+00 -0.10332498984E+03  0.10332498984E+03  0.00000000000E+00 0. -1.
         25    2    1    2    0    0  0.45545824603E+02  0.50303955185E+02  0.14161762672E+03  0.20071266227E+03  0.12500044220E+03 0.  0.
          2    1    1    2  501    0 -0.23678150418E+02  0.15699928736E+00 -0.71446245334E+02  0.75267824655E+02  0.00000000000E+00 0. -1.
          1    1    1    2  502    0 -0.21867674185E+02 -0.50460954472E+02  0.17980074938E+04  0.17988483679E+04  0.00000000000E+00 0. -1.
         22    1    3    3    0    0  0.55873975133E+02 -0.22820154660E+02  0.31380562794E+02  0.68024997443E+02  0.00000000000E+00 0.  1.
         22    1    3    3    0    0 -0.10328150529E+02  0.73124109845E+02  0.11023706392E+03  0.13268766482E+03  0.00000000000E+00 0.  1.
</event>
<event>
 7    1  0.5622879E-006  0.6811621E+02  0.7818608E-02  0.1442969E+00
          2   -1    0    0  502    0  0.00000000000E+00  0.00000000000E+00  0.23680348503E+04  0.23680348503E+04  0.00000000000E+00 0. -1.
          1   -1    0    0  501    0 -0.00000000000E+00 -0.00000000000E+00 -0.13603289171E+03  0.13603289171E+03  0.00000000000E+00 0. -1.
         25    2    1    2    0    0 -0.72053408507E+02  0.12195651311E+02  0.54265805480E+02  0.15461940976E+03  0.12498782597E+03 0.  0.
          2    1    1    2  501    0  0.19851926250E+02  0.31642650890E+02 -0.81254406094E+02  0.89429496481E+02  0.00000000000E+00 0. -1.
          1    1    1    2  502    0  0.52201482257E+02 -0.43838302201E+02  0.22589905592E+04  0.22600188357E+04  0.00000000000E+00 0. -1.
         22    1    3    3    0    0 -0.74724923325E+02  0.14724017048E+02 -0.21205330379E+02  0.79058692630E+02  0.00000000000E+00 0.  1.
         22    1    3    3    0    0  0.26715148178E+01 -0.25283657365E+01  0.75471135859E+02  0.75560717126E+02  0.00000000000E+00 0.  1.
</event>
<event>
 7    1  0.5622879E-006  0.1366577E+03  0.7818608E-02  0.1294927E+00
          2   -1    0    0  502    0  0.00000000000E+00  0.00000000000E+00  0.12511469609E+04  0.12511469609E+04  0.00000000000E+00 0. -1.
          1   -1    0    0  501    0 -0.00000000000E+00 -0.00000000000E+00 -0.64368056361E+03  0.64368056361E+03  0.00000000000E+00 0. -1.
         25    2    1    2    0    0 -0.31065368239E+02  0.11919560419E+03  0.15086461795E+03  0.23142119875E+03  0.12499195623E+03 0.  0.
          2    1    1    2  501    0 -0.61961954736E+02 -0.15085408242E+02 -0.59709958031E+03  0.60049543061E+03  0.00000000000E+00 0. -1.
          1    1    1    2  502    0  0.93027322975E+02 -0.10411019595E+03  0.10537013596E+04  0.10629108951E+04  0.00000000000E+00 0. -1.
         22    1    3    3    0    0 -0.15965665623E+02  0.13814476437E+03  0.15340895618E+03  0.20705841262E+03  0.00000000000E+00 0.  1.
         22    1    3    3    0    0 -0.15099702616E+02 -0.18949160186E+02 -0.25443382315E+01  0.24362786127E+02  0.00000000000E+00 0.  1.
</event>
<event>
 7    1  0.5622879E-006  0.7206055E+02  0.7818608E-02  0.1457054E+00
          2   -1    0    0  502    0  0.00000000000E+00  0.00000000000E+00  0.10658109561E+04  0.10658109561E+04  0.00000000000E+00 0. -1.
          1   -1    0    0  501    0 -0.00000000000E+00 -0.00000000000E+00 -0.15247444522E+04  0.15247444522E+04  0.00000000000E+00 0. -1.
         25    2    1    2    0    0 -0.72363146792E+02 -0.73156255198E+02  0.10593872126E+03  0.19348650974E+03  0.12500301637E+03 0.  0.
          2    1    1    2  501    0  0.21719148607E+02  0.23268020607E+02 -0.14794199940E+04  0.14797623596E+04  0.00000000000E+00 0. -1.
          1    1    1    2  502    0  0.50643998185E+02  0.49888234591E+02  0.91454777669E+03  0.91730653893E+03  0.00000000000E+00 0. -1.
         22    1    3    3    0    0 -0.21982029614E+02  0.28302975077E+02  0.62732495503E+02  0.72247034653E+02  0.00000000000E+00 0. -1.
         22    1    3    3    0    0 -0.50381117178E+02 -0.10145923027E+03  0.43206225757E+02  0.12123947509E+03  0.00000000000E+00 0. -1.
</event>
<event>
 7    1  0.5622879E-006  0.6774171E+02  0.7818608E-02  0.1372575E+00
          2   -1    0    0  502    0  0.00000000000E+00  0.00000000000E+00  0.29364296359E+04  0.29364296359E+04  0.00000000000E+00 0. -1.
          1   -1    0    0  501    0 -0.00000000000E+00 -0.00000000000E+00 -0.54029284805E+02  0.54029284805E+02  0.00000000000E+00 0. -1.
         25    2    1    2    0    0 -0.63865801533E+02 -0.18660717997E+02  0.10183597910E+04  0.10281577244E+04  0.12499831732E+03 0.  0.
          2    1    1    2  501    0  0.47510484013E+02 -0.48287604263E+02 -0.24848513400E+02  0.72155300808E+02  0.00000000000E+00 0. -1.
          1    1    1    2  502    0  0.16355317520E+02  0.66948322260E+02  0.18888890734E+04  0.18901458954E+04  0.00000000000E+00 0. -1.
         22    1    3    3    0    0 -0.30697658466E+02 -0.33345880202E+02  0.94722034617E+03  0.94830410637E+03  0.00000000000E+00 0.  1.
         22    1    3    3    0    0 -0.33168143067E+02  0.14685162205E+02  0.71139444868E+02  0.79853618075E+02  0.00000000000E+00 0.  1.
</event>
<event>
 7    1  0.5622879E-006  0.5845045E+02  0.7818608E-02  0.1450856E+00
          2   -1    0    0  502    0  0.00000000000E+00  0.00000000000E+00  0.85282971254E+03  0.85282971254E+03  0.00000000000E+00 0. -1.
          1   -1    0    0  501    0 -0.00000000000E+00 -0.00000000000E+00 -0.63428288914E+03  0.63428288914E+03  0.00000000000E+00 0. -1.
         25    2    1    2    0    0  0.84460031575E+02  0.51730536168E+02 -0.35200230008E+03  0.38644608289E+03  0.12500164163E+03 0.  0.
          2    1    1    2  501    0 -0.37010226412E+02 -0.17790103061E+02 -0.26244190672E+03  0.26563508621E+03  0.00000000000E+00 0. -1.
          1    1    1    2  502    0 -0.47449805163E+02 -0.33940433107E+02  0.83299103020E+03  0.83503143258E+03  0.00000000000E+00 0. -1.
         22    1    3    3    0    0 -0.21868079713E+02  0.23310995160E+02 -0.22606069604E+02  0.39149071363E+02  0.00000000000E+00 0. -1.
         22    1    3    3    0    0  0.10632811129E+03  0.28419541009E+02 -0.32939623048E+03  0.34729701152E+03  0.00000000000E+00 0. -1.
</event>
<event>
 7    1  0.5622879E-006  0.1049762E+03  0.7818608E-02  0.1290339E+00
          2   -1    0    0  502    0  0.00000000000E+00  0.00000000000E+00  0.10336381584E+04  0.10336381584E+04  0.00000000000E+00 0. -1.
          1   -1    0    0  501    0 -0.00000000000E+00 -0.00000000000E+00 -0.47349803773E+03  0.47349803773E+03  0.00000000000E+00 0. -1.
         25    2    1    2    0    0 -0.40285957186E+02 -0.10186580277E+03  0.29463995671E+03  0.33828421794E+03  0.12499563151E+03 0.  0.
          2    1    1    2  501    0 -0.46087699516E+02  0.94979436516E+02 -0.44283086076E+03  0.45524096987E+03  0.00000000000E+00 0. -1.
          1    1    1    2  502    0  0.86373656702E+02  0.68863662563E+01  0.70833102471E+03  0.71361100831E+03  0.00000000000E+00 0. -1.
         22    1    3    3    0    0  0.31802187411E+02 -0.11212527621E+02  0.14601885442E+03  0.14986195564E+03  0.00000000000E+00 0. -1.
         22    1    3    3    0    0 -0.72088144597E+02 -0.90653275150E+02  0.14862110229E+03  0.18842226231E+03  0.00000000000E+00 0. -1.
</event>
<event>
 7    1  0.5622879E-006  0.3805885E+02  0.7818608E-02  0.1536813E+00
          2   -1    0    0  502    0  0.00000000000E+00  0.00000000000E+00  0.13543545610E+04  0.13543545610E+04  0.00000000000E+00 0. -1.
          1   -1    0    0  501    0 -0.00000000000E+00 -0.00000000000E+00 -0.17944140695E+02  0.17944140695E+02  0.00000000000E+00 0. -1.
         25    2    1    2    0    0 -0.24527635080E+01 -0.65496277563E+02  0.45836222218E+03  0.47959984761E+03  0.12499723470E+03 0.  0.
          2    1    1    2  501    0 -0.11711664735E+02  0.33770451913E+02  0.38886652701E+02  0.52818351655E+02  0.00000000000E+00 0. -1.
          1    1    1    2  502    0  0.14164428243E+02  0.31725825650E+02  0.83916154545E+03  0.83988050245E+03  0.00000000000E+00 0. -1.
         22    1    3    3    0    0  0.43136164597E+02  0.65771509978E+00  0.28836106303E+03  0.29157034136E+03  0.00000000000E+00 0.  1.
         22    1    3    3    0    0 -0.45588928105E+02 -0.66153992663E+02  0.17000115915E+03  0.18802950625E+03  0.00000000000E+00 0.  1.
</event>
<event>
 7    1  0.5622879E-006  0.5685867E+02  0.7818608E-02  0.1471637E+00
          2   -1    0    0  502    0  0.00000000000E+00  0.00000000000E+00  0.34020014323E+04  0.34020014323E+04  0.00000000000E+00 0. -1.
          1   -1    0    0  501    0 -0.00000000000E+00 -0.00000000000E+00 -0.21190517849E+03  0.21190517849E+03  0.00000000000E+00 0. -1.
         25    2    1    2    0    0  0.35521238641E+02 -0.19492365365E+02  0.45113560979E+02  0.13891873351E+03  0.12498588094E+03 0.  0.
          2    1    1    2  501    0  0.20499945222E+02  0.29967421154E+02 -0.16275675819E+03  0.16675747786E+03  0.00000000000E+00 0. -1.
          1    1    1    2  502    0 -0.56021183863E+02 -0.10475055789E+02  0.33077394510E+04  0.33082303994E+04  0.00000000000E+00 0. -1.
         22    1    3    3    0    0  0.68348013406E+02 -0.71699687626E+01 -0.14050814741E+02  0.70144741666E+02  0.00000000000E+00 0. -1.
         22    1    3    3    0    0 -0.32826774765E+02 -0.12322396602E+02  0.59164375720E+02  0.68773991841E+02  0.00000000000E+00 0. -1.
</event>
<event>
 7    1  0.5622879E-006  0.4550121E+02  0.7818608E-02  0.1519175E+00
          2   -1    0    0  502    0  0.00000000000E+00  0.00000000000E+00  0.32574108653E+04  0.32574108653E+04  0.00000000000E+00 0. -1.
          1   -1    0    0  501    0 -0.00000000000E+00 -0.00000000000E+00 -0.60175893166E+02  0.60175893166E+02  0.00000000000E+00 0. -1.
         25    2    1    2    0    0  0.31289172102E+02 -0.31547261032E+01  0.11460570498E+03  0.17247684803E+03  0.12499932361E+03 0.  0.
          2    1    1    2  501    0 -0.28443778654E+01 -0.32533720381E+02 -0.22491673843E+02  0.39653610675E+02  0.00000000000E+00 0. -1.
          1    1    1    2  502    0 -0.28444794237E+02  0.35688446484E+02  0.31051209410E+04  0.31054562997E+04  0.00000000000E+00 0. -1.
         22    1    3    3    0    0  0.79787636001E+02 -0.48601885192E+01  0.64388386769E+02  0.10264284019E+03  0.00000000000E+00 0.  1.
         22    1    3    3    0    0 -0.48498463899E+02  0.17054624160E+01  0.50217318212E+02  0.69834007840E+02  0.00000000000E+00 0.  1.
</event>
<event>
 7    1  0.5622879E-006  0.7443100E+02  0.7818608E-02  0.1444075E+00
          2   -1    0    0  502    0  0.00000000000E+00  0.00000000000E+00  0.29490742231E+03  0.29490742231E+03  0.00000000000E+00 0. -1.
          1   -1    0    0  501    0 -0.00000000000E+00 -0.00000000000E+00 -0.93669433824E+03  0.93669433824E+03  0.00000000000E+00 0. -1.
         25    2    1    2    0    0 -0.63656546377E+02 -0.69411926519E+02 -0.40135198794E+03  0.43078960334E+03  0.12500437065E+03 0.  0.
          2    1    1    2  501    0  0.33876996926E+02  0.13887256626E+01 -0.51513655999E+03  0.51625115488E+03  0.00000000000E+00 0. -1.
          1    1    1    2  502    0  0.29779549451E+02  0.68023200857E+02  0.27470163200E+03  0.28456100232E+03  0.00000000000E+00 0. -1.
         22    1    3    3    0    0 -0.52738496483E+02 -0.95068648982E+02 -0.38116445357E+03  0.39636566160E+03  0.00000000000E+00 0.  1.
         22    1    3    3    0    0 -0.10918049893E+02  0.25656722462E+02 -0.20187534370E+02  0.34423941740E+02  0.00000000000E+00 0.  1.
</event>
<event>
 7    1  0.5622879E-006  0.6246639E+02  0.7818608E-02  0.1431466E+00
          2   -1    0    0  502    0  0.00000000000E+00  0.00000000000E+00  0.70418890033E+03  0.70418890033E+03  0.00000000000E+00 0. -1.
          1   -1    0    0  501    0 -0.00000000000E+00 -0.00000000000E+00 -0.13413668700E+04  0.13413668700E+04  0.00000000000E+00 0. -1.
         25    2    1    2    0    0 -0.16039714104E+02  0.21469960326E+02 -0.83480293091E+02  0.15268284008E+03  0.12499943478E+03 0.  0.
          2    1    1    2  501    0  0.15772602497E+02  0.41509163219E+02 -0.12214000256E+04  0.12222069417E+04  0.00000000000E+00 0. -1.
          1    1    1    2  502    0  0.26711160770E+00 -0.62979123545E+02  0.66770234904E+03  0.67066598860E+03  0.00000000000E+00 0. -1.
         22    1    3    3    0    0 -0.66761735147E+02  0.19610752993E+02 -0.73011697139E+02  0.10085840982E+03  0.00000000000E+00 0. -1.
         22    1    3    3    0    0  0.50722021042E+02  0.18592073332E+01 -0.10468595952E+02  0.51824430260E+02  0.00000000000E+00 0. -1.
</event>
<event>
 7    1  0.5622879E-006  0.1443865E+03  0.7818608E-02  0.1314962E+00
          2   -1    0    0  502    0  0.00000000000E+00  0.00000000000E+00  0.10886478372E+04  0.10886478372E+04  0.00000000000E+00 0. -1.
          1   -1    0    0  501    0 -0.00000000000E+00 -0.00000000000E+00 -0.33701088893E+04  0.33701088893E+04  0.00000000000E+00 0. -1.
         25    2    1    2    0    0  0.17515598520E+03  0.50226475046E+02 -0.46247019135E+02  0.22575646546E+03  0.12499950790E+03 0.  0.
          2    1    1    2  501    0 -0.32570698761E+02 -0.38266987780E+02 -0.32287865623E+04  0.32291775853E+04  0.00000000000E+00 0. -1.
          1    1    1    2  502    0 -0.14258528644E+03 -0.11959487266E+02  0.99357252936E+03  0.10038226757E+04  0.00000000000E+00 0. -1.
         22    1    3    3    0    0  0.14209819883E+03  0.72734887281E+02  0.62586158308E+01  0.15975428698E+03  0.00000000000E+00 0. -1.
         22    1    3    3    0    0  0.33057786372E+02 -0.22508412235E+02 -0.52505634966E+02  0.66002178482E+02  0.00000000000E+00 0. -1.
</event>
<event>
 7    1  0.5622879E-006  0.1585142E+03  0.7818608E-02  0.1286398E+00
          2   -1    0    0  502    0  0.00000000000E+00  0.00000000000E+00  0.19806869965E+04  0.19806869965E+04  0.00000000000E+00 0. -1.
          1   -1    0    0  501    0 -0.00000000000E+00 -0.00000000000E+00 -0.56602030647E+03  0.56602030647E+03  0.00000000000E+00 0. -1.
         25    2    1    2    0    0  0.11489691642E+02 -0.17965750876E+03 -0.12613590736E+03  0.25287260757E+03  0.12500182026E+03 0.  0.
          2    1    1    2  501    0 -0.53113198705E+02  0.26920174545E+02 -0.37086932999E+03  0.37561917895E+03  0.00000000000E+00 0. -1.
          1    1    1    2  502    0  0.41623507063E+02  0.15273733422E+03  0.19116719274E+04  0.19182155165E+04  0.00000000000E+00 0. -1.
         22    1    3    3    0    0 -0.39219883240E+02 -0.84873792709E+01 -0.16613564730E+02  0.43430926553E+02  0.00000000000E+00 0.  1.
         22    1    3    3    0    0  0.50709574883E+02 -0.17117012949E+03 -0.10952234263E+03  0.20944168102E+03  0.00000000000E+00 0.  1.
</event>
<event>
 7    1  0.5622879E-006  0.6546852E+02  0.7818608E-02  0.1403148E+00
          2   -1    0    0  502    0  0.00000000000E+00  0.00000000000E+00  0.13703837333E+04  0.13703837333E+04  0.00000000000E+00 0. -1.
          1   -1    0    0  501    0 -0.00000000000E+00 -0.00000000000E+00 -0.36880986601E+03  0.36880986601E+03  0.00000000000E+00 0. -1.
         25    2    1    2    0    0 -0.65275363669E+01 -0.76100498931E+02  0.79810916652E+03  0.81144148117E+03  0.12500056403E+03 0.  0.
          2    1    1    2  501    0  0.48431138265E+02  0.44102878170E+02 -0.35793644978E+03  0.36388066876E+03  0.00000000000E+00 0. -1.
          1    1    1    2  502    0 -0.41903601898E+02  0.31997620761E+02  0.56140115050E+03  0.56387144933E+03  0.00000000000E+00 0. -1.
         22    1    3    3    0    0 -0.29129160390E+02 -0.50273359481E+02  0.75053121591E+03  0.75277687578E+03  0.00000000000E+00 0. -1.
         22    1    3    3    0    0  0.22601624024E+02 -0.25827139451E+02  0.47577950610E+02  0.58664605385E+02  0.00000000000E+00 0. -1.
</event>
<event>
 7    1  0.5622879E-006  0.1682923E+03  0.7818608E-02  0.1339834E+00
          2   -1    0    0  502    0  0.00000000000E+00  0.00000000000E+00  0.14851035289E+04  0.14851035289E+04  0.00000000000E+00 0. -1.
          1   -1    0    0  501    0 -0.00000000000E+00 -0.00000000000E+00 -0.66550227035E+03  0.66550227035E+03  0.00000000000E+00 0. -1.
         25    2    1    2    0    0 -0.53853577334E+02  0.13409416474E+03  0.14814876023E+03  0.24177355021E+03  0.12499976646E+03 0.  0.
          2    1    1    2  501    0 -0.31418399030E+02  0.14517329004E+02 -0.61251054015E+03  0.61348759599E+03  0.00000000000E+00 0. -1.
          1    1    1    2  502    0  0.85271976364E+02 -0.14861149374E+03  0.12839630384E+04  0.12953446530E+04  0.00000000000E+00 0. -1.
         22    1    3    3    0    0 -0.92513820725E+01  0.37851809449E+02 -0.19354398020E+02  0.43507933432E+02  0.00000000000E+00 0.  1.
         22    1    3    3    0    0 -0.44602195262E+02  0.96242355291E+02  0.16750315825E+03  0.19826561678E+03  0.00000000000E+00 0.  1.
</event>
<event>
 7    1  0.5622879E-006  0.3681106E+02  0.7818608E-02  0.1570096E+00
          2   -1    0    0  502    0  0.00000000000E+00  0.00000000000E+00  0.19601557682E+04  0.19601557682E+04  0.00000000000E+00 0. -1.
          1   -1    0    0  501    0 -0.00000000000E+00 -0.00000000000E+00 -0.17548746816E+03  0.17548746816E+03  0.00000000000E+00 0. -1.
         25    2    1    2    0    0 -0.19496572922E+02 -0.50611591916E+02  0.99921264071E+03  0.10084605386E+04  0.12500042770E+03 0.  0.
          2    1    1    2  501    0 -0.57858768733E+01  0.36333257455E+02 -0.16865960097E+03  0.17262573089E+03  0.00000000000E+00 0. -1.
          1    1    1    2  502    0  0.25282449795E+02  0.14278334461E+02  0.95411526027E+03  0.95455696686E+03  0.00000000000E+00 0. -1.
         22    1    3    3    0    0  0.95330079878E+01 -0.51437754992E+02  0.94910242264E+03  0.95054307085E+03  0.00000000000E+00 0. -1.
         22    1    3    3    0    0 -0.29029580910E+02  0.82616307578E+00  0.50110218078E+02  0.57917467737E+02  0.00000000000E+00 0. -1.
</event>
<event>
 7    1  0.5622879E-006  0.8454424E+02  0.7818608E-02  0.1316745E+00
          2   -1    0    0  502    0  0.00000000000E+00  0.00000000000E+00  0.95222893889E+02  0.95222893889E+02  0.00000000000E+00 0. -1.
          1   -1    0    0  501    0 -0.00000000000E+00 -0.00000000000E+00 -0.32073018191E+03  0.32073018191E+03  0.00000000000E+00 0. -1.
         25    2    1    2    0    0  0.11557407240E+01  0.40400885525E+02 -0.24703017498E+02  0.13367382684E+03  0.12499954248E+03 0.  0.
          2    1    1    2  501    0 -0.84340229944E+02 -0.55000102318E+02 -0.15860749821E+03  0.18786863530E+03  0.00000000000E+00 0. -1.
          1    1    1    2  502    0  0.83184489220E+02  0.14599216793E+02 -0.42196772319E+02  0.94410613662E+02  0.00000000000E+00 0. -1.
         22    1    3    3    0    0  0.38202818033E+02  0.31623133878E+02  0.36512540413E+02  0.61584442105E+02  0.00000000000E+00 0.  1.
         22    1    3    3    0    0 -0.37047077309E+02  0.87777516466E+01 -0.61215557911E+02  0.72089384735E+02  0.00000000000E+00 0.  1.
</event>
<event>
 7    1  0.5622879E-006  0.7772418E+02  0.7818608E-02  0.1406666E+00
          2   -1    0    0  502    0  0.00000000000E+00  0.00000000000E+00  0.27130144207E+02  0.27130144207E+02  0.00000000000E+00 0. -1.
          1   -1    0    0  501    0 -0.00000000000E+00 -0.00000000000E+00 -0.20835896987E+04  0.20835896987E+04  0.00000000000E+00 0. -1.
         25    2    1    2    0    0  0.72247611870E+02  0.38492885206E+01 -0.10457027497E+04  0.10556296272E+04  0.12500053835E+03 0.  0.
          2    1    1    2  501    0 -0.67778795516E+02 -0.46816008903E+02 -0.10084726263E+04  0.10118313802E+04  0.00000000000E+00 0. -1.
          1    1    1    2  502    0 -0.44688163538E+01  0.42966720382E+02 -0.22841784077E+01  0.43258835525E+02  0.00000000000E+00 0. -1.
         22    1    3    3    0    0  0.94504644469E+02 -0.66625115216E+01 -0.99246975518E+03  0.99698130967E+03  0.00000000000E+00 0.  1.
         22    1    3    3    0    0 -0.22257032599E+02  0.10511800042E+02 -0.53232994546E+02  0.58648317526E+02  0.00000000000E+00 0.  1.
</event>
<event>
 7    1  0.5622879E-006  0.7417678E+02  0.7818608E-02  0.1368195E+00
          2   -1    0    0  502    0  0.00000000000E+00  0.00000000000E+00  0.94471499064E+02  0.94471499064E+02  0.00000000000E+00 0. -1.
          1   -1    0    0  501    0 -0.00000000000E+00 -0.00000000000E+00 -0.11393257998E+04  0.11393257998E+04  0.00000000000E+00 0. -1.
         25    2    1    2    0    0 -0.53595135530E+02 -0.26287686882E+02 -0.37927097758E+03  0.40377708985E+03  0.12500393124E+03 0.  0.
          2    1    1    2  501    0  0.73401188816E+02 -0.32186066755E+02 -0.73371407597E+03  0.73807860197E+03  0.00000000000E+00 0. -1.
          1    1    1    2  502    0 -0.19806053286E+02  0.58473753637E+02  0.68130752857E+02  0.91941606991E+02  0.00000000000E+00 0. -1.
         22    1    3    3    0    0  0.40329442011E+02 -0.59445674957E+01 -0.14334184681E+03  0.14902579247E+03  0.00000000000E+00 0. -1.
         22    1    3    3    0    0 -0.93924577541E+02 -0.20343119386E+02 -0.23592913077E+03  0.25475129738E+03  0.00000000000E+00 0. -1.
</event>
<event>
 7    1  0.5622879E-006  0.3833720E+02  0.7818608E-02  0.1565621E+00
          2   -1    0    0  502    0  0.00000000000E+00  0.00000000000E+00  0.49672069549E+03  0.49672069549E+03  0.00000000000E+00 0. -1.
          1   -1    0    0  501    0 -0.00000000000E+00 -0.00000000000E+00 -0.18174335017E+03  0.18174335017E+03  0.00000000000E+00 0. -1.
         25    2    1    2    0    0 -0.26732110400E+02 -0.56557496793E+02  0.29546990810E+01  0.13981379665E+03  0.12500324523E+03 0.  0.
          2    1    1    2  501    0  0.24837246525E+02  0.27946600747E+02 -0.10972956333E+03  0.11592445116E+03  0.00000000000E+00 0. -1.
          1    1    1    2  502    0  0.18948638748E+01  0.28610896046E+02  0.42175220958E+03  0.42272579785E+03  0.00000000000E+00 0. -1.
         22    1    3    3    0    0  0.13804954485E+02 -0.82782858703E+02  0.23784875931E+02  0.87231294766E+02  0.00000000000E+00 0. -1.
         22    1    3    3    0    0 -0.40537064884E+02  0.26225361910E+02 -0.20830176850E+02  0.52582501884E+02  0.00000000000E+00 0. -1.
</event>
<event>
 7    1  0.5622879E-006  0.3478375E+02  0.7818608E-02  0.1634706E+00
          2   -1    0    0  502    0  0.00000000000E+00  0.00000000000E+00  0.32123002241E+03  0.32123002241E+03  0.00000000000E+00 0. -1.
          1   -1    0    0  501    0 -0.00000000000E+00 -0.00000000000E+00 -0.52345179897E+03  0.52345179897E+03  0.00000000000E+00 0. -1.
         25    2    1    2    0    0 -0.31904345608E+02  0.24445098580E+02 -0.62220485671E+02  0.14529674216E+03  0.12499721729E+03 0.  0.
          2    1    1    2  501    0  0.12634214730E+02 -0.32413981867E+02 -0.41858189390E+03  0.42002510818E+03  0.00000000000E+00 0. -1.
          1    1    1    2  502    0  0.19270130878E+02  0.79688832869E+01  0.27858060302E+03  0.27935997105E+03  0.00000000000E+00 0. -1.
         22    1    3    3    0    0 -0.65663717494E+02  0.48136201071E+02 -0.64677689089E+02  0.10398086898E+03  0.00000000000E+00 0. -1.
         22    1    3    3    0    0  0.33759371886E+02 -0.23691102491E+02  0.24572034178E+01  0.41315873172E+02  0.00000000000E+00 0. -1.
</event>
<event>
 7    1  0.5622879E-006  0.6267140E+02  0.7818608E-02  0.1435931E+00
          2   -1    0    0  502    0  0.00000000000E+00  0.00000000000E+00  0.34888743707E+03  0.34888743707E+03  0.00000000000E+00 0. -1.
          1   -1    0    0  501    0 -0.00000000000E+00 -0.00000000000E+00 -0.16511163296E+03  0.16511163296E+03  0.00000000000E+00 0. -1.
         25    2    1    2    0    0 -0.17483564756E+02 -0.84543136864E+02  0.94894318496E+02  0.17912806834E+03  0.12501486374E+03 0.  0.
          2    1    1    2  501    0  0.39311968531E+02  0.47734627789E+02 -0.11283277448E+03  0.12866724741E+03  0.00000000000E+00 0. -1.
          1    1    1    2  502    0 -0.21828403774E+02  0.36808509075E+02  0.20171426010E+03  0.20620375428E+03  0.00000000000E+00 0. -1.
         22    1    3    3    0    0 -0.31209100407E+02 -0.28499501259E+02  0.11137189452E+03  0.11912148593E+03  0.00000000000E+00 0.  1.
         22    1    3    3    0    0  0.13725535651E+02 -0.56043635605E+02 -0.16477576028E+02  0.60006582410E+02  0.00000000000E+00 0.  1.
</event>
<event>
 7    1  0.5622879E-006  0.1252378E+03  0.7818608E-02  0.1435110E+00
          2   -1    0    0  502    0  0.00000000000E+00  0.00000000000E+00  0.10289254582E+04  0.10289254582E+04  0.00000000000E+00 0. -1.
          1   -1    0    0  501    0 -0.00000000000E+00 -0.00000000000E+00 -0.34918904112E+03  0.34918904112E+03  0.00000000000E+00 0. -1.
         25    2    1    2    0    0 -0.13591754986E+03  0.43407233284E+02  0.16679928823E+03  0.25259624087E+03  0.12500036034E+03 0.  0.
          2    1    1    2  501    0  0.12106847055E+03 -0.27792978813E+02 -0.29354647337E+03  0.31874685295E+03  0.00000000000E+00 0. -1.
          1    1    1    2  502    0  0.14849079308E+02 -0.15614254471E+02  0.80648360223E+03  0.80677140552E+03  0.00000000000E+00 0. -1.
         22    1    3    3    0    0 -0.13392920012E+03  0.19460790108E+02  0.17998322780E+03  0.22518817749E+03  0.00000000000E+00 0.  1.
         22    1    3    3    0    0 -0.19883497424E+01  0.23946443176E+02 -0.13183939562E+02  0.27408063373E+02  0.00000000000E+00 0.  1.
</event>
<event>
 7    1  0.5622879E-006  0.1032920E+03  0.7818608E-02  0.1333056E+00
          2   -1    0    0  502    0  0.00000000000E+00  0.00000000000E+00  0.11261669173E+03  0.11261669173E+03  0.00000000000E+00 0. -1.
          1   -1    0    0  501    0 -0.00000000000E+00 -0.00000000000E+00 -0.88663272703E+03  0.88663272703E+03  0.00000000000E+00 0. -1.
         25    2    1    2    0    0  0.81443379340E+02  0.34633174596E+02 -0.12117011949E+03  0.19529647093E+03  0.12500413146E+03 0.  0.
          2    1    1    2  501    0  0.27125262989E+02 -0.53315702112E+02 -0.68623701126E+03  0.68883929883E+03  0.00000000000E+00 0. -1.
          1    1    1    2  502    0 -0.10856864233E+03  0.18682527515E+02  0.33391095450E+02  0.11511364900E+03  0.00000000000E+00 0. -1.
         22    1    3    3    0    0  0.50487441828E+02 -0.23018792670E+02 -0.11728004159E+03  0.12974380430E+03  0.00000000000E+00 0.  1.
         22    1    3    3    0    0  0.30955937512E+02  0.57651967266E+02 -0.38900778979E+01  0.65552666635E+02  0.00000000000E+00 0.  1.
</event>
<event>
 7    1  0.5622879E-006  0.3117122E+03  0.7818608E-02  0.1195351E+00
          2   -1    0    0  502    0  0.00000000000E+00  0.00000000000E+00  0.22394067507E+04  0.22394067507E+04  0.00000000000E+00 0. -1.
          1   -1    0    0  501    0 -0.00000000000E+00 -0.00000000000E+00 -0.35439556662E+03  0.35439556662E+03  0.00000000000E+00 0. -1.
         25    2    1    2    0    0 -0.29845498218E+03 -0.18039908654E+03  0.11654450281E+04  0.12229087805E+04  0.12499825994E+03 0.  0.
          2    1    1    2  501    0  0.29171058634E+03  0.10437210387E+03 -0.25013632442E+03  0.39819189224E+03  0.00000000000E+00 0. -1.
          1    1    1    2  502    0  0.67443958415E+01  0.76026982665E+02  0.96970248031E+03  0.97270164454E+03  0.00000000000E+00 0. -1.
         22    1    3    3    0    0 -0.29281469539E+03 -0.14718676283E+03  0.95221848694E+03  0.10070374550E+04  0.00000000000E+00 0. -1.
         22    1    3    3    0    0 -0.56402867880E+01 -0.33212323701E+02  0.21322654120E+03  0.21587132545E+03  0.00000000000E+00 0. -1.
</event>
<event>
 7    1  0.5622879E-006  0.5598701E+02  0.7818608E-02  0.1491215E+00
          2   -1    0    0  502    0  0.00000000000E+00  0.00000000000E+00  0.28059499047E+04  0.28059499047E+04  0.00000000000E+00 0. -1.
          1   -1    0    0  501    0 -0.00000000000E+00 -0.00000000000E+00 -0.18257587183E+03  0.18257587183E+03  0.00000000000E+00 0. -1.
         25    2    1    2    0    0  0.44958656002E+01 -0.27177102711E+02  0.33941365761E+01  0.12804397548E+03  0.12499972710E+03 0.  0.
          2    1    1    2  501    0  0.24308049908E+02 -0.20995328849E+02 -0.11781331826E+03  0.12211332067E+03  0.00000000000E+00 0. -1.
          1    1    1    2  502    0 -0.28803915508E+02  0.48172431561E+02  0.27377932146E+04  0.27383684804E+04  0.00000000000E+00 0. -1.
         22    1    3    3    0    0 -0.48846342112E+02 -0.48721495661E+02 -0.78191917594E+01  0.69432622282E+02  0.00000000000E+00 0.  1.
         22    1    3    3    0    0  0.53342207713E+02  0.21544392949E+02  0.11213328336E+02  0.58611353197E+02  0.00000000000E+00 0.  1.
</event>
<event>
 7    1  0.5622879E-006  0.5806035E+02  0.7818608E-02  0.1448079E+00
          2   -1    0    0  502    0  0.00000000000E+00  0.00000000000E+00  0.95509229360E+03  0.95509229360E+03  0.00000000000E+00 0. -1.
          1   -1    0    0  501    0 -0.00000000000E+00 -0.00000000000E+00 -0.77391579139E+03  0.77391579139E+03  0.00000000000E+00 0. -1.
         25    2    1    2    0    0  0.22807929140E+02  0.28032350858E+02  0.73915545193E+02  0.14964612281E+03  0.12499775967E+03 0.  0.
          2    1    1    2  501    0 -0.58183855593E+02 -0.50333221982E+01 -0.73436269518E+03  0.73668124956E+03  0.00000000000E+00 0. -1.
          1    1    1    2  502    0  0.35375926453E+02 -0.22999028660E+02  0.84162365220E+03  0.84268071263E+03  0.00000000000E+00 0. -1.
         22    1    3    3    0    0  0.27014877255E+02 -0.46001171623E+02  0.16427997391E+02  0.55819266226E+02  0.00000000000E+00 0. -1.
         22    1    3    3    0    0 -0.42069481153E+01  0.74033522481E+02  0.57487547802E+02  0.93826856580E+02  0.00000000000E+00 0. -1.
</event>
<event>
 7    1  0.5622879E-006  0.4967636E+02  0.7818608E-02  0.1478018E+00
          2   -1    0    0  502    0  0.00000000000E+00  0.00000000000E+00  0.73020730892E+03  0.73020730892E+03  0.00000000000E+00 0. -1.
          1   -1    0    0  501    0 -0.00000000000E+00 -0.00000000000E+00 -0.10859020085E+04  0.10859020085E+04  0.00000000000E+00 0. -1.
         25    2    1    2    0    0 -0.15462727837E+02  0.17202760564E+02 -0.22991393317E+03  0.26271534366E+03  0.12499561673E+03 0.  0.
          2    1    1    2  501    0 -0.53517912750E+01 -0.51024482769E+02 -0.83825011199E+03  0.83981866481E+03  0.00000000000E+00 0. -1.
          1    1    1    2  502    0  0.20814519112E+02  0.33821722205E+02  0.71246934560E+03  0.71357530894E+03  0.00000000000E+00 0. -1.
         22    1    3    3    0    0 -0.40186025496E+02  0.29307861149E+02 -0.24462899770E+02  0.55428339642E+02  0.00000000000E+00 0. -1.
         22    1    3    3    0    0  0.24723297660E+02 -0.12105100585E+02 -0.20545103340E+03  0.20728700402E+03  0.00000000000E+00 0. -1.
</event>
<event>
 7    1  0.5622879E-006  0.1472714E+03  0.7818608E-02  0.1370251E+00
          2   -1    0    0  502    0  0.00000000000E+00  0.00000000000E+00  0.21738835021E+04  0.21738835021E+04  0.00000000000E+00 0. -1.
          1   -1    0    0  501    0 -0.00000000000E+00 -0.00000000000E+00 -0.37403501595E+03  0.37403501595E+03  0.00000000000E+00 0. -1.
         25    2    1    2    0    0 -0.18656163495E+02 -0.13583373782E+03  0.24860269824E+02  0.18719460576E+03  0.12499972257E+03 0.  0.
          2    1    1    2  501    0 -0.30371070347E+02 -0.34808264908E+01 -0.28942478275E+03  0.29103474524E+03  0.00000000000E+00 0. -1.
          1    1    1    2  502    0  0.49027233842E+02  0.13931456431E+03  0.20644129991E+04  0.20696891671E+04  0.00000000000E+00 0. -1.
         22    1    3    3    0    0  0.52606865105E+02 -0.75924818081E+02  0.98486197324E+01  0.92892709980E+02  0.00000000000E+00 0.  1.
         22    1    3    3    0    0 -0.71263028599E+02 -0.59908919738E+02  0.15011650092E+02  0.94301895780E+02  0.00000000000E+00 0.  1.
</event>
<event>
 7    1  0.5622879E-006  0.2612989E+02  0.7818608E-02  0.1685643E+00
          2   -1    0    0  502    0  0.00000000000E+00  0.00000000000E+00  0.91124203515E+03  0.91124203515E+03  0.00000000000E+00 0. -1.
          1   -1    0    0  501    0 -0.00000000000E+00 -0.00000000000E+00 -0.13159995292E+04  0.13159995292E+04  0.00000000000E+00 0. -1.
         25    2    1    2    0    0 -0.13487388439E+02  0.28373157420E+02  0.15744769377E+03  0.20347382367E+03  0.12499949975E+03 0.  0.
          2    1    1    2  501    0  0.24007580176E+02 -0.10320076321E+02 -0.12927050323E+04  0.12929691290E+04  0.00000000000E+00 0. -1.
          1    1    1    2  502    0 -0.10520191737E+02 -0.18053081099E+02  0.73049984447E+03  0.73079861175E+03  0.00000000000E+00 0. -1.
         22    1    3    3    0    0  0.11026720885E+02 -0.47428456298E+02  0.68799556519E+02  0.84287757222E+02  0.00000000000E+00 0. -1.
         22    1    3    3    0    0 -0.24514109324E+02  0.75801613717E+02  0.88648137248E+02  0.11918606645E+03  0.00000000000E+00 0. -1.
</event>
<event>
 7    1  0.5622879E-006  0.7532801E+02  0.7818608E-02  0.1421676E+00
          2   -1    0    0  502    0  0.00000000000E+00  0.00000000000E+00  0.22362941220E+03  0.22362941220E+03  0.00000000000E+00 0. -1.
          1   -1    0    0  501    0 -0.00000000000E+00 -0.00000000000E+00 -0.14900103348E+04  0.14900103348E+04  0.00000000000E+00 0. -1.
         25    2    1    2    0    0 -0.34038362494E+02 -0.35069826826E+02 -0.21452949311E+03  0.25305289736E+03  0.12499745027E+03 0.  0.
          2    1    1    2  501    0  0.72697317158E+02  0.26151863322E+02 -0.12530926710E+04  0.12554720474E+04  0.00000000000E+00 0. -1.
          1    1    1    2  502    0 -0.38658954664E+02  0.89179635041E+01  0.20124124143E+03  0.20511480225E+03  0.00000000000E+00 0. -1.
         22    1    3    3    0    0 -0.75422378414E+02 -0.29333704885E+02 -0.18489758766E+03  0.20183190860E+03  0.00000000000E+00 0.  1.
         22    1    3    3    0    0  0.41384015920E+02 -0.57361219412E+01 -0.29631905449E+02  0.51220988756E+02  0.00000000000E+00 0.  1.
</event>
<event>
 7    1  0.5622879E-006  0.4587795E+02  0.7818608E-02  0.1554749E+00
          2   -1    0    0  502    0  0.00000000000E+00  0.00000000000E+00  0.23600427874E+04  0.23600427874E+04  0.00000000000E+00 0. -1.
          1   -1    0    0  501    0 -0.00000000000E+00 -0.00000000000E+00 -0.71920566681E+03  0.71920566681E+03  0.00000000000E+00 0. -1.
         25    2    1    2    0    0 -0.20299096882E+02  0.50776855397E+02 -0.48436322844E+03  0.50321245557E+03  0.12499878397E+03 0.  0.
          2    1    1    2  501    0 -0.14661310806E+02 -0.21070744304E+02 -0.22446239720E+03  0.22592542588E+03  0.00000000000E+00 0. -1.
          1    1    1    2  502    0  0.34960407688E+02 -0.29706111093E+02  0.23496627462E+04  0.23501105728E+04  0.00000000000E+00 0. -1.
         22    1    3    3    0    0 -0.42624760888E+02 -0.29303398055E+02 -0.22419462106E+03  0.23008430518E+03  0.00000000000E+00 0. -1.
         22    1    3    3    0    0  0.22325664007E+02  0.80080253452E+02 -0.26016860738E+03  0.27312815039E+03  0.00000000000E+00 0. -1.
</event>
<event>
 7    1  0.5622879E-006  0.1114619E+03  0.7818608E-02  0.1402051E+00
          2   -1    0    0  502    0  0.00000000000E+00  0.00000000000E+00  0.79447028832E+03  0.79447028832E+03  0.00000000000E+00 0. -1.
          1   -1    0    0  501    0 -0.00000000000E+00 -0.00000000000E+00 -0.34211114109E+03  0.34211114109E+03  0.00000000000E+00 0. -1.
         25    2    1    2    0    0  0.85755316082E+02  0.46084276217E+02  0.46846862920E+03  0.49453579867E+03  0.12500025949E+03 0.  0.
          2    1    1    2  501    0 -0.10894155121E+03 -0.25152620321E+02 -0.31875348864E+03  0.33779387563E+03  0.00000000000E+00 0. -1.
          1    1    1    2  502    0  0.23186235125E+02 -0.20931655895E+02  0.30264400667E+03  0.30425175511E+03  0.00000000000E+00 0. -1.
         22    1    3    3    0    0 -0.13672962964E+02  0.56489200460E+02  0.18827350991E+03  0.19704033653E+03  0.00000000000E+00 0.  1.
         22    1    3    3    0    0  0.99428279047E+02 -0.10404924244E+02  0.28019511929E+03  0.29749546214E+03  0.00000000000E+00 0.  1.
</event>
<event>
 7    1  0.5622879E-006  0.6174523E+02  0.7818608E-02  0.1401537E+00
          2   -1    0    0  502    0  0.00000000000E+00  0.00000000000E+00  0.36662036545E+04  0.36662036545E+04  0.00000000000E+00 0. -1.
          1   -1    0    0  501    0 -0.00000000000E+00 -0.00000000000E+00 -0.40702518538E+03  0.40702518538E+03  0.00000000000E+00 0. -1.
         25    2    1    2    0    0 -0.86325329376E+02  0.77261162346E+02 -0.45546937572E+02  0.17641156221E+03  0.12500066424E+03 0.  0.
          2    1    1    2  501    0  0.45384170552E+02 -0.38153577125E+02 -0.29285231158E+03  0.29879406752E+03  0.00000000000E+00 0. -1.
          1    1    1    2  502    0  0.40941158824E+02 -0.39107585222E+02  0.35975777183E+04  0.35980232102E+04  0.00000000000E+00 0. -1.
         22    1    3    3    0    0 -0.98296200940E+02  0.20936290759E+02  0.38056218773E+01  0.10057312836E+03  0.00000000000E+00 0. -1.
         22    1    3    3    0    0  0.11970871564E+02  0.56324871588E+02 -0.49352559449E+02  0.75838433855E+02  0.00000000000E+00 0. -1.
</event>
<event>
 7    1  0.5622879E-006  0.7885292E+02  0.7818608E-02  0.1444317E+00
          2   -1    0    0  502    0  0.00000000000E+00  0.00000000000E+00  0.14906611934E+03  0.14906611934E+03  0.00000000000E+00 0. -1.
          1   -1    0    0  501    0 -0.00000000000E+00 -0.00000000000E+00 -0.40327903829E+03  0.40327903829E+03  0.00000000000E+00 0. -1.
         25    2    1    2    0    0  0.48607547543E+02 -0.87308574414E+02 -0.20118965673E+03  0.25707663347E+03  0.12500254660E+03 0.  0.
          2    1    1    2  501    0 -0.21688350955E+02  0.70105628869E+02 -0.16406161250E+03  0.17972589258E+03  0.00000000000E+00 0. -1.
          1    1    1    2  502    0 -0.26919196588E+02  0.17202945544E+02  0.11103835028E+03  0.11554263158E+03  0.00000000000E+00 0. -1.
         22    1    3    3    0    0  0.65117003235E+02 -0.10751329470E+03 -0.12809628329E+03  0.17946584756E+03  0.00000000000E+00 0.  1.
         22    1    3    3    0    0 -0.16509455692E+02  0.20204720283E+02 -0.73093373439E+02  0.77610785911E+02  0.00000000000E+00 0.  1.
</event>
<event>
 7    1  0.5622879E-006  0.7727626E+02  0.7818608E-02  0.1421737E+00
          2   -1    0    0  502    0  0.00000000000E+00  0.00000000000E+00  0.74735599588E+03  0.74735599588E+03  0.00000000000E+00 0. -1.
          1   -1    0    0  501    0 -0.00000000000E+00 -0.00000000000E+00 -0.29620317557E+04  0.29620317557E+04  0.00000000000E+00 0. -1.
         25    2    1    2    0    0  0.50561845573E+02 -0.21191352806E+02 -0.46470208928E+03  0.48433339129E+03  0.12500091391E+03 0.  0.
          2    1    1    2  501    0 -0.14472267034E+01 -0.38628698498E+02 -0.24853326723E+04  0.24856332720E+04  0.00000000000E+00 0. -1.
          1    1    1    2  502    0 -0.49114618870E+02  0.59820051304E+02  0.73535900177E+03  0.73942108829E+03  0.00000000000E+00 0. -1.
         22    1    3    3    0    0  0.57178043806E+02  0.33834867529E+02 -0.14036092914E+03  0.15529107310E+03  0.00000000000E+00 0.  1.
         22    1    3    3    0    0 -0.66161982322E+01 -0.55026220335E+02 -0.32434116014E+03  0.32904231819E+03  0.00000000000E+00 0.  1.
</event>
<event>
 7    1  0.5622879E-006  0.5037180E+02  0.7818608E-02  0.1468466E+00
          2   -1    0    0  502    0  0.00000000000E+00  0.00000000000E+00  0.64796952303E+02  0.64796952303E+02  0.00000000000E+00 0. -1.
          1   -1    0    0  501    0 -0.00000000000E+00 -0.00000000000E+00 -0.11267925894E+04  0.11267925894E+04  0.00000000000E+00 0. -1.
         25    2    1    2    0    0 -0.20400310252E+02  0.18340389848E+02 -0.86148793731E+03  0.87094253387E+03  0.12500755419E+03 0.  0.
          2    1    1    2  501    0  0.27040318998E+02  0.32040410687E+02 -0.24774430870E+03  0.25126680891E+03  0.00000000000E+00 0. -1.
          1    1    1    2  502    0 -0.66400087464E+01 -0.50380800535E+02  0.47236608924E+02  0.69380198914E+02  0.00000000000E+00 0. -1.
         22    1    3    3    0    0 -0.14691056157E+02  0.94746606929E+01 -0.11579261075E+02  0.20968443273E+02  0.00000000000E+00 0. -1.
         22    1    3    3    0    0 -0.57092540949E+01  0.88657291548E+01 -0.84990867624E+03  0.84997409059E+03  0.00000000000E+00 0. -1.
</event>
<event>
 7    1  0.5622879E-006  0.4984033E+02  0.7818608E-02  0.1454619E+00
          2   -1    0    0  502    0  0.00000000000E+00  0.00000000000E+00  0.18931985351E+04  0.18931985351E+04  0.00000000000E+00 0. -1.
          1   -1    0    0  501    0 -0.00000000000E+00 -0.00000000000E+00 -0.44107525332E+03  0.44107525332E+03  0.00000000000E+00 0. -1.
         25    2    1    2    0    0 -0.10098713181E+02  0.55225047835E+02  0.31870650108E+03  0.34691224002E+03  0.12498991370E+03 0.  0.
          2    1    1    2  501    0  0.44223412886E+02 -0.23130108498E+02 -0.42516088705E+03  0.42808000659E+03  0.00000000000E+00 0. -1.
          1    1    1    2  502    0 -0.34124699705E+02 -0.32094939336E+02  0.15585776677E+04  0.15592815418E+04  0.00000000000E+00 0. -1.
         22    1    3    3    0    0  0.23623692427E+02 -0.30356574339E+02  0.51249398071E+02  0.64078867438E+02  0.00000000000E+00 0.  1.
         22    1    3    3    0    0 -0.33722405609E+02  0.85581622174E+02  0.26745710301E+03  0.28283337258E+03  0.00000000000E+00 0.  1.
</event>
<event>
 7    1  0.5622879E-006  0.6328217E+02  0.7818608E-02  0.1475585E+00
          2   -1    0    0  502    0  0.00000000000E+00  0.00000000000E+00  0.37805975148E+03  0.37805975148E+03  0.00000000000E+00 0. -1.
          1   -1    0    0  501    0 -0.00000000000E+00 -0.00000000000E+00 -0.49346335314E+03  0.49346335314E+03  0.00000000000E+00 0. -1.
         25    2    1    2    0    0 -0.61399491890E+02  0.29976476394E+02  0.29495782962E+03  0.32755726476E+03  0.12500061481E+03 0.  0.
          2    1    1    2  501    0  0.63277738300E+02  0.16857090997E+01 -0.47115892926E+03  0.47539210174E+03  0.00000000000E+00 0. -1.
          1    1    1    2  502    0 -0.18782464099E+01 -0.31662185494E+02  0.60797497979E+02  0.68573738124E+02  0.00000000000E+00 0. -1.
         22    1    3    3    0    0 -0.81839976543E+02  0.46678511282E+02  0.28356484996E+03  0.29880711054E+03  0.00000000000E+00 0. -1.
         22    1    3    3    0    0  0.20440484653E+02 -0.16702034888E+02  0.11392979656E+02  0.28750154220E+02  0.00000000000E+00 0. -1.
</event>
<event>
 7    1  0.5622879E-006  0.4780550E+02  0.7818608E-02  0.1556937E+00
          2   -1    0    0  502    0  0.00000000000E+00  0.00000000000E+00  0.22921247174E+03  0.22921247174E+03  0.00000000000E+00 0. -1.
          1   -1    0    0  501    0 -0.00000000000E+00 -0.00000000000E+00 -0.28787617818E+03  0.28787617818E+03  0.00000000000E+00 0. -1.
         25    2    1    2    0    0 -0.37679203958E+02 -0.60508255686E+02 -0.80931750647E+02  0.16509334535E+03  0.12499957200E+03 0.  0.
          2    1    1    2  501    0  0.10356354886E+02  0.21975404535E+02 -0.16095658959E+03  0.16277959400E+03  0.00000000000E+00 0. -1.
          1    1    1    2  502    0  0.27322849072E+02  0.38532851150E+02  0.18322463379E+03  0.18921571057E+03  0.00000000000E+00 0. -1.
         22    1    3    3    0    0 -0.13451840666E+02 -0.89977296172E+02 -0.19914163491E+02  0.93131303820E+02  0.00000000000E+00 0. -1.
         22    1    3    3    0    0 -0.24227363292E+02  0.29469040486E+02 -0.61017587156E+02  0.71962041533E+02  0.00000000000E+00 0. -1.
</event>
<event>
 7    1  0.5622879E-006  0.6581135E+02  0.7818608E-02  0.1507865E+00
          2   -1    0    0  502    0  0.00000000000E+00  0.00000000000E+00  0.10642767896E+04  0.10642767896E+04  0.00000000000E+00 0. -1.
          1   -1    0    0  501    0 -0.00000000000E+00 -0.00000000000E+00 -0.28285359517E+03  0.28285359517E+03  0.00000000000E+00 0. -1.
         25    2    1    2    0    0 -0.13114012691E+02  0.42901812545E+02  0.26609145001E+03  0.29738564624E+03  0.12498407887E+03 0.  0.
          2    1    1    2  501    0  0.30728623254E+01  0.24174638131E+02 -0.26517715662E+03  0.26629453619E+03  0.00000000000E+00 0. -1.
          1    1    1    2  502    0  0.10041150366E+02 -0.67076450677E+02  0.78050890100E+03  0.78345020230E+03  0.00000000000E+00 0. -1.
         22    1    3    3    0    0 -0.34793176713E+02  0.77597996281E+02  0.21940544865E+03  0.23530993406E+03  0.00000000000E+00 0. -1.
         22    1    3    3    0    0  0.21679164022E+02 -0.34696183736E+02  0.46686001366E+02  0.62075712176E+02  0.00000000000E+00 0. -1.
</event>
<event>
 7    1  0.5622879E-006  0.5489947E+02  0.7818608E-02  0.1477978E+00
          2   -1    0    0  502    0  0.00000000000E+00  0.00000000000E+00  0.42728724603E+03  0.42728724603E+03  0.00000000000E+00 0. -1.
          1   -1    0    0  501    0 -0.00000000000E+00 -0.00000000000E+00 -0.54102545165E+02  0.54102545165E+02  0.00000000000E+00 0. -1.
         25    2    1    2    0    0  0.31807649196E+02 -0.74979640324E+02  0.13941916287E+03  0.20419651395E+03  0.12499936130E+03 0.  0.
          2    1    1    2  501    0 -0.32052397088E+02  0.39035151476E+02  0.11188999104E+02  0.51732899694E+02  0.00000000000E+00 0. -1.
          1    1    1    2  502    0  0.24474789283E+00  0.35944488849E+02  0.22257653889E+03  0.22546037755E+03  0.00000000000E+00 0. -1.
         22    1    3    3    0    0  0.57933194486E+00  0.31337988505E+02  0.60563257940E+02  0.68193206123E+02  0.00000000000E+00 0. -1.
         22    1    3    3    0    0  0.31228317251E+02 -0.10631762883E+03  0.78855904930E+02  0.13600330783E+03  0.00000000000E+00 0. -1.
</event>
<event>
 7    1  0.5622879E-006  0.6029773E+02  0.7818608E-02  0.1449866E+00
          2   -1    0    0  502    0  0.00000000000E+00  0.00000000000E+00  0.66633441728E+02  0.66633441728E+02  0.00000000000E+00 0. -1.
          1   -1    0    0  501    0 -0.00000000000E+00 -0.00000000000E+00 -0.13007182773E+04  0.13007182773E+04  0.00000000000E+00 0. -1.
         25    2    1    2    0    0  0.92898532431E+02 -0.95343236671E+01 -0.18343223898E+03  0.24081876454E+03  0.12500100159E+03 0.  0.
          2    1    1    2  501    0 -0.38985026285E+02 -0.93785495903E+01 -0.10664903460E+04  0.10672438557E+04  0.00000000000E+00 0. -1.
          1    1    1    2  502    0 -0.53913506146E+02  0.18912873257E+02  0.15837749455E+02  0.59289098724E+02  0.00000000000E+00 0. -1.
         22    1    3    3    0    0  0.90628602419E+02 -0.28144420716E+02 -0.52304983482E+02  0.10835803289E+03  0.00000000000E+00 0.  1.
         22    1    3    3    0    0  0.22699300118E+01  0.18610097049E+02 -0.13112725550E+03  0.13246073165E+03  0.00000000000E+00 0.  1.
</event>
<event>
 7    1  0.5622879E-006  0.1432592E+03  0.7818608E-02  0.1336749E+00
          2   -1    0    0  502    0  0.00000000000E+00  0.00000000000E+00  0.38066730951E+03  0.38066730951E+03  0.00000000000E+00 0. -1.
          1   -1    0    0  501    0 -0.00000000000E+00 -0.00000000000E+00 -0.11053348118E+04  0.11053348118E+04  0.00000000000E+00 0. -1.
         25    2    1    2    0    0 -0.33764520343E+02 -0.13780619830E+03 -0.30754544131E+03  0.36102212591E+03  0.12498874270E+03 0.  0.
          2    1    1    2  501    0  0.73457847837E+02  0.12482516513E+03 -0.76298226522E+03  0.77660756775E+03  0.00000000000E+00 0. -1.
          1    1    1    2  502    0 -0.39693327494E+02  0.12981033176E+02  0.34586020424E+03  0.34837242765E+03  0.00000000000E+00 0. -1.
         22    1    3    3    0    0 -0.38785851184E+02 -0.83246160736E+01 -0.15912863083E+03  0.16399866656E+03  0.00000000000E+00 0.  1.
         22    1    3    3    0    0  0.50213308410E+01 -0.12948158223E+03 -0.14841681048E+03  0.19702345935E+03  0.00000000000E+00 0.  1.
</event>
<event>
 7    1  0.5622879E-006  0.1405020E+03  0.7818608E-02  0.1290982E+00
          2   -1    0    0  502    0  0.00000000000E+00  0.00000000000E+00  0.77785494685E+03  0.77785494685E+03  0.00000000000E+00 0. -1.
          1   -1    0    0  501    0 -0.00000000000E+00 -0.00000000000E+00 -0.13169141059E+03  0.13169141059E+03  0.00000000000E+00 0. -1.
         25    2    1    2    0    0 -0.82764212469E+01 -0.17266572503E+03  0.40580005380E+02  0.21714509739E+03  0.12499321875E+03 0.  0.
          2    1    1    2  501    0  0.36583349646E+02  0.11487576860E+03  0.45855790821E+02  0.12898657773E+03  0.00000000000E+00 0. -1.
          1    1    1    2  502    0 -0.28306928399E+02  0.57789956432E+02  0.55972774006E+03  0.56341468232E+03  0.00000000000E+00 0. -1.
         22    1    3    3    0    0  0.56623287822E+02 -0.72945801514E+02  0.32486270358E+02  0.97890982445E+02  0.00000000000E+00 0.  1.
         22    1    3    3    0    0 -0.64899709069E+02 -0.99719923521E+02  0.80937350220E+01  0.11925411494E+03  0.00000000000E+00 0.  1.
</event>
<event>
 7    1  0.5622879E-006  0.1415460E+03  0.7818608E-02  0.1221581E+00
          2   -1    0    0  502    0  0.00000000000E+00  0.00000000000E+00  0.13261051670E+04  0.13261051670E+04  0.00000000000E+00 0. -1.
          1   -1    0    0  501    0 -0.00000000000E+00 -0.00000000000E+00 -0.14181902416E+03  0.14181902416E+03  0.00000000000E+00 0. -1.
         25    2    1    2    0    0  0.98327606843E+02 -0.26170262257E+02  0.65990451094E+03  0.67930070895E+03  0.12498915441E+03 0.  0.
          2    1    1    2  501    0  0.12634102181E+03 -0.12235649329E+02 -0.74953909262E+02  0.14741049291E+03  0.00000000000E+00 0. -1.
          1    1    1    2  502    0 -0.22466862866E+03  0.38405911587E+02  0.59933554117E+03  0.64121298931E+03  0.00000000000E+00 0. -1.
         22    1    3    3    0    0  0.10790418819E+03 -0.15769336867E+02  0.65547566474E+03  0.66448501328E+03  0.00000000000E+00 0.  1.
         22    1    3    3    0    0 -0.95765813510E+01 -0.10400925391E+02  0.44288462079E+01  0.14815695667E+02  0.00000000000E+00 0.  1.
</event>
<event>
 7    1  0.5622879E-006  0.3950111E+02  0.7818608E-02  0.1562786E+00
          2   -1    0    0  502    0  0.00000000000E+00  0.00000000000E+00  0.38220939253E+03  0.38220939253E+03  0.00000000000E+00 0. -1.
          1   -1    0    0  501    0 -0.00000000000E+00 -0.00000000000E+00 -0.14364834941E+04  0.14364834941E+04  0.00000000000E+00 0. -1.
         25    2    1    2    0    0 -0.60684339762E+02  0.17747600297E+02  0.24954682960E+02  0.14228407894E+03  0.12499782602E+03 0.  0.
          2    1    1    2  501    0  0.39419120568E+02  0.97149032259E+00 -0.13768639046E+04  0.13774284093E+04  0.00000000000E+00 0. -1.
          1    1    1    2  502    0  0.21265219194E+02 -0.18719090619E+02  0.29763512011E+03  0.29898039839E+03  0.00000000000E+00 0. -1.
         22    1    3    3    0    0  0.36546856604E+01  0.33604957074E+02 -0.38016246365E+02  0.50871257650E+02  0.00000000000E+00 0.  1.
         22    1    3    3    0    0 -0.64339025423E+02 -0.15857356778E+02  0.62970929325E+02  0.91412821291E+02  0.00000000000E+00 0.  1.
</event>
<event>
 7    1  0.5622879E-006  0.4894946E+02  0.7818608E-02  0.1504423E+00
          2   -1    0    0  502    0  0.00000000000E+00  0.00000000000E+00  0.48062932850E+03  0.48062932850E+03  0.00000000000E+00 0. -1.
          1   -1    0    0  501    0 -0.00000000000E+00 -0.00000000000E+00 -0.67701583597E+03  0.67701583597E+03  0.00000000000E+00 0. -1.
         25    2    1    2    0    0 -0.40893340553E+02  0.63240148763E+02 -0.37192362190E+03  0.39952984570E+03  0.12500134142E+03 0.  0.
          2    1    1    2  501    0  0.29653999522E+02 -0.15673696956E+02 -0.28903728880E+03  0.29097693857E+03  0.00000000000E+00 0. -1.
          1    1    1    2  502    0  0.11239341031E+02 -0.47566451806E+02  0.46457440323E+03  0.46713838020E+03  0.00000000000E+00 0. -1.
         22    1    3    3    0    0 -0.21028978005E+02 -0.24714147706E+02 -0.22364590173E+03  0.22598782350E+03  0.00000000000E+00 0.  1.
         22    1    3    3    0    0 -0.19864362548E+02  0.87954296468E+02 -0.14827772017E+03  0.17354202219E+03  0.00000000000E+00 0.  1.
</event>
<event>
 7    1  0.5622879E-006  0.5861864E+02  0.7818608E-02  0.1503254E+00
          2   -1    0    0  502    0  0.00000000000E+00  0.00000000000E+00  0.68593213004E+02  0.68593213004E+02  0.00000000000E+00 0. -1.
          1   -1    0    0  501    0 -0.00000000000E+00 -0.00000000000E+00 -0.10005007502E+04  0.10005007502E+04  0.00000000000E+00 0. -1.
         25    2    1    2    0    0 -0.21303223702E+02  0.83182513200E+02 -0.16917427387E+03  0.22719760573E+03  0.12500263704E+03 0.  0.
          2    1    1    2  501    0  0.13822757612E+02 -0.55958142452E+02 -0.79610203416E+03  0.79818596275E+03  0.00000000000E+00 0. -1.
          1    1    1    2  502    0  0.74804660905E+01 -0.27224370748E+02  0.33368770863E+02  0.43710394695E+02  0.00000000000E+00 0. -1.
         22    1    3    3    0    0 -0.36202769169E+02  0.49885456155E+02 -0.17908598595E+03  0.18939638221E+03  0.00000000000E+00 0.  1.
         22    1    3    3    0    0  0.14899545466E+02  0.33297057046E+02  0.99117120822E+01  0.37801223517E+02  0.00000000000E+00 0.  1.
</event>
<event>
 7    1  0.5622879E-006  0.3403516E+02  0.7818608E-02  0.1584296E+00
          2   -1    0    0  502    0  0.00000000000E+00  0.00000000000E+00  0.23162241111E+03  0.23162241111E+03  0.00000000000E+00 0. -1.
          1   -1    0    0  501    0 -0.00000000000E+00 -0.00000000000E+00 -0.29694148853E+03  0.29694148853E+03  0.00000000000E+00 0. -1.
         25    2    1    2    0    0 -0.33246140196E+02  0.46761018784E+02 -0.57537201496E+02  0.14908752219E+03  0.12499864400E+03 0.  0.
          2    1    1    2  501    0  0.25115010434E+02 -0.14010258104E+02 -0.19101200339E+03  0.19316479110E+03  0.00000000000E+00 0. -1.
          1    1    1    2  502    0  0.81311297614E+01 -0.32750760680E+02  0.18323012747E+03  0.18631158635E+03  0.00000000000E+00 0. -1.
         22    1    3    3    0    0 -0.42647131265E+02  0.85353515750E+02 -0.52896111599E+02  0.10909628352E+03  0.00000000000E+00 0. -1.
         22    1    3    3    0    0  0.94009910698E+01 -0.38592496966E+02 -0.46410898961E+01  0.39991238673E+02  0.00000000000E+00 0. -1.
</event>
<event>
 7    1  0.5622879E-006  0.8228540E+02  0.7818608E-02  0.1441269E+00
          2   -1    0    0  502    0  0.00000000000E+00  0.00000000000E+00  0.64724114755E+03  0.64724114755E+03  0.00000000000E+00 0. -1.
          1   -1    0    0  501    0 -0.00000000000E+00 -0.00000000000E+00 -0.29013808394E+03  0.29013808394E+03  0.00000000000E+00 0. -1.
         25    2    1    2    0    0  0.52675623231E+02 -0.62433481250E+02  0.12038552953E+03  0.19182716372E+03  0.12502929320E+03 0.  0.
          2    1    1    2  501    0 -0.26751373054E+02 -0.16281442834E+02 -0.24993711030E+03  0.25189140606E+03  0.00000000000E+00 0. -1.
          1    1    1    2  502    0 -0.25924250176E+02  0.78714924084E+02  0.48665464438E+03  0.49366066170E+03  0.00000000000E+00 0. -1.
         22    1    3    3    0    0  0.54155108660E+02 -0.58645052317E+02  0.89586179676E+01  0.80326053004E+02  0.00000000000E+00 0.  1.
         22    1    3    3    0    0 -0.14794854293E+01 -0.37884289333E+01  0.11142691157E+03  0.11150111072E+03  0.00000000000E+00 0.  1.
</event>
<event>
 7    1  0.5622879E-006  0.1115242E+03  0.7818608E-02  0.1265306E+00
          2   -1    0    0  502    0  0.00000000000E+00  0.00000000000E+00  0.22956915942E+03  0.22956915942E+03  0.00000000000E+00 0. -1.
          1   -1    0    0  501    0 -0.00000000000E+00 -0.00000000000E+00 -0.32097483144E+03  0.32097483144E+03  0.00000000000E+00 0. -1.
         25    2    1    2    0    0  0.27026916145E+02 -0.49922281812E+02 -0.97563996756E+02  0.16842221043E+03  0.12499847634E+03 0.  0.
          2    1    1    2  501    0  0.96615181681E+02  0.37354772568E+02 -0.15015867560E+03  0.18242121648E+03  0.00000000000E+00 0. -1.
          1    1    1    2  502    0 -0.12364209783E+03  0.12567509243E+02  0.15631700034E+03  0.19970056394E+03  0.00000000000E+00 0. -1.
         22    1    3    3    0    0  0.34902876223E+02 -0.51688243070E+02  0.77060255694E+01  0.62843202261E+02  0.00000000000E+00 0. -1.
         22    1    3    3    0    0 -0.78759600782E+01  0.17659612582E+01 -0.10527002233E+03  0.10557900817E+03  0.00000000000E+00 0. -1.
</event>
<event>
 7    1  0.5622879E-006  0.1934552E+03  0.7818608E-02  0.1235617E+00
          2   -1    0    0  502    0  0.00000000000E+00  0.00000000000E+00  0.84530694724E+03  0.84530694724E+03  0.00000000000E+00 0. -1.
          1   -1    0    0  501    0 -0.00000000000E+00 -0.00000000000E+00 -0.29001290350E+03  0.29001290350E+03  0.00000000000E+00 0. -1.
         25    2    1    2    0    0 -0.12407254187E+03 -0.87835897251E+02  0.14843658604E+01  0.19681599717E+03  0.12500077163E+03 0.  0.
          2    1    1    2  501    0  0.20438519075E+03  0.87076581459E+02 -0.12503115151E+03  0.25492827635E+03  0.00000000000E+00 0. -1.
          1    1    1    2  502    0 -0.80312648874E+02  0.75931579201E+00  0.67884082939E+03  0.68357557722E+03  0.00000000000E+00 0. -1.
         22    1    3    3    0    0 -0.41447682716E+02  0.17645130731E+02  0.36893378458E+02  0.58226990435E+02  0.00000000000E+00 0.  1.
         22    1    3    3    0    0 -0.82624859156E+02 -0.10548102798E+03 -0.35409012598E+02  0.13858900673E+03  0.00000000000E+00 0.  1.
</event>
<event>
 7    1  0.5622879E-006  0.1018039E+03  0.7818608E-02  0.1443897E+00
          2   -1    0    0  502    0  0.00000000000E+00  0.00000000000E+00  0.28498599937E+03  0.28498599937E+03  0.00000000000E+00 0. -1.
          1   -1    0    0  501    0 -0.00000000000E+00 -0.00000000000E+00 -0.73593003532E+03  0.73593003532E+03  0.00000000000E+00 0. -1.
         25    2    1    2    0    0 -0.19683875807E+02 -0.93461119797E+02 -0.86217212276E+02  0.17939146372E+03  0.12500181471E+03 0.  0.
          2    1    1    2  501    0  0.23124277954E+02 -0.90214162617E+01 -0.59182733500E+03  0.59234762820E+03  0.00000000000E+00 0. -1.
          1    1    1    2  502    0 -0.34404021471E+01  0.10248253606E+03  0.22710051133E+03  0.24917694278E+03  0.00000000000E+00 0. -1.
         22    1    3    3    0    0  0.28928683514E+02  0.18854445468E+02 -0.13795593391E+02  0.37184368231E+02  0.00000000000E+00 0.  1.
         22    1    3    3    0    0 -0.48612559321E+02 -0.11231556526E+03 -0.72421618886E+02  0.14220709549E+03  0.00000000000E+00 0.  1.
</event>
<event>
 7    1  0.5622879E-006  0.2656645E+02  0.7818608E-02  0.1680502E+00
          2   -1    0    0  502    0  0.00000000000E+00  0.00000000000E+00  0.25184454773E+02  0.25184454773E+02  0.00000000000E+00 0. -1.
          1   -1    0    0  501    0 -0.00000000000E+00 -0.00000000000E+00 -0.25450791296E+04  0.25450791296E+04  0.00000000000E+00 0. -1.
         25    2    1    2    0    0 -0.69681180530E+01  0.32617720824E+01 -0.12734738451E+04  0.12796190377E+04  0.12502021351E+03 0.  0.
          2    1    1    2  501    0  0.16173080058E+02 -0.22283692871E+02 -0.12632992600E+04  0.12635992845E+04  0.00000000000E+00 0. -1.
          1    1    1    2  502    0 -0.92049620046E+01  0.19021920789E+02  0.16878430257E+02  0.27045262135E+02  0.00000000000E+00 0. -1.
         22    1    3    3    0    0 -0.38099330239E+02  0.48349021771E+02 -0.43203777497E+03  0.43640099206E+03  0.00000000000E+00 0.  1.
         22    1    3    3    0    0  0.31131212186E+02 -0.45087249688E+02 -0.84143607011E+03  0.84321804567E+03  0.00000000000E+00 0.  1.
</event>
<event>
 7    1  0.5622879E-006  0.6986783E+02  0.7818608E-02  0.1361136E+00
          2   -1    0    0  502    0  0.00000000000E+00  0.00000000000E+00  0.17286935489E+04  0.17286935489E+04  0.00000000000E+00 0. -1.
          1   -1    0    0  501    0 -0.00000000000E+00 -0.00000000000E+00 -0.19814443206E+04  0.19814443206E+04  0.00000000000E+00 0. -1.
         25    2    1    2    0    0 -0.13289354951E+02 -0.25073249280E+02 -0.82299430624E+02  0.15232744537E+03  0.12500071819E+03 0.  0.
          2    1    1    2  501    0 -0.52292922936E+02  0.48142077374E+02 -0.18627393638E+04  0.18640949940E+04  0.00000000000E+00 0. -1.
          1    1    1    2  502    0  0.65582277887E+02 -0.23068828094E+02  0.16922880228E+04  0.16937154301E+04  0.00000000000E+00 0. -1.
         22    1    3    3    0    0  0.13833816851E+02  0.46708367801E+02 -0.17082202898E+02  0.51622163527E+02  0.00000000000E+00 0.  1.
         22    1    3    3    0    0 -0.27123171803E+02 -0.71781617082E+02 -0.65217227727E+02  0.10070528185E+03  0.00000000000E+00 0.  1.
</event>
<event>
 7    1  0.5622879E-006  0.3646229E+02  0.7818608E-02  0.1626047E+00
          2   -1    0    0  502    0  0.00000000000E+00  0.00000000000E+00  0.84798557023E+03  0.84798557023E+03  0.00000000000E+00 0. -1.
          1   -1    0    0  501    0 -0.00000000000E+00 -0.00000000000E+00 -0.11904072153E+04  0.11904072153E+04  0.00000000000E+00 0. -1.
         25    2    1    2    0    0  0.49871871512E+02  0.28149679812E+02 -0.12574799555E+02  0.13806898436E+03  0.12500124326E+03 0.  0.
          2    1    1    2  501    0 -0.31935228951E+02 -0.17392021013E+02 -0.11146494942E+04  0.11152425011E+04  0.00000000000E+00 0. -1.
          1    1    1    2  502    0 -0.17936642561E+02 -0.10757658799E+02  0.78480264869E+03  0.78508130010E+03  0.00000000000E+00 0. -1.
         22    1    3    3    0    0  0.74494798000E+01 -0.26445452182E+02  0.41860743434E+02  0.50071733855E+02  0.00000000000E+00 0.  1.
         22    1    3    3    0    0  0.42422391712E+02  0.54595131994E+02 -0.54435542989E+02  0.87997250506E+02  0.00000000000E+00 0.  1.
</event>
<event>
 7    1  0.5622879E-006  0.1012915E+03  0.7818608E-02  0.1326994E+00
          2   -1    0    0  502    0  0.00000000000E+00  0.00000000000E+00  0.56412903413E+02  0.56412903413E+02  0.00000000000E+00 0. -1.
          1   -1    0    0  501    0 -0.00000000000E+00 -0.00000000000E+00 -0.76882686524E+03  0.76882686524E+03  0.00000000000E+00 0. -1.
         25    2    1    2    0    0  0.46820656951E+01  0.57539354982E+02 -0.20560774207E+03  0.24745106213E+03  0.12499914176E+03 0.  0.
          2    1    1    2  501    0 -0.46877986909E+02 -0.10611213403E+03 -0.49977792262E+03  0.51306461833E+03  0.00000000000E+00 0. -1.
          1    1    1    2  502    0  0.42195921214E+02  0.48572779047E+02 -0.70282971425E+01  0.64724088191E+02  0.00000000000E+00 0. -1.
         22    1    3    3    0    0 -0.58847752019E+01 -0.29785637646E+02 -0.83792421628E+01  0.31496451997E+02  0.00000000000E+00 0. -1.
         22    1    3    3    0    0  0.10566840897E+02  0.87324992629E+02 -0.19722849990E+03  0.21595461013E+03  0.00000000000E+00 0. -1.
</event>
<event>
 7    1  0.5622879E-006  0.9556080E+02  0.7818608E-02  0.1349642E+00
          2   -1    0    0  502    0  0.00000000000E+00  0.00000000000E+00  0.15118664121E+03  0.15118664121E+03  0.00000000000E+00 0. -1.
          1   -1    0    0  501    0 -0.00000000000E+00 -0.00000000000E+00 -0.77611327762E+03  0.77611327762E+03  0.00000000000E+00 0. -1.
         25    2    1    2    0    0  0.63721465838E+02  0.33113992876E+02 -0.14871731245E+02  0.14492517525E+03  0.12500070519E+03 0.  0.
          2    1    1    2  501    0 -0.45634496281E+02 -0.86135476579E+02 -0.68326846981E+03  0.69018666274E+03  0.00000000000E+00 0. -1.
          1    1    1    2  502    0 -0.18086969557E+02  0.53021483703E+02  0.73213564645E+02  0.92188080845E+02  0.00000000000E+00 0. -1.
         22    1    3    3    0    0 -0.78052615399E+01  0.56882218818E+02 -0.34572453684E+02  0.67020619806E+02  0.00000000000E+00 0. -1.
         22    1    3    3    0    0  0.71526727378E+02 -0.23768225942E+02  0.19700722440E+02  0.77904555441E+02  0.00000000000E+00 0. -1.
</event>
<event>
 7    1  0.5622879E-006  0.4700037E+02  0.7818608E-02  0.1496287E+00
          2   -1    0    0  502    0  0.00000000000E+00  0.00000000000E+00  0.16253716050E+03  0.16253716050E+03  0.00000000000E+00 0. -1.
          1   -1    0    0  501    0 -0.00000000000E+00 -0.00000000000E+00 -0.69798045036E+03  0.69798045036E+03  0.00000000000E+00 0. -1.
         25    2    1    2    0    0  0.18041081970E+01 -0.13184422346E+02  0.54080120279E+02  0.13684259093E+03  0.12499660589E+03 0.  0.
          2    1    1    2  501    0  0.20419261764E+02  0.42691416853E+02 -0.65058795533E+03  0.65230682270E+03  0.00000000000E+00 0. -1.
          1    1    1    2  502    0 -0.22223369961E+02 -0.29506994507E+02  0.61064545184E+02  0.71368197230E+02  0.00000000000E+00 0. -1.
         22    1    3    3    0    0  0.32817010309E+02 -0.23265230566E+02  0.83651366572E+02  0.92821216585E+02  0.00000000000E+00 0. -1.
         22    1    3    3    0    0 -0.31012902112E+02  0.10080808220E+02 -0.29571246293E+02  0.44021374344E+02  0.00000000000E+00 0. -1.
</event>
<event>
 7    1  0.5622879E-006  0.2756117E+02  0.7818608E-02  0.1676768E+00
          2   -1    0    0  502    0  0.00000000000E+00  0.00000000000E+00  0.50215860909E+03  0.50215860909E+03  0.00000000000E+00 0. -1.
          1   -1    0    0  501    0 -0.00000000000E+00 -0.00000000000E+00 -0.56268309520E+02  0.56268309520E+02  0.00000000000E+00 0. -1.
         25    2    1    2    0    0 -0.43261279080E+02 -0.19985445055E+02  0.71661675553E+02  0.15176394349E+03  0.12500377001E+03 0.  0.
          2    1    1    2  501    0  0.20007767853E+02  0.56424907352E+01 -0.88627459814E+01  0.22598600454E+02  0.00000000000E+00 0. -1.
          1    1    1    2  502    0  0.23253511227E+02  0.14342954320E+02  0.38309136999E+03  0.38406437466E+03  0.00000000000E+00 0. -1.
         22    1    3    3    0    0 -0.43912746924E+02 -0.46413758003E+02 -0.11127226773E+02  0.64856622253E+02  0.00000000000E+00 0. -1.
         22    1    3    3    0    0  0.65146784442E+00  0.26428312948E+02  0.82788902326E+02  0.86907321234E+02  0.00000000000E+00 0. -1.
</event>
<event>
 7    1  0.5622879E-006  0.4857117E+02  0.7818608E-02  0.1482034E+00
          2   -1    0    0  502    0  0.00000000000E+00  0.00000000000E+00  0.77851919250E+03  0.77851919250E+03  0.00000000000E+00 0. -1.
          1   -1    0    0  501    0 -0.00000000000E+00 -0.00000000000E+00 -0.16307653526E+04  0.16307653526E+04  0.00000000000E+00 0. -1.
         25    2    1    2    0    0 -0.35780946204E+02  0.78972767159E+02 -0.79429053866E+01  0.15232628980E+03  0.12499293881E+03 0.  0.
          2    1    1    2  501    0  0.21962521301E+02 -0.32808696579E+02 -0.15495571363E+04  0.15500600252E+04  0.00000000000E+00 0. -1.
          1    1    1    2  502    0  0.13818424903E+02 -0.46164070580E+02  0.70525388159E+03  0.70689823015E+03  0.00000000000E+00 0. -1.
         22    1    3    3    0    0  0.38408146416E+02  0.66127882620E+02  0.11866771110E+01  0.76481963713E+02  0.00000000000E+00 0. -1.
         22    1    3    3    0    0 -0.74189092620E+02  0.12844884540E+02 -0.91295824977E+01  0.75844326084E+02  0.00000000000E+00 0. -1.
</event>
<event>
 7    1  0.5622879E-006  0.2377445E+03  0.7818608E-02  0.1206879E+00
          2   -1    0    0  502    0  0.00000000000E+00  0.00000000000E+00  0.22150063842E+04  0.22150063842E+04  0.00000000000E+00 0. -1.
          1   -1    0    0  501    0 -0.00000000000E+00 -0.00000000000E+00 -0.52646398980E+02  0.52646398980E+02  0.00000000000E+00 0. -1.
         25    2    1    2    0    0 -0.75221501322E+02  0.22717420525E+03  0.88847759458E+03  0.92859258147E+03  0.12500141004E+03 0.  0.
          2    1    1    2  501    0 -0.11792380324E+02 -0.24229437788E+03  0.45677228568E+03  0.51719101573E+03  0.00000000000E+00 0. -1.
          1    1    1    2  502    0  0.87013881646E+02  0.15120172632E+02  0.81711010496E+03  0.82186918597E+03  0.00000000000E+00 0. -1.
         22    1    3    3    0    0 -0.10317524941E+03  0.12799016111E+03  0.60609948197E+03  0.62799935946E+03  0.00000000000E+00 0. -1.
         22    1    3    3    0    0  0.27953748092E+02  0.99184044139E+02  0.28237811260E+03  0.30059322201E+03  0.00000000000E+00 0. -1.
</event>
<event>
 7    1  0.5622879E-006  0.8747768E+02  0.7818608E-02  0.1322575E+00
          2   -1    0    0  502    0  0.00000000000E+00  0.00000000000E+00  0.11891776153E+04  0.11891776153E+04  0.00000000000E+00 0. -1.
          1   -1    0    0  501    0 -0.00000000000E+00 -0.00000000000E+00 -0.13841682223E+03  0.13841682223E+03  0.00000000000E+00 0. -1.
         25    2    1    2    0    0 -0.59410305677E+02  0.52681406562E+02  0.53252486643E+03  0.55273233325E+03  0.12500153534E+03 0.  0.
          2    1    1    2  501    0 -0.38692998498E+02 -0.67125842027E+02 -0.11237854544E+03  0.13649895339E+03  0.00000000000E+00 0. -1.
          1    1    1    2  502    0  0.98103304175E+02  0.14444435465E+02  0.63061447211E+03  0.63836315091E+03  0.00000000000E+00 0. -1.
         22    1    3    3    0    0 -0.79319993604E+02  0.40798744333E+02  0.19522957268E+03  0.21464106078E+03  0.00000000000E+00 0. -1.
         22    1    3    3    0    0  0.19909687927E+02  0.11882662229E+02  0.33729529375E+03  0.33809127247E+03  0.00000000000E+00 0. -1.
</event>
<event>
 7    1  0.5622879E-006  0.9531280E+02  0.7818608E-02  0.1448253E+00
          2   -1    0    0  502    0  0.00000000000E+00  0.00000000000E+00  0.90569932930E+03  0.90569932930E+03  0.00000000000E+00 0. -1.
          1   -1    0    0  501    0 -0.00000000000E+00 -0.00000000000E+00 -0.15561669888E+04  0.15561669888E+04  0.00000000000E+00 0. -1.
         25    2    1    2    0    0 -0.28136987215E+02  0.63863813547E+02  0.79570290408E+03  0.80847953465E+03  0.12500307859E+03 0.  0.
          2    1    1    2  501    0  0.36034766062E+02 -0.88288983992E+02 -0.15466973518E+04  0.15496341978E+04  0.00000000000E+00 0. -1.
          1    1    1    2  502    0 -0.78977788468E+01  0.24425170445E+02  0.10052678824E+03  0.10375258559E+03  0.00000000000E+00 0. -1.
         22    1    3    3    0    0  0.38982770601E+02  0.43887988827E+02  0.19321070388E+03  0.20193114683E+03  0.00000000000E+00 0.  1.
         22    1    3    3    0    0 -0.67119757816E+02  0.19975824720E+02  0.60249220020E+03  0.60654838782E+03  0.00000000000E+00 0.  1.
</event>
<event>
 7    1  0.5622879E-006  0.6515411E+02  0.7818608E-02  0.1482665E+00
          2   -1    0    0  502    0  0.00000000000E+00  0.00000000000E+00  0.12437286320E+03  0.12437286320E+03  0.00000000000E+00 0. -1.
          1   -1    0    0  501    0 -0.00000000000E+00 -0.00000000000E+00 -0.45006915760E+03  0.45006915760E+03  0.00000000000E+00 0. -1.
         25    2    1    2    0    0 -0.26316328110E+02 -0.26381451789E+02  0.56474975935E+01  0.13056636199E+03  0.12500860183E+03 0.  0.
          2    1    1    2  501    0  0.43242260280E+02  0.50300406532E+02 -0.38072225427E+03  0.38645757706E+03  0.00000000000E+00 0. -1.
          1    1    1    2  502    0 -0.16925932170E+02 -0.23918954742E+02  0.49378462271E+02  0.57418081752E+02  0.00000000000E+00 0. -1.
         22    1    3    3    0    0 -0.26971215632E+02 -0.57713013803E+01  0.63455490685E+02  0.69190705231E+02  0.00000000000E+00 0.  1.
         22    1    3    3    0    0  0.65488752205E+00 -0.20610150409E+02 -0.57807993092E+02  0.61375656761E+02  0.00000000000E+00 0.  1.
</event>
<event>
 7    1  0.5622879E-006  0.8703052E+02  0.7818608E-02  0.1346086E+00
          2   -1    0    0  502    0  0.00000000000E+00  0.00000000000E+00  0.23091566158E+04  0.23091566158E+04  0.00000000000E+00 0. -1.
          1   -1    0    0  501    0 -0.00000000000E+00 -0.00000000000E+00 -0.21683213988E+04  0.21683213988E+04  0.00000000000E+00 0. -1.
         25    2    1    2    0    0  0.11220377482E+03 -0.95847574905E+02 -0.42464475857E+02  0.19800119652E+03  0.12499918965E+03 0.  0.
          2    1    1    2  501    0 -0.56770343276E+02  0.65051864120E+02 -0.20467276991E+04  0.20485479958E+04  0.00000000000E+00 0. -1.
          1    1    1    2  502    0 -0.55433431546E+02  0.30795710785E+02  0.22300273920E+04  0.22309288223E+04  0.00000000000E+00 0. -1.
         22    1    3    3    0    0  0.12263087960E+03 -0.10151667391E+03 -0.65454289664E+02  0.17212853264E+03  0.00000000000E+00 0.  1.
         22    1    3    3    0    0 -0.10427104774E+02  0.56690990068E+01  0.22989813807E+02  0.25872663883E+02  0.00000000000E+00 0.  1.
</event>
<event>
 7    1  0.5622879E-006  0.5207225E+02  0.7818608E-02  0.1501866E+00
          2   -1    0    0  502    0  0.00000000000E+00  0.00000000000E+00  0.19493276135E+04  0.19493276135E+04  0.00000000000E+00 0. -1.
          1   -1    0    0  501    0 -0.00000000000E+00 -0.00000000000E+00 -0.17106434256E+02  0.17106434256E+02  0.00000000000E+00 0. -1.
         25    2    1    2    0    0  0.12711200684E+02  0.39716258456E+02  0.37622325755E+03  0.39864695719E+03  0.12504599613E+03 0.  0.
          2    1    1    2  501    0  0.14901031103E+02 -0.56059139064E+02  0.14153387555E+03  0.15295916359E+03  0.00000000000E+00 0. -1.
          1    1    1    2  502    0 -0.27612231787E+02  0.16342880608E+02  0.14144640461E+04  0.14148279269E+04  0.00000000000E+00 0. -1.
         22    1    3    3    0    0  0.29115494101E+02  0.79393540589E+02  0.19756714692E+03  0.21490422012E+03  0.00000000000E+00 0.  1.
         22    1    3    3    0    0 -0.16404293417E+02 -0.39677282133E+02  0.17865611064E+03  0.18374273708E+03  0.00000000000E+00 0.  1.
</event>
<event>
 7    1  0.5622879E-006  0.3654814E+02  0.7818608E-02  0.1602694E+00
          2   -1    0    0  502    0  0.00000000000E+00  0.00000000000E+00  0.59269091601E+03  0.59269091601E+03  0.00000000000E+00 0. -1.
          1   -1    0    0  501    0 -0.00000000000E+00 -0.00000000000E+00 -0.13789298602E+04  0.13789298602E+04  0.00000000000E+00 0. -1.
         25    2    1    2    0    0  0.37845375276E+02  0.91104243972E+01  0.16379998022E+03  0.20969190399E+03  0.12499995526E+03 0.  0.
          2    1    1    2  501    0 -0.40910115885E+01 -0.23600534972E+02 -0.13550468659E+04  0.13552585474E+04  0.00000000000E+00 0. -1.
          1    1    1    2  502    0 -0.33754363687E+02  0.14490110575E+02  0.40500794150E+03  0.40667032477E+03  0.00000000000E+00 0. -1.
         22    1    3    3    0    0  0.40752117098E+02 -0.33841091490E+02  0.15751793475E+03  0.16618620367E+03  0.00000000000E+00 0.  1.
         22    1    3    3    0    0 -0.29067418219E+01  0.42951515887E+02  0.62820454724E+01  0.43505700320E+02  0.00000000000E+00 0.  1.
</event>
<event>
 7    1  0.5622879E-006  0.5044536E+02  0.7818608E-02  0.1559774E+00
          2   -1    0    0  502    0  0.00000000000E+00  0.00000000000E+00  0.45043951887E+03  0.45043951887E+03  0.00000000000E+00 0. -1.
          1   -1    0    0  501    0 -0.00000000000E+00 -0.00000000000E+00 -0.34830971680E+02  0.34830971680E+02  0.00000000000E+00 0. -1.
         25    2    1    2    0    0 -0.69447401116E+02  0.12545358913E+02  0.28177934100E+03  0.31622372676E+03  0.12497007963E+03 0.  0.
          2    1    1    2  501    0  0.47646447159E+02 -0.65472994434E+01  0.18512332146E+02  0.51534042131E+02  0.00000000000E+00 0. -1.
          1    1    1    2  502    0  0.21800953957E+02 -0.59980594699E+01  0.11531687404E+03  0.11751272165E+03  0.00000000000E+00 0. -1.
         22    1    3    3    0    0 -0.40842584859E+02 -0.54844131663E+02  0.11039181115E+03  0.12985510188E+03  0.00000000000E+00 0. -1.
         22    1    3    3    0    0 -0.28604816257E+02  0.67389490576E+02  0.17138752985E+03  0.18636862488E+03  0.00000000000E+00 0. -1.
</event>
<event>
 7    1  0.5622879E-006  0.4717150E+02  0.7818608E-02  0.1510898E+00
          2   -1    0    0  502    0  0.00000000000E+00  0.00000000000E+00  0.20601213480E+03  0.20601213480E+03  0.00000000000E+00 0. -1.
          1   -1    0    0  501    0 -0.00000000000E+00 -0.00000000000E+00 -0.64561663340E+03  0.64561663340E+03  0.00000000000E+00 0. -1.
         25    2    1    2    0    0 -0.69736926169E+02  0.22506378372E+02 -0.13466453323E+03  0.19781579515E+03  0.12500710524E+03 0.  0.
          2    1    1    2  501    0  0.23005971514E+02 -0.24083868411E+02 -0.47565030611E+03  0.47681497580E+03  0.00000000000E+00 0. -1.
          1    1    1    2  502    0  0.46730954655E+02  0.15774900391E+01  0.17071034073E+03  0.17699799725E+03  0.00000000000E+00 0. -1.
         22    1    3    3    0    0 -0.50705450582E+02 -0.14040801751E+02  0.43786520860E+01  0.52795448920E+02  0.00000000000E+00 0. -1.
         22    1    3    3    0    0 -0.19031475586E+02  0.36547180123E+02 -0.13904318531E+03  0.14502034623E+03  0.00000000000E+00 0. -1.
</event>
<event>
 7    1  0.5622879E-006  0.6161913E+02  0.7818608E-02  0.1540239E+00
          2   -1    0    0  502    0  0.00000000000E+00  0.00000000000E+00  0.64852062399E+03  0.64852062399E+03  0.00000000000E+00 0. -1.
          1   -1    0    0  501    0 -0.00000000000E+00 -0.00000000000E+00 -0.12665523054E+04  0.12665523054E+04  0.00000000000E+00 0. -1.
         25    2    1    2    0    0  0.70329483980E+02  0.24919352698E+02  0.29691556974E+03  0.33068265496E+03  0.12499980913E+03 0.  0.
          2    1    1    2  501    0 -0.19772256344E+02  0.70316687366E+01 -0.12469082185E+04  0.12470847974E+04  0.00000000000E+00 0. -1.
          1    1    1    2  502    0 -0.50557227637E+02 -0.31951021435E+02  0.33196096732E+03  0.33730547707E+03  0.00000000000E+00 0. -1.
         22    1    3    3    0    0  0.16421109032E+02  0.64397332786E+02  0.21463704839E+03  0.22469030204E+03  0.00000000000E+00 0.  1.
         22    1    3    3    0    0  0.53908374948E+02 -0.39477980088E+02  0.82278521353E+02  0.10599235292E+03  0.00000000000E+00 0.  1.
</event>
<event>
 7    1  0.5622879E-006  0.9782418E+02  0.7818608E-02  0.1309762E+00
          2   -1    0    0  502    0  0.00000000000E+00  0.00000000000E+00  0.24863851184E+03  0.24863851184E+03  0.00000000000E+00 0. -1.
          1   -1    0    0  501    0 -0.00000000000E+00 -0.00000000000E+00 -0.52747170727E+03  0.52747170727E+03  0.00000000000E+00 0. -1.
         25    2    1    2    0    0  0.58815702837E+02  0.28931741976E+02 -0.42832912595E+02  0.14750147677E+03  0.12500277859E+03 0.  0.
          2    1    1    2  501    0  0.39891711021E+02 -0.66725266935E+02 -0.41419397931E+03  0.42142646138E+03  0.00000000000E+00 0. -1.
          1    1    1    2  502    0 -0.98707413859E+02  0.37793524959E+02  0.17819369647E+03  0.20718228096E+03  0.00000000000E+00 0. -1.
         22    1    3    3    0    0 -0.12358596966E+02  0.53279926232E+02 -0.47067800861E+02  0.72158598490E+02  0.00000000000E+00 0.  1.
         22    1    3    3    0    0  0.71174299803E+02 -0.24348184256E+02  0.42348882661E+01  0.75342878281E+02  0.00000000000E+00 0.  1.
</event>
<event>
 7    1  0.5622879E-006  0.1201226E+03  0.7818608E-02  0.1366410E+00
          2   -1    0    0  502    0  0.00000000000E+00  0.00000000000E+00  0.90387332264E+03  0.90387332264E+03  0.00000000000E+00 0. -1.
          1   -1    0    0  501    0 -0.00000000000E+00 -0.00000000000E+00 -0.13455508183E+03  0.13455508183E+03  0.00000000000E+00 0. -1.
         25    2    1    2    0    0  0.70274845597E+02  0.10374507640E+03  0.52068578779E+02  0.18449439292E+03  0.12500179728E+03 0.  0.
          2    1    1    2  501    0  0.24532380765E+02 -0.29921525914E+02 -0.57838283353E+02  0.69587372707E+02  0.00000000000E+00 0. -1.
          1    1    1    2  502    0 -0.94807226362E+02 -0.73823550490E+02  0.77508794539E+03  0.78434663884E+03  0.00000000000E+00 0. -1.
         22    1    3    3    0    0  0.43713280235E+02  0.40196402853E+02 -0.38453678582E+02  0.70748053455E+02  0.00000000000E+00 0.  1.
         22    1    3    3    0    0  0.26561565362E+02  0.63548673551E+02  0.90522257361E+02  0.11374633947E+03  0.00000000000E+00 0.  1.
</event>
<event>
 7    1  0.5622879E-006  0.6851791E+02  0.7818608E-02  0.1413776E+00
          2   -1    0    0  502    0  0.00000000000E+00  0.00000000000E+00  0.17176280133E+03  0.17176280133E+03  0.00000000000E+00 0. -1.
          1   -1    0    0  501    0 -0.00000000000E+00 -0.00000000000E+00 -0.14979040479E+04  0.14979040479E+04  0.00000000000E+00 0. -1.
         25    2    1    2    0    0  0.48927968736E+01  0.27307161765E+02 -0.13066554129E+03  0.18294607839E+03  0.12500465340E+03 0.  0.
          2    1    1    2  501    0 -0.40195994098E+02 -0.57354179061E+02 -0.13364683450E+04  0.13383022294E+04  0.00000000000E+00 0. -1.
          1    1    1    2  502    0  0.35303197224E+02  0.30047017296E+02  0.14099263978E+03  0.14841854148E+03  0.00000000000E+00 0. -1.
         22    1    3    3    0    0 -0.34838374321E+02 -0.10440992366E+02  0.49226282539E+01  0.36700938896E+02  0.00000000000E+00 0. -1.
         22    1    3    3    0    0  0.39731171195E+02  0.37748154131E+02 -0.13558816954E+03  0.14624513949E+03  0.00000000000E+00 0. -1.
</event>
<event>
 7    1  0.5622879E-006  0.4909463E+02  0.7818608E-02  0.1462734E+00
          2   -1    0    0  502    0  0.00000000000E+00  0.00000000000E+00  0.10067737552E+03  0.10067737552E+03  0.00000000000E+00 0. -1.
          1   -1    0    0  501    0 -0.00000000000E+00 -0.00000000000E+00 -0.11121559143E+04  0.11121559143E+04  0.00000000000E+00 0. -1.
         25    2    1    2    0    0 -0.60912824355E+02 -0.65718424053E+02 -0.11516927989E+03  0.19214179685E+03  0.12500089454E+03 0.  0.
          2    1    1    2  501    0  0.22196654104E+02  0.43116841093E+02 -0.94972151840E+03  0.95095884031E+03  0.00000000000E+00 0. -1.
          1    1    1    2  502    0  0.38716170251E+02  0.22601582959E+02  0.53412259473E+02  0.69732652704E+02  0.00000000000E+00 0. -1.
         22    1    3    3    0    0 -0.81474495495E+02 -0.82416927987E+02 -0.11813426829E+03  0.16548821341E+03  0.00000000000E+00 0.  1.
         22    1    3    3    0    0  0.20561671140E+02  0.16698503934E+02  0.29649883988E+01  0.26653583435E+02  0.00000000000E+00 0.  1.
</event>
<event>
 7    1  0.5622879E-006  0.1537400E+03  0.7818608E-02  0.1398274E+00
          2   -1    0    0  502    0  0.00000000000E+00  0.00000000000E+00  0.15070118257E+04  0.15070118257E+04  0.00000000000E+00 0. -1.
          1   -1    0    0  501    0 -0.00000000000E+00 -0.00000000000E+00 -0.91694367296E+02  0.91694367296E+02  0.00000000000E+00 0. -1.
         25    2    1    2    0    0  0.13356958785E+03 -0.62031177748E+01  0.58884397269E+03  0.61663784740E+03  0.12500278878E+03 0.  0.
          2    1    1    2  501    0 -0.15580235950E+03  0.13286894210E+02  0.11067187433E+01  0.15637180567E+03  0.00000000000E+00 0. -1.
          1    1    1    2  502    0  0.22232771652E+02 -0.70837764356E+01  0.82536676700E+03  0.82569653996E+03  0.00000000000E+00 0. -1.
         22    1    3    3    0    0  0.10892395157E+02 -0.24034525106E+02  0.16722741643E+02  0.31240242595E+02  0.00000000000E+00 0. -1.
         22    1    3    3    0    0  0.12267719269E+03  0.17831407331E+02  0.57212123105E+03  0.58539760480E+03  0.00000000000E+00 0. -1.
</event>
<event>
 7    1  0.5622879E-006  0.2227691E+03  0.7818608E-02  0.1217787E+00
          2   -1    0    0  502    0  0.00000000000E+00  0.00000000000E+00  0.12556935787E+04  0.12556935787E+04  0.00000000000E+00 0. -1.
          1   -1    0    0  501    0 -0.00000000000E+00 -0.00000000000E+00 -0.20001652253E+03  0.20001652253E+03  0.00000000000E+00 0. -1.
         25    2    1    2    0    0 -0.11220932289E+03 -0.19631986095E+03  0.41904767598E+03  0.49230418024E+03  0.12502012314E+03 0.  0.
          2    1    1    2  501    0  0.32353380026E+02  0.22215619083E+03 -0.82661869404E+02  0.23923440174E+03  0.00000000000E+00 0. -1.
          1    1    1    2  502    0  0.79855942863E+02 -0.25836329883E+02  0.71929124961E+03  0.72417151927E+03  0.00000000000E+00 0. -1.
         22    1    3    3    0    0 -0.32863641828E+02 -0.85131868348E+02  0.62825243335E+02  0.11079018532E+03  0.00000000000E+00 0. -1.
         22    1    3    3    0    0 -0.79345681060E+02 -0.11118799260E+03  0.35622243265E+03  0.38151399492E+03  0.00000000000E+00 0. -1.
</event>
<event>
 7    1  0.5622879E-006  0.5176363E+02  0.7818608E-02  0.1442493E+00
          2   -1    0    0  502    0  0.00000000000E+00  0.00000000000E+00  0.66480440963E+03  0.66480440963E+03  0.00000000000E+00 0. -1.
          1   -1    0    0  501    0 -0.00000000000E+00 -0.00000000000E+00 -0.72593361037E+03  0.72593361037E+03  0.00000000000E+00 0. -1.
         25    2    1    2    0    0 -0.69871294529E+01  0.72158157623E+01 -0.30614461988E+02  0.12909207260E+03  0.12500651963E+03 0.  0.
          2    1    1    2  501    0 -0.42036309663E+02 -0.25813988765E+02 -0.64401886078E+03  0.64590533857E+03  0.00000000000E+00 0. -1.
          1    1    1    2  502    0  0.49023439116E+02  0.18598173003E+02  0.61350412203E+03  0.61574060884E+03  0.00000000000E+00 0. -1.
         22    1    3    3    0    0  0.18744065744E+02 -0.18014669034E+02 -0.70617256223E+02  0.75250682239E+02  0.00000000000E+00 0.  1.
         22    1    3    3    0    0 -0.25731195197E+02  0.25230484796E+02  0.40002794235E+02  0.53841390360E+02  0.00000000000E+00 0.  1.
</event>
<event>
 7    1  0.5622879E-006  0.7198193E+02  0.7818608E-02  0.1444963E+00
          2   -1    0    0  502    0  0.00000000000E+00  0.00000000000E+00  0.48396803299E+02  0.48396803299E+02  0.00000000000E+00 0. -1.
          1   -1    0    0  501    0 -0.00000000000E+00 -0.00000000000E+00 -0.69503963713E+03  0.69503963713E+03  0.00000000000E+00 0. -1.
         25    2    1    2    0    0  0.22437102580E+02  0.84060107868E+02 -0.16425874567E+03  0.22400113933E+03  0.12500419827E+03 0.  0.
          2    1    1    2  501    0  0.18690872582E+02 -0.29388369654E+02 -0.43458211323E+03  0.43597550175E+03  0.00000000000E+00 0. -1.
          1    1    1    2  502    0 -0.41127975162E+02 -0.54671738214E+02 -0.47801974933E+02  0.83459799351E+02  0.00000000000E+00 0. -1.
         22    1    3    3    0    0 -0.21135590835E+01 -0.28371110350E+02 -0.68912329733E+02  0.74553981944E+02  0.00000000000E+00 0.  1.
         22    1    3    3    0    0  0.24550661664E+02  0.11243121822E+03 -0.95346415940E+02  0.14944715739E+03  0.00000000000E+00 0.  1.
</event>
<event>
 7    1  0.5622879E-006  0.9610272E+02  0.7818608E-02  0.1296664E+00
          2   -1    0    0  502    0  0.00000000000E+00  0.00000000000E+00  0.25304914602E+03  0.25304914602E+03  0.00000000000E+00 0. -1.
          1   -1    0    0  501    0 -0.00000000000E+00 -0.00000000000E+00 -0.15773593994E+04  0.15773593994E+04  0.00000000000E+00 0. -1.
         25    2    1    2    0    0 -0.40329859605E+01 -0.40682181898E+02 -0.39767869458E+03  0.41886157813E+03  0.12500149043E+03 0.  0.
          2    1    1    2  501    0  0.87543092081E+02  0.72126228493E+02 -0.11580130098E+04  0.11635549478E+04  0.00000000000E+00 0. -1.
          1    1    1    2  502    0 -0.83510106120E+02 -0.31444046595E+02  0.23138145095E+03  0.24799201950E+03  0.00000000000E+00 0. -1.
         22    1    3    3    0    0  0.34702758325E+02  0.31556065874E+02 -0.10662518023E+03  0.11648603259E+03  0.00000000000E+00 0. -1.
         22    1    3    3    0    0 -0.38735744285E+02 -0.72238247772E+02 -0.29105351435E+03  0.30237554554E+03  0.00000000000E+00 0. -1.
</event>
<event>
 7    1  0.5622879E-006  0.1421490E+03  0.7818608E-02  0.1303948E+00
          2   -1    0    0  502    0  0.00000000000E+00  0.00000000000E+00  0.39738142268E+02  0.39738142268E+02  0.00000000000E+00 0. -1.
          1   -1    0    0  501    0 -0.00000000000E+00 -0.00000000000E+00 -0.13303534149E+04  0.13303534149E+04  0.00000000000E+00 0. -1.
         25    2    1    2    0    0  0.29506906677E+02  0.10080938811E+03 -0.42139163594E+03  0.45191542279E+03  0.12499379282E+03 0.  0.
          2    1    1    2  501    0 -0.34962636995E+02 -0.15695745149E+03 -0.83881591731E+03  0.85409025911E+03  0.00000000000E+00 0. -1.
          1    1    1    2  502    0  0.54557303178E+01  0.56148063377E+02 -0.30407719421E+02  0.64085875313E+02  0.00000000000E+00 0. -1.
         22    1    3    3    0    0 -0.14070033521E+02  0.47925327825E+02 -0.38832128430E+02  0.63267188090E+02  0.00000000000E+00 0.  1.
         22    1    3    3    0    0  0.43576940198E+02  0.52884060287E+02 -0.38255950751E+03  0.38864823470E+03  0.00000000000E+00 0.  1.
</event>
<event>
 7    1  0.5622879E-006  0.1227233E+03  0.7818608E-02  0.1334776E+00
          2   -1    0    0  502    0  0.00000000000E+00  0.00000000000E+00  0.22651350732E+04  0.22651350732E+04  0.00000000000E+00 0. -1.
          1   -1    0    0  501    0 -0.00000000000E+00 -0.00000000000E+00 -0.47814850092E+03  0.47814850092E+03  0.00000000000E+00 0. -1.
         25    2    1    2    0    0 -0.10191646148E+03 -0.60828845120E+02  0.30230415876E+03  0.34799456109E+03  0.12500118652E+03 0.  0.
          2    1    1    2  501    0  0.71615890839E+02  0.10009248258E+03 -0.44666196250E+03  0.46330794256E+03  0.00000000000E+00 0. -1.
          1    1    1    2  502    0  0.30300570640E+02 -0.39263637463E+02  0.19313443760E+04  0.19319810704E+04  0.00000000000E+00 0. -1.
         22    1    3    3    0    0 -0.11180577768E+03 -0.18688243080E+02  0.27333821218E+03  0.29591140666E+03  0.00000000000E+00 0.  1.
         22    1    3    3    0    0  0.98893161995E+01 -0.42140602039E+02  0.28965946575E+02  0.52083154437E+02  0.00000000000E+00 0.  1.
</event>
<event>
 7    1  0.5622879E-006  0.1851191E+03  0.7818608E-02  0.1303277E+00
          2   -1    0    0  502    0  0.00000000000E+00  0.00000000000E+00  0.46608963461E+04  0.46608963461E+04  0.00000000000E+00 0. -1.
          1   -1    0    0  501    0 -0.00000000000E+00 -0.00000000000E+00 -0.25902053605E+03  0.25902053605E+03  0.00000000000E+00 0. -1.
         25    2    1    2    0    0  0.14863766073E+03  0.56201768738E+02 -0.75406841026E+02  0.21578612498E+03  0.12500266821E+03 0.  0.
          2    1    1    2  501    0  0.34490552285E+02 -0.26647146312E+02 -0.10729095417E+03  0.11580594739E+03  0.00000000000E+00 0. -1.
          1    1    1    2  502    0 -0.18312821302E+03 -0.29554622426E+02  0.45845736053E+04  0.45883248098E+04  0.00000000000E+00 0. -1.
         22    1    3    3    0    0  0.30048497317E+02  0.57516480020E+02  0.15067964788E+02  0.66619075555E+02  0.00000000000E+00 0. -1.
         22    1    3    3    0    0  0.11858916342E+03 -0.13147112825E+01 -0.90474805815E+02  0.14916704942E+03  0.00000000000E+00 0. -1.
</event>
<event>
 7    1  0.5622879E-006  0.1223344E+03  0.7818608E-02  0.1323224E+00
          2   -1    0    0  502    0  0.00000000000E+00  0.00000000000E+00  0.65190580248E+03  0.65190580248E+03  0.00000000000E+00 0. -1.
          1   -1    0    0  501    0 -0.00000000000E+00 -0.00000000000E+00 -0.20973236605E+03  0.20973236605E+03  0.00000000000E+00 0. -1.
         25    2    1    2    0    0  0.12333991777E+03 -0.32719955679E+02  0.13931493195E+03  0.22653275346E+03  0.12500042925E+03 0.  0.
          2    1    1    2  501    0 -0.12100047604E+03 -0.22314491113E+02 -0.14140397301E+03  0.18744101819E+03  0.00000000000E+00 0. -1.
          1    1    1    2  502    0 -0.23394417252E+01  0.55034446791E+02  0.44426247750E+03  0.44766439688E+03  0.00000000000E+00 0. -1.
         22    1    3    3    0    0  0.59724601543E+02 -0.77379099488E+02  0.98390154546E+02  0.13869093546E+03  0.00000000000E+00 0.  1.
         22    1    3    3    0    0  0.63615316227E+02  0.44659143810E+02  0.40924777401E+02  0.87841818002E+02  0.00000000000E+00 0.  1.
</event>
<event>
 7    1  0.5622879E-006  0.1032438E+03  0.7818608E-02  0.1364162E+00
          2   -1    0    0  502    0  0.00000000000E+00  0.00000000000E+00  0.29617182309E+03  0.29617182309E+03  0.00000000000E+00 0. -1.
          1   -1    0    0  501    0 -0.00000000000E+00 -0.00000000000E+00 -0.35877065999E+03  0.35877065999E+03  0.00000000000E+00 0. -1.
         25    2    1    2    0    0  0.63220969884E+02  0.12372932611E+03  0.18427050591E+02  0.18780289498E+03  0.12499813598E+03 0.  0.
          2    1    1    2  501    0 -0.35538509764E+01 -0.45732367160E+02 -0.25945124833E+03  0.26347491251E+03  0.00000000000E+00 0. -1.
          1    1    1    2  502    0 -0.59667118908E+02 -0.77996958951E+02  0.17842536084E+03  0.20366467557E+03  0.00000000000E+00 0. -1.
         22    1    3    3    0    0 -0.10224400869E+02  0.84838508247E+02  0.49878087074E+02  0.98944097473E+02  0.00000000000E+00 0.  1.
         22    1    3    3    0    0  0.73445370753E+02  0.38890817865E+02 -0.31451036483E+02  0.88858797511E+02  0.00000000000E+00 0.  1.
</event>
<event>
 7    1  0.5622879E-006  0.1181052E+03  0.7818608E-02  0.1365054E+00
          2   -1    0    0  502    0  0.00000000000E+00  0.00000000000E+00  0.39081412471E+03  0.39081412471E+03  0.00000000000E+00 0. -1.
          1   -1    0    0  501    0 -0.00000000000E+00 -0.00000000000E+00 -0.10545528970E+03  0.10545528970E+03  0.00000000000E+00 0. -1.
         25    2    1    2    0    0 -0.58576044781E+02 -0.86660539053E+02  0.63101253105E+02  0.17477760463E+03  0.12499696350E+03 0.  0.
          2    1    1    2  501    0 -0.38183366585E+02  0.11230805145E+02 -0.23920614761E+02  0.46435937360E+02  0.00000000000E+00 0. -1.
          1    1    1    2  502    0  0.96759411366E+02  0.75429733908E+02  0.24617819667E+03  0.27505587243E+03  0.00000000000E+00 0. -1.
         22    1    3    3    0    0 -0.86333670614E+02 -0.44071967815E+02  0.75009962006E+02  0.12256563723E+03  0.00000000000E+00 0.  1.
         22    1    3    3    0    0  0.27757625833E+02 -0.42588571238E+02 -0.11908708901E+02  0.52211967399E+02  0.00000000000E+00 0.  1.
</event>
<event>
 7    1  0.5622879E-006  0.8475408E+02  0.7818608E-02  0.1404316E+00
          2   -1    0    0  502    0  0.00000000000E+00  0.00000000000E+00  0.32548362355E+03  0.32548362355E+03  0.00000000000E+00 0. -1.
          1   -1    0    0  501    0 -0.00000000000E+00 -0.00000000000E+00 -0.91264718659E+03  0.91264718659E+03  0.00000000000E+00 0. -1.
         25    2    1    2    0    0 -0.27705518334E+02  0.42243232583E+02 -0.66041221869E+01  0.13494513449E+03  0.12495794672E+03 0.  0.
          2    1    1    2  501    0 -0.34848191724E+02  0.20347072613E+02 -0.83387912560E+03  0.83485495503E+03  0.00000000000E+00 0. -1.
          1    1    1    2  502    0  0.62553710058E+02 -0.62590305197E+02  0.25331968474E+03  0.26833072061E+03  0.00000000000E+00 0. -1.
         22    1    3    3    0    0 -0.52867239121E+02  0.75624775637E+02  0.18786605861E+01  0.92290741833E+02  0.00000000000E+00 0.  1.
         22    1    3    3    0    0  0.25161720787E+02 -0.33381543054E+02 -0.84827827730E+01  0.42654392660E+02  0.00000000000E+00 0.  1.
</event>
<event>
 7    1  0.5622879E-006  0.5266628E+02  0.7818608E-02  0.1500341E+00
          2   -1    0    0  502    0  0.00000000000E+00  0.00000000000E+00  0.17736299066E+04  0.17736299066E+04  0.00000000000E+00 0. -1.
          1   -1    0    0  501    0 -0.00000000000E+00 -0.00000000000E+00 -0.21713000513E+03  0.21713000513E+03  0.00000000000E+00 0. -1.
         25    2    1    2    0    0  0.73993176873E+02 -0.34168393365E+02  0.36433247895E+03  0.39369859792E+03  0.12497184265E+03 0.  0.
          2    1    1    2  501    0 -0.23810753418E+02  0.21465423369E+02 -0.20069401250E+03  0.20323829125E+03  0.00000000000E+00 0. -1.
          1    1    1    2  502    0 -0.50182423455E+02  0.12702969996E+02  0.13928614350E+04  0.13938230225E+04  0.00000000000E+00 0. -1.
         22    1    3    3    0    0  0.94878182995E+02 -0.62677458860E+02  0.27032133862E+03  0.29326431691E+03  0.00000000000E+00 0.  1.
         22    1    3    3    0    0 -0.20885006122E+02  0.28509065495E+02  0.94011140324E+02  0.10043428101E+03  0.00000000000E+00 0.  1.
</event>
<event>
 7    1  0.5622879E-006  0.6998711E+02  0.7818608E-02  0.1393885E+00
          2   -1    0    0  502    0  0.00000000000E+00  0.00000000000E+00  0.12575767883E+04  0.12575767883E+04  0.00000000000E+00 0. -1.
          1   -1    0    0  501    0 -0.00000000000E+00 -0.00000000000E+00 -0.23504004848E+04  0.23504004848E+04  0.00000000000E+00 0. -1.
         25    2    1    2    0    0  0.38469253776E+01 -0.22084164035E+02 -0.82037049299E+02  0.15118744736E+03  0.12500023058E+03 0.  0.
          2    1    1    2  501    0  0.44159935756E+02 -0.29452887743E+02 -0.22324584485E+04  0.22330894064E+04  0.00000000000E+00 0. -1.
          1    1    1    2  502    0 -0.48006861134E+02  0.51537051779E+02  0.12216718013E+04  0.12237004194E+04  0.00000000000E+00 0. -1.
         22    1    3    3    0    0  0.11333683094E+02  0.38729477686E+02  0.91008763521E+01  0.41367266827E+02  0.00000000000E+00 0. -1.
         22    1    3    3    0    0 -0.74867577165E+01 -0.60813641722E+02 -0.91137925651E+02  0.10982018053E+03  0.00000000000E+00 0. -1.
</event>
<event>
 7    1  0.5622879E-006  0.4744362E+02  0.7818608E-02  0.1464482E+00
          2   -1    0    0  502    0  0.00000000000E+00  0.00000000000E+00  0.13762106140E+04  0.13762106140E+04  0.00000000000E+00 0. -1.
          1   -1    0    0  501    0 -0.00000000000E+00 -0.00000000000E+00 -0.58106014324E+03  0.58106014324E+03  0.00000000000E+00 0. -1.
         25    2    1    2    0    0  0.22581558831E+01 -0.35463140757E+01  0.34979292003E+03  0.37148012518E+03  0.12499888357E+03 0.  0.
          2    1    1    2  501    0  0.33298345846E+02 -0.31458108765E+02 -0.56868214654E+03  0.57052412415E+03  0.00000000000E+00 0. -1.
          1    1    1    2  502    0 -0.35556501729E+02  0.35004422841E+02  0.10140396973E+04  0.10152665079E+04  0.00000000000E+00 0. -1.
         22    1    3    3    0    0  0.43099541472E+02  0.43746009019E+02  0.19877464645E+03  0.20804481212E+03  0.00000000000E+00 0. -1.
         22    1    3    3    0    0 -0.40841385589E+02 -0.47292323094E+02  0.15101827358E+03  0.16343531306E+03  0.00000000000E+00 0. -1.
</event>
<event>
 7    1  0.5622879E-006  0.5943896E+02  0.7818608E-02  0.1487146E+00
          2   -1    0    0  502    0  0.00000000000E+00  0.00000000000E+00  0.18158390395E+04  0.18158390395E+04  0.00000000000E+00 0. -1.
          1   -1    0    0  501    0 -0.00000000000E+00 -0.00000000000E+00 -0.57304056207E+02  0.57304056207E+02  0.00000000000E+00 0. -1.
         25    2    1    2    0    0 -0.17972913435E+02 -0.31205857971E+02  0.15485936346E+04  0.15540477069E+04  0.12500079568E+03 0.  0.
          2    1    1    2  501    0  0.48952072698E+02  0.34219116939E+02 -0.36961621349E+02  0.70238271891E+02  0.00000000000E+00 0. -1.
          1    1    1    2  502    0 -0.30979159262E+02 -0.30132589687E+01  0.24690297007E+03  0.24885711697E+03  0.00000000000E+00 0. -1.
         22    1    3    3    0    0 -0.30676862980E+01 -0.27497439538E+02  0.68532236672E+02  0.73906612313E+02  0.00000000000E+00 0.  1.
         22    1    3    3    0    0 -0.14905227137E+02 -0.37084184325E+01  0.14800613979E+04  0.14801410946E+04  0.00000000000E+00 0.  1.
</event>
<event>
 7    1  0.5622879E-006  0.5360472E+02  0.7818608E-02  0.1548131E+00
          2   -1    0    0  502    0  0.00000000000E+00  0.00000000000E+00  0.33118593585E+03  0.33118593585E+03  0.00000000000E+00 0. -1.
          1   -1    0    0  501    0 -0.00000000000E+00 -0.00000000000E+00 -0.21605840328E+03  0.21605840328E+03  0.00000000000E+00 0. -1.
         25    2    1    2    0    0 -0.32546200324E+01  0.75953760229E+02  0.17310131588E+03  0.22664183818E+03  0.12499156374E+03 0.  0.
          2    1    1    2  501    0  0.38966415254E+01 -0.53041112071E+02 -0.18450221471E+03  0.19201461043E+03  0.00000000000E+00 0. -1.
          1    1    1    2  502    0 -0.64202149298E+00 -0.22912648158E+02  0.12652843140E+03  0.12858789053E+03  0.00000000000E+00 0. -1.
         22    1    3    3    0    0 -0.30362658272E+02  0.42488509676E+02  0.17589572312E+03  0.18348424969E+03  0.00000000000E+00 0. -1.
         22    1    3    3    0    0  0.27108038240E+02  0.33465250553E+02 -0.27944072422E+01  0.43157588483E+02  0.00000000000E+00 0. -1.
</event>
<event>
 7    1  0.5622879E-006  0.2160268E+03  0.7818608E-02  0.1338683E+00
          2   -1    0    0  502    0  0.00000000000E+00  0.00000000000E+00  0.19618264976E+04  0.19618264976E+04  0.00000000000E+00 0. -1.
          1   -1    0    0  501    0 -0.00000000000E+00 -0.00000000000E+00 -0.13494859248E+03  0.13494859248E+03  0.00000000000E+00 0. -1.
         25    2    1    2    0    0  0.23510461082E+03  0.13599225003E+02  0.23013778007E+03  0.35220360403E+03  0.12499945569E+03 0.  0.
          2    1    1    2  501    0 -0.23054384264E+02  0.14495640475E+02 -0.64292629515E+02  0.69822420729E+02  0.00000000000E+00 0. -1.
          1    1    1    2  502    0 -0.21205022656E+03 -0.28094865477E+02  0.16610327545E+04  0.16747490653E+04  0.00000000000E+00 0. -1.
         22    1    3    3    0    0  0.10738062720E+03  0.53253085599E+02  0.16365238463E+03  0.20285116026E+03  0.00000000000E+00 0. -1.
         22    1    3    3    0    0  0.12772398362E+03 -0.39653860596E+02  0.66485395440E+02  0.14935244377E+03  0.00000000000E+00 0. -1.
</event>
<event>
 7    1  0.5622879E-006  0.1251689E+03  0.7818608E-02  0.1261985E+00
          2   -1    0    0  502    0  0.00000000000E+00  0.00000000000E+00  0.16381080285E+04  0.16381080285E+04  0.00000000000E+00 0. -1.
          1   -1    0    0  501    0 -0.00000000000E+00 -0.00000000000E+00 -0.61380332934E+03  0.61380332934E+03  0.00000000000E+00 0. -1.
         25    2    1    2    0    0 -0.44675125728E+02  0.21333548618E+02  0.18639825679E+03  0.22982681658E+03  0.12500027332E+03 0.  0.
          2    1    1    2  501    0 -0.41125340589E+02  0.86010705983E+02 -0.58491929935E+03  0.59263793495E+03  0.00000000000E+00 0. -1.
          1    1    1    2  502    0  0.85800466317E+02 -0.10734425460E+03  0.14228257418E+04  0.14294466064E+04  0.00000000000E+00 0. -1.
         22    1    3    3    0    0 -0.64000425725E+01  0.11408619859E+02  0.18969794253E+03  0.19014843295E+03  0.00000000000E+00 0. -1.
         22    1    3    3    0    0 -0.38275083155E+02  0.99249287587E+01 -0.32996857446E+01  0.39678383629E+02  0.00000000000E+00 0. -1.
</event>
<event>
 7    1  0.5622879E-006  0.4225801E+02  0.7818608E-02  0.1570016E+00
          2   -1    0    0  502    0  0.00000000000E+00  0.00000000000E+00  0.18729596924E+04  0.18729596924E+04  0.00000000000E+00 0. -1.
          1   -1    0    0  501    0 -0.00000000000E+00 -0.00000000000E+00 -0.26615036409E+02  0.26615036409E+02  0.00000000000E+00 0. -1.
         25    2    1    2    0    0  0.36438298887E+02 -0.56293112133E+02  0.99342182570E+03  0.10034976895E+04  0.12499609951E+03 0.  0.
          2    1    1    2  501    0 -0.22573173495E+02  0.35123753696E+02 -0.10150349685E+01  0.41764297328E+02  0.00000000000E+00 0. -1.
          1    1    1    2  502    0 -0.13865125392E+02  0.21169358437E+02  0.85393786529E+03  0.85431274204E+03  0.00000000000E+00 0. -1.
         22    1    3    3    0    0  0.71025614587E+02  0.29355565861E+01  0.41784743019E+03  0.42385107094E+03  0.00000000000E+00 0.  1.
         22    1    3    3    0    0 -0.34587315700E+02 -0.59228668719E+02  0.57557439551E+03  0.57964661852E+03  0.00000000000E+00 0.  1.
</event>
<event>
 7    1  0.5622879E-006  0.9042145E+02  0.7818608E-02  0.1359209E+00
          2   -1    0    0  502    0  0.00000000000E+00  0.00000000000E+00  0.15810567967E+04  0.15810567967E+04  0.00000000000E+00 0. -1.
          1   -1    0    0  501    0 -0.00000000000E+00 -0.00000000000E+00 -0.15613671828E+04  0.15613671828E+04  0.00000000000E+00 0. -1.
         25    2    1    2    0    0  0.31689773198E+02  0.45342153604E+02  0.39062678174E+03  0.41386028874E+03  0.12502361124E+03 0.  0.
          2    1    1    2  501    0 -0.84668090348E+02 -0.32155336421E+02 -0.15477938393E+04  0.15504413630E+04  0.00000000000E+00 0. -1.
          1    1    1    2  502    0  0.52978317150E+02 -0.13186817183E+02  0.11768566714E+04  0.11781223278E+04  0.00000000000E+00 0. -1.
         22    1    3    3    0    0 -0.35324400436E+02  0.58526857890E+02  0.18950565644E+03  0.20145868108E+03  0.00000000000E+00 0.  1.
         22    1    3    3    0    0  0.67014173635E+02 -0.13184704286E+02  0.20112112530E+03  0.21240160766E+03  0.00000000000E+00 0.  1.
</event>
<event>
 7    1  0.5622879E-006  0.2814884E+02  0.7818608E-02  0.1620285E+00
          2   -1    0    0  502    0  0.00000000000E+00  0.00000000000E+00  0.39526951131E+03  0.39526951131E+03  0.00000000000E+00 0. -1.
          1   -1    0    0  501    0 -0.00000000000E+00 -0.00000000000E+00 -0.84566421822E+03  0.84566421822E+03  0.00000000000E+00 0. -1.
         25    2    1    2    0    0 -0.51545126669E+02  0.78285713585E+01 -0.96406824889E+02  0.16624282633E+03  0.12499685919E+03 0.  0.
          2    1    1    2  501    0  0.24197165281E+02 -0.14128017690E+02 -0.71351759243E+03  0.71406754471E+03  0.00000000000E+00 0. -1.
          1    1    1    2  502    0  0.27347961388E+02  0.62994463314E+01  0.35952971041E+03  0.36062335849E+03  0.00000000000E+00 0. -1.
         22    1    3    3    0    0 -0.40936933067E+02  0.54683343070E+02 -0.96465781679E+02  0.11820214691E+03  0.00000000000E+00 0. -1.
         22    1    3    3    0    0 -0.10608193602E+02 -0.46854771712E+02  0.58956789830E-01  0.48040679425E+02  0.00000000000E+00 0. -1.
</event>
<event>
 7    1  0.5622879E-006  0.6874119E+02  0.7818608E-02  0.1446840E+00
          2   -1    0    0  502    0  0.00000000000E+00  0.00000000000E+00  0.83318804097E+01  0.83318804097E+01  0.00000000000E+00 0. -1.
          1   -1    0    0  501    0 -0.00000000000E+00 -0.00000000000E+00 -0.23083588355E+04  0.23083588355E+04  0.00000000000E+00 0. -1.
         25    2    1    2    0    0 -0.65293531654E+02  0.18292109846E+02 -0.78235831148E+03  0.79517743596E+03  0.12499912219E+03 0.  0.
          2    1    1    2  501    0  0.68018919268E+02  0.17571163685E+02 -0.11291919050E+04  0.11313751268E+04  0.00000000000E+00 0. -1.
          1    1    1    2  502    0 -0.27253876145E+01 -0.35863273530E+02 -0.38847673862E+03  0.39013815319E+03  0.00000000000E+00 0. -1.
         22    1    3    3    0    0 -0.83203860042E+02 -0.26058174474E+02 -0.37405124521E+03  0.38407843577E+03  0.00000000000E+00 0.  1.
         22    1    3    3    0    0  0.17910328388E+02  0.44350284320E+02 -0.40830706628E+03  0.41109900019E+03  0.00000000000E+00 0.  1.
</event>
<event>
 7    1  0.5622879E-006  0.3266146E+02  0.7818608E-02  0.1652624E+00
          2   -1    0    0  502    0  0.00000000000E+00  0.00000000000E+00  0.12775136381E+04  0.12775136381E+04  0.00000000000E+00 0. -1.
          1   -1    0    0  501    0 -0.00000000000E+00 -0.00000000000E+00 -0.29466205455E+03  0.29466205455E+03  0.00000000000E+00 0. -1.
         25    2    1    2    0    0  0.11829988753E+02  0.20722054950E+02  0.15137444954E+03  0.19775879101E+03  0.12499985301E+03 0.  0.
          2    1    1    2  501    0 -0.16224775884E+02  0.11787605678E+02 -0.27085515026E+03  0.27159658213E+03  0.00000000000E+00 0. -1.
          1    1    1    2  502    0  0.43947871306E+01 -0.32509660629E+02  0.11023322842E+04  0.11028203195E+04  0.00000000000E+00 0. -1.
         22    1    3    3    0    0  0.39093381398E+02 -0.30806604096E+02  0.12347647286E+03  0.13313068270E+03  0.00000000000E+00 0.  1.
         22    1    3    3    0    0 -0.27263392645E+02  0.51528659046E+02  0.27897976682E+02  0.64628108317E+02  0.00000000000E+00 0.  1.
</event>
<event>
 7    1  0.5622879E-006  0.3004559E+02  0.7818608E-02  0.1663284E+00
          2   -1    0    0  502    0  0.00000000000E+00  0.00000000000E+00  0.43746691127E+04  0.43746691127E+04  0.00000000000E+00 0. -1.
          1   -1    0    0  501    0 -0.00000000000E+00 -0.00000000000E+00 -0.37403295210E+01  0.37403295210E+01  0.00000000000E+00 0. -1.
         25    2    1    2    0    0  0.29696481280E+02 -0.12797434366E+02  0.25039967638E+04  0.25073234519E+04  0.12500177686E+03 0.  0.
          2    1    1    2  501    0 -0.15160781536E+02 -0.13857022660E+02  0.52134921343E+02  0.56034956922E+02  0.00000000000E+00 0. -1.
          1    1    1    2  502    0 -0.14535699744E+02  0.26654457026E+02  0.18147970980E+04  0.18150510334E+04  0.00000000000E+00 0. -1.
         22    1    3    3    0    0  0.16236006636E+02  0.40138174587E+02  0.19827601524E+04  0.19832328414E+04  0.00000000000E+00 0.  1.
         22    1    3    3    0    0  0.13460474644E+02 -0.52935608953E+02  0.52123661134E+03  0.52409061056E+03  0.00000000000E+00 0.  1.
</event>
<event>
 7    1  0.5622879E-006  0.3530725E+02  0.7818608E-02  0.1566508E+00
          2   -1    0    0  502    0  0.00000000000E+00  0.00000000000E+00  0.30791334587E+04  0.30791334587E+04  0.00000000000E+00 0. -1.
          1   -1    0    0  501    0 -0.00000000000E+00 -0.00000000000E+00 -0.27856682395E+02  0.27856682395E+02  0.00000000000E+00 0. -1.
         25    2    1    2    0    0 -0.14569474356E+02 -0.12687015518E+02  0.60661622368E+03  0.61966479739E+03  0.12501195282E+03 0.  0.
          2    1    1    2  501    0  0.21269960429E+02 -0.22498441569E+02 -0.98985216280E+01  0.32504950702E+02  0.00000000000E+00 0. -1.
          1    1    1    2  502    0 -0.67004860731E+01  0.35185457086E+02  0.24545590743E+04  0.24548203930E+04  0.00000000000E+00 0. -1.
         22    1    3    3    0    0 -0.64353304318E+02  0.19405620744E+02  0.31384459349E+03  0.32096160947E+03  0.00000000000E+00 0. -1.
         22    1    3    3    0    0  0.49783829962E+02 -0.32092636262E+02  0.29277163019E+03  0.29870318792E+03  0.00000000000E+00 0. -1.
</event>
<event>
 7    1  0.5622879E-006  0.1370348E+03  0.7818608E-02  0.1359243E+00
          2   -1    0    0  502    0  0.00000000000E+00  0.00000000000E+00  0.19300134364E+04  0.19300134364E+04  0.00000000000E+00 0. -1.
          1   -1    0    0  501    0 -0.00000000000E+00 -0.00000000000E+00 -0.23215987720E+03  0.23215987720E+03  0.00000000000E+00 0. -1.
         25    2    1    2    0    0  0.42900528420E+02  0.12223883471E+03  0.98667416341E+02  0.20528733543E+03  0.12499937196E+03 0.  0.
          2    1    1    2  501    0  0.34936693295E+02 -0.87422917383E+01 -0.17434368910E+03  0.17802449869E+03  0.00000000000E+00 0. -1.
          1    1    1    2  502    0 -0.77837221714E+02 -0.11349654298E+03  0.17735298320E+04  0.17788614795E+04  0.00000000000E+00 0. -1.
         22    1    3    3    0    0  0.79979502636E+02  0.52726740673E+02  0.78790635485E+02  0.12403545567E+03  0.00000000000E+00 0. -1.
         22    1    3    3    0    0 -0.37078974216E+02  0.69512094042E+02  0.19876780857E+02  0.81251879758E+02  0.00000000000E+00 0. -1.
</event>
<event>
 7    1  0.5622879E-006  0.5806906E+02  0.7818608E-02  0.1507267E+00
          2   -1    0    0  502    0  0.00000000000E+00  0.00000000000E+00  0.89658227680E+03  0.89658227680E+03  0.00000000000E+00 0. -1.
          1   -1    0    0  501    0 -0.00000000000E+00 -0.00000000000E+00 -0.11115758806E+03  0.11115758806E+03  0.00000000000E+00 0. -1.
         25    2    1    2    0    0  0.74972261336E+02 -0.36282760795E+02  0.68588720259E+03  0.70214174498E+03  0.12499798667E+03 0.  0.
          2    1    1    2  501    0 -0.55309155016E+02  0.16728654097E+02 -0.93860922402E+02  0.11022170045E+03  0.00000000000E+00 0. -1.
          1    1    1    2  502    0 -0.19663106320E+02  0.19554106698E+02  0.19339840855E+03  0.19537641943E+03  0.00000000000E+00 0. -1.
         22    1    3    3    0    0  0.79530537614E+02 -0.78592701139E+01  0.19962123681E+03  0.21502444681E+03  0.00000000000E+00 0. -1.
         22    1    3    3    0    0 -0.45582762775E+01 -0.28423490681E+02  0.48626596578E+03  0.48711729818E+03  0.00000000000E+00 0. -1.
</event>
<event>
 7    1  0.5622879E-006  0.5695911E+02  0.7818608E-02  0.1510109E+00
          2   -1    0    0  502    0  0.00000000000E+00  0.00000000000E+00  0.16020103212E+04  0.16020103212E+04  0.00000000000E+00 0. -1.
          1   -1    0    0  501    0 -0.00000000000E+00 -0.00000000000E+00 -0.35681602359E+02  0.35681602359E+02  0.00000000000E+00 0. -1.
         25    2    1    2    0    0 -0.62458879039E+02  0.86100348526E+01  0.57482401747E+03  0.59162641769E+03  0.12499569107E+03 0.  0.
          2    1    1    2  501    0  0.54096726736E+02  0.17830087752E+02  0.28591025107E+01  0.57031064692E+02  0.00000000000E+00 0. -1.
          1    1    1    2  502    0  0.83621523026E+01 -0.26440122604E+02  0.98864559884E+03  0.98903444115E+03  0.00000000000E+00 0. -1.
         22    1    3    3    0    0 -0.88979717857E+02 -0.26976106068E+01  0.53559387219E+03  0.54294149153E+03  0.00000000000E+00 0.  1.
         22    1    3    3    0    0  0.26520838818E+02  0.11307645459E+02  0.39230145272E+02  0.48684926163E+02  0.00000000000E+00 0.  1.
</event>
<event>
 7    1  0.5622879E-006  0.1090580E+03  0.7818608E-02  0.1358858E+00
          2   -1    0    0  502    0  0.00000000000E+00  0.00000000000E+00  0.34570973422E+04  0.34570973422E+04  0.00000000000E+00 0. -1.
          1   -1    0    0  501    0 -0.00000000000E+00 -0.00000000000E+00 -0.84824855922E+02  0.84824855922E+02  0.00000000000E+00 0. -1.
         25    2    1    2    0    0 -0.99159001287E+02  0.11667889083E+03  0.16396878703E+03  0.25682158649E+03  0.12500037225E+03 0.  0.
          2    1    1    2  501    0  0.33394342808E+02 -0.30755707994E+02 -0.23749947395E+02  0.51236273353E+02  0.00000000000E+00 0. -1.
          1    1    1    2  502    0  0.65764658479E+02 -0.85923182837E+02  0.32320536466E+04  0.32338643382E+04  0.00000000000E+00 0. -1.
         22    1    3    3    0    0 -0.91712738391E+02  0.12859879950E+03  0.17729766554E+03  0.23745176315E+03  0.00000000000E+00 0.  1.
         22    1    3    3    0    0 -0.74462628962E+01 -0.11919908671E+02 -0.13328878509E+02  0.19369823338E+02  0.00000000000E+00 0.  1.
</event>
<event>
 7    1  0.5622879E-006  0.9606075E+02  0.7818608E-02  0.1415967E+00
          2   -1    0    0  502    0  0.00000000000E+00  0.00000000000E+00  0.12295281066E+04  0.12295281066E+04  0.00000000000E+00 0. -1.
          1   -1    0    0  501    0 -0.00000000000E+00 -0.00000000000E+00 -0.42202610754E+02  0.42202610754E+02  0.00000000000E+00 0. -1.
         25    2    1    2    0    0  0.73375237933E+02  0.58353055399E+02  0.31973950428E+03  0.35587712155E+03  0.12500468164E+03 0.  0.
          2    1    1    2  501    0 -0.52136309988E+02 -0.82966570576E+02  0.77059210864E+02  0.12465860833E+03  0.00000000000E+00 0. -1.
          1    1    1    2  502    0 -0.21238927944E+02  0.24613515176E+02  0.79052678075E+03  0.79119498752E+03  0.00000000000E+00 0. -1.
         22    1    3    3    0    0  0.10600519632E+03  0.58726990880E+02  0.22327517968E+03  0.25404284474E+03  0.00000000000E+00 0. -1.
         22    1    3    3    0    0 -0.32629958390E+02 -0.37393548024E+00  0.96464324600E+02  0.10183427681E+03  0.00000000000E+00 0. -1.
</event>
<event>
 7    1  0.5622879E-006  0.1808490E+03  0.7818608E-02  0.1294928E+00
          2   -1    0    0  502    0  0.00000000000E+00  0.00000000000E+00  0.22299298994E+04  0.22299298994E+04  0.00000000000E+00 0. -1.
          1   -1    0    0  501    0 -0.00000000000E+00 -0.00000000000E+00 -0.90085105344E+03  0.90085105344E+03  0.00000000000E+00 0. -1.
         25    2    1    2    0    0  0.19709480821E+03  0.49631100403E+02 -0.80659687677E+02  0.25187573797E+03  0.12500317040E+03 0.  0.
          2    1    1    2  501    0 -0.36116405584E+02  0.31902001749E+02 -0.72999126858E+03  0.73158006033E+03  0.00000000000E+00 0. -1.
          1    1    1    2  502    0 -0.16097840262E+03 -0.81533102152E+02  0.21397298023E+04  0.21473251546E+04  0.00000000000E+00 0. -1.
         22    1    3    3    0    0  0.17243652591E+03  0.33025559708E+02 -0.11233678125E+03  0.20843367167E+03  0.00000000000E+00 0.  1.
         22    1    3    3    0    0  0.24658282292E+02  0.16605540695E+02  0.31677093570E+02  0.43442066300E+02  0.00000000000E+00 0.  1.
</event>
<event>
 7    1  0.5622879E-006  0.1010396E+03  0.7818608E-02  0.1382810E+00
          2   -1    0    0  502    0  0.00000000000E+00  0.00000000000E+00  0.11762058387E+04  0.11762058387E+04  0.00000000000E+00 0. -1.
          1   -1    0    0  501    0 -0.00000000000E+00 -0.00000000000E+00 -0.42903101415E+03  0.42903101415E+03  0.00000000000E+00 0. -1.
         25    2    1    2    0    0 -0.69753518307E+02 -0.30662987886E+02 -0.41852910289E+02  0.15225656732E+03  0.12499849619E+03 0.  0.
          2    1    1    2  501    0  0.78820908334E+02  0.69825307506E+02 -0.32325382825E+03  0.33997256748E+03  0.00000000000E+00 0. -1.
          1    1    1    2  502    0 -0.90673900268E+01 -0.39162319620E+02  0.11122815631E+04  0.11130077180E+04  0.00000000000E+00 0. -1.
         22    1    3    3    0    0 -0.95598586396E+02 -0.46309343536E+01 -0.58285422562E+02  0.11206125895E+03  0.00000000000E+00 0. -1.
         22    1    3    3    0    0  0.25845068089E+02 -0.26032053533E+02  0.16432512273E+02  0.40195308374E+02  0.00000000000E+00 0. -1.
</event>
<event>
 7    1  0.5622879E-006  0.2527495E+03  0.7818608E-02  0.1326810E+00
          2   -1    0    0  502    0  0.00000000000E+00  0.00000000000E+00  0.25144903769E+04  0.25144903769E+04  0.00000000000E+00 0. -1.
          1   -1    0    0  501    0 -0.00000000000E+00 -0.00000000000E+00 -0.70203878917E+03  0.70203878917E+03  0.00000000000E+00 0. -1.
         25    2    1    2    0    0  0.21203556852E+03 -0.16495934618E+03  0.87086186996E+03  0.91988913450E+03  0.12499982002E+03 0.  0.
          2    1    1    2  501    0 -0.21050281190E+03  0.13917755624E+03 -0.65391906225E+03  0.70092222533E+03  0.00000000000E+00 0. -1.
          1    1    1    2  502    0 -0.15327566182E+01  0.25781789943E+02  0.15955087800E+04  0.15957178062E+04  0.00000000000E+00 0. -1.
         22    1    3    3    0    0  0.78915634390E+01 -0.29885116166E+02  0.26350318271E+02  0.40616944921E+02  0.00000000000E+00 0.  1.
         22    1    3    3    0    0  0.20414400508E+03 -0.13507423002E+03  0.84451155169E+03  0.87927218958E+03  0.00000000000E+00 0.  1.
</event>
<event>
 7    1  0.5622879E-006  0.5490033E+02  0.7818608E-02  0.1455091E+00
          2   -1    0    0  502    0  0.00000000000E+00  0.00000000000E+00  0.30905469411E+03  0.30905469411E+03  0.00000000000E+00 0. -1.
          1   -1    0    0  501    0 -0.00000000000E+00 -0.00000000000E+00 -0.22119215125E+03  0.22119215125E+03  0.00000000000E+00 0. -1.
         25    2    1    2    0    0 -0.91948928781E+02 -0.28946541816E+02  0.20042596515E+03  0.25512325159E+03  0.12499919284E+03 0.  0.
          2    1    1    2  501    0  0.52484431848E+02  0.13493720501E+02 -0.18413553945E+03  0.19194424442E+03  0.00000000000E+00 0. -1.
          1    1    1    2  502    0  0.39464496934E+02  0.15452821315E+02  0.71572117154E+02  0.83179349353E+02  0.00000000000E+00 0. -1.
         22    1    3    3    0    0 -0.10605222803E+03 -0.38711361923E+02  0.92808983631E+02  0.14614770629E+03  0.00000000000E+00 0. -1.
         22    1    3    3    0    0  0.14103299251E+02  0.97648201076E+01  0.10761698152E+03  0.10897554530E+03  0.00000000000E+00 0. -1.
</event>
<event>
 7    1  0.5622879E-006  0.1736533E+03  0.7818608E-02  0.1271925E+00
          2   -1    0    0  502    0  0.00000000000E+00  0.00000000000E+00  0.23163409366E+03  0.23163409366E+03  0.00000000000E+00 0. -1.
          1   -1    0    0  501    0 -0.00000000000E+00 -0.00000000000E+00 -0.79134030595E+03  0.79134030595E+03  0.00000000000E+00 0. -1.
         25    2    1    2    0    0  0.16336525022E+03 -0.17296744624E+02 -0.32801895392E+02  0.20901616648E+03  0.12499764459E+03 0.  0.
          2    1    1    2  501    0 -0.15725750945E+03  0.79389032874E+02 -0.65134821391E+03  0.67474961177E+03  0.00000000000E+00 0. -1.
          1    1    1    2  502    0 -0.61077407763E+01 -0.62092288250E+02  0.12444389701E+03  0.13920862136E+03  0.00000000000E+00 0. -1.
         22    1    3    3    0    0  0.94540957567E+02 -0.69084084268E+02 -0.36951184859E+02  0.12278433703E+03  0.00000000000E+00 0. -1.
         22    1    3    3    0    0  0.68824292658E+02  0.51787339643E+02  0.41492894675E+01  0.86231829450E+02  0.00000000000E+00 0. -1.
</event>
<event>
 7    1  0.5622879E-006  0.1429913E+03  0.7818608E-02  0.1278607E+00
          2   -1    0    0  502    0  0.00000000000E+00  0.00000000000E+00  0.32316113516E+03  0.32316113516E+03  0.00000000000E+00 0. -1.
          1   -1    0    0  501    0 -0.00000000000E+00 -0.00000000000E+00 -0.26360556660E+03  0.26360556660E+03  0.00000000000E+00 0. -1.
         25    2    1    2    0    0  0.93500486870E+02  0.10025272388E+03  0.18281222337E+03  0.26045811739E+03  0.12500068883E+03 0.  0.
          2    1    1    2  501    0  0.58687634020E+02 -0.40080970181E+02 -0.14474630160E+03  0.16125202134E+03  0.00000000000E+00 0. -1.
          1    1    1    2  502    0 -0.15218812089E+03 -0.60171753698E+02  0.21489646784E+02  0.16505656304E+03  0.00000000000E+00 0. -1.
         22    1    3    3    0    0  0.92200968967E+02  0.73668055679E+01  0.86308397349E+02  0.12650860823E+03  0.00000000000E+00 0. -1.
         22    1    3    3    0    0  0.12995179031E+01  0.92885918311E+02  0.96503826023E+02  0.13394950916E+03  0.00000000000E+00 0. -1.
</event>
<event>
 7    1  0.5622879E-006  0.1072982E+03  0.7818608E-02  0.1420124E+00
          2   -1    0    0  502    0  0.00000000000E+00  0.00000000000E+00  0.69375249732E+03  0.69375249732E+03  0.00000000000E+00 0. -1.
          1   -1    0    0  501    0 -0.00000000000E+00 -0.00000000000E+00 -0.25053883818E+03  0.25053883818E+03  0.00000000000E+00 0. -1.
         25    2    1    2    0    0  0.23716761499E+02  0.77159495933E+02  0.22673430389E+03  0.27120091195E+03  0.12500166996E+03 0.  0.
          2    1    1    2  501    0 -0.27971420340E+02 -0.10502357725E+03 -0.21488464159E+03  0.24080648107E+03  0.00000000000E+00 0. -1.
          1    1    1    2  502    0  0.42546588413E+01  0.27864081316E+02  0.43136399685E+03  0.43228394249E+03  0.00000000000E+00 0. -1.
         22    1    3    3    0    0  0.39721142149E+01  0.22095826061E+02  0.20881902639E+03  0.21002235358E+03  0.00000000000E+00 0. -1.
         22    1    3    3    0    0  0.19744647284E+02  0.55063669872E+02  0.17915277497E+02  0.61178558368E+02  0.00000000000E+00 0. -1.
</event>
<event>
 7    1  0.5622879E-006  0.1557616E+03  0.7818608E-02  0.1360195E+00
          2   -1    0    0  502    0  0.00000000000E+00  0.00000000000E+00  0.96751057168E+03  0.96751057168E+03  0.00000000000E+00 0. -1.
          1   -1    0    0  501    0 -0.00000000000E+00 -0.00000000000E+00 -0.59004555633E+03  0.59004555633E+03  0.00000000000E+00 0. -1.
         25    2    1    2    0    0 -0.57264455288E+02 -0.13643660418E+03 -0.42387154637E+03  0.46603157010E+03  0.12499668680E+03 0.  0.
          2    1    1    2  501    0 -0.30506060349E+02  0.75710377875E+01 -0.13687917147E+03  0.14044161745E+03  0.00000000000E+00 0. -1.
          1    1    1    2  502    0  0.87770515637E+02  0.12886556639E+03  0.93821573319E+03  0.95108294045E+03  0.00000000000E+00 0. -1.
         22    1    3    3    0    0 -0.59956689242E+02 -0.48583054949E+01 -0.16509343661E+03  0.17571070124E+03  0.00000000000E+00 0.  1.
         22    1    3    3    0    0  0.26922339548E+01 -0.13157829868E+03 -0.25877810976E+03  0.29032086886E+03  0.00000000000E+00 0.  1.
</event>
<event>
 7    1  0.5622879E-006  0.8761150E+02  0.7818608E-02  0.1424443E+00
          2   -1    0    0  502    0  0.00000000000E+00  0.00000000000E+00  0.38249778917E+03  0.38249778917E+03  0.00000000000E+00 0. -1.
          1   -1    0    0  501    0 -0.00000000000E+00 -0.00000000000E+00 -0.72604589490E+02  0.72604589490E+02  0.00000000000E+00 0. -1.
         25    2    1    2    0    0  0.63246865363E+02 -0.68962182129E+01  0.13040982581E+03  0.19152201217E+03  0.12500493860E+03 0.  0.
          2    1    1    2  501    0  0.32979519049E+02  0.52617499679E+01 -0.22206429629E+02  0.40105613152E+02  0.00000000000E+00 0. -1.
          1    1    1    2  502    0 -0.96226384411E+02  0.16344682450E+01  0.20168980350E+03  0.22347475334E+03  0.00000000000E+00 0. -1.
         22    1    3    3    0    0  0.48878425371E+02 -0.44136785550E+02  0.12492047148E+02  0.67031392253E+02  0.00000000000E+00 0.  1.
         22    1    3    3    0    0  0.14368439992E+02  0.37240567337E+02  0.11791777866E+03  0.12449061992E+03  0.00000000000E+00 0.  1.
</event>
<event>
 7    1  0.5622879E-006  0.1497435E+03  0.7818608E-02  0.1213029E+00
          2   -1    0    0  502    0  0.00000000000E+00  0.00000000000E+00  0.58048270713E+03  0.58048270713E+03  0.00000000000E+00 0. -1.
          1   -1    0    0  501    0 -0.00000000000E+00 -0.00000000000E+00 -0.12532494197E+03  0.12532494197E+03  0.00000000000E+00 0. -1.
         25    2    1    2    0    0 -0.10644556050E+02  0.16373027790E+02 -0.17544220465E+02  0.12772747776E+03  0.12500050516E+03 0.  0.
          2    1    1    2  501    0  0.69286952040E+02  0.13274951519E+03  0.12435861781E+03  0.19464886676E+03  0.00000000000E+00 0. -1.
          1    1    1    2  502    0 -0.58642395990E+02 -0.14912254298E+03  0.34834336782E+03  0.38343130459E+03  0.00000000000E+00 0. -1.
         22    1    3    3    0    0  0.38177506695E+02 -0.37129614760E+02 -0.14676167088E+02  0.55240566525E+02  0.00000000000E+00 0.  1.
         22    1    3    3    0    0 -0.48822062745E+02  0.53502642550E+02 -0.28680533774E+01  0.72486911237E+02  0.00000000000E+00 0.  1.
</event>
<event>
 7    1  0.5622879E-006  0.8881781E+02  0.7818608E-02  0.1335071E+00
          2   -1    0    0  502    0  0.00000000000E+00  0.00000000000E+00  0.10375471728E+04  0.10375471728E+04  0.00000000000E+00 0. -1.
          1   -1    0    0  501    0 -0.00000000000E+00 -0.00000000000E+00 -0.11979347116E+03  0.11979347116E+03  0.00000000000E+00 0. -1.
         25    2    1    2    0    0  0.86175820402E+02  0.28367127677E+01  0.22585813134E+03  0.27215774573E+03  0.12499449631E+03 0.  0.
          2    1    1    2  501    0 -0.19156205827E+02 -0.65613397923E+02 -0.81492008750E+02  0.10636270821E+03  0.00000000000E+00 0. -1.
          1    1    1    2  502    0 -0.67019614574E+02  0.62776685155E+02  0.77338757910E+03  0.77882019006E+03  0.00000000000E+00 0. -1.
         22    1    3    3    0    0  0.72458274474E+02 -0.43470285931E+02  0.72378776524E+02  0.11125895285E+03  0.00000000000E+00 0. -1.
         22    1    3    3    0    0  0.13717545928E+02  0.46306998698E+02  0.15347935482E+03  0.16089879288E+03  0.00000000000E+00 0. -1.
</event>
<event>
 7    1  0.5622879E-006  0.6591015E+02  0.7818608E-02  0.1405308E+00
          2   -1    0    0  502    0  0.00000000000E+00  0.00000000000E+00  0.22544456694E+04  0.22544456694E+04  0.00000000000E+00 0. -1.
          1   -1    0    0  501    0 -0.00000000000E+00 -0.00000000000E+00 -0.64521718132E+02  0.64521718132E+02  0.00000000000E+00 0. -1.
         25    2    1    2    0    0 -0.21957400359E+01 -0.19091206063E+02  0.53829331142E+03  0.55295070535E+03  0.12500199198E+03 0.  0.
          2    1    1    2  501    0 -0.12204427076E+02 -0.50019903111E+02 -0.44720500018E+02  0.68197227725E+02  0.00000000000E+00 0. -1.
          1    1    1    2  502    0  0.14400167112E+02  0.69111109174E+02  0.16963511399E+04  0.16978194545E+04  0.00000000000E+00 0. -1.
         22    1    3    3    0    0 -0.43084482419E+01  0.44733251588E+02  0.37387823756E+03  0.37656946642E+03  0.00000000000E+00 0.  1.
         22    1    3    3    0    0  0.21127082060E+01 -0.63824457651E+02  0.16441507386E+03  0.17638123892E+03  0.00000000000E+00 0.  1.
</event>
<event>
 7    1  0.5622879E-006  0.1944062E+03  0.7818608E-02  0.1318564E+00
          2   -1    0    0  502    0  0.00000000000E+00  0.00000000000E+00  0.23018408903E+03  0.23018408903E+03  0.00000000000E+00 0. -1.
          1   -1    0    0  501    0 -0.00000000000E+00 -0.00000000000E+00 -0.12202981166E+04  0.12202981166E+04  0.00000000000E+00 0. -1.
         25    2    1    2    0    0 -0.11427665118E+03 -0.16230898704E+03 -0.83418325014E+03  0.86653933373E+03  0.12500144723E+03 0.  0.
          2    1    1    2  501    0 -0.24665885934E+02  0.26406400977E+02 -0.32459870677E+03  0.32660377275E+03  0.00000000000E+00 0. -1.
          1    1    1    2  502    0  0.13894253712E+03  0.13590258606E+03  0.16866792939E+03  0.25733909909E+03  0.00000000000E+00 0. -1.
         22    1    3    3    0    0 -0.12028746508E+03 -0.16849138028E+03 -0.83236929220E+03  0.85772784616E+03  0.00000000000E+00 0.  1.
         22    1    3    3    0    0  0.60108138942E+01  0.61823932425E+01 -0.18139579475E+01  0.88114875765E+01  0.00000000000E+00 0.  1.
</event>
<event>
 7    1  0.5622879E-006  0.7849357E+02  0.7818608E-02  0.1346505E+00
          2   -1    0    0  502    0  0.00000000000E+00  0.00000000000E+00  0.11214557873E+04  0.11214557873E+04  0.00000000000E+00 0. -1.
          1   -1    0    0  501    0 -0.00000000000E+00 -0.00000000000E+00 -0.13434237896E+03  0.13434237896E+03  0.00000000000E+00 0. -1.
         25    2    1    2    0    0  0.10315111395E+03 -0.10085241109E+03  0.21721186768E+03  0.28916632895E+03  0.12499923682E+03 0.  0.
          2    1    1    2  501    0 -0.56381513560E+02  0.41583725723E+02 -0.84010560134E+02  0.10938855301E+03  0.00000000000E+00 0. -1.
          1    1    1    2  502    0 -0.46769600386E+02  0.59268685367E+02  0.85391210075E+03  0.85724328425E+03  0.00000000000E+00 0. -1.
         22    1    3    3    0    0  0.29267022552E+02 -0.11131471322E+03  0.11591828432E+03  0.16335413257E+03  0.00000000000E+00 0. -1.
         22    1    3    3    0    0  0.73884091394E+02  0.10462302133E+02  0.10129358336E+03  0.12581219637E+03  0.00000000000E+00 0. -1.
</event>
<event>
 7    1  0.5622879E-006  0.1051630E+03  0.7818608E-02  0.1384226E+00
          2   -1    0    0  502    0  0.00000000000E+00  0.00000000000E+00  0.32527812398E+03  0.32527812398E+03  0.00000000000E+00 0. -1.
          1   -1    0    0  501    0 -0.00000000000E+00 -0.00000000000E+00 -0.43289985107E+03  0.43289985107E+03  0.00000000000E+00 0. -1.
         25    2    1    2    0    0  0.49024489397E+01  0.13104625581E+03 -0.71300631132E+02  0.19469512713E+03  0.12500102943E+03 0.  0.
          2    1    1    2  501    0  0.22004342970E+02 -0.31202669405E+02 -0.28845358336E+03  0.29096953009E+03  0.00000000000E+00 0. -1.
          1    1    1    2  502    0 -0.26906791910E+02 -0.99843586410E+02  0.25213248740E+03  0.27251331784E+03  0.00000000000E+00 0. -1.
         22    1    3    3    0    0 -0.42914889231E+02  0.12460864964E+03 -0.61617007428E+02  0.14548422213E+03  0.00000000000E+00 0. -1.
         22    1    3    3    0    0  0.47817338171E+02  0.64376061735E+01 -0.96836237036E+01  0.49210905001E+02  0.00000000000E+00 0. -1.
</event>
<event>
 7    1  0.5622879E-006  0.1437050E+03  0.7818608E-02  0.1281424E+00
          2   -1    0    0  502    0  0.00000000000E+00  0.00000000000E+00  0.11149397815E+04  0.11149397815E+04  0.00000000000E+00 0. -1.
          1   -1    0    0  501    0 -0.00000000000E+00 -0.00000000000E+00 -0.75337911213E+02  0.75337911213E+02  0.00000000000E+00 0. -1.
         25    2    1    2    0    0 -0.13669980600E+03 -0.79106276823E+02  0.28526243597E+03  0.34920432119E+03  0.12499744225E+03 0.  0.
          2    1    1    2  501    0 -0.63403833147E+01  0.68552703367E+02 -0.43144814962E+01  0.68980347564E+02  0.00000000000E+00 0. -1.
          1    1    1    2  502    0  0.14304018931E+03  0.10553573456E+02  0.75865391583E+03  0.77209302397E+03  0.00000000000E+00 0. -1.
         22    1    3    3    0    0  0.23526021356E+02 -0.14698029302E+02  0.28484135854E+02  0.39759926327E+02  0.00000000000E+00 0.  1.
         22    1    3    3    0    0 -0.16022582735E+03 -0.64408247521E+02  0.25677830011E+03  0.30944439486E+03  0.00000000000E+00 0.  1.
</event>
<event>
 7    1  0.5622879E-006  0.1107271E+03  0.7818608E-02  0.1413188E+00
          2   -1    0    0  502    0  0.00000000000E+00  0.00000000000E+00  0.36324968287E+03  0.36324968287E+03  0.00000000000E+00 0. -1.
          1   -1    0    0  501    0 -0.00000000000E+00 -0.00000000000E+00 -0.51140389386E+03  0.51140389386E+03  0.00000000000E+00 0. -1.
         25    2    1    2    0    0  0.71894301178E+02 -0.47702094064E+02 -0.17711449571E+03  0.23332180055E+03  0.12500095080E+03 0.  0.
          2    1    1    2  501    0  0.28798857756E+02 -0.10539925643E+01 -0.29613032828E+03  0.29752925307E+03  0.00000000000E+00 0. -1.
          1    1    1    2  502    0 -0.10069315893E+03  0.48756086629E+02  0.32509061300E+03  0.34380252311E+03  0.00000000000E+00 0. -1.
         22    1    3    3    0    0 -0.21082858927E+02  0.12858179531E+02 -0.44715094465E+00  0.24698576181E+02  0.00000000000E+00 0.  1.
         22    1    3    3    0    0  0.92977160105E+02 -0.60560273595E+02 -0.17666734477E+03  0.20862322437E+03  0.00000000000E+00 0.  1.
</event>
<event>
 7    1  0.5622879E-006  0.3849632E+02  0.7818608E-02  0.1580067E+00
          2   -1    0    0  502    0  0.00000000000E+00  0.00000000000E+00  0.13090528083E+03  0.13090528083E+03  0.00000000000E+00 0. -1.
          1   -1    0    0  501    0 -0.00000000000E+00 -0.00000000000E+00 -0.28834206015E+04  0.28834206015E+04  0.00000000000E+00 0. -1.
         25    2    1    2    0    0  0.58362217782E+02  0.58252847959E+01 -0.83323576398E+02  0.16128673185E+03  0.12502203437E+03 0.  0.
          2    1    1    2  501    0 -0.37244897382E+02  0.95073683825E+01 -0.27591267070E+04  0.27593944549E+04  0.00000000000E+00 0. -1.
          1    1    1    2  502    0 -0.21117320400E+02 -0.15332653178E+02  0.89934962771E+02  0.93644695541E+02  0.00000000000E+00 0. -1.
         22    1    3    3    0    0  0.67359189354E+02  0.55665228467E+02 -0.50312864531E+02  0.10083284380E+03  0.00000000000E+00 0. -1.
         22    1    3    3    0    0 -0.89969715712E+01 -0.49839943672E+02 -0.33010711866E+02  0.60453888052E+02  0.00000000000E+00 0. -1.
</event>
<event>
 7    1  0.5622879E-006  0.1333567E+03  0.7818608E-02  0.1303132E+00
          2   -1    0    0  502    0  0.00000000000E+00  0.00000000000E+00  0.11121758857E+03  0.11121758857E+03  0.00000000000E+00 0. -1.
          1   -1    0    0  501    0 -0.00000000000E+00 -0.00000000000E+00 -0.42785679738E+03  0.42785679738E+03  0.00000000000E+00 0. -1.
         25    2    1    2    0    0  0.38776853962E+02 -0.76314634264E+02 -0.24497070625E+03  0.28804164760E+03  0.12501910265E+03 0.  0.
          2    1    1    2  501    0  0.14375497886E+02 -0.58853223206E+02 -0.85877236420E+02  0.10509641553E+03  0.00000000000E+00 0. -1.
          1    1    1    2  502    0 -0.53152351848E+02  0.13516785747E+03  0.14208733867E+02  0.14593632282E+03  0.00000000000E+00 0. -1.
         22    1    3    3    0    0  0.42754036221E+01 -0.91247197863E+02 -0.88750636565E+02  0.12736171200E+03  0.00000000000E+00 0.  1.
         22    1    3    3    0    0  0.34501450340E+02  0.14932563599E+02 -0.15622006969E+03  0.16067993560E+03  0.00000000000E+00 0.  1.
</event>
<event>
 7    1  0.5622879E-006  0.4877651E+02  0.7818608E-02  0.1490388E+00
          2   -1    0    0  502    0  0.00000000000E+00  0.00000000000E+00  0.63093948727E+03  0.63093948727E+03  0.00000000000E+00 0. -1.
          1   -1    0    0  501    0 -0.00000000000E+00 -0.00000000000E+00 -0.25344906981E+04  0.25344906981E+04  0.00000000000E+00 0. -1.
         25    2    1    2    0    0 -0.47501663862E+02 -0.26844316459E+02  0.20905812745E+03  0.24961539671E+03  0.12500208088E+03 0.  0.
          2    1    1    2  501    0 -0.72039733136E+00  0.37073926068E+02 -0.25125620470E+04  0.25128356561E+04  0.00000000000E+00 0. -1.
          1    1    1    2  502    0  0.48222061194E+02 -0.10229609608E+02  0.39995270866E+03  0.40297913254E+03  0.00000000000E+00 0. -1.
         22    1    3    3    0    0 -0.66674486473E+02  0.71619555749E+01  0.44476213455E+02  0.80466852290E+02  0.00000000000E+00 0.  1.
         22    1    3    3    0    0  0.19172822611E+02 -0.34006272034E+02  0.16458191400E+03  0.16914854442E+03  0.00000000000E+00 0.  1.
</event>
<event>
 7    1  0.5622879E-006  0.7343273E+02  0.7818608E-02  0.1409219E+00
          2   -1    0    0  502    0  0.00000000000E+00  0.00000000000E+00  0.47827316940E+03  0.47827316940E+03  0.00000000000E+00 0. -1.
          1   -1    0    0  501    0 -0.00000000000E+00 -0.00000000000E+00 -0.46987766712E+02  0.46987766712E+02  0.00000000000E+00 0. -1.
         25    2    1    2    0    0  0.35128208794E+02  0.14934019059E+02  0.23488902632E+03  0.26879951409E+03  0.12499323227E+03 0.  0.
          2    1    1    2  501    0 -0.70564825695E+02 -0.42373978365E+02  0.35853367619E+02  0.89779800832E+02  0.00000000000E+00 0. -1.
          1    1    1    2  502    0  0.35436616901E+02  0.27439959306E+02  0.16054300875E+03  0.16668162119E+03  0.00000000000E+00 0. -1.
         22    1    3    3    0    0 -0.31545241529E+02 -0.17905955404E+02  0.20001246556E+02  0.41421918906E+02  0.00000000000E+00 0. -1.
         22    1    3    3    0    0  0.66673450323E+02  0.32839974463E+02  0.21488777977E+03  0.22737759519E+03  0.00000000000E+00 0. -1.
</event>
<event>
 7    1  0.5622879E-006  0.2115502E+03  0.7818608E-02  0.1326604E+00
          2   -1    0    0  502    0  0.00000000000E+00  0.00000000000E+00  0.55739195457E+03  0.55739195457E+03  0.00000000000E+00 0. -1.
          1   -1    0    0  501    0 -0.00000000000E+00 -0.00000000000E+00 -0.12479774837E+04  0.12479774837E+04  0.00000000000E+00 0. -1.
         25    2    1    2    0    0  0.19282247242E+03  0.14266068808E+02  0.11716469405E+03  0.25833419012E+03  0.12499984667E+03 0.  0.
          2    1    1    2  501    0  0.27364012206E+02 -0.14382200426E+02 -0.11443756216E+04  0.11447930818E+04  0.00000000000E+00 0. -1.
          1    1    1    2  502    0 -0.22018648462E+03  0.11613161780E+00  0.33662539844E+03  0.40224216632E+03  0.00000000000E+00 0. -1.
         22    1    3    3    0    0  0.10473924056E+03 -0.51822446245E+02  0.38626699404E+02  0.12307679048E+03  0.00000000000E+00 0.  1.
         22    1    3    3    0    0  0.88083231859E+02  0.66088515053E+02  0.78537994642E+02  0.13525739965E+03  0.00000000000E+00 0.  1.
</event>
<event>
 7    1  0.5622879E-006  0.1804464E+03  0.7818608E-02  0.1194637E+00
          2   -1    0    0  502    0  0.00000000000E+00  0.00000000000E+00  0.23112054477E+04  0.23112054477E+04  0.00000000000E+00 0. -1.
          1   -1    0    0  501    0 -0.00000000000E+00 -0.00000000000E+00 -0.55279567799E+03  0.55279567799E+03  0.00000000000E+00 0. -1.
         25    2    1    2    0    0  0.10668894194E+03 -0.97631429036E+01  0.80578948496E+03  0.82243487968E+03  0.12499835180E+03 0.  0.
          2    1    1    2  501    0 -0.13795622691E+03 -0.11939064077E+03 -0.52612592647E+03  0.55686132578E+03  0.00000000000E+00 0. -1.
          1    1    1    2  502    0  0.31267284974E+02  0.12915378367E+03  0.14787462112E+04  0.14847049202E+04  0.00000000000E+00 0. -1.
         22    1    3    3    0    0  0.76857026806E+02  0.34287147580E+02  0.24348048300E+03  0.25761474465E+03  0.00000000000E+00 0. -1.
         22    1    3    3    0    0  0.29831915134E+02 -0.44050290483E+02  0.56230900196E+03  0.56482013503E+03  0.00000000000E+00 0. -1.
</event>
<event>
 7    1  0.5622879E-006  0.4447449E+02  0.7818608E-02  0.1533651E+00
          2   -1    0    0  502    0  0.00000000000E+00  0.00000000000E+00  0.68661417280E+03  0.68661417280E+03  0.00000000000E+00 0. -1.
          1   -1    0    0  501    0 -0.00000000000E+00 -0.00000000000E+00 -0.92625920922E+02  0.92625920922E+02  0.00000000000E+00 0. -1.
         25    2    1    2    0    0  0.22331839906E+02 -0.10420030889E+02  0.45519165008E+03  0.47268597847E+03  0.12500123127E+03 0.  0.
          2    1    1    2  501    0 -0.18981607066E+02  0.40589008378E+02 -0.76754375927E+02  0.88876336737E+02  0.00000000000E+00 0. -1.
          1    1    1    2  502    0 -0.33502328406E+01 -0.30168977489E+02  0.21555097772E+03  0.21767777852E+03  0.00000000000E+00 0. -1.
         22    1    3    3    0    0 -0.13587968664E+02  0.46322434870E+02  0.29597312252E+03  0.29988412782E+03  0.00000000000E+00 0.  1.
         22    1    3    3    0    0  0.35919808570E+02 -0.56742465759E+02  0.15921852756E+03  0.17280185065E+03  0.00000000000E+00 0.  1.
</event>
<event>
 7    1  0.6014253E-006  0.1026719E+03  0.7818608E-02  0.1297761E+00
          2   -1    0    0  502    0  0.00000000000E+00  0.00000000000E+00  0.18052148067E+04  0.18052148067E+04  0.00000000000E+00 0. -1.
          1   -1    0    0  501    0 -0.00000000000E+00 -0.00000000000E+00 -0.66167628745E+03  0.66167628745E+03  0.00000000000E+00 0. -1.
         25    2    1    2    0    0 -0.38686523386E+02 -0.72346083099E+02 -0.44116909591E+02  0.15588945913E+03  0.12499847568E+03 0.  0.
          2    1    1    2  501    0 -0.39388297880E+02  0.99555997658E+02 -0.55558227648E+03  0.56580429534E+03  0.00000000000E+00 0. -1.
          1    1    1    2  502    0  0.78074821266E+02 -0.27209914559E+02  0.17432377053E+04  0.17451973397E+04  0.00000000000E+00 0. -1.
         22    1    3    3    0    0 -0.61365257365E+02 -0.40950379397E+02 -0.75856676715E+02  0.10581523419E+03  0.00000000000E+00 0.  1.
         22    1    3    3    0    0  0.22678733979E+02 -0.31395703702E+02  0.31739767124E+02  0.50074224936E+02  0.00000000000E+00 0.  1.
</event>
<event>
 7    1  0.6519549E-006  0.5521806E+02  0.7818608E-02  0.1429954E+00
          2   -1    0    0  502    0  0.00000000000E+00  0.00000000000E+00  0.10955032694E+04  0.10955032694E+04  0.00000000000E+00 0. -1.
          1   -1    0    0  501    0 -0.00000000000E+00 -0.00000000000E+00 -0.66154187536E+03  0.66154187536E+03  0.00000000000E+00 0. -1.
         25    2    1    2    0    0  0.14643850735E+02 -0.10375812819E+03 -0.93643838057E+02  0.18808287909E+03  0.12500323785E+03 0.  0.
          2    1    1    2  501    0  0.12981640614E+00  0.50811848156E+02 -0.51871568150E+03  0.52119844493E+03  0.00000000000E+00 0. -1.
          1    1    1    2  502    0 -0.14773667142E+02  0.52946280034E+02  0.10463209136E+04  0.10477638208E+04  0.00000000000E+00 0. -1.
         22    1    3    3    0    0 -0.31303684920E+01 -0.93548694644E+02 -0.14233691035E+01  0.93611876683E+02  0.00000000000E+00 0.  1.
         22    1    3    3    0    0  0.17774219227E+02 -0.10209433546E+02 -0.92220468953E+02  0.94471002410E+02  0.00000000000E+00 0.  1.
</event>
<event>
 7    1  0.5622879E-006  0.1421354E+03  0.7818608E-02  0.1284637E+00
          2   -1    0    0  502    0  0.00000000000E+00  0.00000000000E+00  0.17825505842E+03  0.17825505842E+03  0.00000000000E+00 0. -1.
          1   -1    0    0  501    0 -0.00000000000E+00 -0.00000000000E+00 -0.18906499493E+04  0.18906499493E+04  0.00000000000E+00 0. -1.
         25    2    1    2    0    0 -0.13033854807E+03 -0.15116693903E+03 -0.21020339274E+02  0.23642987741E+03  0.12497060334E+03 0.  0.
          2    1    1    2  501    0  0.11101813327E+03  0.86470850187E+02 -0.17422565447E+04  0.17479302336E+04  0.00000000000E+00 0. -1.
          1    1    1    2  502    0  0.19320414801E+02  0.64696088842E+02  0.50881993111E+02  0.84544896727E+02  0.00000000000E+00 0. -1.
         22    1    3    3    0    0 -0.12867963532E+03 -0.99493244511E+02 -0.58192563187E+02  0.17275337525E+03  0.00000000000E+00 0. -1.
         22    1    3    3    0    0 -0.16589127486E+01 -0.51673694518E+02  0.37172223913E+02  0.63676502159E+02  0.00000000000E+00 0. -1.
</event>
<event>
 7    1  0.5622879E-006  0.1723938E+03  0.7818608E-02  0.1261895E+00
          2   -1    0    0  502    0  0.00000000000E+00  0.00000000000E+00  0.36676149373E+03  0.36676149373E+03  0.00000000000E+00 0. -1.
          1   -1    0    0  501    0 -0.00000000000E+00 -0.00000000000E+00 -0.14255355691E+04  0.14255355691E+04  0.00000000000E+00 0. -1.
         25    2    1    2    0    0  0.10494742168E+03 -0.11236376895E+03 -0.49193692341E+03  0.53034589102E+03  0.12500099849E+03 0.  0.
          2    1    1    2  501    0 -0.16659826940E+03  0.80755044072E+02 -0.90143763590E+03  0.92025331943E+03  0.00000000000E+00 0. -1.
          1    1    1    2  502    0  0.61650847718E+02  0.31608724874E+02  0.33460048390E+03  0.34169785241E+03  0.00000000000E+00 0. -1.
         22    1    3    3    0    0  0.51676653370E+02 -0.10590926967E+03 -0.18926451357E+03  0.22295359607E+03  0.00000000000E+00 0. -1.
         22    1    3    3    0    0  0.53270768310E+02 -0.64544992783E+01 -0.30267240984E+03  0.30739229495E+03  0.00000000000E+00 0. -1.
</event>
<event>
 7    1  0.5622879E-006  0.1042501E+03  0.7818608E-02  0.1279002E+00
          2   -1    0    0  502    0  0.00000000000E+00  0.00000000000E+00  0.12566712214E+04  0.12566712214E+04  0.00000000000E+00 0. -1.
          1   -1    0    0  501    0 -0.00000000000E+00 -0.00000000000E+00 -0.12690232093E+04  0.12690232093E+04  0.00000000000E+00 0. -1.
         25    2    1    2    0    0 -0.61348334027E+02  0.12915449401E+03  0.25327358239E+03  0.31656911127E+03  0.12499597297E+03 0.  0.
          2    1    1    2  501    0 -0.31121636662E+02 -0.99487915987E+02 -0.12327439213E+04  0.12371434748E+04  0.00000000000E+00 0. -1.
          1    1    1    2  502    0  0.92469970689E+02 -0.29666578025E+02  0.96711835105E+03  0.97198184462E+03  0.00000000000E+00 0. -1.
         22    1    3    3    0    0 -0.37386988201E+02  0.13557683826E+03  0.25551380735E+03  0.29166105620E+03  0.00000000000E+00 0.  1.
         22    1    3    3    0    0 -0.23961345826E+02 -0.64223442448E+01 -0.22402249550E+01  0.24908055067E+02  0.00000000000E+00 0.  1.
</event>
<event>
 7    1  0.5622879E-006  0.1268982E+03  0.7818608E-02  0.1239793E+00
          2   -1    0    0  502    0  0.00000000000E+00  0.00000000000E+00  0.14009259833E+04  0.14009259833E+04  0.00000000000E+00 0. -1.
          1   -1    0    0  501    0 -0.00000000000E+00 -0.00000000000E+00 -0.20992949881E+03  0.20992949881E+03  0.00000000000E+00 0. -1.
         25    2    1    2    0    0  0.11851522047E+03  0.53295268873E+00  0.11791297440E+03  0.20874500096E+03  0.12499945750E+03 0.  0.
          2    1    1    2  501    0 -0.79790819854E+02  0.11023196222E+03 -0.13303070295E+03  0.19030193997E+03  0.00000000000E+00 0. -1.
          1    1    1    2  502    0 -0.38724400618E+02 -0.11076491491E+03  0.12061142131E+04  0.12118085412E+04  0.00000000000E+00 0. -1.
         22    1    3    3    0    0 -0.21272843732E+01  0.40243480684E+01  0.82970906071E+02  0.83095679614E+02  0.00000000000E+00 0.  1.
         22    1    3    3    0    0  0.12064250484E+03 -0.34913953797E+01  0.34942068328E+02  0.12564932135E+03  0.00000000000E+00 0.  1.
</event>
<event>
 7    1  0.5622879E-006  0.1217939E+03  0.7818608E-02  0.1348430E+00
          2   -1    0    0  502    0  0.00000000000E+00  0.00000000000E+00  0.27258870458E+04  0.27258870458E+04  0.00000000000E+00 0. -1.
          1   -1    0    0  501    0 -0.00000000000E+00 -0.00000000000E+00 -0.40764498587E+02  0.40764498587E+02  0.00000000000E+00 0. -1.
         25    2    1    2    0    0  0.38754595834E+02  0.11802732645E+03  0.66727859727E+03  0.69015783012E+03  0.12499894242E+03 0.  0.
          2    1    1    2  501    0 -0.44196867315E+02  0.43731277305E+01 -0.95277526569E+01  0.45423181277E+02  0.00000000000E+00 0. -1.
          1    1    1    2  502    0  0.54422714814E+01 -0.12240045418E+03  0.20273717026E+04  0.20310705330E+04  0.00000000000E+00 0. -1.
         22    1    3    3    0    0 -0.93113432453E+01 -0.97914470984E+01  0.57549228194E+01  0.14686479700E+02  0.00000000000E+00 0. -1.
         22    1    3    3    0    0  0.48065939079E+02  0.12781877355E+03  0.66152367446E+03  0.67547135042E+03  0.00000000000E+00 0. -1.
</event>
<event>
 7    1  0.5622879E-006  0.2986381E+02  0.7818608E-02  0.1606837E+00
          2   -1    0    0  502    0  0.00000000000E+00  0.00000000000E+00  0.37549028554E+03  0.37549028554E+03  0.00000000000E+00 0. -1.
          1   -1    0    0  501    0 -0.00000000000E+00 -0.00000000000E+00 -0.10288824697E+04  0.10288824697E+04  0.00000000000E+00 0. -1.
         25    2    1    2    0    0 -0.10510856136E+02  0.32777997704E+01  0.58647864653E+02  0.13850970967E+03  0.12499658226E+03 0.  0.
          2    1    1    2  501    0  0.17118905987E+02  0.24544571536E+02 -0.98798612110E+03  0.98843920825E+03  0.00000000000E+00 0. -1.
          1    1    1    2  502    0 -0.66080498515E+01 -0.27822371306E+02  0.27594607231E+03  0.27742383728E+03  0.00000000000E+00 0. -1.
         22    1    3    3    0    0 -0.13984322314E+02  0.20205563983E+02 -0.35286231354E+02  0.42999351270E+02  0.00000000000E+00 0. -1.
         22    1    3    3    0    0  0.34734661785E+01 -0.16927764213E+02  0.93934096008E+02  0.95510358398E+02  0.00000000000E+00 0. -1.
</event>
<event>
 7    1  0.5622879E-006  0.2576548E+03  0.7818608E-02  0.1273633E+00
          2   -1    0    0  502    0  0.00000000000E+00  0.00000000000E+00  0.46033066858E+03  0.46033066858E+03  0.00000000000E+00 0. -1.
          1   -1    0    0  501    0 -0.00000000000E+00 -0.00000000000E+00 -0.13172456862E+04  0.13172456862E+04  0.00000000000E+00 0. -1.
         25    2    1    2    0    0  0.13899906125E+03  0.17731300435E+03 -0.10155936070E+03  0.27694737868E+03  0.12499962508E+03 0.  0.
          2    1    1    2  501    0  0.17662011090E+02  0.37404562046E+02 -0.10801497824E+04  0.10809415342E+04  0.00000000000E+00 0. -1.
          1    1    1    2  502    0 -0.15666107234E+03 -0.21471756640E+03  0.32479412552E+03  0.41968744188E+03  0.00000000000E+00 0. -1.
         22    1    3    3    0    0  0.12727382050E+03  0.12626123617E+03 -0.12601835405E+03  0.21913728734E+03  0.00000000000E+00 0.  1.
         22    1    3    3    0    0  0.11725240744E+02  0.51051768185E+02  0.24458993348E+02  0.57810091342E+02  0.00000000000E+00 0.  1.
</event>
<event>
 7    1  0.5622879E-006  0.4248504E+02  0.7818608E-02  0.1558176E+00
          2   -1    0    0  502    0  0.00000000000E+00  0.00000000000E+00  0.16520764323E+04  0.16520764323E+04  0.00000000000E+00 0. -1.
          1   -1    0    0  501    0 -0.00000000000E+00 -0.00000000000E+00 -0.72219993200E+03  0.72219993200E+03  0.00000000000E+00 0. -1.
         25    2    1    2    0    0 -0.54891134855E+02  0.31938996110E+02  0.13347121339E+04  0.13420562104E+04  0.12500102118E+03 0.  0.
          2    1    1    2  501    0  0.24016463530E+02 -0.12600416158E+02 -0.71721297955E+03  0.71772558756E+03  0.00000000000E+00 0. -1.
          1    1    1    2  502    0  0.30874671325E+02 -0.19338579952E+02  0.31237734589E+03  0.31449456629E+03  0.00000000000E+00 0. -1.
         22    1    3    3    0    0 -0.16228812981E+02 -0.48096240913E+02  0.42878116852E+03  0.43177530411E+03  0.00000000000E+00 0.  1.
         22    1    3    3    0    0 -0.38662321873E+02  0.80035237023E+02  0.90593096542E+03  0.91028090631E+03  0.00000000000E+00 0.  1.
</event>
<event>
 7    1  0.5622879E-006  0.1057130E+03  0.7818608E-02  0.1318328E+00
          2   -1    0    0  502    0  0.00000000000E+00  0.00000000000E+00  0.24293719374E+03  0.24293719374E+03  0.00000000000E+00 0. -1.
          1   -1    0    0  501    0 -0.00000000000E+00 -0.00000000000E+00 -0.15319764612E+04  0.15319764612E+04  0.00000000000E+00 0. -1.
         25    2    1    2    0    0  0.71497621522E+02  0.53885031626E+02  0.10151186527E+03  0.18424232705E+03  0.12500027907E+03 0.  0.
          2    1    1    2  501    0 -0.19092291577E+02  0.63796357121E+02 -0.14480633705E+04  0.14495937416E+04  0.00000000000E+00 0. -1.
          1    1    1    2  502    0 -0.52405329944E+02 -0.11768138875E+03  0.57512237742E+02  0.14107758629E+03  0.00000000000E+00 0. -1.
         22    1    3    3    0    0  0.84085524192E+02  0.11676766513E+02  0.13683012748E+02  0.85988063665E+02  0.00000000000E+00 0.  1.
         22    1    3    3    0    0 -0.12587902671E+02  0.42208265113E+02  0.87828852522E+02  0.98254263382E+02  0.00000000000E+00 0.  1.
</event>
<event>
 7    1  0.5622879E-006  0.7783778E+02  0.7818608E-02  0.1401834E+00
          2   -1    0    0  502    0  0.00000000000E+00  0.00000000000E+00  0.25480297154E+03  0.25480297154E+03  0.00000000000E+00 0. -1.
          1   -1    0    0  501    0 -0.00000000000E+00 -0.00000000000E+00 -0.33475817393E+03  0.33475817393E+03  0.00000000000E+00 0. -1.
         25    2    1    2    0    0 -0.33032424679E+02  0.10608973619E+03  0.11095223251E+03  0.20072921652E+03  0.12504258180E+03 0.  0.
          2    1    1    2  501    0  0.24434410369E+02 -0.37558551980E+02 -0.27578610460E+03  0.27940232771E+03  0.00000000000E+00 0. -1.
          1    1    1    2  502    0  0.85980143097E+01 -0.68531184205E+02  0.84878669693E+02  0.10942960124E+03  0.00000000000E+00 0. -1.
         22    1    3    3    0    0 -0.30380712195E+02  0.98897924655E+02  0.13807991460E+03  0.17253941576E+03  0.00000000000E+00 0.  1.
         22    1    3    3    0    0 -0.26517124831E+01  0.71918115306E+01 -0.27127682083E+02  0.28189800769E+02  0.00000000000E+00 0.  1.
</event>
<event>
 7    1  0.5622879E-006  0.1717190E+03  0.7818608E-02  0.1383914E+00
          2   -1    0    0  502    0  0.00000000000E+00  0.00000000000E+00  0.91668191930E+03  0.91668191930E+03  0.00000000000E+00 0. -1.
          1   -1    0    0  501    0 -0.00000000000E+00 -0.00000000000E+00 -0.39106508627E+03  0.39106508627E+03  0.00000000000E+00 0. -1.
         25    2    1    2    0    0  0.92924150174E+02  0.13129802838E+03 -0.19563625278E+03  0.28244056363E+03  0.12500023456E+03 0.  0.
          2    1    1    2  501    0  0.23079456525E+02 -0.41060435242E+01 -0.14257652230E+03  0.14449078039E+03  0.00000000000E+00 0. -1.
          1    1    1    2  502    0 -0.11600360670E+03 -0.12719198485E+03  0.86382960811E+03  0.88081566155E+03  0.00000000000E+00 0. -1.
         22    1    3    3    0    0  0.39451264477E+02  0.13303057899E+02  0.67167937219E+01  0.42172134594E+02  0.00000000000E+00 0. -1.
         22    1    3    3    0    0  0.53472885697E+02  0.11799497048E+03 -0.20235304650E+03  0.24026842903E+03  0.00000000000E+00 0. -1.
</event>
<event>
 7    1  0.5622879E-006  0.7416573E+02  0.7818608E-02  0.1493572E+00
          2   -1    0    0  502    0  0.00000000000E+00  0.00000000000E+00  0.37059122601E+03  0.37059122601E+03  0.00000000000E+00 0. -1.
          1   -1    0    0  501    0 -0.00000000000E+00 -0.00000000000E+00 -0.42423392747E+03  0.42423392747E+03  0.00000000000E+00 0. -1.
         25    2    1    2    0    0 -0.12705227672E+02 -0.56605722845E+02  0.73741062910E+01  0.13800406299E+03  0.12500045315E+03 0.  0.
          2    1    1    2  501    0  0.34229440936E+02  0.66886381466E+02 -0.35449749807E+03  0.36237262423E+03  0.00000000000E+00 0. -1.
          1    1    1    2  502    0 -0.21524213264E+02 -0.10280658620E+02  0.29348069032E+03  0.29444846627E+03  0.00000000000E+00 0. -1.
         22    1    3    3    0    0  0.28579618419E+02 -0.39502232340E+02  0.54454393474E+02  0.73092420383E+02  0.00000000000E+00 0. -1.
         22    1    3    3    0    0 -0.41284846091E+02 -0.17103490505E+02 -0.47080287183E+02  0.64911642603E+02  0.00000000000E+00 0. -1.
</event>
<event>
 7    1  0.5622879E-006  0.4415876E+03  0.7818608E-02  0.1247056E+00
          2   -1    0    0  502    0  0.00000000000E+00  0.00000000000E+00  0.33208412302E+03  0.33208412302E+03  0.00000000000E+00 0. -1.
          1   -1    0    0  501    0 -0.00000000000E+00 -0.00000000000E+00 -0.12356648883E+04  0.12356648883E+04  0.00000000000E+00 0. -1.
         25    2    1    2    0    0 -0.13182549868E+03  0.43653266485E+03 -0.56099564584E+03  0.73367547346E+03  0.12499942447E+03 0.  0.
          2    1    1    2  501    0  0.29215402096E+02 -0.11329502520E+02 -0.39256933189E+03  0.39381794993E+03  0.00000000000E+00 0. -1.
          1    1    1    2  502    0  0.10261009658E+03 -0.42520316233E+03  0.49984212480E+02  0.44025558790E+03  0.00000000000E+00 0. -1.
         22    1    3    3    0    0 -0.10126707529E+03  0.20660380242E+03 -0.20150667106E+03  0.30585141849E+03  0.00000000000E+00 0. -1.
         22    1    3    3    0    0 -0.30558423390E+02  0.22992886243E+03 -0.35948897478E+03  0.42782405497E+03  0.00000000000E+00 0. -1.
</event>
<event>
 7    1  0.5622879E-006  0.1738717E+03  0.7818608E-02  0.1179510E+00
          2   -1    0    0  502    0  0.00000000000E+00  0.00000000000E+00  0.44708427727E+03  0.44708427727E+03  0.00000000000E+00 0. -1.
          1   -1    0    0  501    0 -0.00000000000E+00 -0.00000000000E+00 -0.48410552448E+03  0.48410552448E+03  0.00000000000E+00 0. -1.
         25    2    1    2    0    0  0.53478941273E+02 -0.79216210939E+02  0.38712241118E+02  0.16204781871E+03  0.12500261077E+03 0.  0.
          2    1    1    2  501    0 -0.20209062499E+03  0.11936193796E+02 -0.37622028287E+03  0.42722920625E+03  0.00000000000E+00 0. -1.
          1    1    1    2  502    0  0.14861168371E+03  0.67280017143E+02  0.30048679454E+03  0.34191277680E+03  0.00000000000E+00 0. -1.
         22    1    3    3    0    0 -0.12082969689E+02  0.39413829622E+01  0.53623480180E+02  0.55109076229E+02  0.00000000000E+00 0.  1.
         22    1    3    3    0    0  0.65561910962E+02 -0.83157593901E+02 -0.14911239062E+02  0.10693874248E+03  0.00000000000E+00 0.  1.
</event>
<event>
 7    1  0.5622879E-006  0.1841995E+03  0.7818608E-02  0.1337074E+00
          2   -1    0    0  502    0  0.00000000000E+00  0.00000000000E+00  0.10881577856E+04  0.10881577856E+04  0.00000000000E+00 0. -1.
          1   -1    0    0  501    0 -0.00000000000E+00 -0.00000000000E+00 -0.30065799126E+03  0.30065799126E+03  0.00000000000E+00 0. -1.
         25    2    1    2    0    0  0.18323997731E+03 -0.35204153167E+02  0.22466812129E+03  0.31767486533E+03  0.12500133460E+03 0.  0.
          2    1    1    2  501    0 -0.18419352159E+03  0.28300105692E+01 -0.22039538692E+03  0.28724447589E+03  0.00000000000E+00 0. -1.
          1    1    1    2  502    0  0.95354427910E+00  0.32374142598E+02  0.78322705997E+03  0.78389643565E+03  0.00000000000E+00 0. -1.
         22    1    3    3    0    0  0.92844673837E+02  0.39857542388E+02  0.67784312318E+02  0.12166951196E+03  0.00000000000E+00 0.  1.
         22    1    3    3    0    0  0.90395303474E+02 -0.75061695555E+02  0.15688380898E+03  0.19600535337E+03  0.00000000000E+00 0.  1.
</event>
<event>
 7    1  0.5622879E-006  0.6185909E+02  0.7818608E-02  0.1397410E+00
          2   -1    0    0  502    0  0.00000000000E+00  0.00000000000E+00  0.34029550200E+03  0.34029550200E+03  0.00000000000E+00 0. -1.
          1   -1    0    0  501    0 -0.00000000000E+00 -0.00000000000E+00 -0.44067129026E+03  0.44067129026E+03  0.00000000000E+00 0. -1.
         25    2    1    2    0    0 -0.72777400929E+02 -0.21198554182E+02 -0.11906862302E+03  0.18854267374E+03  0.12500029620E+03 0.  0.
          2    1    1    2  501    0  0.46642294074E+02 -0.35130311751E+02 -0.28067460503E+03  0.28668427984E+03  0.00000000000E+00 0. -1.
          1    1    1    2  502    0  0.26135106856E+02  0.56328865932E+02  0.29936743978E+03  0.30573983867E+03  0.00000000000E+00 0. -1.
         22    1    3    3    0    0  0.25146636953E+02 -0.27131428709E+01 -0.75786627415E+02  0.79895728229E+02  0.00000000000E+00 0. -1.
         22    1    3    3    0    0 -0.97924037882E+02 -0.18485411311E+02 -0.43281995601E+02  0.10864694551E+03  0.00000000000E+00 0. -1.
</event>
<event>
 7    1  0.5622879E-006  0.2122596E+02  0.7818608E-02  0.1726620E+00
          2   -1    0    0  502    0  0.00000000000E+00  0.00000000000E+00  0.23539569013E+04  0.23539569013E+04  0.00000000000E+00 0. -1.
          1   -1    0    0  501    0 -0.00000000000E+00 -0.00000000000E+00 -0.39911512709E+01  0.39911512709E+01  0.00000000000E+00 0. -1.
         25    2    1    2    0    0  0.29076305397E+02 -0.32101917022E+01  0.15219646156E+04  0.15273692870E+04  0.12499964348E+03 0.  0.
          2    1    1    2  501    0 -0.15830095544E+02 -0.13377524986E+02  0.93438569665E+02  0.95709541848E+02  0.00000000000E+00 0. -1.
          1    1    1    2  502    0 -0.13246209854E+02  0.16587716688E+02  0.73456256477E+03  0.73486922373E+03  0.00000000000E+00 0. -1.
         22    1    3    3    0    0 -0.14744189405E+02  0.53791476735E+02  0.58676964197E+03  0.58941456279E+03  0.00000000000E+00 0. -1.
         22    1    3    3    0    0  0.43820494802E+02 -0.57001668437E+02  0.93519497364E+03  0.93795472422E+03  0.00000000000E+00 0. -1.
</event>
<event>
 7    1  0.5622879E-006  0.1688185E+03  0.7818608E-02  0.1240987E+00
          2   -1    0    0  502    0  0.00000000000E+00  0.00000000000E+00  0.10680577316E+04  0.10680577316E+04  0.00000000000E+00 0. -1.
          1   -1    0    0  501    0 -0.00000000000E+00 -0.00000000000E+00 -0.26386100486E+03  0.26386100486E+03  0.00000000000E+00 0. -1.
         25    2    1    2    0    0 -0.10673936266E+03  0.79613630420E+02  0.98831385476E+02  0.20766356331E+03  0.12499956432E+03 0.  0.
          2    1    1    2  501    0  0.32551966327E+02  0.80831091710E+02 -0.19136373719E+03  0.21026976913E+03  0.00000000000E+00 0. -1.
          1    1    1    2  502    0  0.74187396335E+02 -0.16044472213E+03  0.89672907842E+03  0.91398540400E+03  0.00000000000E+00 0. -1.
         22    1    3    3    0    0 -0.43851448344E+00  0.75280476256E+01  0.77018674807E+02  0.77386950225E+02  0.00000000000E+00 0.  1.
         22    1    3    3    0    0 -0.10630084818E+03  0.72085582795E+02  0.21812710669E+02  0.13027661309E+03  0.00000000000E+00 0.  1.
</event>
<event>
 7    1  0.5622879E-006  0.1033248E+03  0.7818608E-02  0.1374584E+00
          2   -1    0    0  502    0  0.00000000000E+00  0.00000000000E+00  0.73170353438E+03  0.73170353438E+03  0.00000000000E+00 0. -1.
          1   -1    0    0  501    0 -0.00000000000E+00 -0.00000000000E+00 -0.58294061575E+03  0.58294061575E+03  0.00000000000E+00 0. -1.
         25    2    1    2    0    0  0.63988863520E+02 -0.70208786927E+02 -0.15665162466E+02  0.15777715171E+03  0.12499753546E+03 0.  0.
          2    1    1    2  501    0 -0.33417632144E+02  0.99069729008E+02 -0.49003004321E+03  0.50105986927E+03  0.00000000000E+00 0. -1.
          1    1    1    2  502    0 -0.30571231377E+02 -0.28860942081E+02  0.65445812431E+03  0.65580712914E+03  0.00000000000E+00 0. -1.
         22    1    3    3    0    0  0.50490233115E+02  0.23151807748E+02  0.16775894646E+02  0.58023275358E+02  0.00000000000E+00 0. -1.
         22    1    3    3    0    0  0.13498630405E+02 -0.93360594675E+02 -0.32441057112E+02  0.99753876353E+02  0.00000000000E+00 0. -1.
</event>
<event>
 7    1  0.5622879E-006  0.6053180E+02  0.7818608E-02  0.1398915E+00
          2   -1    0    0  502    0  0.00000000000E+00  0.00000000000E+00  0.99771006152E+03  0.99771006152E+03  0.00000000000E+00 0. -1.
          1   -1    0    0  501    0 -0.00000000000E+00 -0.00000000000E+00 -0.11744017263E+04  0.11744017263E+04  0.00000000000E+00 0. -1.
         25    2    1    2    0    0 -0.90715752260E+02 -0.59880622110E+02  0.13189832916E+03  0.21174857925E+03  0.12500101986E+03 0.  0.
          2    1    1    2  501    0  0.58080095265E+02  0.10170086518E+02 -0.11326382972E+04  0.11341720506E+04  0.00000000000E+00 0. -1.
          1    1    1    2  502    0  0.32635656995E+02  0.49710535592E+02  0.82404830324E+03  0.82619115798E+03  0.00000000000E+00 0. -1.
         22    1    3    3    0    0  0.16086004989E+02 -0.14741565374E+01 -0.14253365195E+02  0.21542774041E+02  0.00000000000E+00 0. -1.
         22    1    3    3    0    0 -0.10680175725E+03 -0.58406465573E+02  0.14615169435E+03  0.19020580521E+03  0.00000000000E+00 0. -1.
</event>
<event>
 7    1  0.5622879E-006  0.1210627E+03  0.7818608E-02  0.1250711E+00
          2   -1    0    0  502    0  0.00000000000E+00  0.00000000000E+00  0.16232798180E+03  0.16232798180E+03  0.00000000000E+00 0. -1.
          1   -1    0    0  501    0 -0.00000000000E+00 -0.00000000000E+00 -0.70503609140E+03  0.70503609140E+03  0.00000000000E+00 0. -1.
         25    2    1    2    0    0  0.52487839459E+02  0.80078245196E+02 -0.23637293273E+03  0.28401547106E+03  0.12500050333E+03 0.  0.
          2    1    1    2  501    0  0.76525792793E+02 -0.79286504794E+02 -0.40576657699E+03  0.42046291372E+03  0.00000000000E+00 0. -1.
          1    1    1    2  502    0 -0.12901363225E+03 -0.79174040162E+00  0.99431400122E+02  0.16288568841E+03  0.00000000000E+00 0. -1.
         22    1    3    3    0    0  0.16246042451E+02  0.83815084222E+02 -0.23213372395E+03  0.24733573950E+03  0.00000000000E+00 0. -1.
         22    1    3    3    0    0  0.36241797008E+02 -0.37368390263E+01 -0.42392087717E+01  0.36679731560E+02  0.00000000000E+00 0. -1.
</event>
<event>
 7    1  0.5622879E-006  0.8393452E+02  0.7818608E-02  0.1496128E+00
          2   -1    0    0  502    0  0.00000000000E+00  0.00000000000E+00  0.46956223110E+03  0.46956223110E+03  0.00000000000E+00 0. -1.
          1   -1    0    0  501    0 -0.00000000000E+00 -0.00000000000E+00 -0.15210776828E+04  0.15210776828E+04  0.00000000000E+00 0. -1.
         25    2    1    2    0    0 -0.43788427801E+02 -0.48912887601E+02 -0.63962139868E+03  0.65501988447E+03  0.12500247367E+03 0.  0.
          2    1    1    2  501    0 -0.19809647419E+02 -0.60322290271E+01 -0.86980931793E+03  0.87005577952E+03  0.00000000000E+00 0. -1.
          1    1    1    2  502    0  0.63598075220E+02  0.54945116628E+02  0.45791526488E+03  0.46556424994E+03  0.00000000000E+00 0. -1.
         22    1    3    3    0    0 -0.29334998284E+01  0.22264603581E+01 -0.50807707079E+03  0.50809041755E+03  0.00000000000E+00 0.  1.
         22    1    3    3    0    0 -0.40854927973E+02 -0.51139347959E+02 -0.13154432789E+03  0.14692946692E+03  0.00000000000E+00 0.  1.
</event>
<event>
 7    1  0.5622879E-006  0.1055409E+03  0.7818608E-02  0.1323197E+00
          2   -1    0    0  502    0  0.00000000000E+00  0.00000000000E+00  0.14195727253E+04  0.14195727253E+04  0.00000000000E+00 0. -1.
          1   -1    0    0  501    0 -0.00000000000E+00 -0.00000000000E+00 -0.24987352956E+03  0.24987352956E+03  0.00000000000E+00 0. -1.
         25    2    1    2    0    0  0.13798747955E+03 -0.71389448220E+02  0.21754661705E+03  0.29510381956E+03  0.12499094327E+03 0.  0.
          2    1    1    2  501    0 -0.36845512410E+02  0.52163982277E+02 -0.20392407098E+03  0.21369066324E+03  0.00000000000E+00 0. -1.
          1    1    1    2  502    0 -0.10114196714E+03  0.19225465943E+02  0.11560766497E+04  0.11606517720E+04  0.00000000000E+00 0. -1.
         22    1    3    3    0    0 -0.55001300858E+01  0.36288539647E+01 -0.12299368369E+02  0.13953296182E+02  0.00000000000E+00 0.  1.
         22    1    3    3    0    0  0.14348760963E+03 -0.75018302184E+02  0.22984598542E+03  0.28115052337E+03  0.00000000000E+00 0.  1.
</event>
<event>
 7    1  0.5622879E-006  0.9827280E+02  0.7818608E-02  0.1438892E+00
          2   -1    0    0  502    0  0.00000000000E+00  0.00000000000E+00  0.80163585916E+03  0.80163585916E+03  0.00000000000E+00 0. -1.
          1   -1    0    0  501    0 -0.00000000000E+00 -0.00000000000E+00 -0.60815562978E+02  0.60815562978E+02  0.00000000000E+00 0. -1.
         25    2    1    2    0    0  0.48986666298E+02 -0.61801945649E+02  0.15082284613E+03  0.21116577430E+03  0.12499711741E+03 0.  0.
          2    1    1    2  501    0  0.26015881252E+02 -0.59675262527E+01 -0.19757669353E+02  0.33208477007E+02  0.00000000000E+00 0. -1.
          1    1    1    2  502    0 -0.75002547549E+02  0.67769471902E+02  0.60975511941E+03  0.61807717083E+03  0.00000000000E+00 0. -1.
         22    1    3    3    0    0  0.17759230390E+01  0.37263169242E+02  0.47902419223E+02  0.60715232454E+02  0.00000000000E+00 0. -1.
         22    1    3    3    0    0  0.47210743259E+02 -0.99065114891E+02  0.10292042691E+03  0.15045054185E+03  0.00000000000E+00 0. -1.
</event>
<event>
 7    1  0.5622879E-006  0.6415962E+02  0.7818608E-02  0.1385881E+00
          2   -1    0    0  502    0  0.00000000000E+00  0.00000000000E+00  0.37532545783E+03  0.37532545783E+03  0.00000000000E+00 0. -1.
          1   -1    0    0  501    0 -0.00000000000E+00 -0.00000000000E+00 -0.37840683246E+03  0.37840683246E+03  0.00000000000E+00 0. -1.
         25    2    1    2    0    0 -0.20754513101E+02 -0.83621656523E+02 -0.10929615181E+03  0.18706642866E+03  0.12499947472E+03 0.  0.
          2    1    1    2  501    0  0.55420010263E+02  0.32521112283E+02 -0.22281318358E+03  0.23189375813E+03  0.00000000000E+00 0. -1.
          1    1    1    2  502    0 -0.34665497162E+02  0.51100544240E+02  0.32902796076E+03  0.33477210349E+03  0.00000000000E+00 0. -1.
         22    1    3    3    0    0  0.52636181177E+02 -0.29265887434E+02 -0.48864212497E+02  0.77554954704E+02  0.00000000000E+00 0.  1.
         22    1    3    3    0    0 -0.73390694279E+02 -0.54355769089E+02 -0.60431939310E+02  0.10951147396E+03  0.00000000000E+00 0.  1.
</event>
<event>
 7    1  0.5622879E-006  0.6070405E+02  0.7818608E-02  0.1450665E+00
          2   -1    0    0  502    0  0.00000000000E+00  0.00000000000E+00  0.15299995346E+04  0.15299995346E+04  0.00000000000E+00 0. -1.
          1   -1    0    0  501    0 -0.00000000000E+00 -0.00000000000E+00 -0.80739980718E+03  0.80739980718E+03  0.00000000000E+00 0. -1.
         25    2    1    2    0    0  0.60619346257E+01 -0.32916807286E+02  0.29877794926E+03  0.32560226411E+03  0.12501323200E+03 0.  0.
          2    1    1    2  501    0 -0.31059556197E+02 -0.24557691982E+02 -0.79268677354E+03  0.79367505770E+03  0.00000000000E+00 0. -1.
          1    1    1    2  502    0  0.24997621571E+02  0.57474499268E+02  0.12165085517E+04  0.12181220199E+04  0.00000000000E+00 0. -1.
         22    1    3    3    0    0  0.23286608399E+02  0.37199315553E+02  0.49854926175E+02  0.66419642218E+02  0.00000000000E+00 0.  1.
         22    1    3    3    0    0 -0.17224673774E+02 -0.70116122839E+02  0.24892302308E+03  0.25918262189E+03  0.00000000000E+00 0.  1.
</event>
<event>
 7    1  0.5622879E-006  0.5839641E+02  0.7818608E-02  0.1459830E+00
          2   -1    0    0  502    0  0.00000000000E+00  0.00000000000E+00  0.14948693022E+04  0.14948693022E+04  0.00000000000E+00 0. -1.
          1   -1    0    0  501    0 -0.00000000000E+00 -0.00000000000E+00 -0.60344600172E+02  0.60344600172E+02  0.00000000000E+00 0. -1.
         25    2    1    2    0    0 -0.22498266090E+02 -0.47454521829E+02  0.56680361003E+03  0.58280017389E+03  0.12502642408E+03 0.  0.
          2    1    1    2  501    0 -0.32038985441E+02  0.21333071074E+02 -0.44130942592E+02  0.58558830278E+02  0.00000000000E+00 0. -1.
          1    1    1    2  502    0  0.54537251531E+02  0.26121450755E+02  0.91185203462E+03  0.91385489824E+03  0.00000000000E+00 0. -1.
         22    1    3    3    0    0 -0.71394281992E+02 -0.22291827595E+02  0.23943104677E+03  0.25084117532E+03  0.00000000000E+00 0. -1.
         22    1    3    3    0    0  0.48896015902E+02 -0.25162694234E+02  0.32737256326E+03  0.33195899857E+03  0.00000000000E+00 0. -1.
</event>
<event>
 7    1  0.5622879E-006  0.1592003E+03  0.7818608E-02  0.1275984E+00
          2   -1    0    0  502    0  0.00000000000E+00  0.00000000000E+00  0.23517244573E+04  0.23517244573E+04  0.00000000000E+00 0. -1.
          1   -1    0    0  501    0 -0.00000000000E+00 -0.00000000000E+00 -0.97248339083E+02  0.97248339083E+02  0.00000000000E+00 0. -1.
         25    2    1    2    0    0  0.39207013091E+02  0.14260774564E+03  0.46776126127E+02  0.19921639744E+03  0.12500003216E+03 0.  0.
          2    1    1    2  501    0 -0.31416245659E+02 -0.20759504882E+03  0.51999819849E+03  0.56078588714E+03  0.00000000000E+00 0. -1.
          1    1    1    2  502    0 -0.77907674318E+01  0.64987303177E+02  0.16877017936E+04  0.16889705118E+04  0.00000000000E+00 0. -1.
         22    1    3    3    0    0  0.42532860248E+02  0.93407440693E+02  0.87803501494E+02  0.13506831254E+03  0.00000000000E+00 0. -1.
         22    1    3    3    0    0 -0.33258471566E+01  0.49200304948E+02 -0.41027375367E+02  0.64148084895E+02  0.00000000000E+00 0. -1.
</event>
<event>
 7    1  0.5622879E-006  0.1381998E+03  0.7818608E-02  0.1280449E+00
          2   -1    0    0  502    0  0.00000000000E+00  0.00000000000E+00  0.79550386513E+03  0.79550386513E+03  0.00000000000E+00 0. -1.
          1   -1    0    0  501    0 -0.00000000000E+00 -0.00000000000E+00 -0.62916420659E+02  0.62916420659E+02  0.00000000000E+00 0. -1.
         25    2    1    2    0    0  0.11919239965E+02 -0.93399833940E+02  0.24479225917E+03  0.29054062898E+03  0.12500003871E+03 0.  0.
          2    1    1    2  501    0  0.17648369677E+02 -0.70065491505E+02  0.25462590283E+02  0.76609278524E+02  0.00000000000E+00 0. -1.
          1    1    1    2  502    0 -0.29567609641E+02  0.16346532545E+03  0.46233259502E+03  0.49127037829E+03  0.00000000000E+00 0. -1.
         22    1    3    3    0    0 -0.21529761851E+02 -0.10729361294E+03  0.22264791561E+03  0.24808777549E+03  0.00000000000E+00 0.  1.
         22    1    3    3    0    0  0.33449001815E+02  0.13893779003E+02  0.22144343556E+02  0.42452853484E+02  0.00000000000E+00 0.  1.
</event>
<event>
 7    1  0.5622879E-006  0.1151420E+03  0.7818608E-02  0.1377072E+00
          2   -1    0    0  502    0  0.00000000000E+00  0.00000000000E+00  0.64444162835E+03  0.64444162835E+03  0.00000000000E+00 0. -1.
          1   -1    0    0  501    0 -0.00000000000E+00 -0.00000000000E+00 -0.10639803596E+03  0.10639803596E+03  0.00000000000E+00 0. -1.
         25    2    1    2    0    0  0.51099556426E+02 -0.90726815933E+02  0.40564018028E+03  0.43705718549E+03  0.12503002732E+03 0.  0.
          2    1    1    2  501    0 -0.13868786259E+02 -0.34264699975E+02 -0.66413113775E+02  0.76007332396E+02  0.00000000000E+00 0. -1.
          1    1    1    2  502    0 -0.37230770167E+02  0.12499151591E+03  0.19881652588E+03  0.23777514643E+03  0.00000000000E+00 0. -1.
         22    1    3    3    0    0  0.76142529423E+02 -0.39714771440E+02  0.33787506889E+03  0.34861800015E+03  0.00000000000E+00 0.  1.
         22    1    3    3    0    0 -0.25042972997E+02 -0.51012044492E+02  0.67765111399E+02  0.88439185335E+02  0.00000000000E+00 0.  1.
</event>
<event>
 7    1  0.5622879E-006  0.1880376E+03  0.7818608E-02  0.1225880E+00
          2   -1    0    0  502    0  0.00000000000E+00  0.00000000000E+00  0.24571898037E+04  0.24571898037E+04  0.00000000000E+00 0. -1.
          1   -1    0    0  501    0 -0.00000000000E+00 -0.00000000000E+00 -0.31595358504E+03  0.31595358504E+03  0.00000000000E+00 0. -1.
         25    2    1    2    0    0  0.18962549145E+03  0.81198070297E+02  0.12079515078E+04  0.12317966187E+04  0.12500044420E+03 0.  0.
          2    1    1    2  501    0 -0.69380762300E+02  0.59435377047E+02 -0.29005031484E+03  0.30409774639E+03  0.00000000000E+00 0. -1.
          1    1    1    2  502    0 -0.12024472915E+03 -0.14063344734E+03  0.12233350257E+04  0.12372490236E+04  0.00000000000E+00 0. -1.
         22    1    3    3    0    0  0.22345600559E+02  0.58633920257E+02  0.50399737725E+03  0.50788839202E+03  0.00000000000E+00 0. -1.
         22    1    3    3    0    0  0.16727989089E+03  0.22564150040E+02  0.70395413056E+03  0.72390822671E+03  0.00000000000E+00 0. -1.
</event>
<event>
 7    1  0.5622879E-006  0.5906225E+02  0.7818608E-02  0.1504462E+00
          2   -1    0    0  502    0  0.00000000000E+00  0.00000000000E+00  0.22246145653E+04  0.22246145653E+04  0.00000000000E+00 0. -1.
          1   -1    0    0  501    0 -0.00000000000E+00 -0.00000000000E+00 -0.33758801516E+02  0.33758801516E+02  0.00000000000E+00 0. -1.
         25    2    1    2    0    0 -0.41742989255E+01 -0.64260230593E+02  0.14836999549E+04  0.14903478911E+04  0.12499791427E+03 0.  0.
          2    1    1    2  501    0 -0.24576169306E+02  0.12974798691E+02 -0.22652053486E+02  0.35853159219E+02  0.00000000000E+00 0. -1.
          1    1    1    2  502    0  0.28750468232E+02  0.51285431902E+02  0.72980786243E+03  0.73217231648E+03  0.00000000000E+00 0. -1.
         22    1    3    3    0    0 -0.12520303803E+02 -0.10119135718E+03  0.11481353410E+04  0.11526539854E+04  0.00000000000E+00 0. -1.
         22    1    3    3    0    0  0.83460048778E+01  0.36931126591E+02  0.33556461388E+03  0.33769390577E+03  0.00000000000E+00 0. -1.
</event>
<event>
 7    1  0.6311337E-006  0.7776437E+02  0.7818608E-02  0.1444304E+00
          2   -1    0    0  502    0  0.00000000000E+00  0.00000000000E+00  0.21988115840E+04  0.21988115840E+04  0.00000000000E+00 0. -1.
          1   -1    0    0  501    0 -0.00000000000E+00 -0.00000000000E+00 -0.10547692109E+04  0.10547692109E+04  0.00000000000E+00 0. -1.
         25    2    1    2    0    0  0.82814309733E+01 -0.46622348619E+02 -0.63324466858E+02  0.14791093096E+03  0.12500171960E+03 0.  0.
          2    1    1    2  501    0 -0.46813777435E+01  0.78818568239E+02 -0.94738746888E+03  0.95067202451E+03  0.00000000000E+00 0. -1.
          1    1    1    2  502    0 -0.36000532298E+01 -0.32196219620E+02  0.21547543088E+04  0.21549978395E+04  0.00000000000E+00 0. -1.
         22    1    3    3    0    0 -0.16112705317E+02  0.94149495300E+01  0.30606529245E+02  0.35847178128E+02  0.00000000000E+00 0. -1.
         22    1    3    3    0    0  0.24394136290E+02 -0.56037298149E+02 -0.93930996104E+02  0.11206375283E+03  0.00000000000E+00 0. -1.
</event>
<event>
 7    1  0.5622879E-006  0.2968138E+02  0.7818608E-02  0.1628817E+00
          2   -1    0    0  502    0  0.00000000000E+00  0.00000000000E+00  0.95988485688E+03  0.95988485688E+03  0.00000000000E+00 0. -1.
          1   -1    0    0  501    0 -0.00000000000E+00 -0.00000000000E+00 -0.18438499861E+03  0.18438499861E+03  0.00000000000E+00 0. -1.
         25    2    1    2    0    0  0.32734059130E+01  0.92423364780E+01 -0.13459581340E+03  0.18394352012E+03  0.12499219831E+03 0.  0.
          2    1    1    2  501    0 -0.20235405765E+02  0.15158464105E+02 -0.18453675553E+02  0.31301578585E+02  0.00000000000E+00 0. -1.
          1    1    1    2  502    0  0.16961999852E+02 -0.24400800583E+02  0.92854934721E+03  0.92902475678E+03  0.00000000000E+00 0. -1.
         22    1    3    3    0    0 -0.12488988078E+02 -0.56127947359E+02 -0.52901007304E+02  0.78133461920E+02  0.00000000000E+00 0.  1.
         22    1    3    3    0    0  0.15762393991E+02  0.65370283837E+02 -0.81694806092E+02  0.10581005820E+03  0.00000000000E+00 0.  1.
</event>
<event>
 7    1  0.5622879E-006  0.6844294E+02  0.7818608E-02  0.1370985E+00
          2   -1    0    0  502    0  0.00000000000E+00  0.00000000000E+00  0.47336195541E+03  0.47336195541E+03  0.00000000000E+00 0. -1.
          1   -1    0    0  501    0 -0.00000000000E+00 -0.00000000000E+00 -0.11330900101E+04  0.11330900101E+04  0.00000000000E+00 0. -1.
         25    2    1    2    0    0 -0.75027642044E+02 -0.10485720151E+03  0.65574299552E+02  0.19117689410E+03  0.12499774517E+03 0.  0.
          2    1    1    2  501    0  0.24461357586E+02  0.63412625297E+02 -0.10660991274E+04  0.10682634827E+04  0.00000000000E+00 0. -1.
          1    1    1    2  502    0  0.50566284457E+02  0.41444576211E+02  0.34079677321E+03  0.34701158865E+03  0.00000000000E+00 0. -1.
         22    1    3    3    0    0 -0.52557306842E+02 -0.11477245668E+02  0.77555806927E+02  0.94386973988E+02  0.00000000000E+00 0.  1.
         22    1    3    3    0    0 -0.22470335202E+02 -0.93379955840E+02 -0.11981507375E+02  0.96789920114E+02  0.00000000000E+00 0.  1.
</event>
<event>
 7    1  0.5622879E-006  0.1131887E+03  0.7818608E-02  0.1356598E+00
          2   -1    0    0  502    0  0.00000000000E+00  0.00000000000E+00  0.15993191473E+04  0.15993191473E+04  0.00000000000E+00 0. -1.
          1   -1    0    0  501    0 -0.00000000000E+00 -0.00000000000E+00 -0.24641295732E+03  0.24641295732E+03  0.00000000000E+00 0. -1.
         25    2    1    2    0    0 -0.71076410561E+02  0.10282380537E+02  0.32208528526E+03  0.35287681275E+03  0.12500212201E+03 0.  0.
          2    1    1    2  501    0  0.11089010805E+03 -0.30347891633E+02 -0.21629043361E+03  0.24494726424E+03  0.00000000000E+00 0. -1.
          1    1    1    2  502    0 -0.39813697488E+02  0.20065511096E+02  0.12471113384E+04  0.12479080277E+04  0.00000000000E+00 0. -1.
         22    1    3    3    0    0 -0.92059597207E+01 -0.25215337064E+02  0.43013427197E+01  0.27185740137E+02  0.00000000000E+00 0. -1.
         22    1    3    3    0    0 -0.61870450841E+02  0.35497717601E+02  0.31778394254E+03  0.32569107261E+03  0.00000000000E+00 0. -1.
</event>
<event>
 7    1  0.5622879E-006  0.1045316E+03  0.7818608E-02  0.1440523E+00
          2   -1    0    0  502    0  0.00000000000E+00  0.00000000000E+00  0.27110364567E+03  0.27110364567E+03  0.00000000000E+00 0. -1.
          1   -1    0    0  501    0 -0.00000000000E+00 -0.00000000000E+00 -0.16430191178E+04  0.16430191178E+04  0.00000000000E+00 0. -1.
         25    2    1    2    0    0 -0.11601790140E+03 -0.12175691055E+02  0.48173541435E+02  0.17763488587E+03  0.12500024673E+03 0.  0.
          2    1    1    2  501    0  0.14486462878E+02  0.20115995748E+02 -0.15617896882E+04  0.15619864087E+04  0.00000000000E+00 0. -1.
          1    1    1    2  502    0  0.10153143853E+03 -0.79403046923E+01  0.14170067463E+03  0.17450146887E+03  0.00000000000E+00 0. -1.
         22    1    3    3    0    0 -0.11036874410E+03  0.70078313144E+01 -0.14786526689E+02  0.11157513498E+03  0.00000000000E+00 0.  1.
         22    1    3    3    0    0 -0.56491572993E+01 -0.19183522370E+02  0.62960068124E+02  0.66059750884E+02  0.00000000000E+00 0.  1.
</event>
<event>
 7    1  0.5622879E-006  0.8915716E+02  0.7818608E-02  0.1305005E+00
          2   -1    0    0  502    0  0.00000000000E+00  0.00000000000E+00  0.35042892267E+03  0.35042892267E+03  0.00000000000E+00 0. -1.
          1   -1    0    0  501    0 -0.00000000000E+00 -0.00000000000E+00 -0.31064521991E+03  0.31064521991E+03  0.00000000000E+00 0. -1.
         25    2    1    2    0    0  0.13174624219E+02 -0.31593844422E+02 -0.88644364231E+02  0.15701673687E+03  0.12499876247E+03 0.  0.
          2    1    1    2  501    0 -0.83906557059E+02 -0.29904188094E+02 -0.16963756862E+03  0.19160238900E+03  0.00000000000E+00 0. -1.
          1    1    1    2  502    0  0.70731932840E+02  0.61498032516E+02  0.29806563562E+03  0.31245501670E+03  0.00000000000E+00 0. -1.
         22    1    3    3    0    0  0.47808540104E+02  0.31189738849E+02 -0.30617129030E+02  0.64775496188E+02  0.00000000000E+00 0. -1.
         22    1    3    3    0    0 -0.34633915885E+02 -0.62783583271E+02 -0.58027235201E+02  0.92241240684E+02  0.00000000000E+00 0. -1.
</event>
<event>
 7    1  0.7416784E-006  0.9890434E+02  0.7818608E-02  0.1305953E+00
          2   -1    0    0  502    0  0.00000000000E+00  0.00000000000E+00  0.22339068041E+04  0.22339068041E+04  0.00000000000E+00 0. -1.
          1   -1    0    0  501    0 -0.00000000000E+00 -0.00000000000E+00 -0.11663286296E+04  0.11663286296E+04  0.00000000000E+00 0. -1.
         25    2    1    2    0    0 -0.72597236745E+02 -0.15619628645E+03 -0.18320118974E+03  0.28081278370E+03  0.12500201953E+03 0.  0.
          2    1    1    2  501    0  0.11608203153E+02  0.78754117588E+02 -0.93151142409E+03  0.93490667696E+03  0.00000000000E+00 0. -1.
          1    1    1    2  502    0  0.60989033592E+02  0.77442168865E+02  0.21822907883E+04  0.21845159730E+04  0.00000000000E+00 0. -1.
         22    1    3    3    0    0 -0.18444447424E+02 -0.80451159432E+02 -0.16702506029E+03  0.18630608541E+03  0.00000000000E+00 0.  1.
         22    1    3    3    0    0 -0.54152789320E+02 -0.75745127020E+02 -0.16176129442E+02  0.94506698293E+02  0.00000000000E+00 0.  1.
</event>
<event>
 7    1  0.5622879E-006  0.8262369E+02  0.7818608E-02  0.1323675E+00
          2   -1    0    0  502    0  0.00000000000E+00  0.00000000000E+00  0.71724372665E+02  0.71724372665E+02  0.00000000000E+00 0. -1.
          1   -1    0    0  501    0 -0.00000000000E+00 -0.00000000000E+00 -0.50510655657E+03  0.50510655657E+03  0.00000000000E+00 0. -1.
         25    2    1    2    0    0  0.35009549862E+02 -0.43979301160E+02 -0.98814564367E+02  0.16896967365E+03  0.12500633972E+03 0.  0.
          2    1    1    2  501    0 -0.51582244932E+02 -0.64544145046E+02 -0.26573905620E+03  0.27828747842E+03  0.00000000000E+00 0. -1.
          1    1    1    2  502    0  0.16572695069E+02  0.10852344621E+03 -0.68828563333E+02  0.12957377716E+03  0.00000000000E+00 0. -1.
         22    1    3    3    0    0 -0.46418892848E+02 -0.20216416027E+02 -0.49722904098E+02  0.70963260087E+02  0.00000000000E+00 0.  1.
         22    1    3    3    0    0  0.81428442710E+02 -0.23762885132E+02 -0.49091660269E+02  0.98006413565E+02  0.00000000000E+00 0.  1.
</event>
<event>
 7    1  0.5622879E-006  0.1441182E+03  0.7818608E-02  0.1362218E+00
          2   -1    0    0  502    0  0.00000000000E+00  0.00000000000E+00  0.13656158009E+04  0.13656158009E+04  0.00000000000E+00 0. -1.
          1   -1    0    0  501    0 -0.00000000000E+00 -0.00000000000E+00 -0.65895945811E+03  0.65895945811E+03  0.00000000000E+00 0. -1.
         25    2    1    2    0    0 -0.73092116779E+02  0.15020550960E+03 -0.21184767056E+03  0.29733599354E+03  0.12500041953E+03 0.  0.
          2    1    1    2  501    0 -0.90191785140E+01 -0.32158435296E+02 -0.39976150225E+03  0.40115429603E+03  0.00000000000E+00 0. -1.
          1    1    1    2  502    0  0.82111295293E+02 -0.11804707431E+03  0.13182655156E+04  0.13260849695E+04  0.00000000000E+00 0. -1.
         22    1    3    3    0    0 -0.74450080685E+02  0.24683372678E+02 -0.11302768503E+03  0.13757667311E+03  0.00000000000E+00 0.  1.
         22    1    3    3    0    0  0.13579639065E+01  0.12552213692E+03 -0.98819985524E+02  0.15975932043E+03  0.00000000000E+00 0.  1.
</event>
<event>
 7    1  0.5622879E-006  0.7552379E+02  0.7818608E-02  0.1468155E+00
          2   -1    0    0  502    0  0.00000000000E+00  0.00000000000E+00  0.10599623267E+03  0.10599623267E+03  0.00000000000E+00 0. -1.
          1   -1    0    0  501    0 -0.00000000000E+00 -0.00000000000E+00 -0.31668189051E+04  0.31668189051E+04  0.00000000000E+00 0. -1.
         25    2    1    2    0    0 -0.51326738344E+02 -0.85544199308E+02 -0.50050100155E+03  0.52543188311E+03  0.12500066852E+03 0.  0.
          2    1    1    2  501    0  0.28924432075E+02  0.68704781788E+02 -0.26512173519E+04  0.26522651483E+04  0.00000000000E+00 0. -1.
          1    1    1    2  502    0  0.22402306269E+02  0.16839417520E+02  0.90895681078E+02  0.95118106306E+02  0.00000000000E+00 0. -1.
         22    1    3    3    0    0  0.38137462769E+02 -0.32871825929E+01 -0.12870537810E+03  0.13427712385E+03  0.00000000000E+00 0.  1.
         22    1    3    3    0    0 -0.89464201113E+02 -0.82257016715E+02 -0.37179562344E+03  0.39115475926E+03  0.00000000000E+00 0.  1.
</event>
<event>
 7    1  0.5622879E-006  0.4990219E+02  0.7818608E-02  0.1499360E+00
          2   -1    0    0  502    0  0.00000000000E+00  0.00000000000E+00  0.68854473056E+03  0.68854473056E+03  0.00000000000E+00 0. -1.
          1   -1    0    0  501    0 -0.00000000000E+00 -0.00000000000E+00 -0.69082820818E+03  0.69082820818E+03  0.00000000000E+00 0. -1.
         25    2    1    2    0    0 -0.46468143014E+02 -0.47392305918E+01 -0.91356388574E+02  0.16171671504E+03  0.12499823026E+03 0.  0.
          2    1    1    2  501    0  0.41228355681E+02 -0.28917928222E+02 -0.56272250609E+03  0.56497136454E+03  0.00000000000E+00 0. -1.
          1    1    1    2  502    0  0.52397873326E+01  0.33657158814E+02  0.65179541704E+03  0.65268485917E+03  0.00000000000E+00 0. -1.
         22    1    3    3    0    0 -0.45985228494E+01 -0.33044812834E+02 -0.10433299072E+03  0.10953756899E+03  0.00000000000E+00 0. -1.
         22    1    3    3    0    0 -0.41869620164E+02  0.28305582242E+02  0.12976602150E+02  0.52179146046E+02  0.00000000000E+00 0. -1.
</event>
<event>
 7    1  0.5622879E-006  0.5415351E+02  0.7818608E-02  0.1425450E+00
          2   -1    0    0  502    0  0.00000000000E+00  0.00000000000E+00  0.46711735432E+03  0.46711735432E+03  0.00000000000E+00 0. -1.
          1   -1    0    0  501    0 -0.00000000000E+00 -0.00000000000E+00 -0.36392938595E+03  0.36392938595E+03  0.00000000000E+00 0. -1.
         25    2    1    2    0    0  0.22265935963E+02 -0.62080699721E+02 -0.51620467437E+02  0.15044711827E+03  0.12497950854E+03 0.  0.
          2    1    1    2  501    0  0.29347805485E+02  0.45690934563E+02 -0.25830517700E+03  0.26395173735E+03  0.00000000000E+00 0. -1.
          1    1    1    2  502    0 -0.51613741448E+02  0.16389765158E+02  0.41311361280E+03  0.41664788465E+03  0.00000000000E+00 0. -1.
         22    1    3    3    0    0  0.30115388839E+02 -0.12060454253E+02  0.36489688321E+02  0.48825081213E+02  0.00000000000E+00 0. -1.
         22    1    3    3    0    0 -0.78494528756E+01 -0.50020245468E+02 -0.88110155758E+02  0.10162203705E+03  0.00000000000E+00 0. -1.
</event>
<event>
 7    1  0.5622879E-006  0.1129286E+03  0.7818608E-02  0.1425701E+00
          2   -1    0    0  502    0  0.00000000000E+00  0.00000000000E+00  0.81086464933E+03  0.81086464933E+03  0.00000000000E+00 0. -1.
          1   -1    0    0  501    0 -0.00000000000E+00 -0.00000000000E+00 -0.73236944078E+03  0.73236944078E+03  0.00000000000E+00 0. -1.
         25    2    1    2    0    0  0.54426582918E+02  0.12583086779E+03  0.14740847212E+03  0.23696023874E+03  0.12500094749E+03 0.  0.
          2    1    1    2  501    0 -0.50194768695E+02 -0.10052039944E+03 -0.68273380363E+03  0.69191712808E+03  0.00000000000E+00 0. -1.
          1    1    1    2  502    0 -0.42318142230E+01 -0.25310468349E+02  0.61382054006E+03  0.61435672330E+03  0.00000000000E+00 0. -1.
         22    1    3    3    0    0  0.49871271114E+02  0.44530423927E+02  0.14006221401E+03  0.15520156613E+03  0.00000000000E+00 0.  1.
         22    1    3    3    0    0  0.45553118041E+01  0.81300443862E+02  0.73462581137E+01  0.81758672605E+02  0.00000000000E+00 0.  1.
</event>
<event>
 7    1  0.5622879E-006  0.7076693E+02  0.7818608E-02  0.1497105E+00
          2   -1    0    0  502    0  0.00000000000E+00  0.00000000000E+00  0.23975483439E+02  0.23975483439E+02  0.00000000000E+00 0. -1.
          1   -1    0    0  501    0 -0.00000000000E+00 -0.00000000000E+00 -0.20653409800E+04  0.20653409800E+04  0.00000000000E+00 0. -1.
         25    2    1    2    0    0 -0.21664774747E+02  0.72817840887E+02 -0.11363714508E+04  0.11457473889E+04  0.12500081782E+03 0.  0.
          2    1    1    2  501    0  0.24297913356E+02 -0.21813246963E+01 -0.85875866366E+03  0.85910510951E+03  0.00000000000E+00 0. -1.
          1    1    1    2  502    0 -0.26331386093E+01 -0.70636516191E+02 -0.46235382099E+02  0.84463965076E+02  0.00000000000E+00 0. -1.
         22    1    3    3    0    0  0.13246546464E+02 -0.31424225577E+02 -0.36359838213E+03  0.36519410789E+03  0.00000000000E+00 0. -1.
         22    1    3    3    0    0 -0.34911321211E+02  0.10424206646E+03 -0.77277306868E+03  0.78055328098E+03  0.00000000000E+00 0. -1.
</event>
<event>
 7    1  0.5622879E-006  0.5765218E+02  0.7818608E-02  0.1473380E+00
          2   -1    0    0  502    0  0.00000000000E+00  0.00000000000E+00  0.26283169743E+04  0.26283169743E+04  0.00000000000E+00 0. -1.
          1   -1    0    0  501    0 -0.00000000000E+00 -0.00000000000E+00 -0.13461796046E+02  0.13461796046E+02  0.00000000000E+00 0. -1.
         25    2    1    2    0    0  0.40323201685E+02  0.49138376400E+02  0.20496818742E+04  0.20544715111E+04  0.12496744983E+03 0.  0.
          2    1    1    2  501    0 -0.59620592628E+01 -0.57508531934E+02  0.69635318350E+02  0.90508866735E+02  0.00000000000E+00 0. -1.
          1    1    1    2  502    0 -0.34361142422E+02  0.83701555345E+01  0.49553798571E+03  0.49679839260E+03  0.00000000000E+00 0. -1.
         22    1    3    3    0    0 -0.32403964515E+02  0.12342254399E+02  0.19919312526E+03  0.20218864783E+03  0.00000000000E+00 0. -1.
         22    1    3    3    0    0  0.72727166200E+02  0.36796122000E+02  0.18504887490E+04  0.18522828632E+04  0.00000000000E+00 0. -1.
</event>
<event>
 7    1  0.5622879E-006  0.6894899E+02  0.7818608E-02  0.1390736E+00
          2   -1    0    0  502    0  0.00000000000E+00  0.00000000000E+00  0.87907241365E+03  0.87907241365E+03  0.00000000000E+00 0. -1.
          1   -1    0    0  501    0 -0.00000000000E+00 -0.00000000000E+00 -0.54814352989E+02  0.54814352989E+02  0.00000000000E+00 0. -1.
         25    2    1    2    0    0 -0.15046577104E+02 -0.57300172464E+02  0.58801764621E+03  0.60406918485E+03  0.12500047436E+03 0.  0.
          2    1    1    2  501    0 -0.54581149405E+02  0.86108504841E+01 -0.20844374533E+02  0.59057061950E+02  0.00000000000E+00 0. -1.
          1    1    1    2  502    0  0.69627726509E+02  0.48689321979E+02  0.25708478899E+03  0.27076051984E+03  0.00000000000E+00 0. -1.
         22    1    3    3    0    0 -0.34450846223E+01 -0.60910401880E+02  0.58874473109E+03  0.59189720733E+03  0.00000000000E+00 0.  1.
         22    1    3    3    0    0 -0.11601492482E+02  0.36102294160E+01 -0.72708488312E+00  0.12171977517E+02  0.00000000000E+00 0.  1.
</event>
<event>
 7    1  0.5622879E-006  0.7125411E+02  0.7818608E-02  0.1476652E+00
          2   -1    0    0  502    0  0.00000000000E+00  0.00000000000E+00  0.18585861673E+04  0.18585861673E+04  0.00000000000E+00 0. -1.
          1   -1    0    0  501    0 -0.00000000000E+00 -0.00000000000E+00 -0.74661974459E+03  0.74661974459E+03  0.00000000000E+00 0. -1.
         25    2    1    2    0    0  0.36972374882E+02  0.50253021413E+02 -0.63270935219E+03  0.64794906666E+03  0.12499818391E+03 0.  0.
          2    1    1    2  501    0  0.24291266634E+02 -0.13838425045E+02 -0.10375358579E+03  0.10745405626E+03  0.00000000000E+00 0. -1.
          1    1    1    2  502    0 -0.61263641516E+02 -0.36414596369E+02  0.18484293607E+04  0.18498027890E+04  0.00000000000E+00 0. -1.
         22    1    3    3    0    0  0.44018442738E+01 -0.26597616652E+02 -0.33720677516E+02  0.43172833318E+02  0.00000000000E+00 0.  1.
         22    1    3    3    0    0  0.32570530608E+02  0.76850638066E+02 -0.59898867467E+03  0.60477623335E+03  0.00000000000E+00 0.  1.
</event>
<event>
 7    1  0.5622879E-006  0.3258835E+02  0.7818608E-02  0.1591264E+00
          2   -1    0    0  502    0  0.00000000000E+00  0.00000000000E+00  0.45986814877E+03  0.45986814877E+03  0.00000000000E+00 0. -1.
          1   -1    0    0  501    0 -0.00000000000E+00 -0.00000000000E+00 -0.14953908016E+04  0.14953908016E+04  0.00000000000E+00 0. -1.
         25    2    1    2    0    0 -0.14584080515E+02  0.26752744227E+02  0.36563478868E+03  0.38760914782E+03  0.12499459208E+03 0.  0.
          2    1    1    2  501    0 -0.21183622316E+02 -0.19486077844E+02 -0.14802564004E+04  0.14805362083E+04  0.00000000000E+00 0. -1.
          1    1    1    2  502    0  0.35767702830E+02 -0.72666663830E+01  0.79098958904E+02  0.87113594265E+02  0.00000000000E+00 0. -1.
         22    1    3    3    0    0 -0.32668762341E+01  0.50263974962E+02  0.50258133939E+02  0.71154899244E+02  0.00000000000E+00 0. -1.
         22    1    3    3    0    0 -0.11317204281E+02 -0.23511230735E+02  0.31537665474E+03  0.31645424857E+03  0.00000000000E+00 0. -1.
</event>
<event>
 7    1  0.5622879E-006  0.3892644E+02  0.7818608E-02  0.1563114E+00
          2   -1    0    0  502    0  0.00000000000E+00  0.00000000000E+00  0.67149064334E+02  0.67149064334E+02  0.00000000000E+00 0. -1.
          1   -1    0    0  501    0 -0.00000000000E+00 -0.00000000000E+00 -0.41443904383E+03  0.41443904383E+03  0.00000000000E+00 0. -1.
         25    2    1    2    0    0 -0.21330340195E+01  0.59621817284E+02 -0.12474946439E+03  0.18640486046E+03  0.12500012884E+03 0.  0.
          2    1    1    2  501    0  0.16139653737E+02 -0.34583995085E+02 -0.25152336443E+03  0.25440232702E+03  0.00000000000E+00 0. -1.
          1    1    1    2  502    0 -0.14006619717E+02 -0.25037822199E+02  0.28982849324E+02  0.40780920677E+02  0.00000000000E+00 0. -1.
         22    1    3    3    0    0 -0.55277651282E+02  0.45351409242E+01 -0.25437600711E+02  0.61018503460E+02  0.00000000000E+00 0. -1.
         22    1    3    3    0    0  0.53144617263E+02  0.55086676360E+02 -0.99311863675E+02  0.12538635700E+03  0.00000000000E+00 0. -1.
</event>
<event>
 7    1  0.5622879E-006  0.5280028E+02  0.7818608E-02  0.1567631E+00
          2   -1    0    0  502    0  0.00000000000E+00  0.00000000000E+00  0.24861194552E+04  0.24861194552E+04  0.00000000000E+00 0. -1.
          1   -1    0    0  501    0 -0.00000000000E+00 -0.00000000000E+00 -0.33788171007E+02  0.33788171007E+02  0.00000000000E+00 0. -1.
         25    2    1    2    0    0 -0.55930082319E+01 -0.67221323034E+02  0.13213751598E+04  0.13289872514E+04  0.12499925298E+03 0.  0.
          2    1    1    2  501    0 -0.81593102607E+01  0.51940327624E+02 -0.67674841750E+01  0.53011044318E+02  0.00000000000E+00 0. -1.
          1    1    1    2  502    0  0.13752318493E+02  0.15280995411E+02  0.11377236085E+04  0.11379093305E+04  0.00000000000E+00 0. -1.
         22    1    3    3    0    0  0.14579509261E+02 -0.78510852176E+02  0.43240013590E+03  0.43971171639E+03  0.00000000000E+00 0. -1.
         22    1    3    3    0    0 -0.20172517493E+02  0.11289529142E+02  0.88897502394E+03  0.88927553498E+03  0.00000000000E+00 0. -1.
</event>
<event>
 7    1  0.5622879E-006  0.3824570E+02  0.7818608E-02  0.1612649E+00
          2   -1    0    0  502    0  0.00000000000E+00  0.00000000000E+00  0.10913667418E+03  0.10913667418E+03  0.00000000000E+00 0. -1.
          1   -1    0    0  501    0 -0.00000000000E+00 -0.00000000000E+00 -0.12252428296E+04  0.12252428296E+04  0.00000000000E+00 0. -1.
         25    2    1    2    0    0  0.68203234900E+01  0.40373591174E+02 -0.51820028012E+03  0.53463395146E+03  0.12500155223E+03 0.  0.
          2    1    1    2  501    0 -0.21021730178E+02 -0.48381486604E+01 -0.69502460364E+03  0.69535927439E+03  0.00000000000E+00 0. -1.
          1    1    1    2  502    0  0.14201406688E+02 -0.35535442513E+02  0.97118728339E+02  0.10438627793E+03  0.00000000000E+00 0. -1.
         22    1    3    3    0    0  0.32475792028E+02 -0.17700722165E+02 -0.50238898701E+02  0.62385411562E+02  0.00000000000E+00 0. -1.
         22    1    3    3    0    0 -0.25655468538E+02  0.58074313339E+02 -0.46796138142E+03  0.47224853989E+03  0.00000000000E+00 0. -1.
</event>
<event>
 7    1  0.5622879E-006  0.6234081E+02  0.7818608E-02  0.1473694E+00
          2   -1    0    0  502    0  0.00000000000E+00  0.00000000000E+00  0.10198416085E+04  0.10198416085E+04  0.00000000000E+00 0. -1.
          1   -1    0    0  501    0 -0.00000000000E+00 -0.00000000000E+00 -0.33481355846E+02  0.33481355846E+02  0.00000000000E+00 0. -1.
         25    2    1    2    0    0  0.43841353432E+02  0.19932349175E+02  0.23892730199E+03  0.27391585867E+03  0.12499711670E+03 0.  0.
          2    1    1    2  501    0 -0.65272389982E+01  0.31973542602E+02  0.35985571429E+01  0.32830807011E+02  0.00000000000E+00 0. -1.
          1    1    1    2  502    0 -0.37314114434E+02 -0.51905891777E+02  0.74383439348E+03  0.74657629862E+03  0.00000000000E+00 0. -1.
         22    1    3    3    0    0 -0.50583768652E+01 -0.43022914583E+02  0.37527307445E+02  0.57313673411E+02  0.00000000000E+00 0.  1.
         22    1    3    3    0    0  0.48899730297E+02  0.62955263758E+02  0.20139999454E+03  0.21660218526E+03  0.00000000000E+00 0.  1.
</event>
<event>
 7    1  0.5622879E-006  0.7684604E+02  0.7818608E-02  0.1388013E+00
          2   -1    0    0  502    0  0.00000000000E+00  0.00000000000E+00  0.25267580498E+03  0.25267580498E+03  0.00000000000E+00 0. -1.
          1   -1    0    0  501    0 -0.00000000000E+00 -0.00000000000E+00 -0.15324215689E+04  0.15324215689E+04  0.00000000000E+00 0. -1.
         25    2    1    2    0    0  0.12318563250E+03 -0.26263830765E+02  0.25973260225E+02  0.17934484465E+03  0.12500189676E+03 0.  0.
          2    1    1    2  501    0 -0.72570269176E+02  0.23796936448E+02 -0.14504227452E+04  0.14524320562E+04  0.00000000000E+00 0. -1.
          1    1    1    2  502    0 -0.50615363321E+02  0.24668943171E+01  0.14470372103E+03  0.15332047303E+03  0.00000000000E+00 0. -1.
         22    1    3    3    0    0 -0.25983796841E+02 -0.17651309427E+01  0.51818031536E+00  0.26048836756E+02  0.00000000000E+00 0.  1.
         22    1    3    3    0    0  0.14916942934E+03 -0.24498699822E+02  0.25455079910E+02  0.15329600789E+03  0.00000000000E+00 0.  1.
</event>
<event>
 7    1  0.5622879E-006  0.3271851E+02  0.7818608E-02  0.1571434E+00
          2   -1    0    0  502    0  0.00000000000E+00  0.00000000000E+00  0.76467255189E+03  0.76467255189E+03  0.00000000000E+00 0. -1.
          1   -1    0    0  501    0 -0.00000000000E+00 -0.00000000000E+00 -0.40014491138E+03  0.40014491138E+03  0.00000000000E+00 0. -1.
         25    2    1    2    0    0  0.12557120404E+02  0.46688993649E+02  0.58896518638E+03  0.60401858879E+03  0.12498368468E+03 0.  0.
          2    1    1    2  501    0 -0.27390452785E+02 -0.17888908168E+02 -0.39036758748E+03  0.39173601225E+03  0.00000000000E+00 0. -1.
          1    1    1    2  502    0  0.14833332382E+02 -0.28800085481E+02  0.16593004162E+03  0.16906286223E+03  0.00000000000E+00 0. -1.
         22    1    3    3    0    0 -0.34693097023E+02 -0.18300869082E+02  0.34360821342E+03  0.34583975642E+03  0.00000000000E+00 0. -1.
         22    1    3    3    0    0  0.47250217426E+02  0.64989862730E+02  0.24535697296E+03  0.25817883237E+03  0.00000000000E+00 0. -1.
</event>
<event>
 7    1  0.5622879E-006  0.1794851E+03  0.7818608E-02  0.1238469E+00
          2   -1    0    0  502    0  0.00000000000E+00  0.00000000000E+00  0.46650711579E+03  0.46650711579E+03  0.00000000000E+00 0. -1.
          1   -1    0    0  501    0 -0.00000000000E+00 -0.00000000000E+00 -0.15948095129E+04  0.15948095129E+04  0.00000000000E+00 0. -1.
         25    2    1    2    0    0 -0.96430041517E+01 -0.19246298428E+03 -0.16412222684E+03  0.28230407103E+03  0.12499798131E+03 0.  0.
          2    1    1    2  501    0  0.79701866421E+02  0.26792133591E+02 -0.13503709408E+04  0.13529862837E+04  0.00000000000E+00 0. -1.
          1    1    1    2  502    0 -0.70058862269E+02  0.16567085069E+03  0.38619077051E+03  0.42602627405E+03  0.00000000000E+00 0. -1.
         22    1    3    3    0    0 -0.50812329209E+02 -0.15848143075E+03 -0.15636728875E+03  0.22836152409E+03  0.00000000000E+00 0. -1.
         22    1    3    3    0    0  0.41169325057E+02 -0.33981553525E+02 -0.77549380900E+01  0.53942546940E+02  0.00000000000E+00 0. -1.
</event>
<event>
 7    1  0.5622879E-006  0.6493618E+02  0.7818608E-02  0.1495985E+00
          2   -1    0    0  502    0  0.00000000000E+00  0.00000000000E+00  0.20227742195E+04  0.20227742195E+04  0.00000000000E+00 0. -1.
          1   -1    0    0  501    0 -0.00000000000E+00 -0.00000000000E+00 -0.49169229539E+03  0.49169229539E+03  0.00000000000E+00 0. -1.
         25    2    1    2    0    0  0.90030258164E+01 -0.65597204199E+02 -0.40426693000E+02  0.14711193563E+03  0.12499422557E+03 0.  0.
          2    1    1    2  501    0  0.24804745279E+02  0.10127711383E+02 -0.39693558864E+03  0.39783879582E+03  0.00000000000E+00 0. -1.
          1    1    1    2  502    0 -0.33807771096E+02  0.55469492817E+02  0.19684442057E+04  0.19695157834E+04  0.00000000000E+00 0. -1.
         22    1    3    3    0    0 -0.17970424889E+02 -0.89263044893E+02 -0.57170369528E+02  0.10751408515E+03  0.00000000000E+00 0. -1.
         22    1    3    3    0    0  0.26973450705E+02  0.23665840693E+02  0.16743676528E+02  0.39597850476E+02  0.00000000000E+00 0. -1.
</event>
<event>
 7    1  0.5622879E-006  0.5033973E+02  0.7818608E-02  0.1463592E+00
          2   -1    0    0  502    0  0.00000000000E+00  0.00000000000E+00  0.95431702445E+02  0.95431702445E+02  0.00000000000E+00 0. -1.
          1   -1    0    0  501    0 -0.00000000000E+00 -0.00000000000E+00 -0.53412441314E+03  0.53412441314E+03  0.00000000000E+00 0. -1.
         25    2    1    2    0    0 -0.33119111081E+02 -0.25881326841E+02 -0.27699480214E+03  0.30678762211E+03  0.12500322423E+03 0.  0.
          2    1    1    2  501    0  0.53672704714E+02 -0.12401126113E+02 -0.23291610022E+03  0.23934171576E+03  0.00000000000E+00 0. -1.
          1    1    1    2  502    0 -0.20553593633E+02  0.38282452954E+02  0.71218191669E+02  0.83426777716E+02  0.00000000000E+00 0. -1.
         22    1    3    3    0    0 -0.62801236101E+02 -0.11036999914E+02 -0.60948778737E+02  0.88207506781E+02  0.00000000000E+00 0. -1.
         22    1    3    3    0    0  0.29682125020E+02 -0.14844326926E+02 -0.21604602341E+03  0.21858011533E+03  0.00000000000E+00 0. -1.
</event>
<event>
 7    1  0.5622879E-006  0.1314343E+03  0.7818608E-02  0.1427539E+00
          2   -1    0    0  502    0  0.00000000000E+00  0.00000000000E+00  0.96700288064E+03  0.96700288064E+03  0.00000000000E+00 0. -1.
          1   -1    0    0  501    0 -0.00000000000E+00 -0.00000000000E+00 -0.63368869174E+03  0.63368869174E+03  0.00000000000E+00 0. -1.
         25    2    1    2    0    0 -0.32352235392E+02 -0.13284312850E+03 -0.24766198518E+03  0.30928197986E+03  0.12499968094E+03 0.  0.
          2    1    1    2  501    0 -0.18357369444E+02  0.11650281979E+02 -0.35026910307E+03  0.35094325274E+03  0.00000000000E+00 0. -1.
          1    1    1    2  502    0  0.50709604836E+02  0.12119284652E+03  0.93124527715E+03  0.94046633979E+03  0.00000000000E+00 0. -1.
         22    1    3    3    0    0 -0.33520074235E+02  0.15475622089E+02 -0.50663031187E+02  0.62688379982E+02  0.00000000000E+00 0.  1.
         22    1    3    3    0    0  0.11678388434E+01 -0.14831875059E+03 -0.19699895399E+03  0.24659359987E+03  0.00000000000E+00 0.  1.
</event>
<event>
 7    1  0.5622879E-006  0.1131433E+03  0.7818608E-02  0.1420791E+00
          2   -1    0    0  502    0  0.00000000000E+00  0.00000000000E+00  0.81905928814E+03  0.81905928814E+03  0.00000000000E+00 0. -1.
          1   -1    0    0  501    0 -0.00000000000E+00 -0.00000000000E+00 -0.25682326163E+03  0.25682326163E+03  0.00000000000E+00 0. -1.
         25    2    1    2    0    0  0.73028886690E+01  0.88307514942E+02 -0.20309653570E+03  0.25440504402E+03  0.12498869641E+03 0.  0.
          2    1    1    2  501    0 -0.82617406347E+01  0.25278356337E+02 -0.16591896269E+02  0.31345536831E+02  0.00000000000E+00 0. -1.
          1    1    1    2  502    0  0.95885196574E+00 -0.11358587128E+03  0.78192445848E+03  0.79013196893E+03  0.00000000000E+00 0. -1.
         22    1    3    3    0    0 -0.97768996191E+01 -0.22420753436E+02 -0.97237818585E+02  0.10026700012E+03  0.00000000000E+00 0.  1.
         22    1    3    3    0    0  0.17079788288E+02  0.11072826838E+03 -0.10585871712E+03  0.15413804389E+03  0.00000000000E+00 0.  1.
</event>
<event>
 7    1  0.5622879E-006  0.1502668E+03  0.7818608E-02  0.1359563E+00
          2   -1    0    0  502    0  0.00000000000E+00  0.00000000000E+00  0.77332883616E+02  0.77332883616E+02  0.00000000000E+00 0. -1.
          1   -1    0    0  501    0 -0.00000000000E+00 -0.00000000000E+00 -0.14011729414E+04  0.14011729414E+04  0.00000000000E+00 0. -1.
         25    2    1    2    0    0  0.35581417923E+02 -0.14673457483E+03 -0.35766547479E+03  0.40785542462E+03  0.12499753112E+03 0.  0.
          2    1    1    2  501    0 -0.32498382747E+02 -0.40872674499E+01 -0.90858955543E+03  0.90917975718E+03  0.00000000000E+00 0. -1.
          1    1    1    2  502    0 -0.30830351759E+01  0.15082184228E+03 -0.57585027541E+02  0.16147064319E+03  0.00000000000E+00 0. -1.
         22    1    3    3    0    0  0.46559774205E+02 -0.50418918687E+02 -0.26502951395E+03  0.27377093199E+03  0.00000000000E+00 0.  1.
         22    1    3    3    0    0 -0.10978356282E+02 -0.96315656141E+02 -0.92635960834E+02  0.13408449263E+03  0.00000000000E+00 0.  1.
</event>
<event>
 7    1  0.5622879E-006  0.1396945E+03  0.7818608E-02  0.1363984E+00
          2   -1    0    0  502    0  0.00000000000E+00  0.00000000000E+00  0.14110032061E+03  0.14110032061E+03  0.00000000000E+00 0. -1.
          1   -1    0    0  501    0 -0.00000000000E+00 -0.00000000000E+00 -0.10973876490E+04  0.10973876490E+04  0.00000000000E+00 0. -1.
         25    2    1    2    0    0  0.14420794558E+03  0.79522916096E+02 -0.19187897423E+03  0.28206977000E+03  0.12500395449E+03 0.  0.
          2    1    1    2  501    0 -0.12732536037E+03 -0.50066183649E+02 -0.85177161561E+03  0.86268954746E+03  0.00000000000E+00 0. -1.
          1    1    1    2  502    0 -0.16882585215E+02 -0.29456732447E+02  0.87363261489E+02  0.93728652118E+02  0.00000000000E+00 0. -1.
         22    1    3    3    0    0  0.11364981260E+03 -0.81080727830E+01 -0.10469964955E+03  0.15473860981E+03  0.00000000000E+00 0. -1.
         22    1    3    3    0    0  0.30558132981E+02  0.87630988879E+02 -0.87179324683E+02  0.12733116019E+03  0.00000000000E+00 0. -1.
</event>
<event>
 7    1  0.5622879E-006  0.7539916E+02  0.7818608E-02  0.1471370E+00
          2   -1    0    0  502    0  0.00000000000E+00  0.00000000000E+00  0.20027594356E+03  0.20027594356E+03  0.00000000000E+00 0. -1.
          1   -1    0    0  501    0 -0.00000000000E+00 -0.00000000000E+00 -0.26410628854E+03  0.26410628854E+03  0.00000000000E+00 0. -1.
         25    2    1    2    0    0 -0.64513729729E+02  0.72647548600E+02 -0.15744064807E+03  0.22328144979E+03  0.12500944171E+03 0.  0.
          2    1    1    2  501    0  0.25947251304E+02 -0.89043793416E+01 -0.62427693115E+02  0.68189183082E+02  0.00000000000E+00 0. -1.
          1    1    1    2  502    0  0.38566478424E+02 -0.63743169259E+02  0.15603799620E+03  0.17291159922E+03  0.00000000000E+00 0. -1.
         22    1    3    3    0    0 -0.85106422755E+02  0.90587106194E+02 -0.99457581942E+02  0.15918837146E+03  0.00000000000E+00 0.  1.
         22    1    3    3    0    0  0.20592693026E+02 -0.17939557594E+02 -0.57983066125E+02  0.64093078332E+02  0.00000000000E+00 0.  1.
</event>
<event>
 7    1  0.5622879E-006  0.5281529E+02  0.7818608E-02  0.1492953E+00
          2   -1    0    0  502    0  0.00000000000E+00  0.00000000000E+00  0.75205802734E+03  0.75205802734E+03  0.00000000000E+00 0. -1.
          1   -1    0    0  501    0 -0.00000000000E+00 -0.00000000000E+00 -0.67947083267E+02  0.67947083267E+02  0.00000000000E+00 0. -1.
         25    2    1    2    0    0  0.23761816593E+02  0.22827806107E+02  0.47991100931E+03  0.49701575520E+03  0.12499740556E+03 0.  0.
          2    1    1    2  501    0  0.28398954754E+01  0.33520173389E+02 -0.50554987170E+02  0.60724572935E+02  0.00000000000E+00 0. -1.
          1    1    1    2  502    0 -0.26601712068E+02 -0.56347979497E+02  0.25475492193E+03  0.26226478248E+03  0.00000000000E+00 0. -1.
         22    1    3    3    0    0  0.12138017579E+02  0.74889929010E+02  0.27452312402E+03  0.28481358563E+03  0.00000000000E+00 0.  1.
         22    1    3    3    0    0  0.11623799014E+02 -0.52062122903E+02  0.20538788529E+03  0.21220216957E+03  0.00000000000E+00 0.  1.
</event>
<event>
 7    1  0.5622879E-006  0.6386756E+02  0.7818608E-02  0.1504606E+00
          2   -1    0    0  502    0  0.00000000000E+00  0.00000000000E+00  0.43443184951E+03  0.43443184951E+03  0.00000000000E+00 0. -1.
          1   -1    0    0  501    0 -0.00000000000E+00 -0.00000000000E+00 -0.70835786508E+02  0.70835786508E+02  0.00000000000E+00 0. -1.
         25    2    1    2    0    0  0.54725753994E+02  0.43603346530E+02  0.36397728346E+03  0.39115658071E+03  0.12501139061E+03 0.  0.
          2    1    1    2  501    0 -0.24716907138E+02  0.69470453475E+01 -0.36864106692E+02  0.44923816620E+02  0.00000000000E+00 0. -1.
          1    1    1    2  502    0 -0.30008846857E+02 -0.50550391878E+02  0.36482886230E+02  0.69187238681E+02  0.00000000000E+00 0. -1.
         22    1    3    3    0    0 -0.33489415382E+02  0.43555662244E+02  0.13247986272E+03  0.14342088649E+03  0.00000000000E+00 0.  1.
         22    1    3    3    0    0  0.88215169376E+02  0.47684286219E-01  0.23149742074E+03  0.24773569422E+03  0.00000000000E+00 0.  1.
</event>
<event>
 7    1  0.5622879E-006  0.4320507E+03  0.7818608E-02  0.1262575E+00
          2   -1    0    0  502    0  0.00000000000E+00  0.00000000000E+00  0.86463173242E+03  0.86463173242E+03  0.00000000000E+00 0. -1.
          1   -1    0    0  501    0 -0.00000000000E+00 -0.00000000000E+00 -0.64596968883E+03  0.64596968883E+03  0.00000000000E+00 0. -1.
         25    2    1    2    0    0  0.12046729424E+03 -0.41082981379E+03  0.15508008680E+03  0.47219568814E+03  0.12500171876E+03 0.  0.
          2    1    1    2  501    0  0.27364861148E+02  0.22931787560E+01 -0.40122589269E+03  0.40216453258E+03  0.00000000000E+00 0. -1.
          1    1    1    2  502    0 -0.14783215539E+03  0.40853663503E+03  0.46480784948E+03  0.63624120054E+03  0.00000000000E+00 0. -1.
         22    1    3    3    0    0  0.10503890583E+03 -0.29292341788E+03  0.53393222874E+02  0.31573428184E+03  0.00000000000E+00 0.  1.
         22    1    3    3    0    0  0.15428388416E+02 -0.11790639591E+03  0.10168686393E+03  0.15646140630E+03  0.00000000000E+00 0.  1.
</event>
<event>
 7    1  0.5622879E-006  0.1430990E+03  0.7818608E-02  0.1265895E+00
          2   -1    0    0  502    0  0.00000000000E+00  0.00000000000E+00  0.80909784462E+03  0.80909784462E+03  0.00000000000E+00 0. -1.
          1   -1    0    0  501    0 -0.00000000000E+00 -0.00000000000E+00 -0.16338285530E+04  0.16338285530E+04  0.00000000000E+00 0. -1.
         25    2    1    2    0    0 -0.54652584871E+02  0.44282552179E+02 -0.12194294427E+03  0.18826319756E+03  0.12500040175E+03 0.  0.
          2    1    1    2  501    0 -0.32529671926E+02  0.73380118173E+02 -0.14707118877E+04  0.14729006341E+04  0.00000000000E+00 0. -1.
          1    1    1    2  502    0  0.87182256797E+02 -0.11766267035E+03  0.76792412361E+03  0.78176256595E+03  0.00000000000E+00 0. -1.
         22    1    3    3    0    0 -0.37262673915E+02  0.42841100360E+02 -0.14708234850E+03  0.15766129515E+03  0.00000000000E+00 0.  1.
         22    1    3    3    0    0 -0.17389910956E+02  0.14414518188E+01  0.25139404227E+02  0.30601902413E+02  0.00000000000E+00 0.  1.
</event>
<event>
 7    1  0.5622879E-006  0.9416671E+02  0.7818608E-02  0.1317343E+00
          2   -1    0    0  502    0  0.00000000000E+00  0.00000000000E+00  0.10734926063E+04  0.10734926063E+04  0.00000000000E+00 0. -1.
          1   -1    0    0  501    0 -0.00000000000E+00 -0.00000000000E+00 -0.10804596149E+04  0.10804596149E+04  0.00000000000E+00 0. -1.
         25    2    1    2    0    0  0.72299935285E+01  0.24892090482E+02  0.10898075896E+03  0.16785138295E+03  0.12500156784E+03 0.  0.
          2    1    1    2  501    0 -0.73854926900E+02 -0.60236799303E+02 -0.10473363553E+04  0.10516636646E+04  0.00000000000E+00 0. -1.
          1    1    1    2  502    0  0.66624933371E+02  0.35344708821E+02  0.93138858774E+03  0.93443717369E+03  0.00000000000E+00 0. -1.
         22    1    3    3    0    0 -0.39350927463E+02  0.51499436045E+02  0.90082458633E+02  0.11097538808E+03  0.00000000000E+00 0.  1.
         22    1    3    3    0    0  0.46580920992E+02 -0.26607345563E+02  0.18898300324E+02  0.56875994879E+02  0.00000000000E+00 0.  1.
</event>
<event>
 7    1  0.5622879E-006  0.1486415E+03  0.7818608E-02  0.1355848E+00
          2   -1    0    0  502    0  0.00000000000E+00  0.00000000000E+00  0.52515992931E+03  0.52515992931E+03  0.00000000000E+00 0. -1.
          1   -1    0    0  501    0 -0.00000000000E+00 -0.00000000000E+00 -0.10761981255E+04  0.10761981255E+04  0.00000000000E+00 0. -1.
         25    2    1    2    0    0  0.60902452056E+02  0.11116647707E+03  0.54605125474E+02  0.18620864344E+03  0.12499937950E+03 0.  0.
          2    1    1    2  501    0  0.32299437393E+02  0.11138724317E+02 -0.99548803670E+03  0.99607417196E+03  0.00000000000E+00 0. -1.
          1    1    1    2  502    0 -0.93201889449E+02 -0.12230520139E+03  0.38984471501E+03  0.41907523943E+03  0.00000000000E+00 0. -1.
         22    1    3    3    0    0  0.98481719842E+02  0.89020441303E+02  0.51794006327E+02  0.14249879720E+03  0.00000000000E+00 0. -1.
         22    1    3    3    0    0 -0.37579267786E+02  0.22146035767E+02  0.28111191468E+01  0.43709846241E+02  0.00000000000E+00 0. -1.
</event>
<event>
 7    1  0.5622879E-006  0.1162995E+03  0.7818608E-02  0.1335196E+00
          2   -1    0    0  502    0  0.00000000000E+00  0.00000000000E+00  0.34734751340E+04  0.34734751340E+04  0.00000000000E+00 0. -1.
          1   -1    0    0  501    0 -0.00000000000E+00 -0.00000000000E+00 -0.13949503246E+04  0.13949503246E+04  0.00000000000E+00 0. -1.
         25    2    1    2    0    0  0.35436382838E+02  0.13331479906E+03  0.68981371948E+02  0.19852296257E+03  0.12499745643E+03 0.  0.
          2    1    1    2  501    0 -0.68951499482E+02 -0.93368066090E+02 -0.13274434806E+04  0.13325081986E+04  0.00000000000E+00 0. -1.
          1    1    1    2  502    0  0.33515116644E+02 -0.39946732969E+02  0.33369869181E+04  0.33373942973E+04  0.00000000000E+00 0. -1.
         22    1    3    3    0    0 -0.23893359976E+01  0.78294235436E+02 -0.25901695785E+02  0.82502085268E+02  0.00000000000E+00 0.  1.
         22    1    3    3    0    0  0.37825718836E+02  0.55020563623E+02  0.94883067734E+02  0.11602087730E+03  0.00000000000E+00 0.  1.
</event>
<event>
 7    1  0.5622879E-006  0.7707218E+02  0.7818608E-02  0.1395470E+00
          2   -1    0    0  502    0  0.00000000000E+00  0.00000000000E+00  0.78118803476E+02  0.78118803476E+02  0.00000000000E+00 0. -1.
          1   -1    0    0  501    0 -0.00000000000E+00 -0.00000000000E+00 -0.13833636595E+04  0.13833636595E+04  0.00000000000E+00 0. -1.
         25    2    1    2    0    0  0.20286256070E+01  0.17699270714E+02 -0.24391989725E+02  0.12859653649E+03  0.12499888211E+03 0.  0.
          2    1    1    2  501    0  0.76716543687E+02  0.73954941698E+01 -0.12368608779E+04  0.12392598406E+04  0.00000000000E+00 0. -1.
          1    1    1    2  502    0 -0.78745169294E+02 -0.25094764884E+02 -0.43991988486E+02  0.93626085909E+02  0.00000000000E+00 0. -1.
         22    1    3    3    0    0 -0.17109051849E+02  0.51618803736E+02  0.29684945147E+02  0.61954955594E+02  0.00000000000E+00 0. -1.
         22    1    3    3    0    0  0.19137677456E+02 -0.33919533022E+02 -0.54076934872E+02  0.66641580894E+02  0.00000000000E+00 0. -1.
</event>
<event>
 7    1  0.5622879E-006  0.1222462E+03  0.7818608E-02  0.1395327E+00
          2   -1    0    0  502    0  0.00000000000E+00  0.00000000000E+00  0.64955262886E+03  0.64955262886E+03  0.00000000000E+00 0. -1.
          1   -1    0    0  501    0 -0.00000000000E+00 -0.00000000000E+00 -0.15076957624E+03  0.15076957624E+03  0.00000000000E+00 0. -1.
         25    2    1    2    0    0  0.11180572126E+03 -0.18491571151E+01  0.39220362705E+03  0.42655955975E+03  0.12500173703E+03 0.  0.
          2    1    1    2  501    0 -0.12018627281E+03 -0.26999922447E+02 -0.10390077986E+03  0.16114933459E+03  0.00000000000E+00 0. -1.
          1    1    1    2  502    0  0.83805515510E+01  0.28849079562E+02  0.21048020543E+03  0.21261331076E+03  0.00000000000E+00 0. -1.
         22    1    3    3    0    0  0.88541892601E+02  0.19053733194E+02  0.38356579009E+03  0.39411346948E+03  0.00000000000E+00 0.  1.
         22    1    3    3    0    0  0.23263828654E+02 -0.20902890309E+02  0.86378369552E+01  0.32446090276E+02  0.00000000000E+00 0.  1.
</event>
<event>
 7    1  0.5622879E-006  0.8853927E+02  0.7818608E-02  0.1308865E+00
          2   -1    0    0  502    0  0.00000000000E+00  0.00000000000E+00  0.68421009744E+03  0.68421009744E+03  0.00000000000E+00 0. -1.
          1   -1    0    0  501    0 -0.00000000000E+00 -0.00000000000E+00 -0.78229858032E+03  0.78229858032E+03  0.00000000000E+00 0. -1.
         25    2    1    2    0    0 -0.85892979383E+02 -0.93026628274E+02  0.27012718088E+03  0.32345857873E+03  0.12500080331E+03 0.  0.
          2    1    1    2  501    0  0.88265299710E+02  0.64630552316E+01 -0.74815286399E+03  0.75336926013E+03  0.00000000000E+00 0. -1.
          1    1    1    2  502    0 -0.23723203266E+01  0.86563573042E+02  0.37993720024E+03  0.38968083890E+03  0.00000000000E+00 0. -1.
         22    1    3    3    0    0 -0.10103258286E+03 -0.10682498990E+03  0.18720544872E+03  0.23804420030E+03  0.00000000000E+00 0. -1.
         22    1    3    3    0    0  0.15139603481E+02  0.13798361628E+02  0.82921732161E+02  0.85414378425E+02  0.00000000000E+00 0. -1.
</event>
<event>
 7    1  0.5622879E-006  0.1303193E+03  0.7818608E-02  0.1370930E+00
          2   -1    0    0  502    0  0.00000000000E+00  0.00000000000E+00  0.12805044855E+04  0.12805044855E+04  0.00000000000E+00 0. -1.
          1   -1    0    0  501    0 -0.00000000000E+00 -0.00000000000E+00 -0.11891664492E+04  0.11891664492E+04  0.00000000000E+00 0. -1.
         25    2    1    2    0    0  0.40925283955E+02  0.12364669557E+03 -0.81420401566E+02  0.19803718259E+03  0.12500423875E+03 0.  0.
          2    1    1    2  501    0  0.30986865780E+02 -0.14830658566E+02 -0.10456749230E+04  0.10462390639E+04  0.00000000000E+00 0. -1.
          1    1    1    2  502    0 -0.71912149735E+02 -0.10881603700E+03  0.12184333608E+04  0.12253946883E+04  0.00000000000E+00 0. -1.
         22    1    3    3    0    0  0.46584262588E+02  0.11744797016E+03 -0.11044952818E+03  0.16781900217E+03  0.00000000000E+00 0.  1.
         22    1    3    3    0    0 -0.56589786329E+01  0.61987254009E+01  0.29029126610E+02  0.30218180413E+02  0.00000000000E+00 0.  1.
</event>
<event>
 7    1  0.5622879E-006  0.4307255E+02  0.7818608E-02  0.1515238E+00
          2   -1    0    0  502    0  0.00000000000E+00  0.00000000000E+00  0.53799979141E+03  0.53799979141E+03  0.00000000000E+00 0. -1.
          1   -1    0    0  501    0 -0.00000000000E+00 -0.00000000000E+00 -0.15881999188E+04  0.15881999188E+04  0.00000000000E+00 0. -1.
         25    2    1    2    0    0  0.55637243260E+02  0.38999076242E+02 -0.10508157028E+02  0.14265892924E+03  0.12499887177E+03 0.  0.
          2    1    1    2  501    0 -0.42559314847E+02 -0.60786811893E+01 -0.15106454194E+04  0.15112570360E+04  0.00000000000E+00 0. -1.
          1    1    1    2  502    0 -0.13077928413E+02 -0.32920395053E+02  0.47095344903E+03  0.47228374499E+03  0.00000000000E+00 0. -1.
         22    1    3    3    0    0  0.43006725983E+02 -0.36970848537E+02 -0.28648396057E+02  0.63538592352E+02  0.00000000000E+00 0.  1.
         22    1    3    3    0    0  0.12630517277E+02  0.75969924780E+02  0.18140239030E+02  0.79120336891E+02  0.00000000000E+00 0.  1.
</event>
<event>
 7    1  0.5622879E-006  0.8342356E+02  0.7818608E-02  0.1338954E+00
          2   -1    0    0  502    0  0.00000000000E+00  0.00000000000E+00  0.67518939749E+03  0.67518939749E+03  0.00000000000E+00 0. -1.
          1   -1    0    0  501    0 -0.00000000000E+00 -0.00000000000E+00 -0.37018499971E+03  0.37018499971E+03  0.00000000000E+00 0. -1.
         25    2    1    2    0    0  0.16977631167E+02 -0.10850055687E+03 -0.10069284109E+02  0.16669399513E+03  0.12499954692E+03 0.  0.
          2    1    1    2  501    0  0.45675556417E+02  0.53511721626E+02 -0.27443358981E+03  0.28330823500E+03  0.00000000000E+00 0. -1.
          1    1    1    2  502    0 -0.62653187584E+02  0.54988835241E+02  0.58950727170E+03  0.59537216705E+03  0.00000000000E+00 0. -1.
         22    1    3    3    0    0 -0.37848230442E+02 -0.10473745989E+03 -0.44899669380E+01  0.11145664563E+03  0.00000000000E+00 0. -1.
         22    1    3    3    0    0  0.54825861609E+02 -0.37630969746E+01 -0.55793171713E+01  0.55237349503E+02  0.00000000000E+00 0. -1.
</event>
<event>
 7    1  0.5622879E-006  0.4435993E+02  0.7818608E-02  0.1566574E+00
          2   -1    0    0  502    0  0.00000000000E+00  0.00000000000E+00  0.10528753720E+04  0.10528753720E+04  0.00000000000E+00 0. -1.
          1   -1    0    0  501    0 -0.00000000000E+00 -0.00000000000E+00 -0.40016833268E+02  0.40016833268E+02  0.00000000000E+00 0. -1.
         25    2    1    2    0    0 -0.42612672889E+02 -0.27482393837E+02  0.37213632230E+03  0.39582817044E+03  0.12499350494E+03 0.  0.
          2    1    1    2  501    0  0.21718189530E+02 -0.11622669976E+02 -0.21899949027E+02  0.32960187821E+02  0.00000000000E+00 0. -1.
          1    1    1    2  502    0  0.20894483358E+02  0.39105063813E+02  0.66262216545E+03  0.66410384699E+03  0.00000000000E+00 0. -1.
         22    1    3    3    0    0 -0.48654387851E+02 -0.73285996127E+02  0.26279548168E+03  0.27712732070E+03  0.00000000000E+00 0.  1.
         22    1    3    3    0    0  0.60417149621E+01  0.45803602290E+02  0.10934084062E+03  0.11870084975E+03  0.00000000000E+00 0.  1.
</event>
<event>
 7    1  0.5622879E-006  0.8515411E+02  0.7818608E-02  0.1403200E+00
          2   -1    0    0  502    0  0.00000000000E+00  0.00000000000E+00  0.38276464579E+03  0.38276464579E+03  0.00000000000E+00 0. -1.
          1   -1    0    0  501    0 -0.00000000000E+00 -0.00000000000E+00 -0.16815427250E+03  0.16815427250E+03  0.00000000000E+00 0. -1.
         25    2    1    2    0    0  0.77125019998E+02 -0.65850617465E+02 -0.58932852399E+02  0.17141310564E+03  0.12499919664E+03 0.  0.
          2    1    1    2  501    0 -0.74540092083E+02  0.25414833534E+02 -0.21545984429E+02  0.81647832404E+02  0.00000000000E+00 0. -1.
          1    1    1    2  502    0 -0.25849279156E+01  0.40435783931E+02  0.29508921012E+03  0.29785798025E+03  0.00000000000E+00 0. -1.
         22    1    3    3    0    0  0.41437544737E+02 -0.99284554306E+02 -0.58601683174E+02  0.12250979597E+03  0.00000000000E+00 0.  1.
         22    1    3    3    0    0  0.35687475261E+02  0.33433936841E+02 -0.33116922495E+00  0.48903309666E+02  0.00000000000E+00 0.  1.
</event>
<event>
 7    1  0.5622879E-006  0.4562556E+02  0.7818608E-02  0.1499379E+00
          2   -1    0    0  502    0  0.00000000000E+00  0.00000000000E+00  0.19763218389E+03  0.19763218389E+03  0.00000000000E+00 0. -1.
          1   -1    0    0  501    0 -0.00000000000E+00 -0.00000000000E+00 -0.26018636806E+03  0.26018636806E+03  0.00000000000E+00 0. -1.
         25    2    1    2    0    0 -0.25869113882E+01 -0.48749784962E+02 -0.72341413335E+02  0.15245427076E+03  0.12500316374E+03 0.  0.
          2    1    1    2  501    0  0.35129382086E+02  0.30622873628E+02 -0.14180285249E+03  0.14926447283E+03  0.00000000000E+00 0. -1.
          1    1    1    2  502    0 -0.32542470698E+02  0.18126911334E+02  0.15159008165E+03  0.15609980835E+03  0.00000000000E+00 0. -1.
         22    1    3    3    0    0 -0.79559076152E+01 -0.79008202049E+02 -0.87523419527E+02  0.11817758426E+03  0.00000000000E+00 0.  1.
         22    1    3    3    0    0  0.53689962270E+01  0.30258417087E+02  0.15182006191E+02  0.34276686495E+02  0.00000000000E+00 0.  1.
</event>
<event>
 7    1  0.5622879E-006  0.1325535E+03  0.7818608E-02  0.1360656E+00
          2   -1    0    0  502    0  0.00000000000E+00  0.00000000000E+00  0.49020482657E+03  0.49020482657E+03  0.00000000000E+00 0. -1.
          1   -1    0    0  501    0 -0.00000000000E+00 -0.00000000000E+00 -0.11030452034E+03  0.11030452034E+03  0.00000000000E+00 0. -1.
         25    2    1    2    0    0  0.81695191526E+02  0.78490501940E+02  0.16638356167E+03  0.23694733927E+03  0.12500275510E+03 0.  0.
          2    1    1    2  501    0 -0.11821835011E+03 -0.74051012622E+02 -0.73137480805E+01  0.13968758600E+03  0.00000000000E+00 0. -1.
          1    1    1    2  502    0  0.36523158582E+02 -0.44394893186E+01  0.22083049264E+03  0.22387442163E+03  0.00000000000E+00 0. -1.
         22    1    3    3    0    0  0.23266497022E+02  0.51148021233E+02  0.16292738147E+03  0.17234494942E+03  0.00000000000E+00 0. -1.
         22    1    3    3    0    0  0.58428694504E+02  0.27342480707E+02  0.34561801970E+01  0.64602389849E+02  0.00000000000E+00 0. -1.
</event>
<event>
 7    1  0.5622879E-006  0.7135456E+02  0.7818608E-02  0.1413978E+00
          2   -1    0    0  502    0  0.00000000000E+00  0.00000000000E+00  0.18576707133E+04  0.18576707133E+04  0.00000000000E+00 0. -1.
          1   -1    0    0  501    0 -0.00000000000E+00 -0.00000000000E+00 -0.78531470115E+03  0.78531470115E+03  0.00000000000E+00 0. -1.
         25    2    1    2    0    0  0.36749602071E+02  0.34760544124E+01  0.38617728782E+03  0.40757951794E+03  0.12500219841E+03 0.  0.
          2    1    1    2  501    0 -0.57195306369E+02 -0.42940362966E+02 -0.77262352129E+03  0.77592672560E+03  0.00000000000E+00 0. -1.
          1    1    1    2  502    0  0.20445704298E+02  0.39464308554E+02  0.14588022457E+04  0.14594791709E+04  0.00000000000E+00 0. -1.
         22    1    3    3    0    0 -0.39269485390E+02  0.13265312153E+02  0.62819256788E+02  0.75261676919E+02  0.00000000000E+00 0. -1.
         22    1    3    3    0    0  0.76019087460E+02 -0.97892577408E+01  0.32335803103E+03  0.33231784102E+03  0.00000000000E+00 0. -1.
</event>
<event>
 7    1  0.5622879E-006  0.2054826E+03  0.7818608E-02  0.1207555E+00
          2   -1    0    0  502    0  0.00000000000E+00  0.00000000000E+00  0.13094673065E+04  0.13094673065E+04  0.00000000000E+00 0. -1.
          1   -1    0    0  501    0 -0.00000000000E+00 -0.00000000000E+00 -0.23638173113E+04  0.23638173113E+04  0.00000000000E+00 0. -1.
         25    2    1    2    0    0 -0.10635911323E+03 -0.19482339564E+02  0.22855689283E+03  0.28205554830E+03  0.12500102616E+03 0.  0.
          2    1    1    2  501    0  0.20711474730E+03  0.76664610915E+01 -0.23300168238E+04  0.23392164697E+04  0.00000000000E+00 0. -1.
          1    1    1    2  502    0 -0.10075563406E+03  0.11815878473E+02  0.10471099261E+04  0.10520125998E+04  0.00000000000E+00 0. -1.
         22    1    3    3    0    0 -0.11522413101E+03  0.16773760936E+02  0.21057915581E+03  0.24062738889E+03  0.00000000000E+00 0.  1.
         22    1    3    3    0    0  0.88650177758E+01 -0.36256100501E+02  0.17977737028E+02  0.41428159413E+02  0.00000000000E+00 0.  1.
</event>
<event>
 7    1  0.5622879E-006  0.4824010E+02  0.7818608E-02  0.1566467E+00
          2   -1    0    0  502    0  0.00000000000E+00  0.00000000000E+00  0.10281657661E+03  0.10281657661E+03  0.00000000000E+00 0. -1.
          1   -1    0    0  501    0 -0.00000000000E+00 -0.00000000000E+00 -0.54488316045E+03  0.54488316045E+03  0.00000000000E+00 0. -1.
         25    2    1    2    0    0  0.53008308943E+02 -0.55191243936E+00 -0.24248184606E+03  0.27790776729E+03  0.12500038412E+03 0.  0.
          2    1    1    2  501    0 -0.43796429052E+02 -0.20158244711E+02 -0.28108940915E+03  0.28519421096E+03  0.00000000000E+00 0. -1.
          1    1    1    2  502    0 -0.92118798910E+01  0.20710157150E+02  0.81504671373E+02  0.84597758811E+02  0.00000000000E+00 0. -1.
         22    1    3    3    0    0  0.32193667696E+02 -0.14713742078E+02 -0.24931994833E+03  0.25182010063E+03  0.00000000000E+00 0.  1.
         22    1    3    3    0    0  0.20814641247E+02  0.14161829639E+02  0.68381022766E+01  0.26087666659E+02  0.00000000000E+00 0.  1.
</event>
<event>
 7    1  0.5622879E-006  0.1310323E+03  0.7818608E-02  0.1291892E+00
          2   -1    0    0  502    0  0.00000000000E+00  0.00000000000E+00  0.35318914943E+03  0.35318914943E+03  0.00000000000E+00 0. -1.
          1   -1    0    0  501    0 -0.00000000000E+00 -0.00000000000E+00 -0.84566798492E+03  0.84566798492E+03  0.00000000000E+00 0. -1.
         25    2    1    2    0    0 -0.15608773353E+02  0.79215847510E+02 -0.96955643732E+02  0.17760573749E+03  0.12499846733E+03 0.  0.
          2    1    1    2  501    0  0.68612386458E+02 -0.12247697858E+03 -0.69756831119E+03  0.71155450854E+03  0.00000000000E+00 0. -1.
          1    1    1    2  502    0 -0.53003613105E+02  0.43261131065E+02  0.30204511943E+03  0.30969688832E+03  0.00000000000E+00 0. -1.
         22    1    3    3    0    0 -0.14850688938E+02  0.87671746727E+02 -0.91494910640E+01  0.89390107522E+02  0.00000000000E+00 0.  1.
         22    1    3    3    0    0 -0.75808441480E+00 -0.84558992166E+01 -0.87806152668E+02  0.88215629963E+02  0.00000000000E+00 0.  1.
</event>
<event>
 7    1  0.5622879E-006  0.1419811E+03  0.7818608E-02  0.1342326E+00
          2   -1    0    0  502    0  0.00000000000E+00  0.00000000000E+00  0.18958050157E+04  0.18958050157E+04  0.00000000000E+00 0. -1.
          1   -1    0    0  501    0 -0.00000000000E+00 -0.00000000000E+00 -0.31340293832E+04  0.31340293832E+04  0.00000000000E+00 0. -1.
         25    2    1    2    0    0  0.12996013524E+03 -0.23675431935E+02 -0.29339841451E+03  0.34519125637E+03  0.12499684399E+03 0.  0.
          2    1    1    2  501    0 -0.12801097403E+03  0.63777252736E+02 -0.28127019655E+04  0.28163356857E+04  0.00000000000E+00 0. -1.
          1    1    1    2  502    0 -0.19491612136E+01 -0.40101820801E+02  0.18678760125E+04  0.18683074569E+04  0.00000000000E+00 0. -1.
         22    1    3    3    0    0  0.10539266887E+03 -0.67309370672E+02 -0.16253939149E+03  0.20507856986E+03  0.00000000000E+00 0.  1.
         22    1    3    3    0    0  0.24567466368E+02  0.43633938738E+02 -0.13085902302E+03  0.14011268651E+03  0.00000000000E+00 0.  1.
</event>
<event>
 7    1  0.5622879E-006  0.8304656E+02  0.7818608E-02  0.1363280E+00
          2   -1    0    0  502    0  0.00000000000E+00  0.00000000000E+00  0.61874782624E+02  0.61874782624E+02  0.00000000000E+00 0. -1.
          1   -1    0    0  501    0 -0.00000000000E+00 -0.00000000000E+00 -0.16796941106E+04  0.16796941106E+04  0.00000000000E+00 0. -1.
         25    2    1    2    0    0 -0.30061511811E+02 -0.28149264003E+02 -0.52672665377E+03  0.54291889737E+03  0.12499554305E+03 0.  0.
          2    1    1    2  501    0  0.40131998767E+02  0.84707483456E+02 -0.11270080716E+04  0.11308992566E+04  0.00000000000E+00 0. -1.
          1    1    1    2  502    0 -0.10070486956E+02 -0.56558219454E+02  0.35915397423E+02  0.67750739238E+02  0.00000000000E+00 0. -1.
         22    1    3    3    0    0  0.24814254468E+02 -0.49079454301E+02 -0.39345226195E+03  0.39727726148E+03  0.00000000000E+00 0. -1.
         22    1    3    3    0    0 -0.54875766279E+02  0.20930190298E+02 -0.13327439182E+03  0.14564163589E+03  0.00000000000E+00 0. -1.
</event>
<event>
 7    1  0.5622879E-006  0.1396941E+03  0.7818608E-02  0.1278478E+00
          2   -1    0    0  502    0  0.00000000000E+00  0.00000000000E+00  0.16479985108E+04  0.16479985108E+04  0.00000000000E+00 0. -1.
          1   -1    0    0  501    0 -0.00000000000E+00 -0.00000000000E+00 -0.23080252317E+03  0.23080252317E+03  0.00000000000E+00 0. -1.
         25    2    1    2    0    0 -0.84292570848E+02 -0.49251174489E+02  0.30211296265E+03  0.34120999252E+03  0.12498440344E+03 0.  0.
          2    1    1    2  501    0  0.14354601580E+03  0.68957193453E+01 -0.18567581003E+03  0.23479462521E+03  0.00000000000E+00 0. -1.
          1    1    1    2  502    0 -0.59253444953E+02  0.42355455144E+02  0.13007588350E+04  0.13027964162E+04  0.00000000000E+00 0. -1.
         22    1    3    3    0    0 -0.79413106108E+02 -0.20961695788E+02  0.30150986268E+03  0.31249645022E+03  0.00000000000E+00 0.  1.
         22    1    3    3    0    0 -0.48794647403E+01 -0.28289478701E+02  0.60309997318E+00  0.28713542291E+02  0.00000000000E+00 0.  1.
</event>
<event>
 7    1  0.5622879E-006  0.7795069E+02  0.7818608E-02  0.1350094E+00
          2   -1    0    0  502    0  0.00000000000E+00  0.00000000000E+00  0.72565451693E+03  0.72565451693E+03  0.00000000000E+00 0. -1.
          1   -1    0    0  501    0 -0.00000000000E+00 -0.00000000000E+00 -0.38938522975E+04  0.38938522975E+04  0.00000000000E+00 0. -1.
         25    2    1    2    0    0  0.61033691238E+02 -0.16694966938E+02  0.22590962691E+03  0.26582663534E+03  0.12499922854E+03 0.  0.
          2    1    1    2  501    0  0.65369524922E+01  0.68099804576E+02 -0.38698331216E+04  0.38704377923E+04  0.00000000000E+00 0. -1.
          1    1    1    2  502    0 -0.67570643730E+02 -0.51404837639E+02  0.47572571416E+03  0.48324238673E+03  0.00000000000E+00 0. -1.
         22    1    3    3    0    0  0.59507547409E+02 -0.46009990344E+02  0.22413275177E+03  0.23641818422E+03  0.00000000000E+00 0.  1.
         22    1    3    3    0    0  0.15261438291E+01  0.29315023407E+02  0.17768751410E+01  0.29408451125E+02  0.00000000000E+00 0.  1.
</event>
<event>
 7    1  0.5622879E-006  0.3152904E+03  0.7818608E-02  0.1320135E+00
          2   -1    0    0  502    0  0.00000000000E+00  0.00000000000E+00  0.14185100677E+04  0.14185100677E+04  0.00000000000E+00 0. -1.
          1   -1    0    0  501    0 -0.00000000000E+00 -0.00000000000E+00 -0.38509565538E+03  0.38509565538E+03  0.00000000000E+00 0. -1.
         25    2    1    2    0    0 -0.30108666498E+03 -0.53681340646E+01  0.56209470736E+02  0.33085695913E+03  0.12499930445E+03 0.  0.
          2    1    1    2  501    0  0.32297697407E+03  0.35042928313E+01 -0.14235377675E+03  0.35297450843E+03  0.00000000000E+00 0. -1.
          1    1    1    2  502    0 -0.21890309095E+02  0.18638412333E+01  0.11195587183E+04  0.11197742555E+04  0.00000000000E+00 0. -1.
         22    1    3    3    0    0 -0.19854338851E+03 -0.41219986640E+02 -0.11071228884E+02  0.20307913858E+03  0.00000000000E+00 0. -1.
         22    1    3    3    0    0 -0.10254327647E+03  0.35851852575E+02  0.67280699620E+02  0.12777782054E+03  0.00000000000E+00 0. -1.
</event>
<event>
 7    1  0.5622879E-006  0.6464860E+02  0.7818608E-02  0.1471592E+00
          2   -1    0    0  502    0  0.00000000000E+00  0.00000000000E+00  0.10093264062E+04  0.10093264062E+04  0.00000000000E+00 0. -1.
          1   -1    0    0  501    0 -0.00000000000E+00 -0.00000000000E+00 -0.59020522930E+03  0.59020522930E+03  0.00000000000E+00 0. -1.
         25    2    1    2    0    0  0.31399724567E+02 -0.90075539255E+02  0.18016664345E+03  0.23913453676E+03  0.12500304709E+03 0.  0.
          2    1    1    2  501    0 -0.15150890839E+02  0.62573301964E+02 -0.55855243367E+03  0.56225064586E+03  0.00000000000E+00 0. -1.
          1    1    1    2  502    0 -0.16248833728E+02  0.27502237291E+02  0.79750696714E+03  0.79814645291E+03  0.00000000000E+00 0. -1.
         22    1    3    3    0    0  0.11480750105E+02 -0.11179994579E+03  0.17676057768E+03  0.20946440587E+03  0.00000000000E+00 0.  1.
         22    1    3    3    0    0  0.19918974462E+02  0.21724406536E+02  0.34060657696E+01  0.29670130890E+02  0.00000000000E+00 0.  1.
</event>
<event>
 7    1  0.5622879E-006  0.5244361E+03  0.7818608E-02  0.1137889E+00
          2   -1    0    0  502    0  0.00000000000E+00  0.00000000000E+00  0.16340918515E+04  0.16340918515E+04  0.00000000000E+00 0. -1.
          1   -1    0    0  501    0 -0.00000000000E+00 -0.00000000000E+00 -0.71230198849E+03  0.71230198849E+03  0.00000000000E+00 0. -1.
         25    2    1    2    0    0 -0.47222163056E+03 -0.92974736912E+02  0.85301659244E+02  0.50451739815E+03  0.12499544749E+03 0.  0.
          2    1    1    2  501    0  0.54557121598E+03  0.44527803317E+02 -0.35157499264E+03  0.65056564037E+03  0.00000000000E+00 0. -1.
          1    1    1    2  502    0 -0.73349585424E+02  0.48446933595E+02  0.11880631964E+04  0.11913108015E+04  0.00000000000E+00 0. -1.
         22    1    3    3    0    0 -0.26650509578E+03 -0.10918120511E+03  0.22790418604E+02  0.28890293319E+03  0.00000000000E+00 0. -1.
         22    1    3    3    0    0 -0.20571653478E+03  0.16206468197E+02  0.62511240640E+02  0.21561446496E+03  0.00000000000E+00 0. -1.
</event>
<event>
 7    1  0.5622879E-006  0.9088650E+02  0.7818608E-02  0.1326626E+00
          2   -1    0    0  502    0  0.00000000000E+00  0.00000000000E+00  0.13893403426E+04  0.13893403426E+04  0.00000000000E+00 0. -1.
          1   -1    0    0  501    0 -0.00000000000E+00 -0.00000000000E+00 -0.17327212052E+03  0.17327212052E+03  0.00000000000E+00 0. -1.
         25    2    1    2    0    0 -0.57766463503E+02 -0.42672804821E+02  0.26846411601E+02  0.14664463845E+03  0.12500395031E+03 0.  0.
          2    1    1    2  501    0  0.52413501016E+02 -0.49277972049E+02 -0.10014985230E+03  0.12331052889E+03  0.00000000000E+00 0. -1.
          1    1    1    2  502    0  0.53529624862E+01  0.91950776870E+02  0.12893716628E+04  0.12926572958E+04  0.00000000000E+00 0. -1.
         22    1    3    3    0    0  0.94805176313E+01 -0.57773294724E+02 -0.21595730793E+02  0.62401998256E+02  0.00000000000E+00 0. -1.
         22    1    3    3    0    0 -0.67246981134E+02  0.15100489903E+02  0.48442142395E+02  0.84242640193E+02  0.00000000000E+00 0. -1.
</event>
<event>
 7    1  0.5622879E-006  0.1058327E+03  0.7818608E-02  0.1359942E+00
          2   -1    0    0  502    0  0.00000000000E+00  0.00000000000E+00  0.22946729537E+04  0.22946729537E+04  0.00000000000E+00 0. -1.
          1   -1    0    0  501    0 -0.00000000000E+00 -0.00000000000E+00 -0.22587147371E+04  0.22587147371E+04  0.00000000000E+00 0. -1.
         25    2    1    2    0    0 -0.35274576058E+02  0.54489121901E+02  0.13281461621E+04  0.13355937396E+04  0.12500019703E+03 0.  0.
          2    1    1    2  501    0  0.32491676266E+02 -0.10076398986E+03 -0.22531891868E+04  0.22556751987E+04  0.00000000000E+00 0. -1.
          1    1    1    2  502    0  0.27828997922E+01  0.46274867956E+02  0.96100124127E+03  0.96211875237E+03  0.00000000000E+00 0. -1.
         22    1    3    3    0    0  0.21125262548E+02  0.13826298517E+02  0.54642378610E+02  0.60193295213E+02  0.00000000000E+00 0. -1.
         22    1    3    3    0    0 -0.56399838606E+02  0.40662823384E+02  0.12735037835E+04  0.12754004444E+04  0.00000000000E+00 0. -1.
</event>
<event>
 7    1  0.5622879E-006  0.9495045E+02  0.7818608E-02  0.1440176E+00
          2   -1    0    0  502    0  0.00000000000E+00  0.00000000000E+00  0.85267910692E+03  0.85267910692E+03  0.00000000000E+00 0. -1.
          1   -1    0    0  501    0 -0.00000000000E+00 -0.00000000000E+00 -0.78483522091E+03  0.78483522091E+03  0.00000000000E+00 0. -1.
         25    2    1    2    0    0  0.66776764233E+02  0.47653865913E+02  0.13569918123E+03  0.20191413697E+03  0.12500009497E+03 0.  0.
          2    1    1    2  501    0 -0.53553955319E+01  0.26832358169E+02 -0.74806902996E+03  0.74856925484E+03  0.00000000000E+00 0. -1.
          1    1    1    2  502    0 -0.61421368701E+02 -0.74486224083E+02  0.68021373475E+03  0.68703093602E+03  0.00000000000E+00 0. -1.
         22    1    3    3    0    0  0.73756102283E+02 -0.11593239016E+00  0.19808168394E+02  0.76369755790E+02  0.00000000000E+00 0.  1.
         22    1    3    3    0    0 -0.69793380505E+01  0.47769798303E+02  0.11589101283E+03  0.12554438118E+03  0.00000000000E+00 0.  1.
</event>
<event>
 7    1  0.5622879E-006  0.3317432E+02  0.7818608E-02  0.1620359E+00
          2   -1    0    0  502    0  0.00000000000E+00  0.00000000000E+00  0.13153134740E+04  0.13153134740E+04  0.00000000000E+00 0. -1.
          1   -1    0    0  501    0 -0.00000000000E+00 -0.00000000000E+00 -0.12390064541E+02  0.12390064541E+02  0.00000000000E+00 0. -1.
         25    2    1    2    0    0  0.31304802788E+02 -0.20275042744E+02  0.63460042656E+03  0.64786902318E+03  0.12500200711E+03 0.  0.
          2    1    1    2  501    0 -0.33276111195E+02 -0.34077641992E+01  0.45060705446E+02  0.56119333641E+02  0.00000000000E+00 0. -1.
          1    1    1    2  502    0  0.19713084067E+01  0.23682806943E+02  0.62326227746E+03  0.62371518171E+03  0.00000000000E+00 0. -1.
         22    1    3    3    0    0  0.47425773739E+02 -0.55341986340E+02  0.55088358687E+03  0.55568396211E+03  0.00000000000E+00 0. -1.
         22    1    3    3    0    0 -0.16120970951E+02  0.35066943597E+02  0.83716839685E+02  0.92185061070E+02  0.00000000000E+00 0. -1.
</event>
<event>
 7    1  0.5622879E-006  0.6128169E+02  0.7818608E-02  0.1499653E+00
          2   -1    0    0  502    0  0.00000000000E+00  0.00000000000E+00  0.18669613909E+03  0.18669613909E+03  0.00000000000E+00 0. -1.
          1   -1    0    0  501    0 -0.00000000000E+00 -0.00000000000E+00 -0.13659518897E+04  0.13659518897E+04  0.00000000000E+00 0. -1.
         25    2    1    2    0    0  0.17486595979E+02 -0.84251520942E+02  0.14169568243E+03  0.20762099962E+03  0.12499885296E+03 0.  0.
          2    1    1    2  501    0 -0.22436789277E+01  0.61144602534E+02 -0.13153649594E+04  0.13167872543E+04  0.00000000000E+00 0. -1.
          1    1    1    2  502    0 -0.15242917051E+02  0.23106918408E+02 -0.55864735871E+01  0.28239774887E+02  0.00000000000E+00 0. -1.
         22    1    3    3    0    0  0.25841124081E+02 -0.24496896003E+02  0.14290379589E+03  0.14727306776E+03  0.00000000000E+00 0.  1.
         22    1    3    3    0    0 -0.83545281014E+01 -0.59754624939E+02 -0.12081134577E+01  0.60347931858E+02  0.00000000000E+00 0.  1.
</event>
<event>
 7    1  0.5622879E-006  0.1024312E+03  0.7818608E-02  0.1326807E+00
          2   -1    0    0  502    0  0.00000000000E+00  0.00000000000E+00  0.20023733782E+04  0.20023733782E+04  0.00000000000E+00 0. -1.
          1   -1    0    0  501    0 -0.00000000000E+00 -0.00000000000E+00 -0.55528612365E+03  0.55528612365E+03  0.00000000000E+00 0. -1.
         25    2    1    2    0    0  0.13437402840E+02  0.77677840386E+02  0.12159911807E+03  0.19137813864E+03  0.12499934300E+03 0.  0.
          2    1    1    2  501    0  0.63306115078E+02 -0.73440866673E+01 -0.51697068395E+03  0.52088414055E+03  0.00000000000E+00 0. -1.
          1    1    1    2  502    0 -0.76743517918E+02 -0.70333753719E+02  0.18424588204E+04  0.18453972226E+04  0.00000000000E+00 0. -1.
         22    1    3    3    0    0 -0.29325234646E+02 -0.19047907449E+02  0.58711028304E+02  0.68335766695E+02  0.00000000000E+00 0.  1.
         22    1    3    3    0    0  0.42762637486E+02  0.96725747835E+02  0.62888089770E+02  0.12304237195E+03  0.00000000000E+00 0.  1.
</event>
<event>
 7    1  0.5622879E-006  0.3092226E+03  0.7818608E-02  0.1256740E+00
          2   -1    0    0  502    0  0.00000000000E+00  0.00000000000E+00  0.70452979718E+03  0.70452979718E+03  0.00000000000E+00 0. -1.
          1   -1    0    0  501    0 -0.00000000000E+00 -0.00000000000E+00 -0.63075819927E+03  0.63075819927E+03  0.00000000000E+00 0. -1.
         25    2    1    2    0    0  0.30657710584E+03  0.15278943371E+03  0.41932425913E+03  0.55568975236E+03  0.12499653476E+03 0.  0.
          2    1    1    2  501    0 -0.26594734740E+03 -0.15216798914E+03 -0.51832260193E+03  0.60211411557E+03  0.00000000000E+00 0. -1.
          1    1    1    2  502    0 -0.40629758449E+02 -0.62144456795E+00  0.17276994071E+03  0.17748412852E+03  0.00000000000E+00 0. -1.
         22    1    3    3    0    0  0.25190894897E+03  0.12174814979E+03  0.25050201792E+03  0.37554226331E+03  0.00000000000E+00 0.  1.
         22    1    3    3    0    0  0.54668156869E+02  0.31041283914E+02  0.16882224121E+03  0.18014748904E+03  0.00000000000E+00 0.  1.
</event>
<event>
 7    1  0.5622879E-006  0.2037243E+03  0.7818608E-02  0.1242626E+00
          2   -1    0    0  502    0  0.00000000000E+00  0.00000000000E+00  0.27128394444E+04  0.27128394444E+04  0.00000000000E+00 0. -1.
          1   -1    0    0  501    0 -0.00000000000E+00 -0.00000000000E+00 -0.20481897770E+04  0.20481897770E+04  0.00000000000E+00 0. -1.
         25    2    1    2    0    0  0.18113626090E+03  0.19243978447E+03 -0.90540100290E+03  0.95143012496E+03  0.12499956383E+03 0.  0.
          2    1    1    2  501    0 -0.20027204643E+02 -0.68138644435E+02 -0.11147941230E+04  0.11170541171E+04  0.00000000000E+00 0. -1.
          1    1    1    2  502    0 -0.16110905626E+03 -0.12430114004E+03  0.26848447934E+04  0.26925449794E+04  0.00000000000E+00 0. -1.
         22    1    3    3    0    0  0.11015342404E+03  0.17973021398E+03 -0.55497785609E+03  0.59366417055E+03  0.00000000000E+00 0. -1.
         22    1    3    3    0    0  0.70982836869E+02  0.12709570494E+02 -0.35042314681E+03  0.35776595441E+03  0.00000000000E+00 0. -1.
</event>
<event>
 7    1  0.5622879E-006  0.1261141E+03  0.7818608E-02  0.1262807E+00
          2   -1    0    0  502    0  0.00000000000E+00  0.00000000000E+00  0.72352346463E+03  0.72352346463E+03  0.00000000000E+00 0. -1.
          1   -1    0    0  501    0 -0.00000000000E+00 -0.00000000000E+00 -0.13137837148E+04  0.13137837148E+04  0.00000000000E+00 0. -1.
         25    2    1    2    0    0  0.22135288596E+02 -0.92450388465E+02 -0.11502107147E+03  0.19465999832E+03  0.12500249091E+03 0.  0.
          2    1    1    2  501    0 -0.11271684458E+03  0.67842527643E+02 -0.11519598381E+04  0.11594477842E+04  0.00000000000E+00 0. -1.
          1    1    1    2  502    0  0.90581555983E+02  0.24607860822E+02  0.67672065942E+03  0.68319939694E+03  0.00000000000E+00 0. -1.
         22    1    3    3    0    0  0.30516110968E+01 -0.30654724669E+02  0.25486321777E+02  0.39982209451E+02  0.00000000000E+00 0.  1.
         22    1    3    3    0    0  0.19083677499E+02 -0.61795663796E+02 -0.14050739325E+03  0.15467778887E+03  0.00000000000E+00 0.  1.
</event>
<event>
 7    1  0.5622879E-006  0.2069251E+03  0.7818608E-02  0.1356469E+00
          2   -1    0    0  502    0  0.00000000000E+00  0.00000000000E+00  0.38436300002E+04  0.38436300002E+04  0.00000000000E+00 0. -1.
          1   -1    0    0  501    0 -0.00000000000E+00 -0.00000000000E+00 -0.36716772222E+03  0.36716772222E+03  0.00000000000E+00 0. -1.
         25    2    1    2    0    0  0.20211615472E+03  0.22006336614E+02  0.17953248874E+04  0.18111189863E+04  0.12500124883E+03 0.  0.
          2    1    1    2  501    0  0.78195071219E+01 -0.23128105180E+02 -0.35344828590E+03  0.35429048074E+03  0.00000000000E+00 0. -1.
          1    1    1    2  502    0 -0.20993566185E+03  0.11217685658E+01  0.20345856765E+04  0.20453882554E+04  0.00000000000E+00 0. -1.
         22    1    3    3    0    0  0.14656639315E+03 -0.14556535886E+02  0.79108183841E+03  0.80467637929E+03  0.00000000000E+00 0.  1.
         22    1    3    3    0    0  0.55549761573E+02  0.36562872499E+02  0.10042430490E+04  0.10064426070E+04  0.00000000000E+00 0.  1.
</event>
<event>
 7    1  0.5622879E-006  0.4122881E+02  0.7818608E-02  0.1570670E+00
          2   -1    0    0  502    0  0.00000000000E+00  0.00000000000E+00  0.83104328217E+03  0.83104328217E+03  0.00000000000E+00 0. -1.
          1   -1    0    0  501    0 -0.00000000000E+00 -0.00000000000E+00 -0.23735226329E+03  0.23735226329E+03  0.00000000000E+00 0. -1.
         25    2    1    2    0    0  0.31052940102E+02  0.58813126583E+02  0.10718523074E+03  0.17758678001E+03  0.12500048719E+03 0.  0.
          2    1    1    2  501    0 -0.13745940693E+02 -0.21870543226E+02 -0.20071889450E+03  0.20237427247E+03  0.00000000000E+00 0. -1.
          1    1    1    2  502    0 -0.17306999409E+02 -0.36942583358E+02  0.68722468264E+03  0.68843449298E+03  0.00000000000E+00 0. -1.
         22    1    3    3    0    0 -0.11226154518E+02 -0.35300117319E+02  0.17884471838E+02  0.41133674294E+02  0.00000000000E+00 0. -1.
         22    1    3    3    0    0  0.42279094620E+02  0.94113243903E+02  0.89300758900E+02  0.13645310572E+03  0.00000000000E+00 0. -1.
</event>
<event>
 7    1  0.5622879E-006  0.7760795E+02  0.7818608E-02  0.1367022E+00
          2   -1    0    0  502    0  0.00000000000E+00  0.00000000000E+00  0.39013835409E+03  0.39013835409E+03  0.00000000000E+00 0. -1.
          1   -1    0    0  501    0 -0.00000000000E+00 -0.00000000000E+00 -0.12560981590E+03  0.12560981590E+03  0.00000000000E+00 0. -1.
         25    2    1    2    0    0 -0.71281197328E+02  0.67730712114E+02  0.13840893616E+03  0.21083239489E+03  0.12499922668E+03 0.  0.
          2    1    1    2  501    0 -0.49916204175E+01 -0.59375673635E+02 -0.71411716594E+02  0.93005484575E+02  0.00000000000E+00 0. -1.
          1    1    1    2  502    0  0.76272817745E+02 -0.83550384788E+01  0.19753131863E+03  0.21191029053E+03  0.00000000000E+00 0. -1.
         22    1    3    3    0    0 -0.10644030285E+03  0.62561341692E+02  0.10935278648E+03  0.16492874661E+03  0.00000000000E+00 0. -1.
         22    1    3    3    0    0  0.35159105522E+02  0.51693704216E+01  0.29056149673E+02  0.45903648280E+02  0.00000000000E+00 0. -1.
</event>
<event>
 7    1  0.5622879E-006  0.1964947E+03  0.7818608E-02  0.1272011E+00
          2   -1    0    0  502    0  0.00000000000E+00  0.00000000000E+00  0.68092019455E+03  0.68092019455E+03  0.00000000000E+00 0. -1.
          1   -1    0    0  501    0 -0.00000000000E+00 -0.00000000000E+00 -0.55773845723E+03  0.55773845723E+03  0.00000000000E+00 0. -1.
         25    2    1    2    0    0 -0.20084130550E+03 -0.89093887370E+01  0.95284258381E+02  0.25518948769E+03  0.12500391005E+03 0.  0.
          2    1    1    2  501    0  0.14033436704E+02 -0.53275924901E+02 -0.45690387724E+03  0.46021344456E+03  0.00000000000E+00 0. -1.
          1    1    1    2  502    0  0.18680786880E+03  0.62185313638E+02  0.48480135617E+03  0.52325571953E+03  0.00000000000E+00 0. -1.
         22    1    3    3    0    0 -0.77016812211E+02 -0.43195104946E+02 -0.10282402633E+02  0.88899574005E+02  0.00000000000E+00 0.  1.
         22    1    3    3    0    0 -0.12382449329E+03  0.34285716209E+02  0.10556666101E+03  0.16628991368E+03  0.00000000000E+00 0.  1.
</event>
<event>
 7    1  0.5622879E-006  0.1070585E+03  0.7818608E-02  0.1463779E+00
          2   -1    0    0  502    0  0.00000000000E+00  0.00000000000E+00  0.30333401637E+03  0.30333401637E+03  0.00000000000E+00 0. -1.
          1   -1    0    0  501    0 -0.00000000000E+00 -0.00000000000E+00 -0.30772215947E+04  0.30772215947E+04  0.00000000000E+00 0. -1.
         25    2    1    2    0    0  0.43415038370E+02  0.76926020771E+02  0.76129464764E+02  0.17095045606E+03  0.12500353912E+03 0.  0.
          2    1    1    2  501    0 -0.59956918294E+02 -0.88870408535E+02 -0.30282806788E+04  0.30301776600E+04  0.00000000000E+00 0. -1.
          1    1    1    2  502    0  0.16541879924E+02  0.11944387763E+02  0.17826363565E+03  0.17942749507E+03  0.00000000000E+00 0. -1.
         22    1    3    3    0    0  0.36879217548E+01 -0.25566294618E+02 -0.13474749366E+02  0.29134259178E+02  0.00000000000E+00 0. -1.
         22    1    3    3    0    0  0.39727116615E+02  0.10249231539E+03  0.89604214129E+02  0.14181619688E+03  0.00000000000E+00 0. -1.
</event>
<event>
 7    1  0.5622879E-006  0.9244825E+02  0.7818608E-02  0.1354086E+00
          2   -1    0    0  502    0  0.00000000000E+00  0.00000000000E+00  0.14154199601E+04  0.14154199601E+04  0.00000000000E+00 0. -1.
          1   -1    0    0  501    0 -0.00000000000E+00 -0.00000000000E+00 -0.19880496929E+03  0.19880496929E+03  0.00000000000E+00 0. -1.
         25    2    1    2    0    0 -0.45683594781E+02 -0.80615290463E+01 -0.53367437127E+02  0.14360379756E+03  0.12498795240E+03 0.  0.
          2    1    1    2  501    0 -0.43740047379E+02  0.34582060725E+02 -0.90849628519E+02  0.10659627419E+03  0.00000000000E+00 0. -1.
          1    1    1    2  502    0  0.89423642160E+02 -0.26520531679E+02  0.13608320564E+04  0.13640248576E+04  0.00000000000E+00 0. -1.
         22    1    3    3    0    0  0.32412772832E+02 -0.26254745858E+02  0.81955407781E+01  0.42509603755E+02  0.00000000000E+00 0.  1.
         22    1    3    3    0    0 -0.78096367613E+02  0.18193216812E+02 -0.61562977905E+02  0.10109419380E+03  0.00000000000E+00 0.  1.
</event>
<event>
 7    1  0.5622879E-006  0.1029663E+03  0.7818608E-02  0.1386653E+00
          2   -1    0    0  502    0  0.00000000000E+00  0.00000000000E+00  0.10906751332E+04  0.10906751332E+04  0.00000000000E+00 0. -1.
          1   -1    0    0  501    0 -0.00000000000E+00 -0.00000000000E+00 -0.14217060915E+03  0.14217060915E+03  0.00000000000E+00 0. -1.
         25    2    1    2    0    0  0.12090899604E+03  0.37632171751E+02  0.78640635300E+03  0.80628296452E+03  0.12498840409E+03 0.  0.
          2    1    1    2  501    0 -0.10238983127E+03 -0.41787239744E+01 -0.11084390269E+03  0.15095532466E+03  0.00000000000E+00 0. -1.
          1    1    1    2  502    0 -0.18519164773E+02 -0.33453447776E+02  0.27294207378E+03  0.27560745322E+03  0.00000000000E+00 0. -1.
         22    1    3    3    0    0 -0.84151802680E+01  0.42824467312E+02  0.12686686517E+03  0.13416389879E+03  0.00000000000E+00 0. -1.
         22    1    3    3    0    0  0.12932417631E+03 -0.51922955610E+01  0.65953948783E+03  0.67211906573E+03  0.00000000000E+00 0. -1.
</event>
<event>
 7    1  0.5622879E-006  0.1309507E+03  0.7818608E-02  0.1404094E+00
          2   -1    0    0  502    0  0.00000000000E+00  0.00000000000E+00  0.17073817170E+03  0.17073817170E+03  0.00000000000E+00 0. -1.
          1   -1    0    0  501    0 -0.00000000000E+00 -0.00000000000E+00 -0.15222391054E+04  0.15222391054E+04  0.00000000000E+00 0. -1.
         25    2    1    2    0    0  0.10650490355E+03 -0.98015904960E+02 -0.73469442725E+02  0.20487167135E+03  0.12499692237E+03 0.  0.
          2    1    1    2  501    0 -0.12795522834E+01  0.26131883282E+02 -0.13442420767E+04  0.13444966618E+04  0.00000000000E+00 0. -1.
          1    1    1    2  502    0 -0.10522535127E+03  0.71884021678E+02  0.66210585776E+02  0.14360894398E+03  0.00000000000E+00 0. -1.
         22    1    3    3    0    0  0.66493912400E+02 -0.11399838440E+03 -0.88881403791E+02  0.15911309176E+03  0.00000000000E+00 0.  1.
         22    1    3    3    0    0  0.40010991154E+02  0.15982479435E+02  0.15411961066E+02  0.45758579588E+02  0.00000000000E+00 0.  1.
</event>
<event>
 7    1  0.5622879E-006  0.3597753E+02  0.7818608E-02  0.1557427E+00
          2   -1    0    0  502    0  0.00000000000E+00  0.00000000000E+00  0.23238815977E+04  0.23238815977E+04  0.00000000000E+00 0. -1.
          1   -1    0    0  501    0 -0.00000000000E+00 -0.00000000000E+00 -0.59269898768E+03  0.59269898768E+03  0.00000000000E+00 0. -1.
         25    2    1    2    0    0  0.39105098465E+02  0.24612276821E+02  0.77628279790E+03  0.78763854299E+03  0.12499807680E+03 0.  0.
          2    1    1    2  501    0 -0.30454995695E+02  0.10393745877E+02 -0.58636906700E+03  0.58725141077E+03  0.00000000000E+00 0. -1.
          1    1    1    2  502    0 -0.86501027708E+01 -0.35006022697E+02  0.15412688791E+04  0.15416906316E+04  0.00000000000E+00 0. -1.
         22    1    3    3    0    0  0.79277471527E+02  0.85257151233E+01  0.63189022032E+03  0.63690097806E+03  0.00000000000E+00 0. -1.
         22    1    3    3    0    0 -0.40172373062E+02  0.16086561697E+02  0.14439257757E+03  0.15073756494E+03  0.00000000000E+00 0. -1.
</event>
<event>
 7    1  0.5622879E-006  0.7734484E+02  0.7818608E-02  0.1347258E+00
          2   -1    0    0  502    0  0.00000000000E+00  0.00000000000E+00  0.13936492147E+04  0.13936492147E+04  0.00000000000E+00 0. -1.
          1   -1    0    0  501    0 -0.00000000000E+00 -0.00000000000E+00 -0.26809149311E+02  0.26809149311E+02  0.00000000000E+00 0. -1.
         25    2    1    2    0    0 -0.34178186627E+02  0.11979202510E+03  0.80179230029E+03  0.82098341162E+03  0.12499836652E+03 0.  0.
          2    1    1    2  501    0  0.52442704929E+02 -0.51553338896E+02  0.77504588410E+02  0.10684074727E+03  0.00000000000E+00 0. -1.
          1    1    1    2  502    0 -0.18264518303E+02 -0.68238686209E+02  0.48754317672E+03  0.49263420515E+03  0.00000000000E+00 0. -1.
         22    1    3    3    0    0 -0.78528696169E+02  0.48418407269E+02  0.40068430820E+03  0.41116786489E+03  0.00000000000E+00 0. -1.
         22    1    3    3    0    0  0.44350509542E+02  0.71373617835E+02  0.40110799209E+03  0.40981554673E+03  0.00000000000E+00 0. -1.
</event>
<event>
 7    1  0.5622879E-006  0.9934781E+02  0.7818608E-02  0.1361878E+00
          2   -1    0    0  502    0  0.00000000000E+00  0.00000000000E+00  0.19231374252E+03  0.19231374252E+03  0.00000000000E+00 0. -1.
          1   -1    0    0  501    0 -0.00000000000E+00 -0.00000000000E+00 -0.19370734397E+04  0.19370734397E+04  0.00000000000E+00 0. -1.
         25    2    1    2    0    0 -0.54940185080E+02  0.13986071405E+02 -0.21232479011E+03  0.25282302882E+03  0.12499453298E+03 0.  0.
          2    1    1    2  501    0 -0.36089221614E+02  0.32532927977E+02 -0.16889354676E+04  0.16896342317E+04  0.00000000000E+00 0. -1.
          1    1    1    2  502    0  0.91029406695E+02 -0.46518999382E+02  0.15650056050E+03  0.18692992169E+03  0.00000000000E+00 0. -1.
         22    1    3    3    0    0 -0.11548218130E+02  0.59479993172E+01  0.15808358042E+02  0.20460797195E+02  0.00000000000E+00 0. -1.
         22    1    3    3    0    0 -0.43391966951E+02  0.80380720876E+01 -0.22813314816E+03  0.23236223163E+03  0.00000000000E+00 0. -1.
</event>
<event>
 7    1  0.5622879E-006  0.6977607E+02  0.7818608E-02  0.1391966E+00
          2   -1    0    0  502    0  0.00000000000E+00  0.00000000000E+00  0.44056438698E+03  0.44056438698E+03  0.00000000000E+00 0. -1.
          1   -1    0    0  501    0 -0.00000000000E+00 -0.00000000000E+00 -0.25166846940E+03  0.25166846940E+03  0.00000000000E+00 0. -1.
         25    2    1    2    0    0 -0.11866219872E+03 -0.21001107361E+02  0.11065830121E+03  0.20589383031E+03  0.12500098327E+03 0.  0.
          2    1    1    2  501    0  0.64597309174E+02  0.21172736885E+02 -0.19567232894E+03  0.20714429138E+03  0.00000000000E+00 0. -1.
          1    1    1    2  502    0  0.54064889545E+02 -0.17162952376E+00  0.27390994531E+03  0.27919473469E+03  0.00000000000E+00 0. -1.
         22    1    3    3    0    0 -0.80026167884E+02 -0.71967307062E+02  0.84335863860E+02  0.13673338570E+03  0.00000000000E+00 0.  1.
         22    1    3    3    0    0 -0.38636030835E+02  0.50966199701E+02  0.26322437347E+02  0.69160444609E+02  0.00000000000E+00 0.  1.
</event>
<event>
 7    1  0.5622879E-006  0.1457198E+03  0.7818608E-02  0.1367605E+00
          2   -1    0    0  502    0  0.00000000000E+00  0.00000000000E+00  0.22000173609E+03  0.22000173609E+03  0.00000000000E+00 0. -1.
          1   -1    0    0  501    0 -0.00000000000E+00 -0.00000000000E+00 -0.14879884671E+04  0.14879884671E+04  0.00000000000E+00 0. -1.
         25    2    1    2    0    0  0.87365536976E+02  0.10019083252E+03 -0.45646550021E+02  0.18809394914E+03  0.12499914481E+03 0.  0.
          2    1    1    2  501    0 -0.71897012620E+02 -0.12772375943E+03 -0.13654750650E+04  0.13733188603E+04  0.00000000000E+00 0. -1.
          1    1    1    2  502    0 -0.15468524356E+02  0.27532926906E+02  0.14313488401E+03  0.14657739366E+03  0.00000000000E+00 0. -1.
         22    1    3    3    0    0  0.52699469751E+02  0.11431742905E+03  0.39673360304E+01  0.12594224253E+03  0.00000000000E+00 0.  1.
         22    1    3    3    0    0  0.34666067225E+02 -0.14126596531E+02 -0.49613886052E+02  0.62151706618E+02  0.00000000000E+00 0.  1.
</event>
<event>
 7    1  0.5622879E-006  0.1000974E+03  0.7818608E-02  0.1312459E+00
          2   -1    0    0  502    0  0.00000000000E+00  0.00000000000E+00  0.70373526985E+03  0.70373526985E+03  0.00000000000E+00 0. -1.
          1   -1    0    0  501    0 -0.00000000000E+00 -0.00000000000E+00 -0.31280647312E+03  0.31280647312E+03  0.00000000000E+00 0. -1.
         25    2    1    2    0    0 -0.16780555726E+03  0.10729563088E+02  0.15702477095E+03  0.26183108843E+03  0.12499964642E+03 0.  0.
          2    1    1    2  501    0  0.73607982109E+02 -0.88783563375E+01 -0.25049361318E+03  0.26123554599E+03  0.00000000000E+00 0. -1.
          1    1    1    2  502    0  0.94197575148E+02 -0.18512067505E+01  0.48439763896E+03  0.49347510855E+03  0.00000000000E+00 0. -1.
         22    1    3    3    0    0 -0.11896912366E+01  0.38097955560E+02  0.46049583399E+02  0.59778204341E+02  0.00000000000E+00 0. -1.
         22    1    3    3    0    0 -0.16661586602E+03 -0.27368392472E+02  0.11097518756E+03  0.20205288409E+03  0.00000000000E+00 0. -1.
</event>
<event>
 7    1  0.5622879E-006  0.1352050E+03  0.7818608E-02  0.1342804E+00
          2   -1    0    0  502    0  0.00000000000E+00  0.00000000000E+00  0.39421255012E+03  0.39421255012E+03  0.00000000000E+00 0. -1.
          1   -1    0    0  501    0 -0.00000000000E+00 -0.00000000000E+00 -0.10818110926E+04  0.10818110926E+04  0.00000000000E+00 0. -1.
         25    2    1    2    0    0  0.22203334261E+02  0.12426577503E+03 -0.28244838520E+03  0.33366977908E+03  0.12499384095E+03 0.  0.
          2    1    1    2  501    0 -0.40710385425E+02  0.10278567382E+02 -0.76064343007E+03  0.76180142566E+03  0.00000000000E+00 0. -1.
          1    1    1    2  502    0  0.18507051164E+02 -0.13454434241E+03  0.35549327282E+03  0.38055243796E+03  0.00000000000E+00 0. -1.
         22    1    3    3    0    0 -0.38298878569E+02  0.81026268971E+02 -0.21633886220E+03  0.23416781089E+03  0.00000000000E+00 0.  1.
         22    1    3    3    0    0  0.60502212830E+02  0.43239506057E+02 -0.66109523008E+02  0.99501968190E+02  0.00000000000E+00 0.  1.
</event>
<event>
 7    1  0.5622879E-006  0.4402481E+02  0.7818608E-02  0.1514885E+00
          2   -1    0    0  502    0  0.00000000000E+00  0.00000000000E+00  0.31181901003E+02  0.31181901003E+02  0.00000000000E+00 0. -1.
          1   -1    0    0  501    0 -0.00000000000E+00 -0.00000000000E+00 -0.28610142380E+04  0.28610142380E+04  0.00000000000E+00 0. -1.
         25    2    1    2    0    0  0.72676206180E+02 -0.82909817878E+01 -0.20259459731E+03  0.24903862609E+03  0.12500038039E+03 0.  0.
          2    1    1    2  501    0 -0.42797250024E+02 -0.94308056207E+01 -0.25962082126E+04  0.25965780612E+04  0.00000000000E+00 0. -1.
          1    1    1    2  502    0 -0.29878956156E+02  0.17721787408E+02 -0.31029527025E+02  0.46579451664E+02  0.00000000000E+00 0. -1.
         22    1    3    3    0    0 -0.63968716740E+01 -0.32811418349E+02 -0.14345198556E+03  0.14729555765E+03  0.00000000000E+00 0. -1.
         22    1    3    3    0    0  0.79073077854E+02  0.24520436561E+02 -0.59142611752E+02  0.10174306844E+03  0.00000000000E+00 0. -1.
</event>
<event>
 7    1  0.5622879E-006  0.9426853E+02  0.7818608E-02  0.1305452E+00
          2   -1    0    0  502    0  0.00000000000E+00  0.00000000000E+00  0.55244800507E+03  0.55244800507E+03  0.00000000000E+00 0. -1.
          1   -1    0    0  501    0 -0.00000000000E+00 -0.00000000000E+00 -0.27230530062E+04  0.27230530062E+04  0.00000000000E+00 0. -1.
         25    2    1    2    0    0 -0.20358922864E-01  0.30116611449E+02 -0.10853026733E+03  0.16826964187E+03  0.12501537004E+03 0.  0.
          2    1    1    2  501    0 -0.80539968961E+02  0.23514677125E+02 -0.25794843023E+04  0.25808484831E+04  0.00000000000E+00 0. -1.
          1    1    1    2  502    0  0.80560327884E+02 -0.53631288574E+02  0.51740956847E+03  0.52638288639E+03  0.00000000000E+00 0. -1.
         22    1    3    3    0    0 -0.48435944365E+02  0.46800131426E+02 -0.28227127559E+02  0.73027828519E+02  0.00000000000E+00 0.  1.
         22    1    3    3    0    0  0.48415585442E+02 -0.16683519977E+02 -0.80303139770E+02  0.95241813346E+02  0.00000000000E+00 0.  1.
</event>
<event>
 7    1  0.5622879E-006  0.4920423E+02  0.7818608E-02  0.1519098E+00
          2   -1    0    0  502    0  0.00000000000E+00  0.00000000000E+00  0.24167187483E+04  0.24167187483E+04  0.00000000000E+00 0. -1.
          1   -1    0    0  501    0 -0.00000000000E+00 -0.00000000000E+00 -0.71590145697E+01  0.71590145697E+01  0.00000000000E+00 0. -1.
         25    2    1    2    0    0  0.24098586201E+01 -0.30753916207E+02  0.13378065864E+04  0.13439877395E+04  0.12499988222E+03 0.  0.
          2    1    1    2  501    0  0.25939358110E+02 -0.15496229304E+02  0.65035989067E+02  0.71712365012E+02  0.00000000000E+00 0. -1.
          1    1    1    2  502    0 -0.28349216730E+02  0.46250145511E+02  0.10067171583E+04  0.10081776584E+04  0.00000000000E+00 0. -1.
         22    1    3    3    0    0 -0.14633897745E+02  0.42994700495E+02  0.29928882530E+03  0.30271520639E+03  0.00000000000E+00 0. -1.
         22    1    3    3    0    0  0.17043756365E+02 -0.73748616702E+02  0.10385177611E+04  0.10412725331E+04  0.00000000000E+00 0. -1.
</event>
<event>
 7    1  0.5622879E-006  0.3556315E+02  0.7818608E-02  0.1550999E+00
          2   -1    0    0  502    0  0.00000000000E+00  0.00000000000E+00  0.18617284786E+04  0.18617284786E+04  0.00000000000E+00 0. -1.
          1   -1    0    0  501    0 -0.00000000000E+00 -0.00000000000E+00 -0.48623047415E+02  0.48623047415E+02  0.00000000000E+00 0. -1.
         25    2    1    2    0    0  0.55443006956E+02 -0.21568414837E+02  0.25424351123E+03  0.28949346423E+03  0.12501031674E+03 0.  0.
          2    1    1    2  501    0 -0.33368914770E+02 -0.60848129074E+01 -0.21461502020E+02  0.40138578574E+02  0.00000000000E+00 0. -1.
          1    1    1    2  502    0 -0.22074092186E+02  0.27653227745E+02  0.15803234220E+04  0.15807194832E+04  0.00000000000E+00 0. -1.
         22    1    3    3    0    0 -0.15172101631E+02  0.26799958207E+01 -0.76240467277E+01  0.17190146422E+02  0.00000000000E+00 0. -1.
         22    1    3    3    0    0  0.70615108587E+02 -0.24248410658E+02  0.26186755796E+03  0.27230331781E+03  0.00000000000E+00 0. -1.
</event>
<event>
 7    1  0.5622879E-006  0.3973667E+02  0.7818608E-02  0.1512938E+00
          2   -1    0    0  502    0  0.00000000000E+00  0.00000000000E+00  0.47565990108E+04  0.47565990108E+04  0.00000000000E+00 0. -1.
          1   -1    0    0  501    0 -0.00000000000E+00 -0.00000000000E+00 -0.25455360804E+02  0.25455360804E+02  0.00000000000E+00 0. -1.
         25    2    1    2    0    0 -0.32701182550E+02 -0.70471363394E+02  0.20636979543E+04  0.20689410924E+04  0.12502966370E+03 0.  0.
          2    1    1    2  501    0  0.11581965988E+02  0.37688501939E+02 -0.55644458416E+01  0.39818691241E+02  0.00000000000E+00 0. -1.
          1    1    1    2  502    0  0.21119216562E+02  0.32782861455E+02  0.26730101416E+04  0.26732945880E+04  0.00000000000E+00 0. -1.
         22    1    3    3    0    0  0.40265291477E+02 -0.98063540789E+01  0.32137291000E+03  0.32403395742E+03  0.00000000000E+00 0.  1.
         22    1    3    3    0    0 -0.72966474026E+02 -0.60665009316E+02  0.17423250443E+04  0.17449071349E+04  0.00000000000E+00 0.  1.
</event>
<event>
 7    1  0.5622879E-006  0.6599556E+02  0.7818608E-02  0.1385858E+00
          2   -1    0    0  502    0  0.00000000000E+00  0.00000000000E+00  0.16663883178E+04  0.16663883178E+04  0.00000000000E+00 0. -1.
          1   -1    0    0  501    0 -0.00000000000E+00 -0.00000000000E+00 -0.15231345163E+04  0.15231345163E+04  0.00000000000E+00 0. -1.
         25    2    1    2    0    0 -0.35428810024E+02 -0.73426454742E+02  0.22268143066E+03  0.26806545772E+03  0.12500170088E+03 0.  0.
          2    1    1    2  501    0 -0.27731838111E+02  0.53254824414E+02 -0.14990677682E+04  0.15002697440E+04  0.00000000000E+00 0. -1.
          1    1    1    2  502    0  0.63160648135E+02  0.20171630328E+02  0.14196401390E+04  0.14211876324E+04  0.00000000000E+00 0. -1.
         22    1    3    3    0    0 -0.50383311059E+01  0.35543385363E+02  0.47703223714E+02  0.59701880843E+02  0.00000000000E+00 0.  1.
         22    1    3    3    0    0 -0.30390478918E+02 -0.10896984011E+03  0.17497820695E+03  0.20836357688E+03  0.00000000000E+00 0.  1.
</event>
<event>
 7    1  0.5622879E-006  0.6378961E+02  0.7818608E-02  0.1398961E+00
          2   -1    0    0  502    0  0.00000000000E+00  0.00000000000E+00  0.15399052780E+04  0.15399052780E+04  0.00000000000E+00 0. -1.
          1   -1    0    0  501    0 -0.00000000000E+00 -0.00000000000E+00 -0.75032285068E+03  0.75032285068E+03  0.00000000000E+00 0. -1.
         25    2    1    2    0    0 -0.75526851131E+02  0.62845209655E+02 -0.25231858572E+02  0.16098287649E+03  0.12500005687E+03 0.  0.
          2    1    1    2  501    0  0.62785313575E+02 -0.83840163966E+01 -0.65515614835E+03  0.65821111055E+03  0.00000000000E+00 0. -1.
          1    1    1    2  502    0  0.12741537556E+02 -0.54461193258E+02  0.14699704343E+04  0.14710341417E+04  0.00000000000E+00 0. -1.
         22    1    3    3    0    0 -0.47744557110E+02  0.77559078094E+02 -0.63818620593E+02  0.11121047461E+03  0.00000000000E+00 0. -1.
         22    1    3    3    0    0 -0.27782294022E+02 -0.14713868439E+02  0.38586762022E+02  0.49772401879E+02  0.00000000000E+00 0. -1.
</event>
<event>
 7    1  0.5622879E-006  0.1113437E+03  0.7818608E-02  0.1278256E+00
          2   -1    0    0  502    0  0.00000000000E+00  0.00000000000E+00  0.24458183348E+04  0.24458183348E+04  0.00000000000E+00 0. -1.
          1   -1    0    0  501    0 -0.00000000000E+00 -0.00000000000E+00 -0.21860621515E+03  0.21860621515E+03  0.00000000000E+00 0. -1.
         25    2    1    2    0    0 -0.68196147492E+02  0.10667931724E+03  0.17982419981E+04  0.18070223083E+04  0.12499659148E+03 0.  0.
          2    1    1    2  501    0  0.10877180434E+03 -0.24584884635E+02 -0.19613744215E+03  0.22562273419E+03  0.00000000000E+00 0. -1.
          1    1    1    2  502    0 -0.40575656852E+02 -0.82094432609E+02  0.62510756370E+03  0.63177950741E+03  0.00000000000E+00 0. -1.
         22    1    3    3    0    0 -0.81344532482E+02  0.32755959620E+02  0.13212615101E+04  0.13241683669E+04  0.00000000000E+00 0.  1.
         22    1    3    3    0    0  0.13148384989E+02  0.73923357623E+02  0.47698048800E+03  0.48285394144E+03  0.00000000000E+00 0.  1.
</event>
<event>
 7    1  0.5622879E-006  0.1702588E+03  0.7818608E-02  0.1357037E+00
          2   -1    0    0  502    0  0.00000000000E+00  0.00000000000E+00  0.27860700002E+03  0.27860700002E+03  0.00000000000E+00 0. -1.
          1   -1    0    0  501    0 -0.00000000000E+00 -0.00000000000E+00 -0.51544681809E+03  0.51544681809E+03  0.00000000000E+00 0. -1.
         25    2    1    2    0    0  0.27250732940E+02 -0.15121478127E+03 -0.37253298783E+02  0.20154556346E+03  0.12499717341E+03 0.  0.
          2    1    1    2  501    0  0.24012923894E+02 -0.17187248673E+02 -0.35588095514E+03  0.35710401323E+03  0.00000000000E+00 0. -1.
          1    1    1    2  502    0 -0.51263656834E+02  0.16840202994E+03  0.15629443586E+03  0.23540424142E+03  0.00000000000E+00 0. -1.
         22    1    3    3    0    0  0.50703029500E+02 -0.76877968546E+01 -0.20204856365E+02  0.55119285570E+02  0.00000000000E+00 0.  1.
         22    1    3    3    0    0 -0.23452296560E+02 -0.14352698441E+03 -0.17048442418E+02  0.14642627789E+03  0.00000000000E+00 0.  1.
</event>
<event>
 7    1  0.5622879E-006  0.6207341E+02  0.7818608E-02  0.1395717E+00
          2   -1    0    0  502    0  0.00000000000E+00  0.00000000000E+00  0.82996658357E+03  0.82996658357E+03  0.00000000000E+00 0. -1.
          1   -1    0    0  501    0 -0.00000000000E+00 -0.00000000000E+00 -0.44072367434E+02  0.44072367434E+02  0.00000000000E+00 0. -1.
         25    2    1    2    0    0 -0.51468253678E+01 -0.94066008935E+01  0.18453285771E+03  0.22313895125E+03  0.12499456803E+03 0.  0.
          2    1    1    2  501    0  0.47030521785E+02  0.55219968006E+02  0.33918942258E+02  0.80072526436E+02  0.00000000000E+00 0. -1.
          1    1    1    2  502    0 -0.41883696417E+02 -0.45813367112E+02  0.56744241617E+03  0.57082747332E+03  0.00000000000E+00 0. -1.
         22    1    3    3    0    0 -0.17456093836E+01  0.14415311141E+01  0.20215505508E+03  0.20216773100E+03  0.00000000000E+00 0.  1.
         22    1    3    3    0    0 -0.34012159842E+01 -0.10848132008E+02 -0.17622197373E+02  0.20971220243E+02  0.00000000000E+00 0.  1.
</event>
<event>
 7    1  0.5622879E-006  0.1015628E+03  0.7818608E-02  0.1341996E+00
          2   -1    0    0  502    0  0.00000000000E+00  0.00000000000E+00  0.40853861029E+04  0.40853861029E+04  0.00000000000E+00 0. -1.
          1   -1    0    0  501    0 -0.00000000000E+00 -0.00000000000E+00 -0.25686028744E+03  0.25686028744E+03  0.00000000000E+00 0. -1.
         25    2    1    2    0    0 -0.52607122233E+02 -0.93786612766E+02  0.40431966115E+03  0.43664998782E+03  0.12500154168E+03 0.  0.
          2    1    1    2  501    0 -0.35962511636E+02  0.43300465570E+02 -0.23668505902E+03  0.24328594231E+03  0.00000000000E+00 0. -1.
          1    1    1    2  502    0  0.88569633869E+02  0.50486147196E+02  0.36608912134E+04  0.36623104603E+04  0.00000000000E+00 0. -1.
         22    1    3    3    0    0 -0.25522400928E+02 -0.10093376191E+03  0.39279823850E+03  0.40636125973E+03  0.00000000000E+00 0.  1.
         22    1    3    3    0    0 -0.27084721305E+02  0.71471491432E+01  0.11521422654E+02  0.30288728085E+02  0.00000000000E+00 0.  1.
</event>
<event>
 7    1  0.5622879E-006  0.6207305E+02  0.7818608E-02  0.1470737E+00
          2   -1    0    0  502    0  0.00000000000E+00  0.00000000000E+00  0.65448289368E+03  0.65448289368E+03  0.00000000000E+00 0. -1.
          1   -1    0    0  501    0 -0.00000000000E+00 -0.00000000000E+00 -0.27781711425E+03  0.27781711425E+03  0.00000000000E+00 0. -1.
         25    2    1    2    0    0 -0.46309029621E+02 -0.21009565555E+02 -0.29107694383E+02  0.13805323134E+03  0.12500203495E+03 0.  0.
          2    1    1    2  501    0 -0.15533527476E+02  0.29650571101E+02 -0.19115376852E+03  0.19406238703E+03  0.00000000000E+00 0. -1.
          1    1    1    2  502    0  0.61842557097E+02 -0.86410055455E+01  0.59692724233E+03  0.60018438957E+03  0.00000000000E+00 0. -1.
         22    1    3    3    0    0  0.50631976333E+01  0.46893185837E+02  0.24940931227E+01  0.47231635042E+02  0.00000000000E+00 0.  1.
         22    1    3    3    0    0 -0.51372227255E+02 -0.67902751393E+02 -0.31601787505E+02  0.90821596294E+02  0.00000000000E+00 0.  1.
</event>
<event>
 7    1  0.5622879E-006  0.1005727E+03  0.7818608E-02  0.1430541E+00
          2   -1    0    0  502    0  0.00000000000E+00  0.00000000000E+00  0.67773542029E+03  0.67773542029E+03  0.00000000000E+00 0. -1.
          1   -1    0    0  501    0 -0.00000000000E+00 -0.00000000000E+00 -0.46280134052E+03  0.46280134052E+03  0.00000000000E+00 0. -1.
         25    2    1    2    0    0 -0.96518557798E+02  0.50473561168E+02  0.39534361212E+03  0.42870297322E+03  0.12500502081E+03 0.  0.
          2    1    1    2  501    0  0.74524791061E+02 -0.67433916025E+02 -0.43971003676E+03  0.45105010136E+03  0.00000000000E+00 0. -1.
          1    1    1    2  502    0  0.21993766737E+02  0.16960354857E+02  0.25930050441E+03  0.26078368622E+03  0.00000000000E+00 0. -1.
         22    1    3    3    0    0  0.20558070376E+02  0.34219510947E+02  0.16551282409E+03  0.17025893259E+03  0.00000000000E+00 0. -1.
         22    1    3    3    0    0 -0.11707662817E+03  0.16254050221E+02  0.22983078803E+03  0.25844404063E+03  0.00000000000E+00 0. -1.
</event>
<event>
 7    1  0.5622879E-006  0.4788464E+02  0.7818608E-02  0.1485413E+00
          2   -1    0    0  502    0  0.00000000000E+00  0.00000000000E+00  0.32358085423E+03  0.32358085423E+03  0.00000000000E+00 0. -1.
          1   -1    0    0  501    0 -0.00000000000E+00 -0.00000000000E+00 -0.76557010582E+02  0.76557010582E+02  0.00000000000E+00 0. -1.
         25    2    1    2    0    0 -0.73744325525E+01 -0.83627454093E+02  0.73895279403E+02  0.16773168225E+03  0.12500188630E+03 0.  0.
          2    1    1    2  501    0  0.96630423176E+01  0.37894709969E+02 -0.12622907282E+02  0.41094053326E+02  0.00000000000E+00 0. -1.
          1    1    1    2  502    0 -0.22886097651E+01  0.45732744124E+02  0.18575147153E+03  0.19131212924E+03  0.00000000000E+00 0. -1.
         22    1    3    3    0    0 -0.64765669508E+02 -0.28214789936E+02  0.30904720968E+02  0.77108806864E+02  0.00000000000E+00 0. -1.
         22    1    3    3    0    0  0.57391236955E+02 -0.55412664157E+02  0.42990558436E+02  0.90622875384E+02  0.00000000000E+00 0. -1.
</event>
<event>
 7    1  0.5622879E-006  0.7320862E+02  0.7818608E-02  0.1436726E+00
          2   -1    0    0  502    0  0.00000000000E+00  0.00000000000E+00  0.10822034083E+04  0.10822034083E+04  0.00000000000E+00 0. -1.
          1   -1    0    0  501    0 -0.00000000000E+00 -0.00000000000E+00 -0.25345791870E+03  0.25345791870E+03  0.00000000000E+00 0. -1.
         25    2    1    2    0    0 -0.18032646176E+02  0.44758150866E+02  0.31794086704E+03  0.34501979116E+03  0.12499517174E+03 0.  0.
          2    1    1    2  501    0  0.16371157738E+02  0.32529030186E+02 -0.23653119293E+03  0.23931811014E+03  0.00000000000E+00 0. -1.
          1    1    1    2  502    0  0.16614884378E+01 -0.77287181052E+02  0.74733581549E+03  0.75132342571E+03  0.00000000000E+00 0. -1.
         22    1    3    3    0    0 -0.41767773118E+02  0.68520794308E+02  0.29129872256E+03  0.30214994935E+03  0.00000000000E+00 0.  1.
         22    1    3    3    0    0  0.23735126942E+02 -0.23762643442E+02  0.26642144479E+02  0.42869841809E+02  0.00000000000E+00 0.  1.
</event>
<event>
 7    1  0.5622879E-006  0.9417345E+02  0.7818608E-02  0.1421885E+00
          2   -1    0    0  502    0  0.00000000000E+00  0.00000000000E+00  0.43306440222E+03  0.43306440222E+03  0.00000000000E+00 0. -1.
          1   -1    0    0  501    0 -0.00000000000E+00 -0.00000000000E+00 -0.80631467407E+03  0.80631467407E+03  0.00000000000E+00 0. -1.
         25    2    1    2    0    0  0.71706209671E+02 -0.24988495088E+02  0.17126739588E+03  0.22521933622E+03  0.12500009249E+03 0.  0.
          2    1    1    2  501    0  0.29570655576E+02  0.11378010703E+02 -0.76787927668E+03  0.76853267098E+03  0.00000000000E+00 0. -1.
          1    1    1    2  502    0 -0.10127686525E+03  0.13610484385E+02  0.22336160895E+03  0.24562706910E+03  0.00000000000E+00 0. -1.
         22    1    3    3    0    0  0.70904216240E+02  0.11942749542E+02  0.17390696327E+03  0.18818519873E+03  0.00000000000E+00 0. -1.
         22    1    3    3    0    0  0.80199343080E+00 -0.36931244630E+02 -0.26395673918E+01  0.37034137487E+02  0.00000000000E+00 0. -1.
</event>
<event>
 7    1  0.5622879E-006  0.1316258E+03  0.7818608E-02  0.1323906E+00
          2   -1    0    0  502    0  0.00000000000E+00  0.00000000000E+00  0.89694226768E+03  0.89694226768E+03  0.00000000000E+00 0. -1.
          1   -1    0    0  501    0 -0.00000000000E+00 -0.00000000000E+00 -0.42082039624E+03  0.42082039624E+03  0.00000000000E+00 0. -1.
         25    2    1    2    0    0  0.11269306577E+03  0.53853290579E+02 -0.18357569063E+03  0.25480290808E+03  0.12499833518E+03 0.  0.
          2    1    1    2  501    0 -0.24665652341E+02  0.44508872832E+02 -0.19326086519E+03  0.19984793264E+03  0.00000000000E+00 0. -1.
          1    1    1    2  502    0 -0.88027413432E+02 -0.98362163411E+02  0.85295842727E+03  0.86311182320E+03  0.00000000000E+00 0. -1.
         22    1    3    3    0    0  0.11615965385E+03  0.78533180184E+01 -0.17120814314E+03  0.20704339658E+03  0.00000000000E+00 0. -1.
         22    1    3    3    0    0 -0.34665880812E+01  0.45999972561E+02 -0.12367547492E+02  0.47759511508E+02  0.00000000000E+00 0. -1.
</event>
<event>
 7    1  0.5622879E-006  0.1227606E+03  0.7818608E-02  0.1276299E+00
          2   -1    0    0  502    0  0.00000000000E+00  0.00000000000E+00  0.74483505633E+03  0.74483505633E+03  0.00000000000E+00 0. -1.
          1   -1    0    0  501    0 -0.00000000000E+00 -0.00000000000E+00 -0.14194852480E+03  0.14194852480E+03  0.00000000000E+00 0. -1.
         25    2    1    2    0    0  0.43673293743E+02 -0.15460904360E+03  0.17123771214E+03  0.26600304584E+03  0.12499581348E+03 0.  0.
          2    1    1    2  501    0 -0.75179771277E+02  0.38852161999E+02 -0.66978635853E+02  0.10792416857E+03  0.00000000000E+00 0. -1.
          1    1    1    2  502    0  0.31506477534E+02  0.11575688160E+03  0.49862745524E+03  0.51285636672E+03  0.00000000000E+00 0. -1.
         22    1    3    3    0    0  0.27509987958E+01 -0.15252807163E+03  0.95752352535E+02  0.18011355764E+03  0.00000000000E+00 0. -1.
         22    1    3    3    0    0  0.40922294947E+02 -0.20809719644E+01  0.75485359601E+02  0.85889488194E+02  0.00000000000E+00 0. -1.
</event>
<event>
 7    1  0.5622879E-006  0.1522344E+03  0.7818608E-02  0.1270672E+00
          2   -1    0    0  502    0  0.00000000000E+00  0.00000000000E+00  0.99995730304E+03  0.99995730304E+03  0.00000000000E+00 0. -1.
          1   -1    0    0  501    0 -0.00000000000E+00 -0.00000000000E+00 -0.56694938424E+03  0.56694938424E+03  0.00000000000E+00 0. -1.
         25    2    1    2    0    0  0.22099884769E+03  0.13234161423E+02 -0.47246107787E+02  0.25859771347E+03  0.12499979600E+03 0.  0.
          2    1    1    2  501    0 -0.71753709508E+02 -0.63663541219E+01 -0.40458374996E+03  0.41094663404E+03  0.00000000000E+00 0. -1.
          1    1    1    2  502    0 -0.14924513819E+03 -0.68678073012E+01  0.88483777655E+03  0.89736233978E+03  0.00000000000E+00 0. -1.
         22    1    3    3    0    0  0.11636332849E+03 -0.54357636846E+02 -0.11210245345E+02  0.12892186200E+03  0.00000000000E+00 0. -1.
         22    1    3    3    0    0  0.10463551921E+03  0.67591798270E+02 -0.36035862443E+02  0.12967585147E+03  0.00000000000E+00 0. -1.
</event>
<event>
 7    1  0.5622879E-006  0.5350954E+02  0.7818608E-02  0.1484901E+00
          2   -1    0    0  502    0  0.00000000000E+00  0.00000000000E+00  0.30350586573E+03  0.30350586573E+03  0.00000000000E+00 0. -1.
          1   -1    0    0  501    0 -0.00000000000E+00 -0.00000000000E+00 -0.11469389655E+04  0.11469389655E+04  0.00000000000E+00 0. -1.
         25    2    1    2    0    0 -0.81327743286E+02 -0.13310724193E+02 -0.81898001916E+02  0.17065588783E+03  0.12499908850E+03 0.  0.
          2    1    1    2  501    0  0.28803212866E+02  0.20098785941E+02 -0.10176497852E+04  0.10182557005E+04  0.00000000000E+00 0. -1.
          1    1    1    2  502    0  0.52524530420E+02 -0.67880617481E+01  0.25611468734E+03  0.26153324291E+03  0.00000000000E+00 0. -1.
         22    1    3    3    0    0 -0.10152298082E+03 -0.13240825592E+02 -0.18399166355E+02  0.10402290334E+03  0.00000000000E+00 0. -1.
         22    1    3    3    0    0  0.20195237530E+02 -0.69898600569E-01 -0.63498835561E+02  0.66632984492E+02  0.00000000000E+00 0. -1.
</event>
<event>
 7    1  0.5622879E-006  0.1046238E+03  0.7818608E-02  0.1336699E+00
          2   -1    0    0  502    0  0.00000000000E+00  0.00000000000E+00  0.50832543557E+03  0.50832543557E+03  0.00000000000E+00 0. -1.
          1   -1    0    0  501    0 -0.00000000000E+00 -0.00000000000E+00 -0.14488909995E+03  0.14488909995E+03  0.00000000000E+00 0. -1.
         25    2    1    2    0    0 -0.74349630805E+02 -0.90549750909E+02  0.69108563837E+01  0.17148300920E+03  0.12502614734E+03 0.  0.
          2    1    1    2  501    0 -0.23141735218E+02  0.52319344670E+02 -0.41168200864E+02  0.70481731661E+02  0.00000000000E+00 0. -1.
          1    1    1    2  502    0  0.97491366023E+02  0.38230406239E+02  0.39769368010E+03  0.41124979466E+03  0.00000000000E+00 0. -1.
         22    1    3    3    0    0 -0.20064463593E+01 -0.64822756898E+02  0.51391995098E+02  0.82747524428E+02  0.00000000000E+00 0.  1.
         22    1    3    3    0    0 -0.72343184445E+02 -0.25726994011E+02 -0.44481138714E+02  0.88735484773E+02  0.00000000000E+00 0.  1.
</event>
<event>
 7    1  0.5622879E-006  0.7177744E+02  0.7818608E-02  0.1481571E+00
          2   -1    0    0  502    0  0.00000000000E+00  0.00000000000E+00  0.46397765912E+03  0.46397765912E+03  0.00000000000E+00 0. -1.
          1   -1    0    0  501    0 -0.00000000000E+00 -0.00000000000E+00 -0.33094321430E+03  0.33094321430E+03  0.00000000000E+00 0. -1.
         25    2    1    2    0    0  0.34356597880E+02  0.66776059917E+02  0.31444460463E+03  0.34661149305E+03  0.12499879897E+03 0.  0.
          2    1    1    2  501    0 -0.26439904300E+02  0.44017536422E+01 -0.30462031394E+03  0.30579728521E+03  0.00000000000E+00 0. -1.
          1    1    1    2  502    0 -0.79166935796E+01 -0.71177813559E+02  0.12321015414E+03  0.14251209515E+03  0.00000000000E+00 0. -1.
         22    1    3    3    0    0  0.68875214891E+02  0.48588559396E+02  0.11055237287E+03  0.13901967659E+03  0.00000000000E+00 0.  1.
         22    1    3    3    0    0 -0.34518617011E+02  0.18187500521E+02  0.20389223175E+03  0.20759181647E+03  0.00000000000E+00 0.  1.
</event>
<event>
 7    1  0.5622879E-006  0.4421535E+02  0.7818608E-02  0.1545540E+00
          2   -1    0    0  502    0  0.00000000000E+00  0.00000000000E+00  0.55990178483E+03  0.55990178483E+03  0.00000000000E+00 0. -1.
          1   -1    0    0  501    0 -0.00000000000E+00 -0.00000000000E+00 -0.18397284406E+03  0.18397284406E+03  0.00000000000E+00 0. -1.
         25    2    1    2    0    0  0.16848128950E+02  0.31553449962E+01  0.35315466631E+02  0.13101437542E+03  0.12499507484E+03 0.  0.
          2    1    1    2  501    0  0.27963869691E+02 -0.40626556637E+01 -0.13358868657E+03  0.13654457279E+03  0.00000000000E+00 0. -1.
          1    1    1    2  502    0 -0.44811998642E+02  0.90731066757E+00  0.47420216071E+03  0.47631568068E+03  0.00000000000E+00 0. -1.
         22    1    3    3    0    0  0.75531653582E+01 -0.19536625828E+02 -0.43603465807E+02  0.48373466757E+02  0.00000000000E+00 0.  1.
         22    1    3    3    0    0  0.92949635922E+01  0.22691970824E+02  0.78918932438E+02  0.82640908667E+02  0.00000000000E+00 0.  1.
</event>
<event>
 7    1  0.5622879E-006  0.9165830E+02  0.7818608E-02  0.1404670E+00
          2   -1    0    0  502    0  0.00000000000E+00  0.00000000000E+00  0.33870974414E+03  0.33870974414E+03  0.00000000000E+00 0. -1.
          1   -1    0    0  501    0 -0.00000000000E+00 -0.00000000000E+00 -0.56296319245E+03  0.56296319245E+03  0.00000000000E+00 0. -1.
         25    2    1    2    0    0  0.55209761478E+02  0.29249181253E+02  0.59786479644E+02  0.15200009285E+03  0.12500389078E+03 0.  0.
          2    1    1    2  501    0  0.36804529026E+02  0.54775469582E+01 -0.50575583663E+03  0.50712280876E+03  0.00000000000E+00 0. -1.
          1    1    1    2  502    0 -0.92014290504E+02 -0.34726728211E+02  0.22171590868E+03  0.24255003498E+03  0.00000000000E+00 0. -1.
         22    1    3    3    0    0 -0.73233787128E+01 -0.47455022753E+01 -0.33524581091E+02  0.34641726356E+02  0.00000000000E+00 0.  1.
         22    1    3    3    0    0  0.62533140191E+02  0.33994683528E+02  0.93311060735E+02  0.11735836649E+03  0.00000000000E+00 0.  1.
</event>
<event>
 7    1  0.5622879E-006  0.8396796E+02  0.7818608E-02  0.1345556E+00
          2   -1    0    0  502    0  0.00000000000E+00  0.00000000000E+00  0.57760714930E+03  0.57760714930E+03  0.00000000000E+00 0. -1.
          1   -1    0    0  501    0 -0.00000000000E+00 -0.00000000000E+00 -0.32680816404E+04  0.32680816404E+04  0.00000000000E+00 0. -1.
         25    2    1    2    0    0  0.13282980628E+03  0.54925065300E+02 -0.16352115098E+04  0.16462697195E+04  0.12500714902E+03 0.  0.
          2    1    1    2  501    0 -0.49761558320E+02 -0.43395969361E+02 -0.16235928769E+04  0.16249348457E+04  0.00000000000E+00 0. -1.
          1    1    1    2  502    0 -0.83068247965E+02 -0.11529095938E+02  0.56832989565E+03  0.57448422447E+03  0.00000000000E+00 0. -1.
         22    1    3    3    0    0 -0.23001565678E+02 -0.49661090807E+01 -0.19498989115E+03  0.19640466367E+03  0.00000000000E+00 0.  1.
         22    1    3    3    0    0  0.15583137196E+03  0.59891174380E+02 -0.14402216187E+04  0.14498650558E+04  0.00000000000E+00 0.  1.
</event>
<event>
 7    1  0.5622879E-006  0.4055500E+02  0.7818608E-02  0.1550627E+00
          2   -1    0    0  502    0  0.00000000000E+00  0.00000000000E+00  0.26926419199E+04  0.26926419199E+04  0.00000000000E+00 0. -1.
          1   -1    0    0  501    0 -0.00000000000E+00 -0.00000000000E+00 -0.10872754032E+02  0.10872754032E+02  0.00000000000E+00 0. -1.
         25    2    1    2    0    0 -0.30293985569E+02 -0.55094854483E+02  0.95322143988E+03  0.96343625112E+03  0.12500051190E+03 0.  0.
          2    1    1    2  501    0  0.25361770110E+02  0.15675511947E+02  0.34636910747E+02  0.45701823202E+02  0.00000000000E+00 0. -1.
          1    1    1    2  502    0  0.49322154593E+01  0.39419342536E+02  0.16939108152E+04  0.16943765996E+04  0.00000000000E+00 0. -1.
         22    1    3    3    0    0  0.19476973065E+02 -0.18555740707E+02  0.76239784673E+03  0.76287229907E+03  0.00000000000E+00 0. -1.
         22    1    3    3    0    0 -0.49770958634E+02 -0.36539113776E+02  0.19082359315E+03  0.20056395205E+03  0.00000000000E+00 0. -1.
</event>
<event>
 7    1  0.5622879E-006  0.1672980E+03  0.7818608E-02  0.1273236E+00
          2   -1    0    0  502    0  0.00000000000E+00  0.00000000000E+00  0.14254778902E+03  0.14254778902E+03  0.00000000000E+00 0. -1.
          1   -1    0    0  501    0 -0.00000000000E+00 -0.00000000000E+00 -0.11353139209E+04  0.11353139209E+04  0.00000000000E+00 0. -1.
         25    2    1    2    0    0  0.19303168137E+03 -0.78125893674E+02 -0.35407055414E+03  0.42936682814E+03  0.12500012209E+03 0.  0.
          2    1    1    2  501    0 -0.13034929342E+03  0.90793444953E+02 -0.72437094647E+03  0.74158455757E+03  0.00000000000E+00 0. -1.
          1    1    1    2  502    0 -0.62682387959E+02 -0.12667551279E+02  0.85675368734E+02  0.10691032421E+03  0.00000000000E+00 0. -1.
         22    1    3    3    0    0  0.12727820055E+03 -0.10711763106E+03 -0.28315427046E+03  0.32840564566E+03  0.00000000000E+00 0.  1.
         22    1    3    3    0    0  0.65753480826E+02  0.28991737389E+02 -0.70916283681E+02  0.10096118248E+03  0.00000000000E+00 0.  1.
</event>
<event>
 7    1  0.5622879E-006  0.9945469E+02  0.7818608E-02  0.1363862E+00
          2   -1    0    0  502    0  0.00000000000E+00  0.00000000000E+00  0.16574367402E+03  0.16574367402E+03  0.00000000000E+00 0. -1.
          1   -1    0    0  501    0 -0.00000000000E+00 -0.00000000000E+00 -0.30717826709E+03  0.30717826709E+03  0.00000000000E+00 0. -1.
         25    2    1    2    0    0  0.17793860707E+02  0.67898509227E+02 -0.63138663581E+02  0.15664835537E+03  0.12500154946E+03 0.  0.
          2    1    1    2  501    0 -0.28259885079E+02  0.38473594846E+02 -0.16929563632E+03  0.17589727423E+03  0.00000000000E+00 0. -1.
          1    1    1    2  502    0  0.10466024372E+02 -0.10637210407E+03  0.90999706832E+02  0.14037631151E+03  0.00000000000E+00 0. -1.
         22    1    3    3    0    0  0.93176112425E+00 -0.16287008266E+02 -0.68700415241E+02  0.70610777304E+02  0.00000000000E+00 0.  1.
         22    1    3    3    0    0  0.16862099583E+02  0.84185517493E+02  0.55617516609E+01  0.86037578066E+02  0.00000000000E+00 0.  1.
</event>
<event>
 7    1  0.5622879E-006  0.7692401E+02  0.7818608E-02  0.1375678E+00
          2   -1    0    0  502    0  0.00000000000E+00  0.00000000000E+00  0.22566328213E+04  0.22566328213E+04  0.00000000000E+00 0. -1.
          1   -1    0    0  501    0 -0.00000000000E+00 -0.00000000000E+00 -0.16104523266E+04  0.16104523266E+04  0.00000000000E+00 0. -1.
         25    2    1    2    0    0  0.58664422909E+01 -0.63658193445E+02  0.20864128102E+03  0.25148036585E+03  0.12499763808E+03 0.  0.
          2    1    1    2  501    0 -0.55841119692E+02  0.37403250491E+01 -0.15877886061E+04  0.15887746468E+04  0.00000000000E+00 0. -1.
          1    1    1    2  502    0  0.49974677401E+02  0.59917868396E+02  0.20253278199E+04  0.20268301353E+04  0.00000000000E+00 0. -1.
         22    1    3    3    0    0 -0.13165788993E+02  0.21930941344E+02  0.45456364483E+00  0.25583409002E+02  0.00000000000E+00 0. -1.
         22    1    3    3    0    0  0.19032231284E+02 -0.85589134789E+02  0.20818671738E+03  0.22589695685E+03  0.00000000000E+00 0. -1.
</event>
<event>
 7    1  0.5622879E-006  0.1448530E+03  0.7818608E-02  0.1325976E+00
          2   -1    0    0  502    0  0.00000000000E+00  0.00000000000E+00  0.31922418650E+03  0.31922418650E+03  0.00000000000E+00 0. -1.
          1   -1    0    0  501    0 -0.00000000000E+00 -0.00000000000E+00 -0.93625569672E+03  0.93625569672E+03  0.00000000000E+00 0. -1.
         25    2    1    2    0    0 -0.94012403092E+02 -0.56710693376E+02 -0.21583701859E+03  0.27251085585E+03  0.12498845260E+03 0.  0.
          2    1    1    2  501    0 -0.44921677044E+02  0.65661924580E+01 -0.67251647018E+03  0.67404708635E+03  0.00000000000E+00 0. -1.
          1    1    1    2  502    0  0.13893408014E+03  0.50144500918E+02  0.27132197856E+03  0.30892194102E+03  0.00000000000E+00 0. -1.
         22    1    3    3    0    0 -0.10998136698E+03 -0.81021974142E+02 -0.16804199449E+03  0.21656078428E+03  0.00000000000E+00 0. -1.
         22    1    3    3    0    0  0.15968963884E+02  0.24311280766E+02 -0.47795024097E+02  0.55950071568E+02  0.00000000000E+00 0. -1.
</event>
<event>
 7    1  0.5622879E-006  0.4412565E+02  0.7818608E-02  0.1505408E+00
          2   -1    0    0  502    0  0.00000000000E+00  0.00000000000E+00  0.14524277954E+04  0.14524277954E+04  0.00000000000E+00 0. -1.
          1   -1    0    0  501    0 -0.00000000000E+00 -0.00000000000E+00 -0.48046693050E+02  0.48046693050E+02  0.00000000000E+00 0. -1.
         25    2    1    2    0    0 -0.17943072688E+02  0.69330949754E+02  0.13205391731E+03  0.19542805606E+03  0.12500061426E+03 0.  0.
          2    1    1    2  501    0  0.23656916846E+02 -0.32816477556E+02  0.93401928142E+01  0.41518792320E+02  0.00000000000E+00 0. -1.
          1    1    1    2  502    0 -0.57138441582E+01 -0.36514472198E+02  0.12629869922E+04  0.12635276400E+04  0.00000000000E+00 0. -1.
         22    1    3    3    0    0 -0.67720839780E+01  0.92129868211E+02  0.14095083397E+03  0.16852569933E+03  0.00000000000E+00 0.  1.
         22    1    3    3    0    0 -0.11170988710E+02 -0.22798918457E+02 -0.88969166581E+01  0.26902356729E+02  0.00000000000E+00 0.  1.
</event>
<event>
 7    1  0.5622879E-006  0.1192540E+03  0.7818608E-02  0.1342958E+00
          2   -1    0    0  502    0  0.00000000000E+00  0.00000000000E+00  0.89628056536E+02  0.89628056536E+02  0.00000000000E+00 0. -1.
          1   -1    0    0  501    0 -0.00000000000E+00 -0.00000000000E+00 -0.77361501334E+03  0.77361501334E+03  0.00000000000E+00 0. -1.
         25    2    1    2    0    0 -0.30868340673E+02  0.90626388654E+02 -0.17285956360E+03  0.23381918109E+03  0.12499993576E+03 0.  0.
          2    1    1    2  501    0  0.77679754456E+02 -0.98921694554E+02 -0.55235650181E+03  0.56649567607E+03  0.00000000000E+00 0. -1.
          1    1    1    2  502    0 -0.46811413784E+02  0.82953059005E+01  0.41229108605E+02  0.62928212725E+02  0.00000000000E+00 0. -1.
         22    1    3    3    0    0  0.57611270968E+00 -0.30996974725E+02 -0.44326157008E+02  0.54092074679E+02  0.00000000000E+00 0.  1.
         22    1    3    3    0    0 -0.31444453382E+02  0.12162336338E+03 -0.12853340659E+03  0.17972710641E+03  0.00000000000E+00 0.  1.
</event>
<event>
 7    1  0.5622879E-006  0.3852347E+02  0.7818608E-02  0.1563845E+00
          2   -1    0    0  502    0  0.00000000000E+00  0.00000000000E+00  0.10349381973E+04  0.10349381973E+04  0.00000000000E+00 0. -1.
          1   -1    0    0  501    0 -0.00000000000E+00 -0.00000000000E+00 -0.68148568907E+02  0.68148568907E+02  0.00000000000E+00 0. -1.
         25    2    1    2    0    0  0.12247482928E+02 -0.43064468440E+01  0.45573079786E+03  0.47274135206E+03  0.12500111802E+03 0.  0.
          2    1    1    2  501    0 -0.23872383426E+02  0.30717247059E+02 -0.52891216804E+02  0.65657602548E+02  0.00000000000E+00 0. -1.
          1    1    1    2  502    0  0.11624900498E+02 -0.26410800215E+02  0.56395004729E+03  0.56468781156E+03  0.00000000000E+00 0. -1.
         22    1    3    3    0    0 -0.53854715491E+02 -0.19952916793E+02  0.22548472253E+03  0.23268392588E+03  0.00000000000E+00 0.  1.
         22    1    3    3    0    0  0.66102198419E+02  0.15646469949E+02  0.23024607533E+03  0.24005742618E+03  0.00000000000E+00 0.  1.
</event>
<event>
 7    1  0.5622879E-006  0.1148069E+03  0.7818608E-02  0.1361688E+00
          2   -1    0    0  502    0  0.00000000000E+00  0.00000000000E+00  0.41259763518E+03  0.41259763518E+03  0.00000000000E+00 0. -1.
          1   -1    0    0  501    0 -0.00000000000E+00 -0.00000000000E+00 -0.15122301280E+04  0.15122301280E+04  0.00000000000E+00 0. -1.
         25    2    1    2    0    0  0.41275348114E+02  0.87532938698E+02  0.19974551632E+03  0.25473169410E+03  0.12499717985E+03 0.  0.
          2    1    1    2  501    0 -0.11951644327E+02  0.40381257570E+02 -0.14611677983E+04  0.14617745457E+04  0.00000000000E+00 0. -1.
          1    1    1    2  502    0 -0.29323703787E+02 -0.12791419627E+03  0.16178978916E+03  0.20832152334E+03  0.00000000000E+00 0. -1.
         22    1    3    3    0    0  0.79413155630E+02  0.66367057837E+02  0.17822255885E+03  0.20609297934E+03  0.00000000000E+00 0. -1.
         22    1    3    3    0    0 -0.38137807516E+02  0.21165880861E+02  0.21522957474E+02  0.48638714756E+02  0.00000000000E+00 0. -1.
</event>
<event>
 7    1  0.5622879E-006  0.6260378E+02  0.7818608E-02  0.1457605E+00
          2   -1    0    0  502    0  0.00000000000E+00  0.00000000000E+00  0.12823693656E+04  0.12823693656E+04  0.00000000000E+00 0. -1.
          1   -1    0    0  501    0 -0.00000000000E+00 -0.00000000000E+00 -0.19557496783E+04  0.19557496783E+04  0.00000000000E+00 0. -1.
         25    2    1    2    0    0 -0.22745199003E+02 -0.33250302460E+02  0.12166790660E+03  0.17903021332E+03  0.12500324434E+03 0.  0.
          2    1    1    2  501    0 -0.35569048436E+02  0.81495633139E+01 -0.19260054294E+04  0.19263510808E+04  0.00000000000E+00 0. -1.
          1    1    1    2  502    0  0.58314247439E+02  0.25100739146E+02  0.11309572101E+04  0.11327377498E+04  0.00000000000E+00 0. -1.
         22    1    3    3    0    0  0.42687339786E+02 -0.35639932591E+02  0.22051313277E+02  0.59822020949E+02  0.00000000000E+00 0. -1.
         22    1    3    3    0    0 -0.65432538789E+02  0.23896301314E+01  0.99616593321E+02  0.11920819238E+03  0.00000000000E+00 0. -1.
</event>
<event>
 7    1  0.5622879E-006  0.1333965E+03  0.7818608E-02  0.1227656E+00
          2   -1    0    0  502    0  0.00000000000E+00  0.00000000000E+00  0.91010994881E+03  0.91010994881E+03  0.00000000000E+00 0. -1.
          1   -1    0    0  501    0 -0.00000000000E+00 -0.00000000000E+00 -0.11479759584E+04  0.11479759584E+04  0.00000000000E+00 0. -1.
         25    2    1    2    0    0 -0.20651167649E+03  0.15524649326E+02 -0.28677925941E+03  0.37517498398E+03  0.12500335078E+03 0.  0.
          2    1    1    2  501    0  0.99047023482E+02 -0.82120961712E+02 -0.80726233241E+03  0.81745130653E+03  0.00000000000E+00 0. -1.
          1    1    1    2  502    0  0.10746465301E+03  0.66596312386E+02  0.85617558225E+03  0.86545961669E+03  0.00000000000E+00 0. -1.
         22    1    3    3    0    0 -0.17511081450E+03  0.56966134947E+02 -0.18578069579E+03  0.26157867806E+03  0.00000000000E+00 0. -1.
         22    1    3    3    0    0 -0.31400861988E+02 -0.41441485621E+02 -0.10099856362E+03  0.11359630591E+03  0.00000000000E+00 0. -1.
</event>
<event>
 7    1  0.5622879E-006  0.1258251E+03  0.7818608E-02  0.1288326E+00
          2   -1    0    0  502    0  0.00000000000E+00  0.00000000000E+00  0.13344012280E+04  0.13344012280E+04  0.00000000000E+00 0. -1.
          1   -1    0    0  501    0 -0.00000000000E+00 -0.00000000000E+00 -0.33187876022E+03  0.33187876022E+03  0.00000000000E+00 0. -1.
         25    2    1    2    0    0 -0.16204006194E+02 -0.65584800837E+02  0.53962462503E+03  0.55801771737E+03  0.12500040417E+03 0.  0.
          2    1    1    2  501    0 -0.28567754614E+02  0.12408561299E+03 -0.30829687487E+03  0.33355707009E+03  0.00000000000E+00 0. -1.
          1    1    1    2  502    0  0.44771760808E+02 -0.58500812156E+02  0.77119471758E+03  0.77470520071E+03  0.00000000000E+00 0. -1.
         22    1    3    3    0    0 -0.47225166827E+02  0.16582809612E+02  0.13523188691E+03  0.14419732728E+03  0.00000000000E+00 0.  1.
         22    1    3    3    0    0  0.31021160633E+02 -0.82167610449E+02  0.40439273811E+03  0.41382039009E+03  0.00000000000E+00 0.  1.
</event>
<event>
 7    1  0.5622879E-006  0.1148391E+03  0.7818608E-02  0.1327736E+00
          2   -1    0    0  502    0  0.00000000000E+00  0.00000000000E+00  0.11641393251E+04  0.11641393251E+04  0.00000000000E+00 0. -1.
          1   -1    0    0  501    0 -0.00000000000E+00 -0.00000000000E+00 -0.83774872618E+03  0.83774872618E+03  0.00000000000E+00 0. -1.
         25    2    1    2    0    0 -0.45540051663E+02 -0.40744307120E+02  0.47214574025E+03  0.49222064107E+03  0.12500225836E+03 0.  0.
          2    1    1    2  501    0  0.98641870607E+02  0.59690196935E+02 -0.82251833572E+03  0.83055978162E+03  0.00000000000E+00 0. -1.
          1    1    1    2  502    0 -0.53101818944E+02 -0.18945889814E+02  0.67676319439E+03  0.67910762858E+03  0.00000000000E+00 0. -1.
         22    1    3    3    0    0 -0.30525913256E+02  0.28180596171E+02  0.53822521143E+02  0.67991478604E+02  0.00000000000E+00 0.  1.
         22    1    3    3    0    0 -0.15014138406E+02 -0.68924903291E+02  0.41832321911E+03  0.42422916247E+03  0.00000000000E+00 0.  1.
</event>
<event>
 7    1  0.5622879E-006  0.1329996E+03  0.7818608E-02  0.1297179E+00
          2   -1    0    0  502    0  0.00000000000E+00  0.00000000000E+00  0.13850927079E+04  0.13850927079E+04  0.00000000000E+00 0. -1.
          1   -1    0    0  501    0 -0.00000000000E+00 -0.00000000000E+00 -0.41827179129E+03  0.41827179129E+03  0.00000000000E+00 0. -1.
         25    2    1    2    0    0  0.18242927625E+03 -0.71283441238E+02  0.69508496323E+03  0.73289156023E+03  0.12500065245E+03 0.  0.
          2    1    1    2  501    0 -0.12088455702E+03  0.53111350854E+02 -0.38685280840E+03  0.40876519798E+03  0.00000000000E+00 0. -1.
          1    1    1    2  502    0 -0.61544719234E+02  0.18172090384E+02  0.65858876173E+03  0.66170774094E+03  0.00000000000E+00 0. -1.
         22    1    3    3    0    0  0.97921841526E+02 -0.56588737861E+02  0.57070128700E+03  0.58179973469E+03  0.00000000000E+00 0.  1.
         22    1    3    3    0    0  0.84507434726E+02 -0.14694703376E+02  0.12438367623E+03  0.15109182554E+03  0.00000000000E+00 0.  1.
</event>
<event>
 7    1  0.5622879E-006  0.1158962E+03  0.7818608E-02  0.1297063E+00
          2   -1    0    0  502    0  0.00000000000E+00  0.00000000000E+00  0.16314575595E+04  0.16314575595E+04  0.00000000000E+00 0. -1.
          1   -1    0    0  501    0 -0.00000000000E+00 -0.00000000000E+00 -0.10749871066E+04  0.10749871066E+04  0.00000000000E+00 0. -1.
         25    2    1    2    0    0  0.29202145220E+02  0.11214543301E+03  0.15108882958E+03  0.22777622738E+03  0.12499924762E+03 0.  0.
          2    1    1    2  501    0  0.44372181857E+02 -0.10749493442E+03 -0.10324345775E+04  0.10389635259E+04  0.00000000000E+00 0. -1.
          1    1    1    2  502    0 -0.73574327077E+02 -0.46504985907E+01  0.14378162008E+04  0.14397049128E+04  0.00000000000E+00 0. -1.
         22    1    3    3    0    0 -0.62473646478E+01 -0.21680717298E+02  0.54455148317E+02  0.58944433544E+02  0.00000000000E+00 0.  1.
         22    1    3    3    0    0  0.35449509868E+02  0.13382615031E+03  0.96633681268E+02  0.16883179384E+03  0.00000000000E+00 0.  1.
</event>
<event>
 7    1  0.5622879E-006  0.1525679E+03  0.7818608E-02  0.1281502E+00
          2   -1    0    0  502    0  0.00000000000E+00  0.00000000000E+00  0.33498067478E+02  0.33498067478E+02  0.00000000000E+00 0. -1.
          1   -1    0    0  501    0 -0.00000000000E+00 -0.00000000000E+00 -0.20100999885E+04  0.20100999885E+04  0.00000000000E+00 0. -1.
         25    2    1    2    0    0 -0.96824714166E+02  0.28633163346E+02 -0.10757532737E+04  0.10876880403E+04  0.12500113488E+03 0.  0.
          2    1    1    2  501    0 -0.57935096145E+02  0.29022618470E+02 -0.66407740858E+03  0.66723128848E+03  0.00000000000E+00 0. -1.
          1    1    1    2  502    0  0.15475981031E+03 -0.57655781816E+02 -0.23677123874E+03  0.28867872724E+03  0.00000000000E+00 0. -1.
         22    1    3    3    0    0 -0.47593659590E+02  0.61445969514E+02 -0.87371858056E+03  0.87716869622E+03  0.00000000000E+00 0.  1.
         22    1    3    3    0    0 -0.49231054576E+02 -0.32812806168E+02 -0.20203469317E+03  0.21051934407E+03  0.00000000000E+00 0.  1.
</event>
<event>
 7    1  0.8656240E-006  0.6770619E+02  0.7818608E-02  0.1370354E+00
          2   -1    0    0  502    0  0.00000000000E+00  0.00000000000E+00  0.67894348983E+03  0.67894348983E+03  0.00000000000E+00 0. -1.
          1   -1    0    0  501    0 -0.00000000000E+00 -0.00000000000E+00 -0.76116044910E+03  0.76116044910E+03  0.00000000000E+00 0. -1.
         25    2    1    2    0    0 -0.92053599529E+00  0.10388059506E+02 -0.23932795506E+03  0.27020716171E+03  0.12500112400E+03 0.  0.
          2    1    1    2  501    0 -0.66437738007E+02  0.68965266670E-02 -0.50245014513E+03  0.50682356044E+03  0.00000000000E+00 0. -1.
          1    1    1    2  502    0  0.67358274003E+02 -0.10394956033E+02  0.65956114092E+03  0.66307321677E+03  0.00000000000E+00 0. -1.
         22    1    3    3    0    0  0.12393882375E+02  0.25164522730E+02  0.19425019554E+01  0.28118229645E+02  0.00000000000E+00 0.  1.
         22    1    3    3    0    0 -0.13314418370E+02 -0.14776463224E+02 -0.24127045701E+03  0.24208893207E+03  0.00000000000E+00 0.  1.
</event>
<event>
 7    1  0.5622879E-006  0.5213414E+02  0.7818608E-02  0.1523968E+00
          2   -1    0    0  502    0  0.00000000000E+00  0.00000000000E+00  0.13517307913E+03  0.13517307913E+03  0.00000000000E+00 0. -1.
          1   -1    0    0  501    0 -0.00000000000E+00 -0.00000000000E+00 -0.39171815078E+03  0.39171815078E+03  0.00000000000E+00 0. -1.
         25    2    1    2    0    0 -0.33891410104E+02 -0.24241830019E+02 -0.66863983709E+02  0.14775953185E+03  0.12500317170E+03 0.  0.
          2    1    1    2  501    0  0.12580301574E+02 -0.24572566987E+02 -0.27617600897E+03  0.27755227069E+03  0.00000000000E+00 0. -1.
          1    1    1    2  502    0  0.21311108530E+02  0.48814397006E+02  0.86494921020E+02  0.10157942737E+03  0.00000000000E+00 0. -1.
         22    1    3    3    0    0  0.31602523324E+02  0.39567118386E+00  0.19090694828E+02  0.36923307885E+02  0.00000000000E+00 0.  1.
         22    1    3    3    0    0 -0.65493933429E+02 -0.24637501203E+02 -0.85954678536E+02  0.11083622397E+03  0.00000000000E+00 0.  1.
</event>
<event>
 7    1  0.5622879E-006  0.8785370E+02  0.7818608E-02  0.1415568E+00
          2   -1    0    0  502    0  0.00000000000E+00  0.00000000000E+00  0.29819594914E+02  0.29819594914E+02  0.00000000000E+00 0. -1.
          1   -1    0    0  501    0 -0.00000000000E+00 -0.00000000000E+00 -0.14724417736E+04  0.14724417736E+04  0.00000000000E+00 0. -1.
         25    2    1    2    0    0  0.60475436719E+02  0.65989563242E+02 -0.65771152936E+03  0.67544198170E+03  0.12500205553E+03 0.  0.
          2    1    1    2  501    0  0.20138636634E+02 -0.29425529554E+02 -0.70989411565E+03  0.71078905585E+03  0.00000000000E+00 0. -1.
          1    1    1    2  502    0 -0.80614073353E+02 -0.36564033689E+02 -0.75016533704E+02  0.11603033100E+03  0.00000000000E+00 0. -1.
         22    1    3    3    0    0  0.97947662557E+02  0.39400974739E+02 -0.40182168237E+03  0.41545980050E+03  0.00000000000E+00 0. -1.
         22    1    3    3    0    0 -0.37472225838E+02  0.26588588504E+02 -0.25588984699E+03  0.25998218120E+03  0.00000000000E+00 0. -1.
</event>
<event>
 7    1  0.5622879E-006  0.3150135E+02  0.7818608E-02  0.1594792E+00
          2   -1    0    0  502    0  0.00000000000E+00  0.00000000000E+00  0.12680119267E+04  0.12680119267E+04  0.00000000000E+00 0. -1.
          1   -1    0    0  501    0 -0.00000000000E+00 -0.00000000000E+00 -0.47249553755E+02  0.47249553755E+02  0.00000000000E+00 0. -1.
         25    2    1    2    0    0  0.27944860137E+00  0.43048712900E+01  0.54382526789E+03  0.55802289916E+03  0.12500009592E+03 0.  0.
          2    1    1    2  501    0 -0.12409290505E+02  0.26371311275E+02 -0.34428643918E+02  0.45108403555E+02  0.00000000000E+00 0. -1.
          1    1    1    2  502    0  0.12129841904E+02 -0.30676182565E+02  0.71136574897E+03  0.71213017774E+03  0.00000000000E+00 0. -1.
         22    1    3    3    0    0 -0.21318574599E+02 -0.49575639944E+02  0.13989198806E+03  0.14993996806E+03  0.00000000000E+00 0.  1.
         22    1    3    3    0    0  0.21598023200E+02  0.53880511234E+02  0.40393327983E+03  0.40808293110E+03  0.00000000000E+00 0.  1.
</event>
<event>
 7    1  0.5622879E-006  0.2139592E+03  0.7818608E-02  0.1221185E+00
          2   -1    0    0  502    0  0.00000000000E+00  0.00000000000E+00  0.83743879218E+03  0.83743879218E+03  0.00000000000E+00 0. -1.
          1   -1    0    0  501    0 -0.00000000000E+00 -0.00000000000E+00 -0.63753675927E+03  0.63753675927E+03  0.00000000000E+00 0. -1.
         25    2    1    2    0    0  0.27115469189E+03  0.67371455925E+02 -0.87129890483E+02  0.31823902493E+03  0.12498271547E+03 0.  0.
          2    1    1    2  501    0 -0.18707700930E+03 -0.73779358639E+02 -0.40892068573E+03  0.45569433658E+03  0.00000000000E+00 0. -1.
          1    1    1    2  502    0 -0.84077682593E+02  0.64079027138E+01  0.69595260912E+03  0.70104218994E+03  0.00000000000E+00 0. -1.
         22    1    3    3    0    0  0.15049080179E+03  0.28088059400E+02 -0.11102555361E+03  0.18911132716E+03  0.00000000000E+00 0.  1.
         22    1    3    3    0    0  0.12066389010E+03  0.39283396525E+02  0.23895663125E+02  0.12912769777E+03  0.00000000000E+00 0.  1.
</event>
<event>
 7    1  0.5622879E-006  0.1755464E+03  0.7818608E-02  0.1292437E+00
          2   -1    0    0  502    0  0.00000000000E+00  0.00000000000E+00  0.15028393813E+04  0.15028393813E+04  0.00000000000E+00 0. -1.
          1   -1    0    0  501    0 -0.00000000000E+00 -0.00000000000E+00 -0.72551555651E+03  0.72551555651E+03  0.00000000000E+00 0. -1.
         25    2    1    2    0    0  0.12393459720E+03  0.11496029420E+03  0.30620118604E+02  0.21245424167E+03  0.12499423792E+03 0.  0.
          2    1    1    2  501    0 -0.34664160706E+02  0.37147710450E+02 -0.62793835330E+03  0.62999058086E+03  0.00000000000E+00 0. -1.
          1    1    1    2  502    0 -0.89270436497E+02 -0.15210800465E+03  0.13746420595E+04  0.13859101153E+04  0.00000000000E+00 0. -1.
         22    1    3    3    0    0 -0.14826092592E+02 -0.11227173018E+02 -0.91503423832E+01  0.20726581996E+02  0.00000000000E+00 0. -1.
         22    1    3    3    0    0  0.13876068980E+03  0.12618746722E+03  0.39770460987E+02  0.19172765967E+03  0.00000000000E+00 0. -1.
</event>
<event>
 7    1  0.5622879E-006  0.2492149E+03  0.7818608E-02  0.1263485E+00
          2   -1    0    0  502    0  0.00000000000E+00  0.00000000000E+00  0.77541107261E+03  0.77541107261E+03  0.00000000000E+00 0. -1.
          1   -1    0    0  501    0 -0.00000000000E+00 -0.00000000000E+00 -0.15344846804E+04  0.15344846804E+04  0.00000000000E+00 0. -1.
         25    2    1    2    0    0 -0.20584524765E+03  0.16249769240E+03  0.36128294323E+02  0.29276026971E+03  0.12500222340E+03 0.  0.
          2    1    1    2  501    0  0.16493304843E+03 -0.18600733609E+03 -0.13942460887E+04  0.14162357838E+04  0.00000000000E+00 0. -1.
          1    1    1    2  502    0  0.40912199225E+02  0.23509643693E+02  0.59904418656E+03  0.60089969949E+03  0.00000000000E+00 0. -1.
         22    1    3    3    0    0 -0.80872068725E+02  0.14139344701E+03  0.89304500165E+01  0.16313231223E+03  0.00000000000E+00 0. -1.
         22    1    3    3    0    0 -0.12497317893E+03  0.21104245386E+02  0.27197844307E+02  0.12962795748E+03  0.00000000000E+00 0. -1.
</event>
<event>
 7    1  0.5622879E-006  0.8567187E+02  0.7818608E-02  0.1358615E+00
          2   -1    0    0  502    0  0.00000000000E+00  0.00000000000E+00  0.17177884359E+04  0.17177884359E+04  0.00000000000E+00 0. -1.
          1   -1    0    0  501    0 -0.00000000000E+00 -0.00000000000E+00 -0.26502461515E+03  0.26502461515E+03  0.00000000000E+00 0. -1.
         25    2    1    2    0    0 -0.12083125178E+03 -0.58980274433E+02  0.89511525221E+02  0.20424477624E+03  0.12499900517E+03 0.  0.
          2    1    1    2  501    0  0.37316828866E+02  0.44283809738E+02 -0.20245084061E+03  0.21057052116E+03  0.00000000000E+00 0. -1.
          1    1    1    2  502    0  0.83514422913E+02  0.14696464696E+02  0.15657031362E+04  0.15679977537E+04  0.00000000000E+00 0. -1.
         22    1    3    3    0    0 -0.15670062480E+02 -0.67481626010E+02  0.66978744453E+02  0.96361158749E+02  0.00000000000E+00 0. -1.
         22    1    3    3    0    0 -0.10516118930E+03  0.85013515767E+01  0.22532780768E+02  0.10788361749E+03  0.00000000000E+00 0. -1.
</event>
<event>
 7    1  0.5622879E-006  0.1090355E+03  0.7818608E-02  0.1392940E+00
          2   -1    0    0  502    0  0.00000000000E+00  0.00000000000E+00  0.76885976140E+03  0.76885976140E+03  0.00000000000E+00 0. -1.
          1   -1    0    0  501    0 -0.00000000000E+00 -0.00000000000E+00 -0.14846236852E+04  0.14846236852E+04  0.00000000000E+00 0. -1.
         25    2    1    2    0    0 -0.11852004369E+03 -0.20409915721E+02  0.20466731970E+03  0.26828730269E+03  0.12500319842E+03 0.  0.
          2    1    1    2  501    0  0.11393322219E+02  0.32383870744E+02 -0.14471516682E+04  0.14475587980E+04  0.00000000000E+00 0. -1.
          1    1    1    2  502    0  0.10712672147E+03 -0.11973955022E+02  0.52672042465E+03  0.53763734598E+03  0.00000000000E+00 0. -1.
         22    1    3    3    0    0 -0.74735731575E+02 -0.63454945206E+02  0.70557996804E+02  0.12079068904E+03  0.00000000000E+00 0. -1.
         22    1    3    3    0    0 -0.43784312112E+02  0.43045029484E+02  0.13410932290E+03  0.14749661365E+03  0.00000000000E+00 0. -1.
</event>
<event>
 7    1  0.5622879E-006  0.1220039E+03  0.7818608E-02  0.1306859E+00
          2   -1    0    0  502    0  0.00000000000E+00  0.00000000000E+00  0.91158245543E+03  0.91158245543E+03  0.00000000000E+00 0. -1.
          1   -1    0    0  501    0 -0.00000000000E+00 -0.00000000000E+00 -0.27443020920E+03  0.27443020920E+03  0.00000000000E+00 0. -1.
         25    2    1    2    0    0  0.36782191253E+02  0.67495753700E+02  0.14239204362E+03  0.20447395257E+03  0.12500198731E+03 0.  0.
          2    1    1    2  501    0  0.60623794110E+02  0.20518116264E+02 -0.23320643917E+03  0.24182944563E+03  0.00000000000E+00 0. -1.
          1    1    1    2  502    0 -0.97405985363E+02 -0.88013869964E+02  0.72796664178E+03  0.73970926642E+03  0.00000000000E+00 0. -1.
         22    1    3    3    0    0  0.56338235798E+02  0.42252612236E+02  0.13524439702E+02  0.71709068623E+02  0.00000000000E+00 0. -1.
         22    1    3    3    0    0 -0.19556044545E+02  0.25243141464E+02  0.12886760392E+03  0.13276488395E+03  0.00000000000E+00 0. -1.
</event>
<event>
 7    1  0.5622879E-006  0.7424592E+02  0.7818608E-02  0.1360456E+00
          2   -1    0    0  502    0  0.00000000000E+00  0.00000000000E+00  0.14941110466E+04  0.14941110466E+04  0.00000000000E+00 0. -1.
          1   -1    0    0  501    0 -0.00000000000E+00 -0.00000000000E+00 -0.18529252035E+03  0.18529252035E+03  0.00000000000E+00 0. -1.
         25    2    1    2    0    0 -0.12864087115E+03  0.22705372246E+02  0.52405295978E+03  0.55436472128E+03  0.12499892755E+03 0.  0.
          2    1    1    2  501    0  0.59116237712E+02 -0.28885977720E+02 -0.16244289932E+03  0.17526216023E+03  0.00000000000E+00 0. -1.
          1    1    1    2  502    0  0.69524633441E+02  0.61806054734E+01  0.94720846579E+03  0.94977668544E+03  0.00000000000E+00 0. -1.
         22    1    3    3    0    0 -0.78532331832E+01  0.14399478921E+02  0.29347258046E+03  0.29393055940E+03  0.00000000000E+00 0.  1.
         22    1    3    3    0    0 -0.12078763797E+03  0.83058933250E+01  0.23058037932E+03  0.26043416188E+03  0.00000000000E+00 0.  1.
</event>
<event>
 7    1  0.5622879E-006  0.8302814E+02  0.7818608E-02  0.1430858E+00
          2   -1    0    0  502    0  0.00000000000E+00  0.00000000000E+00  0.45128833343E+03  0.45128833343E+03  0.00000000000E+00 0. -1.
          1   -1    0    0  501    0 -0.00000000000E+00 -0.00000000000E+00 -0.15896150774E+03  0.15896150774E+03  0.00000000000E+00 0. -1.
         25    2    1    2    0    0 -0.62061689426E+02  0.10945768474E+02  0.76225357730E+02  0.15939529506E+03  0.12500036714E+03 0.  0.
          2    1    1    2  501    0 -0.13283803107E+02  0.30821178045E+02 -0.10925107663E+03  0.11428999163E+03  0.00000000000E+00 0. -1.
          1    1    1    2  502    0  0.75345492533E+02 -0.41766946520E+02  0.32535254458E+03  0.33656455448E+03  0.00000000000E+00 0. -1.
         22    1    3    3    0    0 -0.82054324895E+02 -0.58482883981E+01  0.96159422460E+02  0.12654544337E+03  0.00000000000E+00 0. -1.
         22    1    3    3    0    0  0.19992635468E+02  0.16794056872E+02 -0.19934064730E+02  0.32849851687E+02  0.00000000000E+00 0. -1.
</event>
<event>
 7    1  0.5622879E-006  0.3461243E+02  0.7818608E-02  0.1574378E+00
          2   -1    0    0  502    0  0.00000000000E+00  0.00000000000E+00  0.62806495472E+03  0.62806495472E+03  0.00000000000E+00 0. -1.
          1   -1    0    0  501    0 -0.00000000000E+00 -0.00000000000E+00 -0.44318409947E+03  0.44318409947E+03  0.00000000000E+00 0. -1.
         25    2    1    2    0    0 -0.62935424847E+01 -0.45558583313E+02 -0.16825790416E+03  0.21459570607E+03  0.12500160624E+03 0.  0.
          2    1    1    2  501    0  0.25123138384E+02  0.16516774360E+02 -0.25036200121E+03  0.25216087636E+03  0.00000000000E+00 0. -1.
          1    1    1    2  502    0 -0.18829595899E+02  0.29041808953E+02  0.60350076061E+03  0.60449247176E+03  0.00000000000E+00 0. -1.
         22    1    3    3    0    0 -0.59714888545E+02 -0.51469050102E+02 -0.89814706373E+02  0.11950570076E+03  0.00000000000E+00 0. -1.
         22    1    3    3    0    0  0.53421346060E+02  0.59104667892E+01 -0.78443197785E+02  0.95090005318E+02  0.00000000000E+00 0. -1.
</event>
<event>
 7    1  0.5622879E-006  0.6562151E+02  0.7818608E-02  0.1412654E+00
          2   -1    0    0  502    0  0.00000000000E+00  0.00000000000E+00  0.15809650635E+04  0.15809650635E+04  0.00000000000E+00 0. -1.
          1   -1    0    0  501    0 -0.00000000000E+00 -0.00000000000E+00 -0.26107287052E+03  0.26107287052E+03  0.00000000000E+00 0. -1.
         25    2    1    2    0    0 -0.14239613892E+02 -0.23965610093E+02  0.58740264248E+03  0.60120201937E+03  0.12499954652E+03 0.  0.
          2    1    1    2  501    0 -0.44347495693E+02 -0.20433909057E+02 -0.25044286843E+03  0.25515852986E+03  0.00000000000E+00 0. -1.
          1    1    1    2  502    0  0.58587109586E+02  0.44399519150E+02  0.98293241892E+03  0.98567738478E+03  0.00000000000E+00 0. -1.
         22    1    3    3    0    0 -0.34519068442E+02  0.29131848378E+02  0.45338731866E+03  0.45563174977E+03  0.00000000000E+00 0. -1.
         22    1    3    3    0    0  0.20279454550E+02 -0.53097458471E+02  0.13401532382E+03  0.14557026960E+03  0.00000000000E+00 0. -1.
</event>
<event>
 7    1  0.5622879E-006  0.1372954E+03  0.7818608E-02  0.1326843E+00
          2   -1    0    0  502    0  0.00000000000E+00  0.00000000000E+00  0.16279386686E+04  0.16279386686E+04  0.00000000000E+00 0. -1.
          1   -1    0    0  501    0 -0.00000000000E+00 -0.00000000000E+00 -0.83897638620E+02  0.83897638620E+02  0.00000000000E+00 0. -1.
         25    2    1    2    0    0  0.10377123171E+03  0.55609062307E+01  0.75821489285E+03  0.77544607174E+03  0.12500957655E+03 0.  0.
          2    1    1    2  501    0 -0.13767011090E+03  0.27758453102E+02 -0.84485259215E+01  0.14069459387E+03  0.00000000000E+00 0. -1.
          1    1    1    2  502    0  0.33898879192E+02 -0.33319359333E+02  0.79427466309E+03  0.79569564165E+03  0.00000000000E+00 0. -1.
         22    1    3    3    0    0 -0.14660392329E+02  0.36502469450E+02  0.21978962213E+03  0.22328196384E+03  0.00000000000E+00 0. -1.
         22    1    3    3    0    0  0.11843162403E+03 -0.30941563219E+02  0.53842527072E+03  0.55216410790E+03  0.00000000000E+00 0. -1.
</event>
<event>
 7    1  0.5622879E-006  0.1086280E+03  0.7818608E-02  0.1373014E+00
          2   -1    0    0  502    0  0.00000000000E+00  0.00000000000E+00  0.30447454537E+03  0.30447454537E+03  0.00000000000E+00 0. -1.
          1   -1    0    0  501    0 -0.00000000000E+00 -0.00000000000E+00 -0.46258571593E+03  0.46258571593E+03  0.00000000000E+00 0. -1.
         25    2    1    2    0    0  0.53846231105E+02 -0.10918639104E+03 -0.68144176132E+02  0.18731771764E+03  0.12499285583E+03 0.  0.
          2    1    1    2  501    0 -0.40458099694E+02  0.20491664211E+01 -0.32162111603E+03  0.32416230378E+03  0.00000000000E+00 0. -1.
          1    1    1    2  502    0 -0.13388131411E+02  0.10713722462E+03  0.23165412160E+03  0.25558023988E+03  0.00000000000E+00 0. -1.
         22    1    3    3    0    0  0.71270727944E+02 -0.11815460751E+02 -0.46937057898E+02  0.86152244188E+02  0.00000000000E+00 0.  1.
         22    1    3    3    0    0 -0.17424496840E+02 -0.97370930288E+02 -0.21207118233E+02  0.10116547345E+03  0.00000000000E+00 0.  1.
</event>
<event>
 7    1  0.5622879E-006  0.5882618E+02  0.7818608E-02  0.1424513E+00
          2   -1    0    0  502    0  0.00000000000E+00  0.00000000000E+00  0.22796888447E+04  0.22796888447E+04  0.00000000000E+00 0. -1.
          1   -1    0    0  501    0 -0.00000000000E+00 -0.00000000000E+00 -0.96177317272E+03  0.96177317272E+03  0.00000000000E+00 0. -1.
         25    2    1    2    0    0 -0.15155937553E+02  0.30991173220E+02 -0.71354831219E+03  0.72523502754E+03  0.12499798428E+03 0.  0.
          2    1    1    2  501    0  0.45846348377E+02  0.19219677809E+02 -0.23944735329E+03  0.24455330436E+03  0.00000000000E+00 0. -1.
          1    1    1    2  502    0 -0.30690410823E+02 -0.50210851029E+02  0.22709113374E+04  0.22716736855E+04  0.00000000000E+00 0. -1.
         22    1    3    3    0    0  0.20550671068E+02 -0.11455968501E+02 -0.58193855397E+03  0.58241398497E+03  0.00000000000E+00 0.  1.
         22    1    3    3    0    0 -0.35706608621E+02  0.42447141721E+02 -0.13160975822E+03  0.14282104256E+03  0.00000000000E+00 0.  1.
</event>
<event>
 7    1  0.5622879E-006  0.6568568E+02  0.7818608E-02  0.1428377E+00
          2   -1    0    0  502    0  0.00000000000E+00  0.00000000000E+00  0.39256662659E+03  0.39256662659E+03  0.00000000000E+00 0. -1.
          1   -1    0    0  501    0 -0.00000000000E+00 -0.00000000000E+00 -0.15553751635E+04  0.15553751635E+04  0.00000000000E+00 0. -1.
         25    2    1    2    0    0  0.44466846246E+02  0.50064584145E+02  0.66651186387E+02  0.15669222046E+03  0.12500523311E+03 0.  0.
          2    1    1    2  501    0  0.21098848454E+02 -0.37730261731E+02 -0.15060786911E+04  0.15066989606E+04  0.00000000000E+00 0. -1.
          1    1    1    2  502    0 -0.65565694701E+02 -0.12334322413E+02  0.27661896774E+03  0.28455060911E+03  0.00000000000E+00 0. -1.
         22    1    3    3    0    0  0.35780649185E+02  0.89294917374E+02  0.26254281913E+02  0.99715216711E+02  0.00000000000E+00 0.  1.
         22    1    3    3    0    0  0.86861970609E+01 -0.39230333229E+02  0.40396904473E+02  0.56977003744E+02  0.00000000000E+00 0.  1.
</event>
<event>
 7    1  0.5622879E-006  0.1361263E+03  0.7818608E-02  0.1321692E+00
          2   -1    0    0  502    0  0.00000000000E+00  0.00000000000E+00  0.18428640925E+04  0.18428640925E+04  0.00000000000E+00 0. -1.
          1   -1    0    0  501    0 -0.00000000000E+00 -0.00000000000E+00 -0.54136005568E+03  0.54136005568E+03  0.00000000000E+00 0. -1.
         25    2    1    2    0    0  0.10528586043E+03  0.37407644441E+02  0.31015478861E+03  0.35256993959E+03  0.12500050052E+03 0.  0.
          2    1    1    2  501    0 -0.13696537579E+03  0.15117823240E+01 -0.51070873127E+03  0.52875817520E+03  0.00000000000E+00 0. -1.
          1    1    1    2  502    0  0.31679515356E+02 -0.38919426765E+02  0.15020579794E+04  0.15028960334E+04  0.00000000000E+00 0. -1.
         22    1    3    3    0    0 -0.21116914876E+02 -0.24824615045E+01  0.81725780065E+01  0.22778888038E+02  0.00000000000E+00 0. -1.
         22    1    3    3    0    0  0.12640277531E+03  0.39890105946E+02  0.30198221061E+03  0.32979105155E+03  0.00000000000E+00 0. -1.
</event>
<event>
 7    1  0.5622879E-006  0.8294357E+02  0.7818608E-02  0.1353630E+00
          2   -1    0    0  502    0  0.00000000000E+00  0.00000000000E+00  0.58902307641E+03  0.58902307641E+03  0.00000000000E+00 0. -1.
          1   -1    0    0  501    0 -0.00000000000E+00 -0.00000000000E+00 -0.16488215015E+03  0.16488215015E+03  0.00000000000E+00 0. -1.
         25    2    1    2    0    0  0.13389088093E+03 -0.10266230958E+02  0.17998695061E+03  0.25700248756E+03  0.12499125061E+03 0.  0.
          2    1    1    2  501    0 -0.57401310325E+02  0.24444329548E+02 -0.11423841869E+03  0.13016471095E+03  0.00000000000E+00 0. -1.
          1    1    1    2  502    0 -0.76489570607E+02 -0.14178098590E+02  0.35839239434E+03  0.36673802804E+03  0.00000000000E+00 0. -1.
         22    1    3    3    0    0  0.86019948354E+02  0.14299967858E+02  0.18341337434E+03  0.20308714012E+03  0.00000000000E+00 0.  1.
         22    1    3    3    0    0  0.47870932578E+02 -0.24566198816E+02 -0.34264237299E+01  0.53915347442E+02  0.00000000000E+00 0.  1.
</event>
<event>
 7    1  0.5622879E-006  0.8150785E+02  0.7818608E-02  0.1346453E+00
          2   -1    0    0  502    0  0.00000000000E+00  0.00000000000E+00  0.15917100676E+04  0.15917100676E+04  0.00000000000E+00 0. -1.
          1   -1    0    0  501    0 -0.00000000000E+00 -0.00000000000E+00 -0.25013959571E+03  0.25013959571E+03  0.00000000000E+00 0. -1.
         25    2    1    2    0    0  0.20891608873E+02  0.55956305536E+02  0.26362530585E+03  0.29780925167E+03  0.12499792417E+03 0.  0.
          2    1    1    2  501    0  0.45292635021E+02 -0.69204826788E+02 -0.22480797506E+03  0.23953988497E+03  0.00000000000E+00 0. -1.
          1    1    1    2  502    0 -0.66184243894E+02  0.13248521252E+02  0.13027531411E+04  0.13045005267E+04  0.00000000000E+00 0. -1.
         22    1    3    3    0    0 -0.34303219431E+02  0.72413132014E+02  0.16901057868E+03  0.18704263754E+03  0.00000000000E+00 0. -1.
         22    1    3    3    0    0  0.55194828303E+02 -0.16456826478E+02  0.94614727172E+02  0.11076661413E+03  0.00000000000E+00 0. -1.
</event>
<event>
 7    1  0.5622879E-006  0.5405680E+02  0.7818608E-02  0.1538801E+00
          2   -1    0    0  502    0  0.00000000000E+00  0.00000000000E+00  0.18225999378E+04  0.18225999378E+04  0.00000000000E+00 0. -1.
          1   -1    0    0  501    0 -0.00000000000E+00 -0.00000000000E+00 -0.50568582087E+02  0.50568582087E+02  0.00000000000E+00 0. -1.
         25    2    1    2    0    0 -0.20312143690E+02 -0.22946940326E+02  0.91631271562E+03  0.92530702160E+03  0.12499978462E+03 0.  0.
          2    1    1    2  501    0  0.32019440947E+02  0.44065215643E+02 -0.29749190789E+02  0.62064500166E+02  0.00000000000E+00 0. -1.
          1    1    1    2  502    0 -0.11707297257E+02 -0.21118275317E+02  0.88546783085E+03  0.88579699809E+03  0.00000000000E+00 0. -1.
         22    1    3    3    0    0 -0.57509083861E+02 -0.54228437125E+02  0.50819161812E+03  0.51430218631E+03  0.00000000000E+00 0.  1.
         22    1    3    3    0    0  0.37196940171E+02  0.31281496800E+02  0.40812109750E+03  0.41100483528E+03  0.00000000000E+00 0.  1.
</event>
<event>
 7    1  0.6731345E-006  0.8372738E+02  0.7818608E-02  0.1333194E+00
          2   -1    0    0  502    0  0.00000000000E+00  0.00000000000E+00  0.14232270628E+04  0.14232270628E+04  0.00000000000E+00 0. -1.
          1   -1    0    0  501    0 -0.00000000000E+00 -0.00000000000E+00 -0.60681933286E+03  0.60681933286E+03  0.00000000000E+00 0. -1.
         25    2    1    2    0    0  0.67100069341E+01  0.30462197531E+02 -0.28035694402E+03  0.30854015877E+03  0.12499617531E+03 0.  0.
          2    1    1    2  501    0  0.73504527144E+02 -0.54673494006E+01 -0.30674890440E+03  0.31548010677E+03  0.00000000000E+00 0. -1.
          1    1    1    2  502    0 -0.80214534078E+02 -0.24994848131E+02  0.14035135783E+04  0.14060261301E+04  0.00000000000E+00 0. -1.
         22    1    3    3    0    0 -0.40052163004E+02  0.30662556041E+02 -0.41996338406E+02  0.65635817537E+02  0.00000000000E+00 0. -1.
         22    1    3    3    0    0  0.46762169938E+02 -0.20035850999E+00 -0.23836060562E+03  0.24290434124E+03  0.00000000000E+00 0. -1.
</event>
<event>
 7    1  0.5622879E-006  0.5654193E+02  0.7818608E-02  0.1420231E+00
          2   -1    0    0  502    0  0.00000000000E+00  0.00000000000E+00  0.30266611302E+04  0.30266611302E+04  0.00000000000E+00 0. -1.
          1   -1    0    0  501    0 -0.00000000000E+00 -0.00000000000E+00 -0.12108814395E+03  0.12108814395E+03  0.00000000000E+00 0. -1.
         25    2    1    2    0    0  0.24497634922E+02  0.36202200416E+01  0.47521450386E+01  0.12751719756E+03  0.12499925073E+03 0.  0.
          2    1    1    2  501    0  0.28138532850E+01 -0.53371826435E+02 -0.47416897889E+02  0.71448105872E+02  0.00000000000E+00 0. -1.
          1    1    1    2  502    0 -0.27311488207E+02  0.49751606393E+02  0.29482377391E+04  0.29487839707E+04  0.00000000000E+00 0. -1.
         22    1    3    3    0    0  0.58401190212E+01 -0.20558832058E+02  0.60383395357E+02  0.64054094331E+02  0.00000000000E+00 0. -1.
         22    1    3    3    0    0  0.18657515901E+02  0.24179052099E+02 -0.55631250318E+02  0.63463103233E+02  0.00000000000E+00 0. -1.
</event>
<event>
 7    1  0.5622879E-006  0.5593881E+02  0.7818608E-02  0.1455916E+00
          2   -1    0    0  502    0  0.00000000000E+00  0.00000000000E+00  0.13284603009E+04  0.13284603009E+04  0.00000000000E+00 0. -1.
          1   -1    0    0  501    0 -0.00000000000E+00 -0.00000000000E+00 -0.79039001188E+02  0.79039001188E+02  0.00000000000E+00 0. -1.
         25    2    1    2    0    0  0.39732600390E+02  0.82054321775E+02  0.19183798181E+03  0.24645057222E+03  0.12499792810E+03 0.  0.
          2    1    1    2  501    0 -0.10511796974E+02 -0.52804304571E+02 -0.37227523965E+02  0.65457474726E+02  0.00000000000E+00 0. -1.
          1    1    1    2  502    0 -0.29220803416E+02 -0.29250017204E+02  0.10948108418E+04  0.10955912551E+04  0.00000000000E+00 0. -1.
         22    1    3    3    0    0  0.72262024975E+02  0.16753481194E+02  0.58544975515E+02  0.94498643079E+02  0.00000000000E+00 0. -1.
         22    1    3    3    0    0 -0.32529424585E+02  0.65300840581E+02  0.13329300629E+03  0.15195192914E+03  0.00000000000E+00 0. -1.
</event>
<event>
 7    1  0.5622879E-006  0.9678781E+02  0.7818608E-02  0.1389151E+00
          2   -1    0    0  502    0  0.00000000000E+00  0.00000000000E+00  0.27721018842E+03  0.27721018842E+03  0.00000000000E+00 0. -1.
          1   -1    0    0  501    0 -0.00000000000E+00 -0.00000000000E+00 -0.23004920275E+03  0.23004920275E+03  0.00000000000E+00 0. -1.
         25    2    1    2    0    0  0.50264621144E+01 -0.96691361976E+02  0.72916373791E+01  0.15827977461E+03  0.12499933709E+03 0.  0.
          2    1    1    2  501    0 -0.39548558734E+02  0.50342377495E+01 -0.13924268610E+03  0.14483769427E+03  0.00000000000E+00 0. -1.
          1    1    1    2  502    0  0.34522096620E+02  0.91657124227E+02  0.17911203439E+03  0.20414192230E+03  0.00000000000E+00 0. -1.
         22    1    3    3    0    0 -0.25565673776E+02 -0.11786345706E+03  0.97286946478E+01  0.12099605649E+03  0.00000000000E+00 0.  1.
         22    1    3    3    0    0  0.30592135891E+02  0.21172095087E+02 -0.24370572687E+01  0.37283718120E+02  0.00000000000E+00 0.  1.
</event>
<event>
 7    1  0.5622879E-006  0.1723329E+03  0.7818608E-02  0.1361222E+00
          2   -1    0    0  502    0  0.00000000000E+00  0.00000000000E+00  0.32005075523E+03  0.32005075523E+03  0.00000000000E+00 0. -1.
          1   -1    0    0  501    0 -0.00000000000E+00 -0.00000000000E+00 -0.18827185967E+03  0.18827185967E+03  0.00000000000E+00 0. -1.
         25    2    1    2    0    0  0.14469575930E+03  0.97653965087E+02  0.29174061842E+02  0.21667973239E+03  0.12500328351E+03 0.  0.
          2    1    1    2  501    0 -0.15602668329E+03 -0.71868506180E+02 -0.13364712887E+02  0.17230212891E+03  0.00000000000E+00 0. -1.
          1    1    1    2  502    0  0.11330923985E+02 -0.25785458907E+02  0.11596954661E+03  0.11934075360E+03  0.00000000000E+00 0. -1.
         22    1    3    3    0    0  0.89050370532E+02  0.65159535980E+02  0.78594081546E+02  0.13547237089E+03  0.00000000000E+00 0. -1.
         22    1    3    3    0    0  0.55645388769E+02  0.32494429107E+02 -0.49420019704E+02  0.81207361500E+02  0.00000000000E+00 0. -1.
</event>
<event>
 7    1  0.5622879E-006  0.5580369E+02  0.7818608E-02  0.1489046E+00
          2   -1    0    0  502    0  0.00000000000E+00  0.00000000000E+00  0.26116129832E+03  0.26116129832E+03  0.00000000000E+00 0. -1.
          1   -1    0    0  501    0 -0.00000000000E+00 -0.00000000000E+00 -0.46511122135E+03  0.46511122135E+03  0.00000000000E+00 0. -1.
         25    2    1    2    0    0 -0.23397876123E+02 -0.84065681197E+02 -0.21482646125E+03  0.26341122029E+03  0.12498225137E+03 0.  0.
          2    1    1    2  501    0  0.29958969916E+01  0.32578387164E+02 -0.22153733834E+03  0.22393998971E+03  0.00000000000E+00 0. -1.
          1    1    1    2  502    0  0.20401979132E+02  0.51487294033E+02  0.23241387656E+03  0.23892130967E+03  0.00000000000E+00 0. -1.
         22    1    3    3    0    0 -0.26508902170E+01 -0.20735974684E+02 -0.19175182895E+03  0.19288797726E+03  0.00000000000E+00 0.  1.
         22    1    3    3    0    0 -0.20746985906E+02 -0.63329706513E+02 -0.23074632301E+02  0.70523243027E+02  0.00000000000E+00 0.  1.
</event>
<event>
 7    1  0.5622879E-006  0.1481230E+03  0.7818608E-02  0.1233242E+00
          2   -1    0    0  502    0  0.00000000000E+00  0.00000000000E+00  0.16781213363E+04  0.16781213363E+04  0.00000000000E+00 0. -1.
          1   -1    0    0  501    0 -0.00000000000E+00 -0.00000000000E+00 -0.19225817897E+04  0.19225817897E+04  0.00000000000E+00 0. -1.
         25    2    1    2    0    0 -0.40210665088E+02  0.15809693100E+02  0.93066086328E+02  0.16171816033E+03  0.12499849188E+03 0.  0.
          2    1    1    2  501    0  0.14292421168E+03 -0.47465968310E+02 -0.18833839674E+04  0.18893955428E+04  0.00000000000E+00 0. -1.
          1    1    1    2  502    0 -0.10271354659E+03  0.31656275210E+02  0.15458574277E+04  0.15495894228E+04  0.00000000000E+00 0. -1.
         22    1    3    3    0    0  0.34572508371E+02  0.33969882387E+02  0.11980592490E+02  0.49927405709E+02  0.00000000000E+00 0. -1.
         22    1    3    3    0    0 -0.74783173458E+02 -0.18160189287E+02  0.81085493838E+02  0.11179075462E+03  0.00000000000E+00 0. -1.
</event>
<event>
 7    1  0.5622879E-006  0.1154096E+03  0.7818608E-02  0.1342433E+00
          2   -1    0    0  502    0  0.00000000000E+00  0.00000000000E+00  0.10678854914E+04  0.10678854914E+04  0.00000000000E+00 0. -1.
          1   -1    0    0  501    0 -0.00000000000E+00 -0.00000000000E+00 -0.14046512302E+04  0.14046512302E+04  0.00000000000E+00 0. -1.
         25    2    1    2    0    0  0.78355413269E+02  0.11922578636E+03  0.70189592052E+03  0.72707469226E+03  0.12500146383E+03 0.  0.
          2    1    1    2  501    0 -0.29620387117E+02 -0.11147462177E+03 -0.13879351878E+04  0.13927196574E+04  0.00000000000E+00 0. -1.
          1    1    1    2  502    0 -0.48735026151E+02 -0.77511645902E+01  0.34927352848E+03  0.35274237203E+03  0.00000000000E+00 0. -1.
         22    1    3    3    0    0 -0.21303792696E+02 -0.11311433950E+02  0.12252085729E+03  0.12487257742E+03  0.00000000000E+00 0. -1.
         22    1    3    3    0    0  0.99659205964E+02  0.13053722031E+03  0.57937506323E+03  0.60220211483E+03  0.00000000000E+00 0. -1.
</event>
<event>
 7    1  0.5622879E-006  0.5669062E+02  0.7818608E-02  0.1453367E+00
          2   -1    0    0  502    0  0.00000000000E+00  0.00000000000E+00  0.43109553808E+04  0.43109553808E+04  0.00000000000E+00 0. -1.
          1   -1    0    0  501    0 -0.00000000000E+00 -0.00000000000E+00 -0.19268641095E+03  0.19268641095E+03  0.00000000000E+00 0. -1.
         25    2    1    2    0    0  0.39666865000E+02  0.42931274048E+01  0.14967537941E+04  0.15024942260E+04  0.12500035053E+03 0.  0.
          2    1    1    2  501    0 -0.42938360283E+02  0.37142971358E+02 -0.18541359031E+03  0.19391106873E+03  0.00000000000E+00 0. -1.
          1    1    1    2  502    0  0.32714952832E+01 -0.41436098762E+02  0.28069287660E+04  0.28072364971E+04  0.00000000000E+00 0. -1.
         22    1    3    3    0    0 -0.17206366951E+02  0.45178123672E+02  0.95619131466E+03  0.95741263422E+03  0.00000000000E+00 0.  1.
         22    1    3    3    0    0  0.56873231951E+02 -0.40884996268E+02  0.54056247948E+03  0.54508159174E+03  0.00000000000E+00 0.  1.
</event>
<event>
 7    1  0.5622879E-006  0.1624227E+03  0.7818608E-02  0.1356763E+00
          2   -1    0    0  502    0  0.00000000000E+00  0.00000000000E+00  0.10380583967E+03  0.10380583967E+03  0.00000000000E+00 0. -1.
          1   -1    0    0  501    0 -0.00000000000E+00 -0.00000000000E+00 -0.70875501927E+03  0.70875501927E+03  0.00000000000E+00 0. -1.
         25    2    1    2    0    0 -0.97959131717E+02 -0.10130206989E+03 -0.53763373504E+02  0.19588307770E+03  0.12498631504E+03 0.  0.
          2    1    1    2  501    0  0.10075408123E+03  0.13220224559E+03 -0.56022329820E+03  0.58436201320E+03  0.00000000000E+00 0. -1.
          1    1    1    2  502    0 -0.27949495147E+01 -0.30900175694E+02  0.90374921063E+01  0.32315768044E+02  0.00000000000E+00 0. -1.
         22    1    3    3    0    0 -0.36784809644E+02 -0.17298199486E+02  0.39185639614E+02  0.56461174961E+02  0.00000000000E+00 0.  1.
         22    1    3    3    0    0 -0.61174322072E+02 -0.84003870406E+02 -0.92949013118E+02  0.13942190274E+03  0.00000000000E+00 0.  1.
</event>
<event>
 7    1  0.5622879E-006  0.3799888E+02  0.7818608E-02  0.1533634E+00
          2   -1    0    0  502    0  0.00000000000E+00  0.00000000000E+00  0.26530096542E+02  0.26530096542E+02  0.00000000000E+00 0. -1.
          1   -1    0    0  501    0 -0.00000000000E+00 -0.00000000000E+00 -0.11916579454E+04  0.11916579454E+04  0.00000000000E+00 0. -1.
         25    2    1    2    0    0  0.58756007933E+02 -0.10345953066E+02 -0.24351608331E+03  0.28015055538E+03  0.12499977454E+03 0.  0.
          2    1    1    2  501    0 -0.32594367476E+02 -0.14144766381E+02 -0.88861136182E+03  0.88932143770E+03  0.00000000000E+00 0. -1.
          1    1    1    2  502    0 -0.26161640457E+02  0.24490719447E+02 -0.33000403733E+02  0.48716048865E+02  0.00000000000E+00 0. -1.
         22    1    3    3    0    0  0.27213803021E+02  0.23800217745E+02 -0.22843800646E+03  0.23128113679E+03  0.00000000000E+00 0.  1.
         22    1    3    3    0    0  0.31542204912E+02 -0.34146170811E+02 -0.15078076854E+02  0.48869418590E+02  0.00000000000E+00 0.  1.
</event>
<event>
 7    1  0.5622879E-006  0.5831808E+02  0.7818608E-02  0.1494281E+00
          2   -1    0    0  502    0  0.00000000000E+00  0.00000000000E+00  0.22181719621E+04  0.22181719621E+04  0.00000000000E+00 0. -1.
          1   -1    0    0  501    0 -0.00000000000E+00 -0.00000000000E+00 -0.20983061318E+03  0.20983061318E+03  0.00000000000E+00 0. -1.
         25    2    1    2    0    0 -0.63429266444E+02 -0.93409303287E+01  0.10901763123E+03  0.17782848139E+03  0.12501039979E+03 0.  0.
          2    1    1    2  501    0  0.16482483706E+02 -0.25289634405E+02 -0.17371318977E+03  0.17631650569E+03  0.00000000000E+00 0. -1.
          1    1    1    2  502    0  0.46946782738E+02  0.34630564734E+02  0.20730369075E+04  0.20738575882E+04  0.00000000000E+00 0. -1.
         22    1    3    3    0    0 -0.33255515719E+02 -0.51936485425E+02  0.10944748115E+03  0.12562674466E+03  0.00000000000E+00 0. -1.
         22    1    3    3    0    0 -0.30173750725E+02  0.42595555096E+02 -0.42984992518E+00  0.52201736731E+02  0.00000000000E+00 0. -1.
</event>
<event>
 7    1  0.5622879E-006  0.9202913E+02  0.7818608E-02  0.1307476E+00
          2   -1    0    0  502    0  0.00000000000E+00  0.00000000000E+00  0.46272311586E+03  0.46272311586E+03  0.00000000000E+00 0. -1.
          1   -1    0    0  501    0 -0.00000000000E+00 -0.00000000000E+00 -0.15197502144E+03  0.15197502144E+03  0.00000000000E+00 0. -1.
         25    2    1    2    0    0 -0.22551358562E+02  0.58741283864E+02  0.16194348105E+03  0.21403395284E+03  0.12500295882E+03 0.  0.
          2    1    1    2  501    0 -0.80610742272E+02 -0.44398970612E+02 -0.96996035073E+02  0.13370710969E+03  0.00000000000E+00 0. -1.
          1    1    1    2  502    0  0.10316210083E+03 -0.14342313253E+02  0.24580064845E+03  0.26695707478E+03  0.00000000000E+00 0. -1.
         22    1    3    3    0    0 -0.29006866624E+02  0.74079173753E+02  0.17542221285E+03  0.19261898934E+03  0.00000000000E+00 0. -1.
         22    1    3    3    0    0  0.64555080619E+01 -0.15337889889E+02 -0.13478731803E+02  0.21414963497E+02  0.00000000000E+00 0. -1.
</event>
<event>
 7    1  0.5622879E-006  0.7493609E+02  0.7818608E-02  0.1404870E+00
          2   -1    0    0  502    0  0.00000000000E+00  0.00000000000E+00  0.14920644749E+03  0.14920644749E+03  0.00000000000E+00 0. -1.
          1   -1    0    0  501    0 -0.00000000000E+00 -0.00000000000E+00 -0.12953312121E+04  0.12953312121E+04  0.00000000000E+00 0. -1.
         25    2    1    2    0    0  0.37131811083E+02  0.41523325904E+02  0.10041575044E+02  0.13721664520E+03  0.12499846600E+03 0.  0.
          2    1    1    2  501    0 -0.73933035757E+02 -0.14865528698E+02 -0.12236456690E+04  0.12259672919E+04  0.00000000000E+00 0. -1.
          1    1    1    2  502    0  0.36801224675E+02 -0.26657797206E+02  0.67479329252E+02  0.81353722507E+02  0.00000000000E+00 0. -1.
         22    1    3    3    0    0  0.58267802346E+02  0.40703670392E+02 -0.40937811466E+02  0.82023350219E+02  0.00000000000E+00 0.  1.
         22    1    3    3    0    0 -0.21135991263E+02  0.81965551221E+00  0.50979386510E+02  0.55193294980E+02  0.00000000000E+00 0.  1.
</event>
<event>
 7    1  0.5622879E-006  0.1424242E+03  0.7818608E-02  0.1325353E+00
          2   -1    0    0  502    0  0.00000000000E+00  0.00000000000E+00  0.40030194630E+03  0.40030194630E+03  0.00000000000E+00 0. -1.
          1   -1    0    0  501    0 -0.00000000000E+00 -0.00000000000E+00 -0.16128075830E+03  0.16128075830E+03  0.00000000000E+00 0. -1.
         25    2    1    2    0    0 -0.91692171000E+02  0.11696282408E+03  0.22929575123E+03  0.30048305508E+03  0.12500307364E+03 0.  0.
          2    1    1    2  501    0  0.44175538705E+02  0.14287488938E+02 -0.81887897052E+02  0.94134150251E+02  0.00000000000E+00 0. -1.
          1    1    1    2  502    0  0.47516632295E+02 -0.13125031302E+03  0.91613333817E+02  0.16696549927E+03  0.00000000000E+00 0. -1.
         22    1    3    3    0    0 -0.98816872184E+01  0.10784410946E+03  0.10121799739E+03  0.14823320372E+03  0.00000000000E+00 0.  1.
         22    1    3    3    0    0 -0.81810483782E+02  0.91187146204E+01  0.12807775384E+03  0.15224985137E+03  0.00000000000E+00 0.  1.
</event>
<event>
 7    1  0.5622879E-006  0.4246057E+02  0.7818608E-02  0.1491748E+00
          2   -1    0    0  502    0  0.00000000000E+00  0.00000000000E+00  0.22668972827E+04  0.22668972827E+04  0.00000000000E+00 0. -1.
          1   -1    0    0  501    0 -0.00000000000E+00 -0.00000000000E+00 -0.14501955611E+03  0.14501955611E+03  0.00000000000E+00 0. -1.
         25    2    1    2    0    0  0.12171564023E+02  0.12583665455E+02  0.10473450420E+04  0.10549235045E+04  0.12500187053E+03 0.  0.
          2    1    1    2  501    0  0.31876595463E+02 -0.27646794745E+02 -0.13762182701E+03  0.14394523218E+03  0.00000000000E+00 0. -1.
          1    1    1    2  502    0 -0.44048159486E+02  0.15063129290E+02  0.12121545116E+04  0.12130481022E+04  0.00000000000E+00 0. -1.
         22    1    3    3    0    0 -0.15442284133E+02 -0.10838449210E+02  0.22177187066E+02  0.29116382788E+02  0.00000000000E+00 0.  1.
         22    1    3    3    0    0  0.27613848156E+02  0.23422114665E+02  0.10251678549E+04  0.10258071217E+04  0.00000000000E+00 0.  1.
</event>
<event>
 7    1  0.5622879E-006  0.5153472E+02  0.7818608E-02  0.1541821E+00
          2   -1    0    0  502    0  0.00000000000E+00  0.00000000000E+00  0.39571453909E+03  0.39571453909E+03  0.00000000000E+00 0. -1.
          1   -1    0    0  501    0 -0.00000000000E+00 -0.00000000000E+00 -0.85992472333E+03  0.85992472333E+03  0.00000000000E+00 0. -1.
         25    2    1    2    0    0  0.25245666295E+02 -0.33223774985E+02 -0.15334734494E+03  0.20218831354E+03  0.12499417204E+03 0.  0.
          2    1    1    2  501    0 -0.83763548173E+01  0.51450637496E+02 -0.68074400912E+03  0.68273694595E+03  0.00000000000E+00 0. -1.
          1    1    1    2  502    0 -0.16869311478E+02 -0.18226862511E+02  0.36988116981E+03  0.37071400293E+03  0.00000000000E+00 0. -1.
         22    1    3    3    0    0 -0.43635922953E+02 -0.34960880515E+02 -0.37257044485E+02  0.67189614540E+02  0.00000000000E+00 0. -1.
         22    1    3    3    0    0  0.68881589248E+02  0.17371055307E+01 -0.11609030045E+03  0.13499869900E+03  0.00000000000E+00 0. -1.
</event>
<event>
 7    1  0.5622879E-006  0.9917927E+02  0.7818608E-02  0.1311499E+00
          2   -1    0    0  502    0  0.00000000000E+00  0.00000000000E+00  0.33974754301E+04  0.33974754301E+04  0.00000000000E+00 0. -1.
          1   -1    0    0  501    0 -0.00000000000E+00 -0.00000000000E+00 -0.18259347336E+04  0.18259347336E+04  0.00000000000E+00 0. -1.
         25    2    1    2    0    0  0.10000572415E+03  0.12546731663E+03  0.73195858099E+03  0.75969405031E+03  0.12501397275E+03 0.  0.
          2    1    1    2  501    0 -0.19986096483E+02 -0.72786733095E+02 -0.18104149903E+04  0.18119878006E+04  0.00000000000E+00 0. -1.
          1    1    1    2  502    0 -0.80019627667E+02 -0.52680583536E+02  0.26499971058E+04  0.26517283129E+04  0.00000000000E+00 0. -1.
         22    1    3    3    0    0  0.11341528549E+03  0.61258059747E+02  0.58053842425E+03  0.59467675160E+03  0.00000000000E+00 0.  1.
         22    1    3    3    0    0 -0.13409561337E+02  0.64209256884E+02  0.15142015674E+03  0.16501729871E+03  0.00000000000E+00 0.  1.
</event>
<event>
 7    1  0.5622879E-006  0.7772945E+02  0.7818608E-02  0.1442827E+00
          2   -1    0    0  502    0  0.00000000000E+00  0.00000000000E+00  0.16444008221E+04  0.16444008221E+04  0.00000000000E+00 0. -1.
          1   -1    0    0  501    0 -0.00000000000E+00 -0.00000000000E+00 -0.53191217116E+03  0.53191217116E+03  0.00000000000E+00 0. -1.
         25    2    1    2    0    0 -0.25668827661E+01  0.69709609598E+02  0.40970672749E+03  0.43399067193E+03  0.12498912839E+03 0.  0.
          2    1    1    2  501    0  0.35334306955E+02 -0.69345846496E+02 -0.51663537105E+03  0.52246479910E+03  0.00000000000E+00 0. -1.
          1    1    1    2  502    0 -0.32767424189E+02 -0.36376310176E+00  0.12194172945E+04  0.12198575222E+04  0.00000000000E+00 0. -1.
         22    1    3    3    0    0 -0.51779808052E+02  0.23801887385E+02  0.29938749114E+03  0.30476310180E+03  0.00000000000E+00 0. -1.
         22    1    3    3    0    0  0.49212925286E+02  0.45907722213E+02  0.11031923634E+03  0.12922757013E+03  0.00000000000E+00 0. -1.
</event>
<event>
 7    1  0.5622879E-006  0.2664232E+02  0.7818608E-02  0.1655172E+00
          2   -1    0    0  502    0  0.00000000000E+00  0.00000000000E+00  0.15216242139E+04  0.15216242139E+04  0.00000000000E+00 0. -1.
          1   -1    0    0  501    0 -0.00000000000E+00 -0.00000000000E+00 -0.86040893285E+02  0.86040893285E+02  0.00000000000E+00 0. -1.
         25    2    1    2    0    0  0.15798997942E+02 -0.33424894992E+02  0.50254455846E+03  0.51917585506E+03  0.12500281316E+03 0.  0.
          2    1    1    2  501    0 -0.24368649074E+02  0.10754483776E+02 -0.75293304719E+02  0.79865960925E+02  0.00000000000E+00 0. -1.
          1    1    1    2  502    0  0.85696511320E+01  0.22670411216E+02  0.10083320668E+04  0.10086232912E+04  0.00000000000E+00 0. -1.
         22    1    3    3    0    0 -0.49349972062E+02 -0.27270914536E+02  0.32711153306E+03  0.33193535151E+03  0.00000000000E+00 0. -1.
         22    1    3    3    0    0  0.65148970004E+02 -0.61539804567E+01  0.17543302540E+03  0.18724050355E+03  0.00000000000E+00 0. -1.
</event>
<event>
 7    1  0.5622879E-006  0.7776650E+02  0.7818608E-02  0.1490284E+00
          2   -1    0    0  502    0  0.00000000000E+00  0.00000000000E+00  0.91850569918E+03  0.91850569918E+03  0.00000000000E+00 0. -1.
          1   -1    0    0  501    0 -0.00000000000E+00 -0.00000000000E+00 -0.38160476139E+03  0.38160476139E+03  0.00000000000E+00 0. -1.
         25    2    1    2    0    0  0.10509082329E+02  0.88552627537E+02 -0.28770756005E+03  0.32611626650E+03  0.12499668198E+03 0.  0.
          2    1    1    2  501    0  0.17021485190E+02 -0.15873818923E+02 -0.71155349600E+02  0.74865164543E+02  0.00000000000E+00 0. -1.
          1    1    1    2  502    0 -0.27530567520E+02 -0.72678808614E+02  0.89576384744E+03  0.89912902954E+03  0.00000000000E+00 0. -1.
         22    1    3    3    0    0 -0.33765992074E+02  0.71833243395E+01 -0.14166386205E+02  0.37315263197E+02  0.00000000000E+00 0.  1.
         22    1    3    3    0    0  0.44275074403E+02  0.81369303198E+02 -0.27354117385E+03  0.28880100330E+03  0.00000000000E+00 0.  1.
</event>
<event>
 7    1  0.5622879E-006  0.5654040E+02  0.7818608E-02  0.1520466E+00
          2   -1    0    0  502    0  0.00000000000E+00  0.00000000000E+00  0.61144240034E+02  0.61144240034E+02  0.00000000000E+00 0. -1.
          1   -1    0    0  501    0 -0.00000000000E+00 -0.00000000000E+00 -0.89610260647E+03  0.89610260647E+03  0.00000000000E+00 0. -1.
         25    2    1    2    0    0  0.75049450022E+02 -0.31179983553E+02 -0.30981225548E+03  0.34382237822E+03  0.12500233116E+03 0.  0.
          2    1    1    2  501    0 -0.24296737470E+02  0.94105330589E+01 -0.55158309923E+03  0.55219815731E+03  0.00000000000E+00 0. -1.
          1    1    1    2  502    0 -0.50752712552E+02  0.21769450494E+02  0.26436988274E+02  0.61226310971E+02  0.00000000000E+00 0. -1.
         22    1    3    3    0    0 -0.11493848273E+02  0.21823276471E+02 -0.88406566726E+01  0.26201548704E+02  0.00000000000E+00 0. -1.
         22    1    3    3    0    0  0.86543298295E+02 -0.53003260024E+02 -0.30097159881E+03  0.31762082952E+03  0.00000000000E+00 0. -1.
</event>
<event>
 7    1  0.5622879E-006  0.5109225E+02  0.7818608E-02  0.1489495E+00
          2   -1    0    0  502    0  0.00000000000E+00  0.00000000000E+00  0.77135381352E+02  0.77135381352E+02  0.00000000000E+00 0. -1.
          1   -1    0    0  501    0 -0.00000000000E+00 -0.00000000000E+00 -0.56000545480E+03  0.56000545480E+03  0.00000000000E+00 0. -1.
         25    2    1    2    0    0 -0.43431591409E+02 -0.65200528949E+02 -0.41629750092E+03  0.44166118073E+03  0.12499430861E+03 0.  0.
          2    1    1    2  501    0  0.20238194352E+02  0.38164870784E+02 -0.12209561594E+03  0.12951247548E+03  0.00000000000E+00 0. -1.
          1    1    1    2  502    0  0.23193397057E+02  0.27035658165E+02  0.55523043414E+02  0.65967179941E+02  0.00000000000E+00 0. -1.
         22    1    3    3    0    0 -0.48738240851E+02  0.20773282808E+02 -0.92459745163E+02  0.10656336085E+03  0.00000000000E+00 0.  1.
         22    1    3    3    0    0  0.53066494418E+01 -0.85973811757E+02 -0.32383775576E+03  0.33509781988E+03  0.00000000000E+00 0.  1.
</event>
<event>
 7    1  0.5622879E-006  0.4167663E+02  0.7818608E-02  0.1513821E+00
          2   -1    0    0  502    0  0.00000000000E+00  0.00000000000E+00  0.32833112182E+03  0.32833112182E+03  0.00000000000E+00 0. -1.
          1   -1    0    0  501    0 -0.00000000000E+00 -0.00000000000E+00 -0.59780221572E+03  0.59780221572E+03  0.00000000000E+00 0. -1.
         25    2    1    2    0    0 -0.44228968237E+02  0.29405312623E+02  0.18735492429E+03  0.23140278364E+03  0.12499802629E+03 0.  0.
          2    1    1    2  501    0  0.35143798051E+02  0.11445577999E+02 -0.57148198358E+03  0.57267595144E+03  0.00000000000E+00 0. -1.
          1    1    1    2  502    0  0.90851701860E+01 -0.40850890622E+02  0.11465596539E+03  0.12205460246E+03  0.00000000000E+00 0. -1.
         22    1    3    3    0    0  0.36453047921E+02 -0.81813041195E+01  0.21320186055E+02  0.43015215601E+02  0.00000000000E+00 0. -1.
         22    1    3    3    0    0 -0.80682016158E+02  0.37586616742E+02  0.16603473824E+03  0.18838756804E+03  0.00000000000E+00 0. -1.
</event>
<event>
 7    1  0.5622879E-006  0.3091943E+03  0.7818608E-02  0.1166782E+00
          2   -1    0    0  502    0  0.00000000000E+00  0.00000000000E+00  0.35299845278E+03  0.35299845278E+03  0.00000000000E+00 0. -1.
          1   -1    0    0  501    0 -0.00000000000E+00 -0.00000000000E+00 -0.26176192094E+04  0.26176192094E+04  0.00000000000E+00 0. -1.
         25    2    1    2    0    0  0.20418965203E+03  0.10178430918E+03 -0.29270675483E+03  0.39160808134E+03  0.12500474174E+03 0.  0.
          2    1    1    2  501    0 -0.30980886224E+03 -0.11104814690E+03 -0.22538733917E+04  0.22777748984E+04  0.00000000000E+00 0. -1.
          1    1    1    2  502    0  0.10561921020E+03  0.92638377220E+01  0.28195938998E+03  0.30123468235E+03  0.00000000000E+00 0. -1.
         22    1    3    3    0    0  0.18233173455E+03  0.34356673581E+02 -0.23959042454E+03  0.30303269457E+03  0.00000000000E+00 0. -1.
         22    1    3    3    0    0  0.21857917484E+02  0.67427635601E+02 -0.53116330288E+02  0.88575386777E+02  0.00000000000E+00 0. -1.
</event>
<event>
 7    1  0.5622879E-006  0.5258036E+02  0.7818608E-02  0.1513585E+00
          2   -1    0    0  502    0  0.00000000000E+00  0.00000000000E+00  0.29534536550E+02  0.29534536550E+02  0.00000000000E+00 0. -1.
          1   -1    0    0  501    0 -0.00000000000E+00 -0.00000000000E+00 -0.69788418445E+03  0.69788418445E+03  0.00000000000E+00 0. -1.
         25    2    1    2    0    0 -0.71361105115E+02 -0.19134501075E+02 -0.25142498715E+03  0.29034108494E+03  0.12499953993E+03 0.  0.
          2    1    1    2  501    0  0.51012656599E+02 -0.20062644641E+01 -0.39991673522E+03  0.40316214026E+03  0.00000000000E+00 0. -1.
          1    1    1    2  502    0  0.20348448516E+02  0.21140765539E+02 -0.17007925525E+02  0.33915495799E+02  0.00000000000E+00 0. -1.
         22    1    3    3    0    0  0.27852051129E+02 -0.22567525312E+02 -0.26802075599E+02  0.44759146632E+02  0.00000000000E+00 0. -1.
         22    1    3    3    0    0 -0.99213156244E+02  0.34330242363E+01 -0.22462291155E+03  0.24558193830E+03  0.00000000000E+00 0. -1.
</event>
<event>
 7    1  0.5622879E-006  0.5808575E+02  0.7818608E-02  0.1457568E+00
          2   -1    0    0  502    0  0.00000000000E+00  0.00000000000E+00  0.55620659931E+03  0.55620659931E+03  0.00000000000E+00 0. -1.
          1   -1    0    0  501    0 -0.00000000000E+00 -0.00000000000E+00 -0.44942459498E+02  0.44942459498E+02  0.00000000000E+00 0. -1.
         25    2    1    2    0    0 -0.45354782742E+02 -0.81896858048E+02  0.19383954707E+03  0.24891357946E+03  0.12498019186E+03 0.  0.
          2    1    1    2  501    0  0.23780159442E+02  0.31338784547E+02  0.10901064501E+02  0.40822158287E+02  0.00000000000E+00 0. -1.
          1    1    1    2  502    0  0.21574623300E+02  0.50558073502E+02  0.30652352824E+03  0.31141332106E+03  0.00000000000E+00 0. -1.
         22    1    3    3    0    0 -0.83363579537E+02 -0.83221270890E+02  0.15326489802E+03  0.19330130700E+03  0.00000000000E+00 0. -1.
         22    1    3    3    0    0  0.38008796795E+02  0.13244128415E+01  0.40574649048E+02  0.55612272464E+02  0.00000000000E+00 0. -1.
</event>
<event>
 7    1  0.5622879E-006  0.2791917E+03  0.7818608E-02  0.1199450E+00
          2   -1    0    0  502    0  0.00000000000E+00  0.00000000000E+00  0.26389935713E+04  0.26389935713E+04  0.00000000000E+00 0. -1.
          1   -1    0    0  501    0 -0.00000000000E+00 -0.00000000000E+00 -0.76260354667E+03  0.76260354667E+03  0.00000000000E+00 0. -1.
         25    2    1    2    0    0  0.14668171704E+03 -0.25533246507E+03  0.10415581312E+04  0.10895777169E+04  0.12500426705E+03 0.  0.
          2    1    1    2  501    0 -0.80618942520E+02 -0.11882346421E+02 -0.72425251986E+03  0.72882255493E+03  0.00000000000E+00 0. -1.
          1    1    1    2  502    0 -0.66062774520E+02  0.26721481149E+03  0.15590844134E+04  0.15831968461E+04  0.00000000000E+00 0. -1.
         22    1    3    3    0    0 -0.81257166421E+01 -0.21145673835E+02  0.20232923163E+02  0.30373310201E+02  0.00000000000E+00 0. -1.
         22    1    3    3    0    0  0.15480743368E+03 -0.23418679124E+03  0.10213252080E+04  0.10592044067E+04  0.00000000000E+00 0. -1.
</event>
<event>
 7    1  0.5622879E-006  0.1068588E+03  0.7818608E-02  0.1411634E+00
          2   -1    0    0  502    0  0.00000000000E+00  0.00000000000E+00  0.94121604538E+03  0.94121604538E+03  0.00000000000E+00 0. -1.
          1   -1    0    0  501    0 -0.00000000000E+00 -0.00000000000E+00 -0.89011161881E+03  0.89011161881E+03  0.00000000000E+00 0. -1.
         25    2    1    2    0    0 -0.73817076736E+02 -0.37392887132E+02  0.45633249607E+03  0.48032339480E+03  0.12499611111E+03 0.  0.
          2    1    1    2  501    0  0.10294332135E+03  0.29320039348E+02 -0.87436625457E+03  0.88089348916E+03  0.00000000000E+00 0. -1.
          1    1    1    2  502    0 -0.29126244617E+02  0.80728477836E+01  0.46913818508E+03  0.47011078023E+03  0.00000000000E+00 0. -1.
         22    1    3    3    0    0 -0.66673775044E+01 -0.61913113883E+02  0.32387018712E+03  0.32980234338E+03  0.00000000000E+00 0. -1.
         22    1    3    3    0    0 -0.67149699232E+02  0.24520226751E+02  0.13246230895E+03  0.15052105141E+03  0.00000000000E+00 0. -1.
</event>
<event>
 7    1  0.5622879E-006  0.6853500E+02  0.7818608E-02  0.1380085E+00
          2   -1    0    0  502    0  0.00000000000E+00  0.00000000000E+00  0.22447988828E+04  0.22447988828E+04  0.00000000000E+00 0. -1.
          1   -1    0    0  501    0 -0.00000000000E+00 -0.00000000000E+00 -0.50536722739E+03  0.50536722739E+03  0.00000000000E+00 0. -1.
         25    2    1    2    0    0  0.24898122150E+02 -0.10237154884E+03  0.98786741893E+03  0.10013018105E+04  0.12499371081E+03 0.  0.
          2    1    1    2  501    0  0.22538520376E+02  0.64672815942E+02 -0.49555938377E+03  0.50026958819E+03  0.00000000000E+00 0. -1.
          1    1    1    2  502    0 -0.47436642525E+02  0.37698732900E+02  0.12471236202E+04  0.12485947115E+04  0.00000000000E+00 0. -1.
         22    1    3    3    0    0 -0.21537165877E+02  0.83849817551E+01  0.43156993521E+03  0.43218834599E+03  0.00000000000E+00 0.  1.
         22    1    3    3    0    0  0.46435288026E+02 -0.11075653060E+03  0.55629748372E+03  0.56911346446E+03  0.00000000000E+00 0.  1.
</event>
<event>
 7    1  0.5622879E-006  0.8107828E+02  0.7818608E-02  0.1374827E+00
          2   -1    0    0  502    0  0.00000000000E+00  0.00000000000E+00  0.15753845205E+04  0.15753845205E+04  0.00000000000E+00 0. -1.
          1   -1    0    0  501    0 -0.00000000000E+00 -0.00000000000E+00 -0.11134681757E+03  0.11134681757E+03  0.00000000000E+00 0. -1.
         25    2    1    2    0    0 -0.65282001259E+02  0.29054436517E+02  0.11420255101E+03  0.18377447380E+03  0.12499973837E+03 0.  0.
          2    1    1    2  501    0 -0.13477511846E+02 -0.51744835963E+02 -0.65892461230E+02  0.84858634336E+02  0.00000000000E+00 0. -1.
          1    1    1    2  502    0  0.78759513105E+02  0.22690399446E+02  0.14157276132E+04  0.14180982300E+04  0.00000000000E+00 0. -1.
         22    1    3    3    0    0 -0.22707165897E+02 -0.47712149601E+02  0.24422534220E+02  0.58211036585E+02  0.00000000000E+00 0.  1.
         22    1    3    3    0    0 -0.42574835362E+02  0.76766586118E+02  0.89780016788E+02  0.12556343721E+03  0.00000000000E+00 0.  1.
</event>
<event>
 7    1  0.5622879E-006  0.5231817E+02  0.7818608E-02  0.1542637E+00
          2   -1    0    0  502    0  0.00000000000E+00  0.00000000000E+00  0.26793726483E+03  0.26793726483E+03  0.00000000000E+00 0. -1.
          1   -1    0    0  501    0 -0.00000000000E+00 -0.00000000000E+00 -0.49155539130E+03  0.49155539130E+03  0.00000000000E+00 0. -1.
         25    2    1    2    0    0 -0.60392150051E+01 -0.30364547355E+02 -0.76647877951E+02  0.14986405099E+03  0.12500343487E+03 0.  0.
          2    1    1    2  501    0 -0.16997277210E+01  0.53435342581E+02 -0.37576211202E+03  0.37954629459E+03  0.00000000000E+00 0. -1.
          1    1    1    2  502    0  0.77389427261E+01 -0.23070795226E+02  0.22879186350E+03  0.23008231056E+03  0.00000000000E+00 0. -1.
         22    1    3    3    0    0 -0.33080619242E+02 -0.61190086571E+02 -0.83082150015E+02  0.10835680742E+03  0.00000000000E+00 0. -1.
         22    1    3    3    0    0  0.27041404237E+02  0.30825539216E+02  0.64342720641E+01  0.41507243561E+02  0.00000000000E+00 0. -1.
</event>
<event>
 7    1  0.5622879E-006  0.9221096E+02  0.7818608E-02  0.1343792E+00
          2   -1    0    0  502    0  0.00000000000E+00  0.00000000000E+00  0.66202892194E+03  0.66202892194E+03  0.00000000000E+00 0. -1.
          1   -1    0    0  501    0 -0.00000000000E+00 -0.00000000000E+00 -0.40867091392E+03  0.40867091392E+03  0.00000000000E+00 0. -1.
         25    2    1    2    0    0  0.53405378344E+02  0.31882666397E+02  0.22519404355E+03  0.26496473839E+03  0.12500126595E+03 0.  0.
          2    1    1    2  501    0  0.51356611991E+02 -0.32996332002E+02 -0.37972794793E+03  0.38460313826E+03  0.00000000000E+00 0. -1.
          1    1    1    2  502    0 -0.10476199033E+03  0.11136656043E+01  0.40789191240E+03  0.42113195921E+03  0.00000000000E+00 0. -1.
         22    1    3    3    0    0  0.22023608203E+02  0.79357284056E+02  0.12378467468E+03  0.14867838960E+03  0.00000000000E+00 0.  1.
         22    1    3    3    0    0  0.31381770141E+02 -0.47474617659E+02  0.10140936887E+03  0.11628634879E+03  0.00000000000E+00 0.  1.
</event>
<event>
 7    1  0.5622879E-006  0.4403268E+02  0.7818608E-02  0.1530807E+00
          2   -1    0    0  502    0  0.00000000000E+00  0.00000000000E+00  0.55051694792E+03  0.55051694792E+03  0.00000000000E+00 0. -1.
          1   -1    0    0  501    0 -0.00000000000E+00 -0.00000000000E+00 -0.37524177457E+03  0.37524177457E+03  0.00000000000E+00 0. -1.
         25    2    1    2    0    0 -0.30173558404E+02 -0.53721616764E+02  0.11098811946E+03  0.17815569270E+03  0.12499852977E+03 0.  0.
          2    1    1    2  501    0  0.29574342591E+02  0.10058429269E+02 -0.33976509918E+03  0.34119808962E+03  0.00000000000E+00 0. -1.
          1    1    1    2  502    0  0.59921581215E+00  0.43663187495E+02  0.40405215307E+03  0.40640494018E+03  0.00000000000E+00 0. -1.
         22    1    3    3    0    0  0.34609965999E+02 -0.50226183131E+02  0.15884485376E+02  0.63030437838E+02  0.00000000000E+00 0. -1.
         22    1    3    3    0    0 -0.64783524403E+02 -0.34954336333E+01  0.95103634083E+02  0.11512525486E+03  0.00000000000E+00 0. -1.
</event>
<event>
 7    1  0.5622879E-006  0.1025217E+03  0.7818608E-02  0.1359421E+00
          2   -1    0    0  502    0  0.00000000000E+00  0.00000000000E+00  0.13973254657E+03  0.13973254657E+03  0.00000000000E+00 0. -1.
          1   -1    0    0  501    0 -0.00000000000E+00 -0.00000000000E+00 -0.58181808106E+03  0.58181808106E+03  0.00000000000E+00 0. -1.
         25    2    1    2    0    0  0.56844267620E+02 -0.62506393203E+02 -0.60427373182E+02  0.16252254681E+03  0.12499516327E+03 0.  0.
          2    1    1    2  501    0  0.44184763133E+02  0.18920466411E+02 -0.43437152433E+03  0.43702276656E+03  0.00000000000E+00 0. -1.
          1    1    1    2  502    0 -0.10102903075E+03  0.43585926791E+02  0.52713363018E+02  0.12200531427E+03  0.00000000000E+00 0. -1.
         22    1    3    3    0    0  0.93716481212E+02 -0.55738536880E+02 -0.61173300877E+02  0.12502694143E+03  0.00000000000E+00 0.  1.
         22    1    3    3    0    0 -0.36872213593E+02 -0.67678563229E+01  0.74592769502E+00  0.37495605377E+02  0.00000000000E+00 0.  1.
</event>
<event>
 7    1  0.5622879E-006  0.1016727E+03  0.7818608E-02  0.1438181E+00
          2   -1    0    0  502    0  0.00000000000E+00  0.00000000000E+00  0.88006584361E+03  0.88006584361E+03  0.00000000000E+00 0. -1.
          1   -1    0    0  501    0 -0.00000000000E+00 -0.00000000000E+00 -0.48788787636E+02  0.48788787636E+02  0.00000000000E+00 0. -1.
         25    2    1    2    0    0 -0.19062095554E+02  0.88633161148E+02  0.16903887337E+03  0.22894939584E+03  0.12499793759E+03 0.  0.
          2    1    1    2  501    0  0.39854095472E+02 -0.10413811767E+03  0.14945671810E+03  0.18646824680E+03  0.00000000000E+00 0. -1.
          1    1    1    2  502    0 -0.20791999918E+02  0.15504956519E+02  0.51278146450E+03  0.51343698861E+03  0.00000000000E+00 0. -1.
         22    1    3    3    0    0 -0.36461592522E+02  0.67593921916E+02  0.22699891738E+02  0.80085398758E+02  0.00000000000E+00 0. -1.
         22    1    3    3    0    0  0.17399496968E+02  0.21039239232E+02  0.14633898163E+03  0.14886399708E+03  0.00000000000E+00 0. -1.
</event>
<event>
 7    1  0.5622879E-006  0.7692092E+02  0.7818608E-02  0.1459159E+00
          2   -1    0    0  502    0  0.00000000000E+00  0.00000000000E+00  0.29513153295E+03  0.29513153295E+03  0.00000000000E+00 0. -1.
          1   -1    0    0  501    0 -0.00000000000E+00 -0.00000000000E+00 -0.29084112065E+03  0.29084112065E+03  0.00000000000E+00 0. -1.
         25    2    1    2    0    0  0.38312002499E+02  0.60297251327E+02  0.77888633963E+02  0.16369293295E+03  0.12500067578E+03 0.  0.
          2    1    1    2  501    0 -0.23716924213E+02  0.17314627044E+02 -0.23804713767E+03  0.23985147187E+03  0.00000000000E+00 0. -1.
          1    1    1    2  502    0 -0.14595078285E+02 -0.77611878371E+02  0.16444891601E+03  0.18242824877E+03  0.00000000000E+00 0. -1.
         22    1    3    3    0    0 -0.17968427368E+02 -0.28827496364E+02  0.24217905743E+01  0.34055161110E+02  0.00000000000E+00 0.  1.
         22    1    3    3    0    0  0.56280429867E+02  0.89124747690E+02  0.75466843389E+02  0.12963777184E+03  0.00000000000E+00 0.  1.
</event>
<event>
 7    1  0.5622879E-006  0.1814486E+03  0.7818608E-02  0.1186918E+00
          2   -1    0    0  502    0  0.00000000000E+00  0.00000000000E+00  0.84095465828E+03  0.84095465828E+03  0.00000000000E+00 0. -1.
          1   -1    0    0  501    0 -0.00000000000E+00 -0.00000000000E+00 -0.10074871722E+04  0.10074871722E+04  0.00000000000E+00 0. -1.
         25    2    1    2    0    0 -0.48091668693E+02  0.37076161509E+02  0.20460028379E+02  0.14045694428E+03  0.12498835980E+03 0.  0.
          2    1    1    2  501    0  0.95989572068E+02 -0.17276854480E+03 -0.93020495102E+03  0.95097014617E+03  0.00000000000E+00 0. -1.
          1    1    1    2  502    0 -0.47897903375E+02  0.13569238329E+03  0.74321240875E+03  0.75701473999E+03  0.00000000000E+00 0. -1.
         22    1    3    3    0    0 -0.41847740166E+02 -0.31020115945E+02 -0.25567550887E+02  0.58027412562E+02  0.00000000000E+00 0. -1.
         22    1    3    3    0    0 -0.62439285272E+01  0.68096277454E+02  0.46027579266E+02  0.82429531721E+02  0.00000000000E+00 0. -1.
</event>
<event>
 7    1  0.5622879E-006  0.9045803E+02  0.7818608E-02  0.1488814E+00
          2   -1    0    0  502    0  0.00000000000E+00  0.00000000000E+00  0.45803261461E+03  0.45803261461E+03  0.00000000000E+00 0. -1.
          1   -1    0    0  501    0 -0.00000000000E+00 -0.00000000000E+00 -0.90947689426E+02  0.90947689426E+02  0.00000000000E+00 0. -1.
         25    2    1    2    0    0  0.67357699433E+02  0.81638460546E+02  0.27348556285E+03  0.31878110317E+03  0.12500056295E+03 0.  0.
          2    1    1    2  501    0 -0.64158701140E+02 -0.61678005449E+02 -0.38206817483E+02  0.96851825953E+02  0.00000000000E+00 0. -1.
          1    1    1    2  502    0 -0.31989982933E+01 -0.19960455097E+02  0.13180617981E+03  0.13334737491E+03  0.00000000000E+00 0. -1.
         22    1    3    3    0    0 -0.19536593622E+02  0.39483364102E+02  0.17648063162E+03  0.18189565104E+03  0.00000000000E+00 0.  1.
         22    1    3    3    0    0  0.86894293055E+02  0.42155096444E+02  0.97004931232E+02  0.13688545213E+03  0.00000000000E+00 0.  1.
</event>
<event>
 7    1  0.5622879E-006  0.7964047E+02  0.7818608E-02  0.1343235E+00
          2   -1    0    0  502    0  0.00000000000E+00  0.00000000000E+00  0.15031671168E+02  0.15031671168E+02  0.00000000000E+00 0. -1.
          1   -1    0    0  501    0 -0.00000000000E+00 -0.00000000000E+00 -0.30128368049E+04  0.30128368049E+04  0.00000000000E+00 0. -1.
         25    2    1    2    0    0 -0.58511085379E+02 -0.95191176659E+01 -0.89839273360E+03  0.90898241390E+03  0.12500145711E+03 0.  0.
          2    1    1    2  501    0  0.40695805806E+02 -0.68457689073E+02 -0.19289201968E+04  0.19305635782E+04  0.00000000000E+00 0. -1.
          1    1    1    2  502    0  0.17815279573E+02  0.77976806739E+02 -0.17049220334E+03  0.18832248399E+03  0.00000000000E+00 0. -1.
         22    1    3    3    0    0 -0.55855908489E+02 -0.62652919261E+02 -0.48965412814E+03  0.49679617149E+03  0.00000000000E+00 0. -1.
         22    1    3    3    0    0 -0.26551768899E+01  0.53133801596E+02 -0.40873860546E+03  0.41218624240E+03  0.00000000000E+00 0. -1.
</event>
<event>
 7    1  0.5622879E-006  0.9898037E+02  0.7818608E-02  0.1342831E+00
          2   -1    0    0  502    0  0.00000000000E+00  0.00000000000E+00  0.13984069185E+03  0.13984069185E+03  0.00000000000E+00 0. -1.
          1   -1    0    0  501    0 -0.00000000000E+00 -0.00000000000E+00 -0.96052647231E+03  0.96052647231E+03  0.00000000000E+00 0. -1.
         25    2    1    2    0    0 -0.95414764138E+02 -0.11548431533E+03 -0.14740724447E+03  0.24452780824E+03  0.12499739588E+03 0.  0.
          2    1    1    2  501    0  0.32559001531E+02  0.47200665883E+02 -0.73956802841E+03  0.74178761117E+03  0.00000000000E+00 0. -1.
          1    1    1    2  502    0  0.62855762606E+02  0.68283649451E+02  0.66289492414E+02  0.11405174475E+03  0.00000000000E+00 0. -1.
         22    1    3    3    0    0 -0.10930187589E+03 -0.98949973141E+02 -0.68232090402E+02  0.16246111971E+03  0.00000000000E+00 0. -1.
         22    1    3    3    0    0  0.13887111751E+02 -0.16534342193E+02 -0.79175154065E+02  0.82066688527E+02  0.00000000000E+00 0. -1.
</event>
<event>
 7    1  0.5622879E-006  0.8895956E+02  0.7818608E-02  0.1314653E+00
          2   -1    0    0  502    0  0.00000000000E+00  0.00000000000E+00  0.96254044622E+03  0.96254044622E+03  0.00000000000E+00 0. -1.
          1   -1    0    0  501    0 -0.00000000000E+00 -0.00000000000E+00 -0.12556167557E+04  0.12556167557E+04  0.00000000000E+00 0. -1.
         25    2    1    2    0    0 -0.17819355819E+02 -0.27314410110E+02  0.47004648242E+02  0.13746929832E+03  0.12499905832E+03 0.  0.
          2    1    1    2  501    0  0.89525298245E+02 -0.12025133563E+02 -0.12067711697E+04  0.12101471145E+04  0.00000000000E+00 0. -1.
          1    1    1    2  502    0 -0.71705942426E+02  0.39339543673E+02  0.86669021197E+03  0.87054078905E+03  0.00000000000E+00 0. -1.
         22    1    3    3    0    0 -0.19655095120E+02 -0.18059997724E+01  0.87431794087E+02  0.89632042354E+02  0.00000000000E+00 0.  1.
         22    1    3    3    0    0  0.18357393006E+01 -0.25508410338E+02 -0.40427145845E+02  0.47837255961E+02  0.00000000000E+00 0.  1.
</event>
<event>
 7    1  0.5622879E-006  0.3051978E+02  0.7818608E-02  0.1607477E+00
          2   -1    0    0  502    0  0.00000000000E+00  0.00000000000E+00  0.11974785034E+04  0.11974785034E+04  0.00000000000E+00 0. -1.
          1   -1    0    0  501    0 -0.00000000000E+00 -0.00000000000E+00 -0.18636223896E+03  0.18636223896E+03  0.00000000000E+00 0. -1.
         25    2    1    2    0    0  0.71889783049E+00  0.22234954835E+02  0.20671444677E+03  0.24259138227E+03  0.12499922487E+03 0.  0.
          2    1    1    2  501    0 -0.27314894792E+02 -0.13887470780E+02 -0.16682839028E+03  0.16961921214E+03  0.00000000000E+00 0. -1.
          1    1    1    2  502    0  0.26595996961E+02 -0.83474840552E+01  0.97123020798E+03  0.97163014797E+03  0.00000000000E+00 0. -1.
         22    1    3    3    0    0 -0.46930230237E+02  0.42736701590E+02  0.61460678463E+02  0.88353195585E+02  0.00000000000E+00 0.  1.
         22    1    3    3    0    0  0.47649128068E+02 -0.20501746755E+02  0.14525376830E+03  0.15423818669E+03  0.00000000000E+00 0.  1.
</event>
<event>
 7    1  0.5622879E-006  0.1297068E+03  0.7818608E-02  0.1277167E+00
          2   -1    0    0  502    0  0.00000000000E+00  0.00000000000E+00  0.15634414313E+04  0.15634414313E+04  0.00000000000E+00 0. -1.
          1   -1    0    0  501    0 -0.00000000000E+00 -0.00000000000E+00 -0.15212712350E+03  0.15212712350E+03  0.00000000000E+00 0. -1.
         25    2    1    2    0    0  0.55574853471E+02  0.18562323093E+02  0.39777620720E+03  0.42104062087E+03  0.12496467193E+03 0.  0.
          2    1    1    2  501    0 -0.13485883957E+03 -0.13719183395E+02 -0.10605991740E+03  0.17211574211E+03  0.00000000000E+00 0. -1.
          1    1    1    2  502    0  0.79283986103E+02 -0.48431396987E+01  0.11195980180E+04  0.11224121919E+04  0.00000000000E+00 0. -1.
         22    1    3    3    0    0  0.64905169106E+02  0.19301787247E+02  0.87586252354E+02  0.11070949178E+03  0.00000000000E+00 0.  1.
         22    1    3    3    0    0 -0.93303156354E+01 -0.73946415384E+00  0.31018995485E+03  0.31033112909E+03  0.00000000000E+00 0.  1.
</event>
<event>
 7    1  0.5622879E-006  0.5071100E+02  0.7818608E-02  0.1513880E+00
          2   -1    0    0  502    0  0.00000000000E+00  0.00000000000E+00  0.96110117605E+03  0.96110117605E+03  0.00000000000E+00 0. -1.
          1   -1    0    0  501    0 -0.00000000000E+00 -0.00000000000E+00 -0.15626373528E+04  0.15626373528E+04  0.00000000000E+00 0. -1.
         25    2    1    2    0    0  0.24526476942E+02 -0.35631573994E+02 -0.13573410093E+04  0.13637681087E+04  0.12497072311E+03 0.  0.
          2    1    1    2  501    0 -0.54887617399E+02  0.36033225280E+02 -0.19650116360E+03  0.20718047969E+03  0.00000000000E+00 0. -1.
          1    1    1    2  502    0  0.30361140457E+02 -0.40165128523E+00  0.95230599620E+03  0.95278994042E+03  0.00000000000E+00 0. -1.
         22    1    3    3    0    0  0.66407483231E+02  0.12736714864E+02 -0.62990549434E+03  0.63352435592E+03  0.00000000000E+00 0. -1.
         22    1    3    3    0    0 -0.41881006289E+02 -0.48368288858E+02 -0.72743551499E+03  0.73024375282E+03  0.00000000000E+00 0. -1.
</event>
<event>
 7    1  0.5622879E-006  0.1752986E+03  0.7818608E-02  0.1242534E+00
          2   -1    0    0  502    0  0.00000000000E+00  0.00000000000E+00  0.31206617097E+03  0.31206617097E+03  0.00000000000E+00 0. -1.
          1   -1    0    0  501    0 -0.00000000000E+00 -0.00000000000E+00 -0.92544798307E+03  0.92544798307E+03  0.00000000000E+00 0. -1.
         25    2    1    2    0    0 -0.14622347114E+03 -0.12764478836E+03 -0.15600184941E+03  0.27863341319E+03  0.12500202565E+03 0.  0.
          2    1    1    2  501    0  0.16800611497E+03  0.47953854929E+02 -0.69013062134E+03  0.71190301402E+03  0.00000000000E+00 0. -1.
          1    1    1    2  502    0 -0.21782643831E+02  0.79690933432E+02  0.23275065866E+03  0.24697772683E+03  0.00000000000E+00 0. -1.
         22    1    3    3    0    0 -0.14262728058E+03 -0.13172434170E+03 -0.92781479361E+02  0.21517956751E+03  0.00000000000E+00 0. -1.
         22    1    3    3    0    0 -0.35961905567E+01  0.40795533356E+01 -0.63220370052E+02  0.63453845679E+02  0.00000000000E+00 0. -1.
</event>
<event>
 7    1  0.5622879E-006  0.5440374E+02  0.7818608E-02  0.1472187E+00
          2   -1    0    0  502    0  0.00000000000E+00  0.00000000000E+00  0.56271252780E+03  0.56271252780E+03  0.00000000000E+00 0. -1.
          1   -1    0    0  501    0 -0.00000000000E+00 -0.00000000000E+00 -0.45687298941E+02  0.45687298941E+02  0.00000000000E+00 0. -1.
         25    2    1    2    0    0 -0.23414667909E+02 -0.33141731943E+02  0.29041293959E+03  0.31876675878E+03  0.12500379975E+03 0.  0.
          2    1    1    2  501    0  0.26755205601E+02 -0.26699042715E+02 -0.15024424626E+02  0.40674479025E+02  0.00000000000E+00 0. -1.
          1    1    1    2  502    0 -0.33405376916E+01  0.59840774658E+02  0.24163671390E+03  0.24895858894E+03  0.00000000000E+00 0. -1.
         22    1    3    3    0    0  0.50845215042E+00 -0.63154937247E+02  0.66976860193E+02  0.92058157833E+02  0.00000000000E+00 0.  1.
         22    1    3    3    0    0 -0.23923120060E+02  0.30013205304E+02  0.22343607940E+03  0.22670860095E+03  0.00000000000E+00 0.  1.
</event>
<event>
 7    1  0.5622879E-006  0.9329606E+02  0.7818608E-02  0.1433436E+00
          2   -1    0    0  502    0  0.00000000000E+00  0.00000000000E+00  0.10061968965E+04  0.10061968965E+04  0.00000000000E+00 0. -1.
          1   -1    0    0  501    0 -0.00000000000E+00 -0.00000000000E+00 -0.43256342319E+03  0.43256342319E+03  0.00000000000E+00 0. -1.
         25    2    1    2    0    0 -0.49342012817E+02  0.11002709720E+03 -0.64630714251E+02  0.18531715775E+03  0.12499889353E+03 0.  0.
          2    1    1    2  501    0  0.18947639281E+02 -0.22338439322E+02 -0.30460867142E+03  0.30601382585E+03  0.00000000000E+00 0. -1.
          1    1    1    2  502    0  0.30394373537E+02 -0.87688657878E+02  0.94287285896E+03  0.94742933606E+03  0.00000000000E+00 0. -1.
         22    1    3    3    0    0 -0.42027815556E+02  0.11649334237E+03 -0.93284908342E+02  0.15504551016E+03  0.00000000000E+00 0. -1.
         22    1    3    3    0    0 -0.73141972610E+01 -0.64662451734E+01  0.28654194092E+02  0.30271647581E+02  0.00000000000E+00 0. -1.
</event>
<event>
 7    1  0.5622879E-006  0.1160625E+03  0.7818608E-02  0.1416265E+00
          2   -1    0    0  502    0  0.00000000000E+00  0.00000000000E+00  0.22642860858E+03  0.22642860858E+03  0.00000000000E+00 0. -1.
          1   -1    0    0  501    0 -0.00000000000E+00 -0.00000000000E+00 -0.10641534112E+04  0.10641534112E+04  0.00000000000E+00 0. -1.
         25    2    1    2    0    0  0.11062610882E+03  0.38057895072E+02 -0.18087647381E+03  0.24905181296E+03  0.12499586966E+03 0.  0.
          2    1    1    2  501    0 -0.98397539828E+02 -0.61956569249E+02 -0.84424776244E+03  0.85221768152E+03  0.00000000000E+00 0. -1.
          1    1    1    2  502    0 -0.12228568996E+02  0.23898674177E+02  0.18739943361E+03  0.18931252532E+03  0.00000000000E+00 0. -1.
         22    1    3    3    0    0  0.78898558259E+02 -0.38893990266E+02 -0.93646056785E+02  0.12848077259E+03  0.00000000000E+00 0. -1.
         22    1    3    3    0    0  0.31727550565E+02  0.76951885338E+02 -0.87230417027E+02  0.12057104037E+03  0.00000000000E+00 0. -1.
</event>
<event>
 7    1  0.5622879E-006  0.5681804E+02  0.7818608E-02  0.1556503E+00
          2   -1    0    0  502    0  0.00000000000E+00  0.00000000000E+00  0.62400881974E+03  0.62400881974E+03  0.00000000000E+00 0. -1.
          1   -1    0    0  501    0 -0.00000000000E+00 -0.00000000000E+00 -0.29816167178E+03  0.29816167178E+03  0.00000000000E+00 0. -1.
         25    2    1    2    0    0 -0.11768360810E+02  0.36389161785E+02 -0.20991225764E+03  0.24728546874E+03  0.12499712689E+03 0.  0.
          2    1    1    2  501    0  0.42736778048E+01  0.20046074999E+02 -0.66681287373E+02  0.69760329203E+02  0.00000000000E+00 0. -1.
          1    1    1    2  502    0  0.74946830049E+01 -0.56435236784E+02  0.60244069297E+03  0.60512469357E+03  0.00000000000E+00 0. -1.
         22    1    3    3    0    0  0.11599594037E+02  0.78710664742E+02 -0.10471165236E+03  0.13150836273E+03  0.00000000000E+00 0.  1.
         22    1    3    3    0    0 -0.23367954846E+02 -0.42321502957E+02 -0.10520060527E+03  0.11577710601E+03  0.00000000000E+00 0.  1.
</event>
<event>
 7    1  0.5622879E-006  0.1002747E+03  0.7818608E-02  0.1352465E+00
          2   -1    0    0  502    0  0.00000000000E+00  0.00000000000E+00  0.84485990368E+02  0.84485990368E+02  0.00000000000E+00 0. -1.
          1   -1    0    0  501    0 -0.00000000000E+00 -0.00000000000E+00 -0.21967410482E+04  0.21967410482E+04  0.00000000000E+00 0. -1.
         25    2    1    2    0    0  0.13533418841E+03 -0.18896367747E+01 -0.14059604754E+03  0.23175439847E+03  0.12499575731E+03 0.  0.
          2    1    1    2  501    0 -0.47426785926E+02 -0.21613304622E+02 -0.19565352624E+04  0.19572293346E+04  0.00000000000E+00 0. -1.
          1    1    1    2  502    0 -0.87907402486E+02  0.23502941397E+02 -0.15123747864E+02  0.92243305533E+02  0.00000000000E+00 0. -1.
         22    1    3    3    0    0  0.87842525168E+02 -0.38207707503E+02 -0.14276952798E+03  0.17192811364E+03  0.00000000000E+00 0.  1.
         22    1    3    3    0    0  0.47491663244E+02  0.36318070728E+02  0.21734804418E+01  0.59826284828E+02  0.00000000000E+00 0.  1.
</event>
<event>
 7    1  0.5622879E-006  0.7985623E+02  0.7818608E-02  0.1499006E+00
          2   -1    0    0  502    0  0.00000000000E+00  0.00000000000E+00  0.43784687344E+03  0.43784687344E+03  0.00000000000E+00 0. -1.
          1   -1    0    0  501    0 -0.00000000000E+00 -0.00000000000E+00 -0.26237628631E+03  0.26237628631E+03  0.00000000000E+00 0. -1.
         25    2    1    2    0    0 -0.72769837087E+02  0.47248029986E+02  0.19530646612E+03  0.24757989617E+03  0.12499345483E+03 0.  0.
          2    1    1    2  501    0  0.75339353462E+02 -0.26065640104E+02 -0.22895556265E+03  0.24243779706E+03  0.00000000000E+00 0. -1.
          1    1    1    2  502    0 -0.25695163752E+01 -0.21182389881E+02  0.20911968367E+03  0.21020546651E+03  0.00000000000E+00 0. -1.
         22    1    3    3    0    0 -0.10483370974E+03  0.14597609414E+02  0.12643036065E+03  0.16488733424E+03  0.00000000000E+00 0.  1.
         22    1    3    3    0    0  0.32063872657E+02  0.32650420572E+02  0.68876105471E+02  0.82692561927E+02  0.00000000000E+00 0.  1.
</event>
<event>
 7    1  0.5622879E-006  0.6682204E+02  0.7818608E-02  0.1446835E+00
          2   -1    0    0  502    0  0.00000000000E+00  0.00000000000E+00  0.52566618557E+03  0.52566618557E+03  0.00000000000E+00 0. -1.
          1   -1    0    0  501    0 -0.00000000000E+00 -0.00000000000E+00 -0.14053913698E+03  0.14053913698E+03  0.00000000000E+00 0. -1.
         25    2    1    2    0    0  0.93033636067E+02 -0.31596754853E+02  0.91374482209E+02  0.18338000273E+03  0.12500126817E+03 0.  0.
          2    1    1    2  501    0 -0.56032939966E+02  0.31768878420E+02 -0.82550835686E+02  0.10470717487E+03  0.00000000000E+00 0. -1.
          1    1    1    2  502    0 -0.37000696101E+02 -0.17212356726E+00  0.37630340207E+03  0.37811814496E+03  0.00000000000E+00 0. -1.
         22    1    3    3    0    0  0.74782641273E+02  0.17632159293E+02  0.10407396144E+03  0.12936276870E+03  0.00000000000E+00 0.  1.
         22    1    3    3    0    0  0.18250994794E+02 -0.49228914146E+02 -0.12699479230E+02  0.54017234025E+02  0.00000000000E+00 0.  1.
</event>
<event>
 7    1  0.5622879E-006  0.6206430E+02  0.7818608E-02  0.1451064E+00
          2   -1    0    0  502    0  0.00000000000E+00  0.00000000000E+00  0.91073570666E+03  0.91073570666E+03  0.00000000000E+00 0. -1.
          1   -1    0    0  501    0 -0.00000000000E+00 -0.00000000000E+00 -0.29961165157E+03  0.29961165157E+03  0.00000000000E+00 0. -1.
         25    2    1    2    0    0 -0.40182259358E+02  0.16042439764E+02  0.15074899069E+03  0.20055995729E+03  0.12500825746E+03 0.  0.
          2    1    1    2  501    0 -0.21281329789E+02 -0.32219930447E+02 -0.27196603796E+03  0.27469354692E+03  0.00000000000E+00 0. -1.
          1    1    1    2  502    0  0.61463589147E+02  0.16177490683E+02  0.73234110237E+03  0.73509385401E+03  0.00000000000E+00 0. -1.
         22    1    3    3    0    0 -0.61115923536E+02  0.47074034166E+02  0.14278183101E+03  0.16228916189E+03  0.00000000000E+00 0.  1.
         22    1    3    3    0    0  0.20933664178E+02 -0.31031594402E+02  0.79671596863E+01  0.38270795399E+02  0.00000000000E+00 0.  1.
</event>
<event>
 7    1  0.5622879E-006  0.1651631E+03  0.7818608E-02  0.1229542E+00
          2   -1    0    0  502    0  0.00000000000E+00  0.00000000000E+00  0.34860779317E+04  0.34860779317E+04  0.00000000000E+00 0. -1.
          1   -1    0    0  501    0 -0.00000000000E+00 -0.00000000000E+00 -0.13914543630E+03  0.13914543630E+03  0.00000000000E+00 0. -1.
         25    2    1    2    0    0  0.20116635803E+03  0.44580852411E+02  0.21439579506E+03  0.32255913916E+03  0.12499394111E+03 0.  0.
          2    1    1    2  501    0 -0.12033785488E+03 -0.10369300551E+03 -0.94037191549E+01  0.15912846585E+03  0.00000000000E+00 0. -1.
          1    1    1    2  502    0 -0.80828503151E+02  0.59112153097E+02  0.31419404194E+04  0.31435357629E+04  0.00000000000E+00 0. -1.
         22    1    3    3    0    0 -0.10147923236E+01 -0.15450940658E+02 -0.68171686305E+01  0.16918485712E+02  0.00000000000E+00 0.  1.
         22    1    3    3    0    0  0.20218115036E+03  0.60031793069E+02  0.22121296369E+03  0.30564065345E+03  0.00000000000E+00 0.  1.
</event>
<event>
 7    1  0.5622879E-006  0.6221471E+02  0.7818608E-02  0.1524011E+00
          2   -1    0    0  502    0  0.00000000000E+00  0.00000000000E+00  0.76469347583E+03  0.76469347583E+03  0.00000000000E+00 0. -1.
          1   -1    0    0  501    0 -0.00000000000E+00 -0.00000000000E+00 -0.14351638853E+03  0.14351638853E+03  0.00000000000E+00 0. -1.
         25    2    1    2    0    0 -0.41672032367E+02 -0.36756508820E+02  0.38003567746E+02  0.14197688506E+03  0.12500226201E+03 0.  0.
          2    1    1    2  501    0  0.13282853456E+02 -0.18931009884E+02 -0.88594544481E+02  0.91563151119E+02  0.00000000000E+00 0. -1.
          1    1    1    2  502    0  0.28389178910E+02  0.55687518704E+02  0.67176806403E+03  0.67466982819E+03  0.00000000000E+00 0. -1.
         22    1    3    3    0    0 -0.69746779891E+02  0.11096689191E+02 -0.64021896784E+01  0.70913594245E+02  0.00000000000E+00 0.  1.
         22    1    3    3    0    0  0.28074747524E+02 -0.47853198011E+02  0.44405757425E+02  0.71063290810E+02  0.00000000000E+00 0.  1.
</event>
<event>
 7    1  0.5622879E-006  0.4944099E+02  0.7818608E-02  0.1495226E+00
          2   -1    0    0  502    0  0.00000000000E+00  0.00000000000E+00  0.31493309881E+03  0.31493309881E+03  0.00000000000E+00 0. -1.
          1   -1    0    0  501    0 -0.00000000000E+00 -0.00000000000E+00 -0.83641840549E+03  0.83641840549E+03  0.00000000000E+00 0. -1.
         25    2    1    2    0    0 -0.91285047597E+01  0.49769089636E+02 -0.14816499665E+03  0.20034690054E+03  0.12500288974E+03 0.  0.
          2    1    1    2  501    0  0.34624248547E+02 -0.72475651986E+01 -0.65955742287E+03  0.66050538215E+03  0.00000000000E+00 0. -1.
          1    1    1    2  502    0 -0.25495743788E+02 -0.42521524438E+02  0.28623711283E+03  0.29049922161E+03  0.00000000000E+00 0. -1.
         22    1    3    3    0    0 -0.64192539526E+02  0.18298911598E+02 -0.10200870884E+03  0.12190696853E+03  0.00000000000E+00 0. -1.
         22    1    3    3    0    0  0.55064034766E+02  0.31470178038E+02 -0.46156287812E+02  0.78439932019E+02  0.00000000000E+00 0. -1.
</event>
<event>
 7    1  0.5622879E-006  0.8721985E+02  0.7818608E-02  0.1426681E+00
          2   -1    0    0  502    0  0.00000000000E+00  0.00000000000E+00  0.15096383495E+04  0.15096383495E+04  0.00000000000E+00 0. -1.
          1   -1    0    0  501    0 -0.00000000000E+00 -0.00000000000E+00 -0.23216435517E+02  0.23216435517E+02  0.00000000000E+00 0. -1.
         25    2    1    2    0    0 -0.57749618886E+02  0.70339867114E+02  0.99244325654E+03  0.10044163192E+04  0.12500323749E+03 0.  0.
          2    1    1    2  501    0  0.76133591122E+02 -0.42960598301E+02  0.98944491187E+02  0.13203010657E+03  0.00000000000E+00 0. -1.
          1    1    1    2  502    0 -0.18383972236E+02 -0.27379268814E+02  0.39503416628E+03  0.39640835931E+03  0.00000000000E+00 0. -1.
         22    1    3    3    0    0  0.24444218524E+02  0.27462558735E+02  0.89942601920E+02  0.97166782347E+02  0.00000000000E+00 0.  1.
         22    1    3    3    0    0 -0.82193837410E+02  0.42877308379E+02  0.90250065462E+03  0.90724953683E+03  0.00000000000E+00 0.  1.
</event>
<event>
 7    1  0.5622879E-006  0.1088557E+03  0.7818608E-02  0.1332121E+00
          2   -1    0    0  502    0  0.00000000000E+00  0.00000000000E+00  0.28586738205E+04  0.28586738205E+04  0.00000000000E+00 0. -1.
          1   -1    0    0  501    0 -0.00000000000E+00 -0.00000000000E+00 -0.42298331907E+02  0.42298331907E+02  0.00000000000E+00 0. -1.
         25    2    1    2    0    0  0.12010954739E+03  0.10765769593E+03  0.51480206221E+03  0.55377100886E+03  0.12499873653E+03 0.  0.
          2    1    1    2  501    0 -0.49005652092E+02 -0.29555991500E+02  0.16322590576E+02  0.59510818627E+02  0.00000000000E+00 0. -1.
          1    1    1    2  502    0 -0.71103895300E+02 -0.78101704430E+02  0.22852508358E+04  0.22876903249E+04  0.00000000000E+00 0. -1.
         22    1    3    3    0    0 -0.55441396114E+01  0.72760075567E+02  0.16350270916E+03  0.17904720602E+03  0.00000000000E+00 0.  1.
         22    1    3    3    0    0  0.12565368700E+03  0.34897620363E+02  0.35129935304E+03  0.37472380284E+03  0.00000000000E+00 0.  1.
</event>
<event>
 7    1  0.5622879E-006  0.6029245E+02  0.7818608E-02  0.1474417E+00
          2   -1    0    0  502    0  0.00000000000E+00  0.00000000000E+00  0.68870026867E+03  0.68870026867E+03  0.00000000000E+00 0. -1.
          1   -1    0    0  501    0 -0.00000000000E+00 -0.00000000000E+00 -0.72905548581E+02  0.72905548581E+02  0.00000000000E+00 0. -1.
         25    2    1    2    0    0 -0.86578615724E+02 -0.82226261666E+01  0.44018589402E+03  0.46577814462E+03  0.12498876122E+03 0.  0.
          2    1    1    2  501    0  0.32789069607E+02  0.71911603692E+01 -0.52029380783E+02  0.61918432941E+02  0.00000000000E+00 0. -1.
          1    1    1    2  502    0  0.53789546117E+02  0.10314657973E+01  0.22763820684E+03  0.23390923968E+03  0.00000000000E+00 0. -1.
         22    1    3    3    0    0 -0.10836568375E+03 -0.32941662604E+02  0.27631316763E+03  0.29862558691E+03  0.00000000000E+00 0.  1.
         22    1    3    3    0    0  0.21787068027E+02  0.24719036438E+02  0.16387272639E+03  0.16715255772E+03  0.00000000000E+00 0.  1.
</event>
<event>
 7    1  0.5622879E-006  0.1452461E+03  0.7818608E-02  0.1237510E+00
          2   -1    0    0  502    0  0.00000000000E+00  0.00000000000E+00  0.66355013016E+03  0.66355013016E+03  0.00000000000E+00 0. -1.
          1   -1    0    0  501    0 -0.00000000000E+00 -0.00000000000E+00 -0.18544918025E+04  0.18544918025E+04  0.00000000000E+00 0. -1.
         25    2    1    2    0    0  0.12207377198E+03 -0.94740640860E+01  0.23041393748E+02  0.17648771805E+03  0.12500098040E+03 0.  0.
          2    1    1    2  501    0 -0.32353842439E+01  0.10487645175E+03 -0.17658845252E+04  0.17689990657E+04  0.00000000000E+00 0. -1.
          1    1    1    2  502    0 -0.11883838773E+03 -0.95402387661E+02  0.55190145915E+03  0.57255514894E+03  0.00000000000E+00 0. -1.
         22    1    3    3    0    0  0.80001963930E+02  0.55003986450E+02  0.21720843095E+02  0.99486420092E+02  0.00000000000E+00 0.  1.
         22    1    3    3    0    0  0.42071808045E+02 -0.64478050536E+02  0.13205506530E+01  0.77001297958E+02  0.00000000000E+00 0.  1.
</event>
<event>
 7    1  0.5622879E-006  0.1560199E+03  0.7818608E-02  0.1228784E+00
          2   -1    0    0  502    0  0.00000000000E+00  0.00000000000E+00  0.86991091826E+03  0.86991091826E+03  0.00000000000E+00 0. -1.
          1   -1    0    0  501    0 -0.00000000000E+00 -0.00000000000E+00 -0.20358322950E+04  0.20358322950E+04  0.00000000000E+00 0. -1.
         25    2    1    2    0    0  0.65068287706E+02  0.23883683243E+02  0.16932395175E+02  0.14393132122E+03  0.12500082733E+03 0.  0.
          2    1    1    2  501    0 -0.15696008231E+03  0.30620577908E+02 -0.19654556538E+04  0.19719508144E+04  0.00000000000E+00 0. -1.
          1    1    1    2  502    0  0.91891794605E+02 -0.54504261150E+02  0.78260188192E+03  0.78986107764E+03  0.00000000000E+00 0. -1.
         22    1    3    3    0    0  0.36897350106E+02  0.49088736406E+01  0.70950809801E+02  0.80121962636E+02  0.00000000000E+00 0.  1.
         22    1    3    3    0    0  0.28170937600E+02  0.18974809602E+02 -0.54018414626E+02  0.63809358588E+02  0.00000000000E+00 0.  1.
</event>
<event>
 7    1  0.5622879E-006  0.1428765E+03  0.7818608E-02  0.1294513E+00
          2   -1    0    0  502    0  0.00000000000E+00  0.00000000000E+00  0.35942215630E+03  0.35942215630E+03  0.00000000000E+00 0. -1.
          1   -1    0    0  501    0 -0.00000000000E+00 -0.00000000000E+00 -0.16138208547E+04  0.16138208547E+04  0.00000000000E+00 0. -1.
         25    2    1    2    0    0 -0.42909973633E+02  0.77656600996E+02 -0.65689277362E+03  0.67454179099E+03  0.12500679281E+03 0.  0.
          2    1    1    2  501    0  0.39190413549E+01  0.61106266592E+02 -0.93224233789E+03  0.93425109647E+03  0.00000000000E+00 0. -1.
          1    1    1    2  502    0  0.38990932278E+02 -0.13876286759E+03  0.33473641315E+03  0.36445012349E+03  0.00000000000E+00 0. -1.
         22    1    3    3    0    0  0.13833565778E+02  0.27977866748E+02 -0.30547544224E+02  0.43672428694E+02  0.00000000000E+00 0.  1.
         22    1    3    3    0    0 -0.56743539411E+02  0.49678734248E+02 -0.62634522939E+03  0.63086936230E+03  0.00000000000E+00 0.  1.
</event>
<event>
 7    1  0.5622879E-006  0.5655798E+02  0.7818608E-02  0.1529899E+00
          2   -1    0    0  502    0  0.00000000000E+00  0.00000000000E+00  0.46115813189E+03  0.46115813189E+03  0.00000000000E+00 0. -1.
          1   -1    0    0  501    0 -0.00000000000E+00 -0.00000000000E+00 -0.44900271394E+03  0.44900271394E+03  0.00000000000E+00 0. -1.
         25    2    1    2    0    0 -0.48821890716E+02  0.55227784646E+02 -0.59419023239E+02  0.15681217776E+03  0.12500301421E+03 0.  0.
          2    1    1    2  501    0  0.24012126007E+02 -0.46907853769E+01 -0.33852247734E+03  0.33940544092E+03  0.00000000000E+00 0. -1.
          1    1    1    2  502    0  0.24809764709E+02 -0.50536999270E+02  0.41009691853E+03  0.41394322715E+03  0.00000000000E+00 0. -1.
         22    1    3    3    0    0 -0.33987449421E+02  0.35338945689E+02  0.34317696607E+02  0.59847239710E+02  0.00000000000E+00 0.  1.
         22    1    3    3    0    0 -0.14834441295E+02  0.19888838957E+02 -0.93736719845E+02  0.96964938050E+02  0.00000000000E+00 0.  1.
</event>
<event>
 7    1  0.5622879E-006  0.2242824E+03  0.7818608E-02  0.1212693E+00
          2   -1    0    0  502    0  0.00000000000E+00  0.00000000000E+00  0.34774694879E+03  0.34774694879E+03  0.00000000000E+00 0. -1.
          1   -1    0    0  501    0 -0.00000000000E+00 -0.00000000000E+00 -0.71012484363E+03  0.71012484363E+03  0.00000000000E+00 0. -1.
         25    2    1    2    0    0  0.16969846824E+03  0.83925228631E+02  0.98737035163E+02  0.24741720893E+03  0.12500103614E+03 0.  0.
          2    1    1    2  501    0  0.75854361213E+02  0.44574693300E+02 -0.51977716898E+03  0.52717083834E+03  0.00000000000E+00 0. -1.
          1    1    1    2  502    0 -0.24555282945E+03 -0.12849992193E+03  0.58662238977E+02  0.28328374516E+03  0.00000000000E+00 0. -1.
         22    1    3    3    0    0  0.19309707713E+02 -0.57165016059E+01  0.66388361951E+02  0.69375484180E+02  0.00000000000E+00 0. -1.
         22    1    3    3    0    0  0.15038876053E+03  0.89641730237E+02  0.32348673211E+02  0.17804172475E+03  0.00000000000E+00 0. -1.
</event>
<event>
 7    1  0.5622879E-006  0.2320140E+03  0.7818608E-02  0.1349056E+00
          2   -1    0    0  502    0  0.00000000000E+00  0.00000000000E+00  0.29365105252E+03  0.29365105252E+03  0.00000000000E+00 0. -1.
          1   -1    0    0  501    0 -0.00000000000E+00 -0.00000000000E+00 -0.35804062704E+03  0.35804062704E+03  0.00000000000E+00 0. -1.
         25    2    1    2    0    0 -0.13967357881E+03  0.20377286395E+03  0.79295853393E+02  0.28800213676E+03  0.12500123885E+03 0.  0.
          2    1    1    2  501    0  0.13895805270E+03 -0.18059423930E+03 -0.19974627120E+03  0.30302176908E+03  0.00000000000E+00 0. -1.
          1    1    1    2  502    0  0.71552610965E+00 -0.23178624647E+02  0.56060843285E+02  0.60667773719E+02  0.00000000000E+00 0. -1.
         22    1    3    3    0    0 -0.70172268715E+01  0.95511708856E+02  0.65902737208E+02  0.11625359682E+03  0.00000000000E+00 0.  1.
         22    1    3    3    0    0 -0.13265635194E+03  0.10826115509E+03  0.13393116185E+02  0.17174853994E+03  0.00000000000E+00 0.  1.
</event>
<event>
 7    1  0.5622879E-006  0.4736177E+02  0.7818608E-02  0.1466534E+00
          2   -1    0    0  502    0  0.00000000000E+00  0.00000000000E+00  0.21549987041E+03  0.21549987041E+03  0.00000000000E+00 0. -1.
          1   -1    0    0  501    0 -0.00000000000E+00 -0.00000000000E+00 -0.85545455937E+03  0.85545455937E+03  0.00000000000E+00 0. -1.
         25    2    1    2    0    0  0.87207841481E+02 -0.21195897397E+02 -0.12155405952E+03  0.19610089264E+03  0.12500278807E+03 0.  0.
          2    1    1    2  501    0 -0.40646450733E+02  0.19802805352E+02 -0.69283383164E+03  0.69430757112E+03  0.00000000000E+00 0. -1.
          1    1    1    2  502    0 -0.46561390748E+02  0.13930920454E+01  0.17443320221E+03  0.18054596602E+03  0.00000000000E+00 0. -1.
         22    1    3    3    0    0  0.73071532516E+02  0.24292817954E+02 -0.13723006049E+02  0.78217074628E+02  0.00000000000E+00 0. -1.
         22    1    3    3    0    0  0.14136308965E+02 -0.45488715351E+02 -0.10783105347E+03  0.11788381801E+03  0.00000000000E+00 0. -1.
</event>
<event>
 7    1  0.5622879E-006  0.1301892E+03  0.7818608E-02  0.1275853E+00
          2   -1    0    0  502    0  0.00000000000E+00  0.00000000000E+00  0.50341041088E+02  0.50341041088E+02  0.00000000000E+00 0. -1.
          1   -1    0    0  501    0 -0.00000000000E+00 -0.00000000000E+00 -0.22995900530E+04  0.22995900530E+04  0.00000000000E+00 0. -1.
         25    2    1    2    0    0 -0.15724573394E+03  0.11041217727E+02 -0.33423535625E+03  0.39011141347E+03  0.12500204887E+03 0.  0.
          2    1    1    2  501    0  0.10683086450E+03 -0.73335443583E+02 -0.18554506132E+04  0.18599698651E+04  0.00000000000E+00 0. -1.
          1    1    1    2  502    0  0.50414869433E+02  0.62294225856E+02 -0.59563042399E+02  0.99849815497E+02  0.00000000000E+00 0. -1.
         22    1    3    3    0    0 -0.21013267584E+02  0.34938758856E+02 -0.17260540010E+02  0.44274151899E+02  0.00000000000E+00 0.  1.
         22    1    3    3    0    0 -0.13623246635E+03 -0.23897541129E+02 -0.31697481624E+03  0.34583726157E+03  0.00000000000E+00 0.  1.
</event>
<event>
 7    1  0.5622879E-006  0.6947739E+02  0.7818608E-02  0.1406369E+00
          2   -1    0    0  502    0  0.00000000000E+00  0.00000000000E+00  0.79165858535E+03  0.79165858535E+03  0.00000000000E+00 0. -1.
          1   -1    0    0  501    0 -0.00000000000E+00 -0.00000000000E+00 -0.35102277629E+03  0.35102277629E+03  0.00000000000E+00 0. -1.
         25    2    1    2    0    0 -0.15199992562E+02 -0.89285727056E+02 -0.15206613418E+02  0.15510974883E+03  0.12499924904E+03 0.  0.
          2    1    1    2  501    0 -0.26015571964E+02  0.63837867958E+02 -0.26056444279E+03  0.26952905635E+03  0.00000000000E+00 0. -1.
          1    1    1    2  502    0  0.41215564527E+02  0.25447859098E+02  0.71640686527E+03  0.71804255647E+03  0.00000000000E+00 0. -1.
         22    1    3    3    0    0  0.52239861661E+02 -0.15702012266E+02 -0.55746736452E+01  0.54832775981E+02  0.00000000000E+00 0. -1.
         22    1    3    3    0    0 -0.67439854223E+02 -0.73583714790E+02 -0.96319397726E+01  0.10027697285E+03  0.00000000000E+00 0. -1.
</event>
<event>
 7    1  0.5622879E-006  0.1859953E+03  0.7818608E-02  0.1208372E+00
          2   -1    0    0  502    0  0.00000000000E+00  0.00000000000E+00  0.12505514982E+04  0.12505514982E+04  0.00000000000E+00 0. -1.
          1   -1    0    0  501    0 -0.00000000000E+00 -0.00000000000E+00 -0.14100581998E+03  0.14100581998E+03  0.00000000000E+00 0. -1.
         25    2    1    2    0    0  0.16988860536E+03  0.20666534957E+03  0.49941552631E+03  0.58018388606E+03  0.12499907513E+03 0.  0.
          2    1    1    2  501    0 -0.14496925831E+03 -0.98398462475E+02 -0.15557726786E+02  0.17589879515E+03  0.00000000000E+00 0. -1.
          1    1    1    2  502    0 -0.24919347053E+02 -0.10826688709E+03  0.62568787871E+03  0.63547463699E+03  0.00000000000E+00 0. -1.
         22    1    3    3    0    0 -0.44473970331E+01 -0.13372160481E+02  0.31615693304E+02  0.34614246769E+02  0.00000000000E+00 0. -1.
         22    1    3    3    0    0  0.17433600239E+03  0.22003751005E+03  0.46779983301E+03  0.54556963929E+03  0.00000000000E+00 0. -1.
</event>
<event>
 7    1  0.5622879E-006  0.6591849E+02  0.7818608E-02  0.1384323E+00
          2   -1    0    0  502    0  0.00000000000E+00  0.00000000000E+00  0.25920191543E+03  0.25920191543E+03  0.00000000000E+00 0. -1.
          1   -1    0    0  501    0 -0.00000000000E+00 -0.00000000000E+00 -0.29770936080E+04  0.29770936080E+04  0.00000000000E+00 0. -1.
         25    2    1    2    0    0 -0.29757606605E+02 -0.75264159425E+01 -0.66213668991E+03  0.67453112223E+03  0.12500030657E+03 0.  0.
          2    1    1    2  501    0 -0.10857095591E+02  0.59888204256E+02 -0.23040117500E+04  0.23048155279E+04  0.00000000000E+00 0. -1.
          1    1    1    2  502    0  0.40614702196E+02 -0.52361788314E+02  0.24825674732E+03  0.25694887332E+03  0.00000000000E+00 0. -1.
         22    1    3    3    0    0  0.48296228995E+02 -0.43438747921E+01 -0.31520788926E+03  0.31891598962E+03  0.00000000000E+00 0.  1.
         22    1    3    3    0    0 -0.78053835600E+02 -0.31825411504E+01 -0.34692880066E+03  0.35561513261E+03  0.00000000000E+00 0.  1.
</event>
<event>
 7    1  0.5622879E-006  0.8088860E+02  0.7818608E-02  0.1397801E+00
          2   -1    0    0  502    0  0.00000000000E+00  0.00000000000E+00  0.77626416351E+03  0.77626416351E+03  0.00000000000E+00 0. -1.
          1   -1    0    0  501    0 -0.00000000000E+00 -0.00000000000E+00 -0.11929133831E+03  0.11929133831E+03  0.00000000000E+00 0. -1.
         25    2    1    2    0    0  0.80074370001E+02  0.86822435250E+02  0.25113826553E+03  0.30437756621E+03  0.12500093761E+03 0.  0.
          2    1    1    2  501    0 -0.64598335572E+02 -0.45082503972E+02 -0.74714778295E+02  0.10857106069E+03  0.00000000000E+00 0. -1.
          1    1    1    2  502    0 -0.15476034429E+02 -0.41739931278E+02  0.48054933796E+03  0.48260687492E+03  0.00000000000E+00 0. -1.
         22    1    3    3    0    0  0.38287004176E+02 -0.29332122584E+02  0.78838484521E+02  0.92421722261E+02  0.00000000000E+00 0. -1.
         22    1    3    3    0    0  0.41787365826E+02  0.11615455783E+03  0.17229978101E+03  0.21195584395E+03  0.00000000000E+00 0. -1.
</event>
<event>
 7    1  0.5622879E-006  0.8512013E+02  0.7818608E-02  0.1375237E+00
          2   -1    0    0  502    0  0.00000000000E+00  0.00000000000E+00  0.33646597930E+03  0.33646597930E+03  0.00000000000E+00 0. -1.
          1   -1    0    0  501    0 -0.00000000000E+00 -0.00000000000E+00 -0.23344878890E+03  0.23344878890E+03  0.00000000000E+00 0. -1.
         25    2    1    2    0    0  0.51529491575E+02 -0.71019370042E+02 -0.35611524036E+02  0.15682371342E+03  0.12500582795E+03 0.  0.
          2    1    1    2  501    0 -0.81893862431E+02  0.30341658559E+02 -0.12062119296E+03  0.14891841102E+03  0.00000000000E+00 0. -1.
          1    1    1    2  502    0  0.30364370856E+02  0.40677711483E+02  0.25924990740E+03  0.26417264377E+03  0.00000000000E+00 0. -1.
         22    1    3    3    0    0  0.57124038377E+02 -0.10433229450E+03 -0.27575059122E+02  0.12210146323E+03  0.00000000000E+00 0. -1.
         22    1    3    3    0    0 -0.55945468023E+01  0.33312924459E+02 -0.80364649135E+01  0.34722250189E+02  0.00000000000E+00 0. -1.
</event>
<event>
 7    1  0.5622879E-006  0.9830389E+02  0.7818608E-02  0.1315927E+00
          2   -1    0    0  502    0  0.00000000000E+00  0.00000000000E+00  0.48734840932E+03  0.48734840932E+03  0.00000000000E+00 0. -1.
          1   -1    0    0  501    0 -0.00000000000E+00 -0.00000000000E+00 -0.69453036068E+03  0.69453036068E+03  0.00000000000E+00 0. -1.
         25    2    1    2    0    0 -0.46401920682E+02  0.58516983684E+01  0.20110240476E+03  0.24135995925E+03  0.12500028844E+03 0.  0.
          2    1    1    2  501    0  0.62561240340E+02 -0.77215419153E+02 -0.66561226264E+03  0.67299020344E+03  0.00000000000E+00 0. -1.
          1    1    1    2  502    0 -0.16159319657E+02  0.71363720785E+02  0.25732790652E+03  0.26752860731E+03  0.00000000000E+00 0. -1.
         22    1    3    3    0    0 -0.76483467382E+02 -0.33315617842E+02  0.13759725329E+03  0.16091194887E+03  0.00000000000E+00 0.  1.
         22    1    3    3    0    0  0.30081546700E+02  0.39167316211E+02  0.63505151471E+02  0.80448010382E+02  0.00000000000E+00 0.  1.
</event>
<event>
 7    1  0.5622879E-006  0.1104529E+03  0.7818608E-02  0.1443181E+00
          2   -1    0    0  502    0  0.00000000000E+00  0.00000000000E+00  0.24814705343E+04  0.24814705343E+04  0.00000000000E+00 0. -1.
          1   -1    0    0  501    0 -0.00000000000E+00 -0.00000000000E+00 -0.51054803052E+03  0.51054803052E+03  0.00000000000E+00 0. -1.
         25    2    1    2    0    0  0.86962407911E+02  0.48142884956E+02  0.10647083422E+03  0.19194082480E+03  0.12500017569E+03 0.  0.
          2    1    1    2  501    0 -0.18923289489E+01  0.22922192860E+02 -0.46621228923E+03  0.46677929096E+03  0.00000000000E+00 0. -1.
          1    1    1    2  502    0 -0.85070078962E+02 -0.71065077817E+02  0.23306639588E+04  0.23332984491E+04  0.00000000000E+00 0. -1.
         22    1    3    3    0    0  0.11612635748E+02 -0.29824053275E+02 -0.92950505829E+01  0.33327547586E+02  0.00000000000E+00 0. -1.
         22    1    3    3    0    0  0.75349772163E+02  0.77966938231E+02  0.11576588481E+03  0.15861327721E+03  0.00000000000E+00 0. -1.
</event>
<event>
 7    1  0.5622879E-006  0.1135238E+03  0.7818608E-02  0.1332538E+00
          2   -1    0    0  502    0  0.00000000000E+00  0.00000000000E+00  0.16274299605E+03  0.16274299605E+03  0.00000000000E+00 0. -1.
          1   -1    0    0  501    0 -0.00000000000E+00 -0.00000000000E+00 -0.12500996574E+04  0.12500996574E+04  0.00000000000E+00 0. -1.
         25    2    1    2    0    0 -0.94478732182E+02 -0.84236803371E+02 -0.31095367086E+03  0.35824392573E+03  0.12499782007E+03 0.  0.
          2    1    1    2  501    0  0.43662477671E+02  0.10441271320E+03 -0.90646980886E+03  0.91350749368E+03  0.00000000000E+00 0. -1.
          1    1    1    2  502    0  0.50816254511E+02 -0.20175909834E+02  0.13006681841E+03  0.14109123400E+03  0.00000000000E+00 0. -1.
         22    1    3    3    0    0 -0.11032477518E+03 -0.21158182475E+02 -0.18348841864E+03  0.21514465943E+03  0.00000000000E+00 0.  1.
         22    1    3    3    0    0  0.15846042999E+02 -0.63078620896E+02 -0.12746525222E+03  0.14309926630E+03  0.00000000000E+00 0.  1.
</event>
<event>
 7    1  0.5622879E-006  0.1016214E+03  0.7818608E-02  0.1301447E+00
          2   -1    0    0  502    0  0.00000000000E+00  0.00000000000E+00  0.32839120942E+04  0.32839120942E+04  0.00000000000E+00 0. -1.
          1   -1    0    0  501    0 -0.00000000000E+00 -0.00000000000E+00 -0.31196893533E+03  0.31196893533E+03  0.00000000000E+00 0. -1.
         25    2    1    2    0    0 -0.14044412606E+03  0.95878989859E+02  0.27874266466E+03  0.34962767794E+03  0.12499882735E+03 0.  0.
          2    1    1    2  501    0  0.95662221429E+02 -0.28692388472E+02 -0.26694025357E+03  0.28501160106E+03  0.00000000000E+00 0. -1.
          1    1    1    2  502    0  0.44781904632E+02 -0.67186601387E+02  0.29601407478E+04  0.29612417506E+04  0.00000000000E+00 0. -1.
         22    1    3    3    0    0 -0.14092969405E+03  0.11574338507E+03  0.21030071958E+03  0.27835966394E+03  0.00000000000E+00 0.  1.
         22    1    3    3    0    0  0.48556799371E+00 -0.19864395207E+02  0.68441945084E+02  0.71268014004E+02  0.00000000000E+00 0.  1.
</event>
<event>
 7    1  0.5622879E-006  0.7222214E+02  0.7818608E-02  0.1456604E+00
          2   -1    0    0  502    0  0.00000000000E+00  0.00000000000E+00  0.10185831411E+04  0.10185831411E+04  0.00000000000E+00 0. -1.
          1   -1    0    0  501    0 -0.00000000000E+00 -0.00000000000E+00 -0.21878857710E+03  0.21878857710E+03  0.00000000000E+00 0. -1.
         25    2    1    2    0    0  0.79420137059E+02 -0.85211779753E+01  0.30972158197E+03  0.34341078684E+03  0.12499336595E+03 0.  0.
          2    1    1    2  501    0 -0.10675397194E+02  0.30021208287E+02 -0.19879764219E+03  0.20133489412E+03  0.00000000000E+00 0. -1.
          1    1    1    2  502    0 -0.68744739865E+02 -0.21500030311E+02  0.68887062419E+03  0.69262603722E+03  0.00000000000E+00 0. -1.
         22    1    3    3    0    0 -0.19807371900E+02  0.33061625750E+02  0.57733409346E+02  0.69415773665E+02  0.00000000000E+00 0. -1.
         22    1    3    3    0    0  0.99227508959E+02 -0.41582803726E+02  0.25198817263E+03  0.27399501317E+03  0.00000000000E+00 0. -1.
</event>
<event>
 7    1  0.5622879E-006  0.5541535E+02  0.7818608E-02  0.1564060E+00
          2   -1    0    0  502    0  0.00000000000E+00  0.00000000000E+00  0.81423443598E+02  0.81423443598E+02  0.00000000000E+00 0. -1.
          1   -1    0    0  501    0 -0.00000000000E+00 -0.00000000000E+00 -0.19183262721E+03  0.19183262721E+03  0.00000000000E+00 0. -1.
         25    2    1    2    0    0 -0.39740583319E+01 -0.39392028136E+02 -0.70672289872E+02  0.14895249866E+03  0.12499899712E+03 0.  0.
          2    1    1    2  501    0  0.60962645895E+01 -0.19082746923E+02 -0.59311235437E+02  0.62603021662E+02  0.00000000000E+00 0. -1.
          1    1    1    2  502    0 -0.21222062576E+01  0.58474775059E+02  0.19574341698E+02  0.61700550488E+02  0.00000000000E+00 0. -1.
         22    1    3    3    0    0  0.14541593079E+02 -0.60506136960E+02  0.10455936815E+02  0.63101324501E+02  0.00000000000E+00 0.  1.
         22    1    3    3    0    0 -0.18515651411E+02  0.21114108824E+02 -0.81128226687E+02  0.85851174156E+02  0.00000000000E+00 0.  1.
</event>
<event>
 7    1  0.5622879E-006  0.1029127E+03  0.7818608E-02  0.1316718E+00
          2   -1    0    0  502    0  0.00000000000E+00  0.00000000000E+00  0.20298411458E+03  0.20298411458E+03  0.00000000000E+00 0. -1.
          1   -1    0    0  501    0 -0.00000000000E+00 -0.00000000000E+00 -0.13546025284E+04  0.13546025284E+04  0.00000000000E+00 0. -1.
         25    2    1    2    0    0 -0.41524105439E+02  0.37817614663E+02 -0.39207908068E+01  0.13709346000E+03  0.12499928344E+03 0.  0.
          2    1    1    2  501    0 -0.22830750685E+02  0.65535606027E+02 -0.12557756454E+04  0.12576917867E+04  0.00000000000E+00 0. -1.
          1    1    1    2  502    0  0.64354856124E+02 -0.10335322069E+03  0.10807802232E+03  0.16280139632E+03  0.00000000000E+00 0. -1.
         22    1    3    3    0    0 -0.18381090743E+02  0.11458883799E+02 -0.63976845754E+02  0.67544113788E+02  0.00000000000E+00 0. -1.
         22    1    3    3    0    0 -0.23143014696E+02  0.26358730864E+02  0.60056054947E+02  0.69549346207E+02  0.00000000000E+00 0. -1.
</event>
<event>
 7    1  0.5622879E-006  0.6682138E+02  0.7818608E-02  0.1506434E+00
          2   -1    0    0  502    0  0.00000000000E+00  0.00000000000E+00  0.93105955824E+03  0.93105955824E+03  0.00000000000E+00 0. -1.
          1   -1    0    0  501    0 -0.00000000000E+00 -0.00000000000E+00 -0.16602542213E+04  0.16602542213E+04  0.00000000000E+00 0. -1.
         25    2    1    2    0    0 -0.38295192687E+02  0.81308801131E+02  0.30895582170E+01  0.15398758314E+03  0.12499994987E+03 0.  0.
          2    1    1    2  501    0  0.33581347984E+02 -0.57535854757E+02 -0.15839326462E+04  0.15853329963E+04  0.00000000000E+00 0. -1.
          1    1    1    2  502    0  0.47138447035E+01 -0.23772946374E+02  0.85164842492E+03  0.85199320008E+03  0.00000000000E+00 0. -1.
         22    1    3    3    0    0 -0.76686311494E+02  0.85841786297E+02  0.56463238330E+01  0.11524531929E+03  0.00000000000E+00 0. -1.
         22    1    3    3    0    0  0.38391118807E+02 -0.45329851660E+01 -0.25567656160E+01  0.38742263850E+02  0.00000000000E+00 0. -1.
</event>
<event>
 7    1  0.5622879E-006  0.3432779E+02  0.7818608E-02  0.1598058E+00
          2   -1    0    0  502    0  0.00000000000E+00  0.00000000000E+00  0.21230199142E+04  0.21230199142E+04  0.00000000000E+00 0. -1.
          1   -1    0    0  501    0 -0.00000000000E+00 -0.00000000000E+00 -0.97000346916E+02  0.97000346916E+02  0.00000000000E+00 0. -1.
         25    2    1    2    0    0 -0.56473065280E+02  0.14962592907E+02  0.12653793787E+04  0.12728797970E+04  0.12499967700E+03 0.  0.
          2    1    1    2  501    0  0.24702827602E+02 -0.87974848113E+01 -0.91093237060E+02  0.94792422000E+02  0.00000000000E+00 0. -1.
          1    1    1    2  502    0  0.31770237678E+02 -0.61651080960E+01  0.85173342570E+03  0.85234804219E+03  0.00000000000E+00 0. -1.
         22    1    3    3    0    0 -0.20379875317E+01 -0.76951072294E+01  0.21101963447E+01  0.82353504519E+01  0.00000000000E+00 0. -1.
         22    1    3    3    0    0 -0.54435077749E+02  0.22657700137E+02  0.12632691823E+04  0.12646444465E+04  0.00000000000E+00 0. -1.
</event>
<event>
 7    1  0.5622879E-006  0.7906696E+02  0.7818608E-02  0.1359775E+00
          2   -1    0    0  502    0  0.00000000000E+00  0.00000000000E+00  0.43546768339E+03  0.43546768339E+03  0.00000000000E+00 0. -1.
          1   -1    0    0  501    0 -0.00000000000E+00 -0.00000000000E+00 -0.17356562578E+03  0.17356562578E+03  0.00000000000E+00 0. -1.
         25    2    1    2    0    0 -0.10147418484E+02  0.12469667511E+03  0.47408951662E+02  0.18309709841E+03  0.12499883145E+03 0.  0.
          2    1    1    2  501    0 -0.25126434122E+02 -0.56832231367E+02 -0.91457743297E+02  0.11057015430E+03  0.00000000000E+00 0. -1.
          1    1    1    2  502    0  0.35273852605E+02 -0.67864443742E+02  0.30595084925E+03  0.31536605645E+03  0.00000000000E+00 0. -1.
         22    1    3    3    0    0  0.36073927735E+02  0.24733777902E+01  0.37434200970E+02  0.52045799659E+02  0.00000000000E+00 0. -1.
         22    1    3    3    0    0 -0.46221346219E+02  0.12222329732E+03  0.99747506920E+01  0.13105129875E+03  0.00000000000E+00 0. -1.
</event>
<event>
 7    1  0.5622879E-006  0.8148980E+02  0.7818608E-02  0.1433273E+00
          2   -1    0    0  502    0  0.00000000000E+00  0.00000000000E+00  0.72667196091E+03  0.72667196091E+03  0.00000000000E+00 0. -1.
          1   -1    0    0  501    0 -0.00000000000E+00 -0.00000000000E+00 -0.15575971072E+03  0.15575971072E+03  0.00000000000E+00 0. -1.
         25    2    1    2    0    0 -0.39036376342E+02  0.40874421852E+02  0.65397970846E+02  0.15197368317E+03  0.12499819496E+03 0.  0.
          2    1    1    2  501    0  0.42242166235E+02 -0.74298108195E+02 -0.95698973650E+02  0.12830784484E+03  0.00000000000E+00 0. -1.
          1    1    1    2  502    0 -0.32057898923E+01  0.33423686342E+02  0.60121325299E+03  0.60215014363E+03  0.00000000000E+00 0. -1.
         22    1    3    3    0    0 -0.23435143400E+02 -0.31920254341E+02  0.66637572723E+02  0.77515641530E+02  0.00000000000E+00 0.  1.
         22    1    3    3    0    0 -0.15601232943E+02  0.72794676193E+02 -0.12396018769E+01  0.74458041636E+02  0.00000000000E+00 0.  1.
</event>
<event>
 7    1  0.5622879E-006  0.7505545E+02  0.7818608E-02  0.1450323E+00
          2   -1    0    0  502    0  0.00000000000E+00  0.00000000000E+00  0.10424923558E+04  0.10424923558E+04  0.00000000000E+00 0. -1.
          1   -1    0    0  501    0 -0.00000000000E+00 -0.00000000000E+00 -0.24381451813E+03  0.24381451813E+03  0.00000000000E+00 0. -1.
         25    2    1    2    0    0 -0.49980359553E+02  0.78379784644E+02  0.27478578805E+03  0.31587074261E+03  0.12500267893E+03 0.  0.
          2    1    1    2  501    0  0.57930771473E+02 -0.47274849613E+02 -0.21665430376E+03  0.22919418193E+03  0.00000000000E+00 0. -1.
          1    1    1    2  502    0 -0.79504119203E+01 -0.31104935031E+02  0.74054635336E+03  0.74124194937E+03  0.00000000000E+00 0. -1.
         22    1    3    3    0    0 -0.19897768798E+02 -0.33979404120E+02  0.74127219617E+02  0.83936677297E+02  0.00000000000E+00 0.  1.
         22    1    3    3    0    0 -0.30082590755E+02  0.11235918876E+03  0.20065856843E+03  0.23193406531E+03  0.00000000000E+00 0.  1.
</event>
<event>
 7    1  0.5622879E-006  0.9778865E+02  0.7818608E-02  0.1369661E+00
          2   -1    0    0  502    0  0.00000000000E+00  0.00000000000E+00  0.20916478810E+04  0.20916478810E+04  0.00000000000E+00 0. -1.
          1   -1    0    0  501    0 -0.00000000000E+00 -0.00000000000E+00 -0.22619249501E+03  0.22619249501E+03  0.00000000000E+00 0. -1.
         25    2    1    2    0    0  0.68548798784E+02  0.11696211106E+03  0.17969088270E+03  0.25747384268E+03  0.12499957239E+03 0.  0.
          2    1    1    2  501    0 -0.26951891395E+01 -0.46185550045E+02 -0.18317563262E+03  0.18892771492E+03  0.00000000000E+00 0. -1.
          1    1    1    2  502    0 -0.65853609645E+02 -0.70776561013E+02  0.18689401359E+04  0.18714388184E+04  0.00000000000E+00 0. -1.
         22    1    3    3    0    0  0.80061286696E+02  0.86715118229E+02  0.18985698222E+03  0.22355087800E+03  0.00000000000E+00 0. -1.
         22    1    3    3    0    0 -0.11512487912E+02  0.30246992829E+02 -0.10166099516E+02  0.33922964677E+02  0.00000000000E+00 0. -1.
</event>
<event>
 7    1  0.5622879E-006  0.1382551E+03  0.7818608E-02  0.1336932E+00
          2   -1    0    0  502    0  0.00000000000E+00  0.00000000000E+00  0.75784428432E+03  0.75784428432E+03  0.00000000000E+00 0. -1.
          1   -1    0    0  501    0 -0.00000000000E+00 -0.00000000000E+00 -0.47253048142E+03  0.47253048142E+03  0.00000000000E+00 0. -1.
         25    2    1    2    0    0  0.81894213156E+01 -0.17837050510E+03 -0.50299181239E+02  0.22369202350E+03  0.12500004012E+03 0.  0.
          2    1    1    2  501    0 -0.95019690569E+01  0.42146764735E+02 -0.32718708920E+03  0.33002731483E+03  0.00000000000E+00 0. -1.
          1    1    1    2  502    0  0.13125477413E+01  0.13622374037E+03  0.66280007334E+03  0.67665542741E+03  0.00000000000E+00 0. -1.
         22    1    3    3    0    0 -0.56352809260E+02 -0.56165202304E+02 -0.13787017645E+02  0.80748070670E+02  0.00000000000E+00 0. -1.
         22    1    3    3    0    0  0.64542230575E+02 -0.12220530280E+03 -0.36512163594E+02  0.14294395283E+03  0.00000000000E+00 0. -1.
</event>
<event>
 7    1  0.5622879E-006  0.2114826E+03  0.7818608E-02  0.1351118E+00
          2   -1    0    0  502    0  0.00000000000E+00  0.00000000000E+00  0.11964191031E+04  0.11964191031E+04  0.00000000000E+00 0. -1.
          1   -1    0    0  501    0 -0.00000000000E+00 -0.00000000000E+00 -0.36782352959E+03  0.36782352959E+03  0.00000000000E+00 0. -1.
         25    2    1    2    0    0 -0.52114177584E+02  0.22264466676E+03 -0.44369380153E+02  0.26434833898E+03  0.12499946914E+03 0.  0.
          2    1    1    2  501    0  0.49475350351E+02 -0.19778699932E+03 -0.16459782279E+03  0.26203043842E+03  0.00000000000E+00 0. -1.
          1    1    1    2  502    0  0.26388272325E+01 -0.24857667444E+02  0.10375627765E+04  0.10378638553E+04  0.00000000000E+00 0. -1.
         22    1    3    3    0    0 -0.13032963550E+01  0.19475159901E+03 -0.60239045554E+01  0.19484909885E+03  0.00000000000E+00 0.  1.
         22    1    3    3    0    0 -0.50810881229E+02  0.27893067755E+02 -0.38345475597E+02  0.69499240131E+02  0.00000000000E+00 0.  1.
</event>
<event>
 7    1  0.5622879E-006  0.2667155E+03  0.7818608E-02  0.1169568E+00
          2   -1    0    0  502    0  0.00000000000E+00  0.00000000000E+00  0.91447309575E+03  0.91447309575E+03  0.00000000000E+00 0. -1.
          1   -1    0    0  501    0 -0.00000000000E+00 -0.00000000000E+00 -0.11289262224E+04  0.11289262224E+04  0.00000000000E+00 0. -1.
         25    2    1    2    0    0  0.14441944388E+02 -0.24972549858E+03 -0.35516561272E+03  0.45203884908E+03  0.12500045688E+03 0.  0.
          2    1    1    2  501    0  0.11799770736E+03  0.15753603503E+02 -0.69930587912E+03  0.70936615901E+03  0.00000000000E+00 0. -1.
          1    1    1    2  502    0 -0.13243965175E+03  0.23397189507E+03  0.84001836522E+03  0.88199431004E+03  0.00000000000E+00 0. -1.
         22    1    3    3    0    0 -0.27066714021E+02 -0.13925009521E+03 -0.27481081243E+03  0.30926393041E+03  0.00000000000E+00 0. -1.
         22    1    3    3    0    0  0.41508658408E+02 -0.11047540336E+03 -0.80354800292E+02  0.14277491867E+03  0.00000000000E+00 0. -1.
</event>
<event>
 7    1  0.5622879E-006  0.4804133E+02  0.7818608E-02  0.1460442E+00
          2   -1    0    0  502    0  0.00000000000E+00  0.00000000000E+00  0.17469799254E+03  0.17469799254E+03  0.00000000000E+00 0. -1.
          1   -1    0    0  501    0 -0.00000000000E+00 -0.00000000000E+00 -0.72595575901E+03  0.72595575901E+03  0.00000000000E+00 0. -1.
         25    2    1    2    0    0  0.17215560398E+02 -0.41997728135E+02  0.72481844746E+02  0.15145668502E+03  0.12500129971E+03 0.  0.
          2    1    1    2  501    0 -0.48041019315E+02  0.17211084248E+00 -0.67470674147E+03  0.67641492898E+03  0.00000000000E+00 0. -1.
          1    1    1    2  502    0  0.30825458917E+02  0.41825617292E+02  0.50967130261E+02  0.72782137550E+02  0.00000000000E+00 0. -1.
         22    1    3    3    0    0  0.33295831017E+02 -0.82382759455E+02  0.41458013869E+02  0.98052528435E+02  0.00000000000E+00 0. -1.
         22    1    3    3    0    0 -0.16080270620E+02  0.40385031320E+02  0.31023830878E+02  0.53404156582E+02  0.00000000000E+00 0. -1.
</event>
<event>
 7    1  0.5622879E-006  0.7084552E+02  0.7818608E-02  0.1380459E+00
          2   -1    0    0  502    0  0.00000000000E+00  0.00000000000E+00  0.26432407265E+03  0.26432407265E+03  0.00000000000E+00 0. -1.
          1   -1    0    0  501    0 -0.00000000000E+00 -0.00000000000E+00 -0.17120572937E+04  0.17120572937E+04  0.00000000000E+00 0. -1.
         25    2    1    2    0    0  0.95887816664E+01 -0.13523360649E+02 -0.15684462248E+03  0.20124742459E+03  0.12500185713E+03 0.  0.
          2    1    1    2  501    0 -0.13077731361E+02  0.71857092963E+02 -0.15286004778E+04  0.15303443696E+04  0.00000000000E+00 0. -1.
          1    1    1    2  502    0  0.34889496947E+01 -0.58333732314E+02  0.23771187924E+03  0.24478957214E+03  0.00000000000E+00 0. -1.
         22    1    3    3    0    0 -0.11684897849E+02 -0.67129383636E+02 -0.91649806009E+02  0.11420410643E+03  0.00000000000E+00 0. -1.
         22    1    3    3    0    0  0.21273679515E+02  0.53606022987E+02 -0.65194816475E+02  0.87043318157E+02  0.00000000000E+00 0. -1.
</event>
<event>
 7    1  0.5622879E-006  0.8979697E+02  0.7818608E-02  0.1352560E+00
          2   -1    0    0  502    0  0.00000000000E+00  0.00000000000E+00  0.14539977645E+04  0.14539977645E+04  0.00000000000E+00 0. -1.
          1   -1    0    0  501    0 -0.00000000000E+00 -0.00000000000E+00 -0.13580773336E+04  0.13580773336E+04  0.00000000000E+00 0. -1.
         25    2    1    2    0    0  0.61374450518E+02  0.75246771943E+02 -0.11210686195E+04  0.11321873837E+04  0.12499808949E+03 0.  0.
          2    1    1    2  501    0  0.25452307598E+02 -0.52288051903E+02 -0.22637852496E+03  0.23372868223E+03  0.00000000000E+00 0. -1.
          1    1    1    2  502    0 -0.86826758116E+02 -0.22958720039E+02  0.14433675754E+04  0.14461590322E+04  0.00000000000E+00 0. -1.
         22    1    3    3    0    0  0.79565788029E-01  0.39935961303E+02 -0.87295053582E+02  0.95996425537E+02  0.00000000000E+00 0.  1.
         22    1    3    3    0    0  0.61294884730E+02  0.35310810640E+02 -0.10337735659E+04  0.10361909582E+04  0.00000000000E+00 0.  1.
</event>
<event>
 7    1  0.5622879E-006  0.6637591E+02  0.7818608E-02  0.1408114E+00
          2   -1    0    0  502    0  0.00000000000E+00  0.00000000000E+00  0.20007317942E+03  0.20007317942E+03  0.00000000000E+00 0. -1.
          1   -1    0    0  501    0 -0.00000000000E+00 -0.00000000000E+00 -0.41258588600E+03  0.41258588600E+03  0.00000000000E+00 0. -1.
         25    2    1    2    0    0  0.13954577925E+02 -0.13665625270E+02 -0.77024361250E+02  0.14812060145E+03  0.12500192314E+03 0.  0.
          2    1    1    2  501    0  0.31966271936E+02 -0.38464272046E+02 -0.29044598064E+03  0.29472056330E+03  0.00000000000E+00 0. -1.
          1    1    1    2  502    0 -0.45920849860E+02  0.52129897316E+02  0.15495763531E+03  0.16981790067E+03  0.00000000000E+00 0. -1.
         22    1    3    3    0    0  0.65667636765E+02  0.17463821190E+01 -0.65852802398E+02  0.93015482327E+02  0.00000000000E+00 0. -1.
         22    1    3    3    0    0 -0.51713058840E+02 -0.15412007389E+02 -0.11171558852E+02  0.55105119123E+02  0.00000000000E+00 0. -1.
</event>
<event>
 7    1  0.5622879E-006  0.1563052E+03  0.7818608E-02  0.1306247E+00
          2   -1    0    0  502    0  0.00000000000E+00  0.00000000000E+00  0.54050735695E+03  0.54050735695E+03  0.00000000000E+00 0. -1.
          1   -1    0    0  501    0 -0.00000000000E+00 -0.00000000000E+00 -0.23170596099E+03  0.23170596099E+03  0.00000000000E+00 0. -1.
         25    2    1    2    0    0 -0.18608841397E+03  0.95199635581E+01  0.20812165889E+03  0.30603817834E+03  0.12500085672E+03 0.  0.
          2    1    1    2  501    0  0.44417659732E+02  0.23467485974E+02 -0.15997622673E+03  0.16767839608E+03  0.00000000000E+00 0. -1.
          1    1    1    2  502    0  0.14167075424E+03 -0.32987449532E+02  0.26065596380E+03  0.29849674353E+03  0.00000000000E+00 0. -1.
         22    1    3    3    0    0 -0.46094993284E+02  0.59824919374E+02  0.65887101608E+02  0.10022414650E+03  0.00000000000E+00 0. -1.
         22    1    3    3    0    0 -0.13999342069E+03 -0.50304955816E+02  0.14223455728E+03  0.20581403183E+03  0.00000000000E+00 0. -1.
</event>
<event>
 7    1  0.5622879E-006  0.7447875E+02  0.7818608E-02  0.1491079E+00
          2   -1    0    0  502    0  0.00000000000E+00  0.00000000000E+00  0.11949122012E+04  0.11949122012E+04  0.00000000000E+00 0. -1.
          1   -1    0    0  501    0 -0.00000000000E+00 -0.00000000000E+00 -0.23553139266E+02  0.23553139266E+02  0.00000000000E+00 0. -1.
         25    2    1    2    0    0  0.60980516919E+02 -0.63491917967E+02  0.47913065975E+03  0.50293172644E+03  0.12499714097E+03 0.  0.
          2    1    1    2  501    0 -0.24151025375E+02  0.90325119144E+00  0.52551910483E+01  0.24732669131E+02  0.00000000000E+00 0. -1.
          1    1    1    2  502    0 -0.36829491544E+02  0.62588666776E+02  0.68697321117E+03  0.69080094494E+03  0.00000000000E+00 0. -1.
         22    1    3    3    0    0  0.52071098169E+02  0.21211348394E+02  0.29153124009E+03  0.29690366201E+03  0.00000000000E+00 0. -1.
         22    1    3    3    0    0  0.89094187509E+01 -0.84703266361E+02  0.18759941966E+03  0.20602806442E+03  0.00000000000E+00 0. -1.
</event>
<event>
 7    1  0.5622879E-006  0.3152578E+02  0.7818608E-02  0.1648661E+00
          2   -1    0    0  502    0  0.00000000000E+00  0.00000000000E+00  0.23085443779E+03  0.23085443779E+03  0.00000000000E+00 0. -1.
          1   -1    0    0  501    0 -0.00000000000E+00 -0.00000000000E+00 -0.32979319254E+03  0.32979319254E+03  0.00000000000E+00 0. -1.
         25    2    1    2    0    0  0.49486714476E+00  0.35584636219E+02  0.17043902060E+01  0.12998329156E+03  0.12500495954E+03 0.  0.
          2    1    1    2  501    0 -0.18822559564E+02 -0.98562515837E+01 -0.26371074270E+03  0.26456528544E+03  0.00000000000E+00 0. -1.
          1    1    1    2  502    0  0.18327692420E+02 -0.25728384635E+02  0.16306759774E+03  0.16609905333E+03  0.00000000000E+00 0. -1.
         22    1    3    3    0    0 -0.59576945983E+02  0.94686001407E+01  0.17087340309E+02  0.62698038886E+02  0.00000000000E+00 0. -1.
         22    1    3    3    0    0  0.60071813128E+02  0.26116036078E+02 -0.15382950103E+02  0.67285252670E+02  0.00000000000E+00 0. -1.
</event>
<event>
 7    1  0.5622879E-006  0.1789101E+03  0.7818608E-02  0.1303870E+00
          2   -1    0    0  502    0  0.00000000000E+00  0.00000000000E+00  0.36717889975E+02  0.36717889975E+02  0.00000000000E+00 0. -1.
          1   -1    0    0  501    0 -0.00000000000E+00 -0.00000000000E+00 -0.23454194804E+04  0.23454194804E+04  0.00000000000E+00 0. -1.
         25    2    1    2    0    0  0.26112247540E+02  0.14113996077E+03 -0.15058370108E+04  0.15178179834E+04  0.12499595859E+03 0.  0.
          2    1    1    2  501    0  0.24366338721E+02  0.37657783998E+02 -0.54312624339E+03  0.54497517688E+03  0.00000000000E+00 0. -1.
          1    1    1    2  502    0 -0.50478586261E+02 -0.17879774477E+03 -0.25973833623E+03  0.31934421008E+03  0.00000000000E+00 0. -1.
         22    1    3    3    0    0 -0.25359023407E+01  0.99927487967E+02 -0.45808031116E+03  0.46885979261E+03  0.00000000000E+00 0.  1.
         22    1    3    3    0    0  0.28648149881E+02  0.41212472801E+02 -0.10477566996E+04  0.10489581908E+04  0.00000000000E+00 0.  1.
</event>
<event>
 7    1  0.5622879E-006  0.8651975E+02  0.7818608E-02  0.1314512E+00
          2   -1    0    0  502    0  0.00000000000E+00  0.00000000000E+00  0.17247286836E+04  0.17247286836E+04  0.00000000000E+00 0. -1.
          1   -1    0    0  501    0 -0.00000000000E+00 -0.00000000000E+00 -0.11285414959E+04  0.11285414959E+04  0.00000000000E+00 0. -1.
         25    2    1    2    0    0 -0.16217990334E+02  0.12732034716E+02  0.21857477787E+02  0.12855898870E+03  0.12499814527E+03 0.  0.
          2    1    1    2  501    0 -0.29674287913E+02 -0.83328786756E+02 -0.10722939055E+04  0.10759360900E+04  0.00000000000E+00 0. -1.
          1    1    1    2  502    0  0.45892278247E+02  0.70596752039E+02  0.16466236154E+04  0.16487751009E+04  0.00000000000E+00 0. -1.
         22    1    3    3    0    0  0.24593643944E+02 -0.43635350050E+02  0.30170476084E+02  0.58473487356E+02  0.00000000000E+00 0. -1.
         22    1    3    3    0    0 -0.40811634278E+02  0.56367384766E+02 -0.83129982970E+01  0.70085501343E+02  0.00000000000E+00 0. -1.
</event>
<event>
 7    1  0.5622879E-006  0.1051920E+03  0.7818608E-02  0.1382297E+00
          2   -1    0    0  502    0  0.00000000000E+00  0.00000000000E+00  0.48790131794E+03  0.48790131794E+03  0.00000000000E+00 0. -1.
          1   -1    0    0  501    0 -0.00000000000E+00 -0.00000000000E+00 -0.14788837913E+03  0.14788837913E+03  0.00000000000E+00 0. -1.
         25    2    1    2    0    0  0.54116666894E+02  0.59593836453E+02  0.53176856751E+02  0.15791335218E+03  0.12501523796E+03 0.  0.
          2    1    1    2  501    0 -0.57152319749E+02 -0.98247668778E+02 -0.60241928683E+02  0.12863934874E+03  0.00000000000E+00 0. -1.
          1    1    1    2  502    0  0.30356528548E+01  0.38653832325E+02  0.34707801074E+03  0.34923699615E+03  0.00000000000E+00 0. -1.
         22    1    3    3    0    0  0.41068542232E+02 -0.34298861674E+02  0.13748026542E+02  0.55245319322E+02  0.00000000000E+00 0. -1.
         22    1    3    3    0    0  0.13048124662E+02  0.93892698126E+02  0.39428830209E+02  0.10266803285E+03  0.00000000000E+00 0. -1.
</event>
<event>
 7    1  0.5622879E-006  0.1376000E+03  0.7818608E-02  0.1288332E+00
          2   -1    0    0  502    0  0.00000000000E+00  0.00000000000E+00  0.19525362886E+03  0.19525362886E+03  0.00000000000E+00 0. -1.
          1   -1    0    0  501    0 -0.00000000000E+00 -0.00000000000E+00 -0.21925345149E+04  0.21925345149E+04  0.00000000000E+00 0. -1.
         25    2    1    2    0    0 -0.43305311934E+02  0.76605657786E+02 -0.15685662083E+03  0.21902544397E+03  0.12499747502E+03 0.  0.
          2    1    1    2  501    0  0.21694421244E+02 -0.14040470521E+03 -0.19950498642E+04  0.20001020199E+04  0.00000000000E+00 0. -1.
          1    1    1    2  502    0  0.21610890690E+02  0.63799047427E+02  0.15462559907E+03  0.16866067987E+03  0.00000000000E+00 0. -1.
         22    1    3    3    0    0  0.15965749712E+02  0.86095000893E+02 -0.12012929333E+03  0.14865497455E+03  0.00000000000E+00 0.  1.
         22    1    3    3    0    0 -0.59271061647E+02 -0.94893431074E+01 -0.36727327506E+02  0.70370469425E+02  0.00000000000E+00 0.  1.
</event>
<event>
 7    1  0.5622879E-006  0.7183970E+02  0.7818608E-02  0.1475035E+00
          2   -1    0    0  502    0  0.00000000000E+00  0.00000000000E+00  0.19030581921E+04  0.19030581921E+04  0.00000000000E+00 0. -1.
          1   -1    0    0  501    0 -0.00000000000E+00 -0.00000000000E+00 -0.52832385557E+03  0.52832385557E+03  0.00000000000E+00 0. -1.
         25    2    1    2    0    0  0.76003596740E+02 -0.60172545373E+02  0.15724531820E+02  0.15896468322E+03  0.12500091070E+03 0.  0.
          2    1    1    2  501    0 -0.26852592522E+02  0.81049180117E+01 -0.45556637556E+03  0.45642904592E+03  0.00000000000E+00 0. -1.
          1    1    1    2  502    0 -0.49151004218E+02  0.52067627361E+02  0.18145761803E+04  0.18159883186E+04  0.00000000000E+00 0. -1.
         22    1    3    3    0    0 -0.19571060702E+01 -0.41549559183E+02  0.55601747992E+02  0.69438825683E+02  0.00000000000E+00 0. -1.
         22    1    3    3    0    0  0.77960702810E+02 -0.18622986190E+02 -0.39877216172E+02  0.89525857532E+02  0.00000000000E+00 0. -1.
</event>
<event>
 7    1  0.5622879E-006  0.6720342E+02  0.7818608E-02  0.1428461E+00
          2   -1    0    0  502    0  0.00000000000E+00  0.00000000000E+00  0.11099086583E+03  0.11099086583E+03  0.00000000000E+00 0. -1.
          1   -1    0    0  501    0 -0.00000000000E+00 -0.00000000000E+00 -0.24106261458E+04  0.24106261458E+04  0.00000000000E+00 0. -1.
         25    2    1    2    0    0 -0.96036733254E+02 -0.29930349408E+02 -0.93934909515E+03  0.95295333770E+03  0.12499784528E+03 0.  0.
          2    1    1    2  501    0  0.64021029031E+02  0.23986922444E+01 -0.14594648545E+04  0.14608703253E+04  0.00000000000E+00 0. -1.
          1    1    1    2  502    0  0.32015704223E+02  0.27531657164E+02  0.99178669735E+02  0.10779334856E+03  0.00000000000E+00 0. -1.
         22    1    3    3    0    0 -0.10958153290E+03  0.16153427615E+02 -0.71412776201E+03  0.72266693992E+03  0.00000000000E+00 0.  1.
         22    1    3    3    0    0  0.13544799649E+02 -0.46083777024E+02 -0.22522133314E+03  0.23028639778E+03  0.00000000000E+00 0.  1.
</event>
<event>
 7    1  0.5622879E-006  0.8868870E+02  0.7818608E-02  0.1333724E+00
          2   -1    0    0  502    0  0.00000000000E+00  0.00000000000E+00  0.42335051724E+03  0.42335051724E+03  0.00000000000E+00 0. -1.
          1   -1    0    0  501    0 -0.00000000000E+00 -0.00000000000E+00 -0.98220327881E+03  0.98220327881E+03  0.00000000000E+00 0. -1.
         25    2    1    2    0    0 -0.60048174587E+02  0.78729586330E+01 -0.22981765717E+02  0.14078771691E+03  0.12500101171E+03 0.  0.
          2    1    1    2  501    0  0.66944204730E+02  0.61045422617E+02 -0.89471932169E+03  0.89929457620E+03  0.00000000000E+00 0. -1.
          1    1    1    2  502    0 -0.68960301431E+01 -0.68918381250E+02  0.35884832584E+03  0.36547150294E+03  0.00000000000E+00 0. -1.
         22    1    3    3    0    0 -0.44091947149E+02  0.32731407574E+02  0.42180196759E+02  0.69243150158E+02  0.00000000000E+00 0.  1.
         22    1    3    3    0    0 -0.15956227438E+02 -0.24858448941E+02 -0.65161962476E+02  0.71544566750E+02  0.00000000000E+00 0.  1.
</event>
<event>
 7    1  0.5622879E-006  0.5888160E+02  0.7818608E-02  0.1474529E+00
          2   -1    0    0  502    0  0.00000000000E+00  0.00000000000E+00  0.49275615396E+03  0.49275615396E+03  0.00000000000E+00 0. -1.
          1   -1    0    0  501    0 -0.00000000000E+00 -0.00000000000E+00 -0.60609359164E+03  0.60609359164E+03  0.00000000000E+00 0. -1.
         25    2    1    2    0    0 -0.22445076543E+02  0.37389596158E+02 -0.25045017748E+03  0.28328776744E+03  0.12499961768E+03 0.  0.
          2    1    1    2  501    0  0.55662478887E+02 -0.28660020653E+02 -0.33570769471E+03  0.34149577541E+03  0.00000000000E+00 0. -1.
          1    1    1    2  502    0 -0.33217402344E+02 -0.87295755051E+01  0.47282043450E+03  0.47406620275E+03  0.00000000000E+00 0. -1.
         22    1    3    3    0    0 -0.43021129978E+01  0.82394633215E+02 -0.17659013277E+03  0.19491397783E+03  0.00000000000E+00 0. -1.
         22    1    3    3    0    0 -0.18142963545E+02 -0.45005037057E+02 -0.73860044708E+02  0.88373789615E+02  0.00000000000E+00 0. -1.
</event>
<event>
 7    1  0.5622879E-006  0.5459944E+02  0.7818608E-02  0.1492548E+00
          2   -1    0    0  502    0  0.00000000000E+00  0.00000000000E+00  0.11627972401E+04  0.11627972401E+04  0.00000000000E+00 0. -1.
          1   -1    0    0  501    0 -0.00000000000E+00 -0.00000000000E+00 -0.15595426753E+04  0.15595426753E+04  0.00000000000E+00 0. -1.
         25    2    1    2    0    0 -0.32115210885E+02  0.31561199392E+02 -0.16988900802E+03  0.21567362121E+03  0.12500135905E+03 0.  0.
          2    1    1    2  501    0  0.87482876976E+01 -0.54339886953E+02 -0.13659734941E+04  0.13670819077E+04  0.00000000000E+00 0. -1.
          1    1    1    2  502    0  0.23366923187E+02  0.22778687562E+02  0.11391170669E+04  0.11395843865E+04  0.00000000000E+00 0. -1.
         22    1    3    3    0    0 -0.47321737112E+02 -0.32219480188E+02 -0.38972733757E+02  0.69255437933E+02  0.00000000000E+00 0.  1.
         22    1    3    3    0    0  0.15206526227E+02  0.63780679580E+02 -0.13091627426E+03  0.14641818328E+03  0.00000000000E+00 0.  1.
</event>
<event>
 7    1  0.5622879E-006  0.5613866E+02  0.7818608E-02  0.1489261E+00
          2   -1    0    0  502    0  0.00000000000E+00  0.00000000000E+00  0.26817895911E+03  0.26817895911E+03  0.00000000000E+00 0. -1.
          1   -1    0    0  501    0 -0.00000000000E+00 -0.00000000000E+00 -0.12767906728E+03  0.12767906728E+03  0.00000000000E+00 0. -1.
         25    2    1    2    0    0  0.17925270290E+02 -0.36264216533E+02  0.47328391487E+02  0.13964460990E+03  0.12499692683E+03 0.  0.
          2    1    1    2  501    0  0.59222548334E+01  0.58303484641E+02 -0.69169005982E+02  0.90657160843E+02  0.00000000000E+00 0. -1.
          1    1    1    2  502    0 -0.23847525123E+02 -0.22039268108E+02  0.16234050632E+03  0.16555625565E+03  0.00000000000E+00 0. -1.
         22    1    3    3    0    0  0.11766504627E+02  0.46701356099E+02  0.16040958953E+02  0.50761990276E+02  0.00000000000E+00 0.  1.
         22    1    3    3    0    0  0.61587656630E+01 -0.82965572632E+02  0.31287432534E+02  0.88882619624E+02  0.00000000000E+00 0.  1.
</event>
<event>
 7    1  0.5622879E-006  0.8981758E+02  0.7818608E-02  0.1323119E+00
          2   -1    0    0  502    0  0.00000000000E+00  0.00000000000E+00  0.22235311738E+04  0.22235311738E+04  0.00000000000E+00 0. -1.
          1   -1    0    0  501    0 -0.00000000000E+00 -0.00000000000E+00 -0.49464193152E+02  0.49464193152E+02  0.00000000000E+00 0. -1.
         25    2    1    2    0    0  0.14002663267E+03 -0.29734000554E+02  0.21582937980E+03  0.28757408136E+03  0.12499984975E+03 0.  0.
          2    1    1    2  501    0 -0.70642465319E+02 -0.25477661089E+02  0.99942566993E+02  0.12501194270E+03  0.00000000000E+00 0. -1.
          1    1    1    2  502    0 -0.69384167355E+02  0.55211661643E+02  0.18582950339E+04  0.18604093429E+04  0.00000000000E+00 0. -1.
         22    1    3    3    0    0  0.56454391571E+02 -0.52661670266E+02  0.17602174354E+03  0.19220823094E+03  0.00000000000E+00 0.  1.
         22    1    3    3    0    0  0.83572241103E+02  0.22927669712E+02  0.39807636261E+02  0.95365850419E+02  0.00000000000E+00 0.  1.
</event>
<event>
 7    1  0.5622879E-006  0.2210264E+03  0.7818608E-02  0.1275990E+00
          2   -1    0    0  502    0  0.00000000000E+00  0.00000000000E+00  0.63973762362E+03  0.63973762362E+03  0.00000000000E+00 0. -1.
          1   -1    0    0  501    0 -0.00000000000E+00 -0.00000000000E+00 -0.30419521143E+03  0.30419521143E+03  0.00000000000E+00 0. -1.
         25    2    1    2    0    0 -0.33840922079E+02 -0.18854556566E+03  0.36458445310E+03  0.43039697693E+03  0.12500038388E+03 0.  0.
          2    1    1    2  501    0  0.74736643129E+02  0.21199445397E+03 -0.22138674286E+03  0.31549850120E+03  0.00000000000E+00 0. -1.
          1    1    1    2  502    0 -0.40895721050E+02 -0.23448888310E+02  0.19234470195E+03  0.19803735691E+03  0.00000000000E+00 0. -1.
         22    1    3    3    0    0 -0.66971058079E+02 -0.18269589191E+03  0.32046157794E+03  0.37491136882E+03  0.00000000000E+00 0. -1.
         22    1    3    3    0    0  0.33130135999E+02 -0.58496737572E+01  0.44122875166E+02  0.55485608110E+02  0.00000000000E+00 0. -1.
</event>
<event>
 7    1  0.5622879E-006  0.8971510E+02  0.7818608E-02  0.1435027E+00
          2   -1    0    0  502    0  0.00000000000E+00  0.00000000000E+00  0.18602102095E+04  0.18602102095E+04  0.00000000000E+00 0. -1.
          1   -1    0    0  501    0 -0.00000000000E+00 -0.00000000000E+00 -0.15238217141E+04  0.15238217141E+04  0.00000000000E+00 0. -1.
         25    2    1    2    0    0 -0.82286249677E+02 -0.82349237279E+02 -0.90468352830E+02  0.19329272966E+03  0.12500053084E+03 0.  0.
          2    1    1    2  501    0  0.70097882179E+02  0.54829361788E+02 -0.13803829741E+04  0.13832487582E+04  0.00000000000E+00 0. -1.
          1    1    1    2  502    0  0.12188367498E+02  0.27519875491E+02  0.18072398223E+04  0.18074904357E+04  0.00000000000E+00 0. -1.
         22    1    3    3    0    0  0.18199380737E+01  0.27317101545E+02 -0.34846757610E+02  0.44315152345E+02  0.00000000000E+00 0.  1.
         22    1    3    3    0    0 -0.84106187751E+02 -0.10966633882E+03 -0.55621595220E+02  0.14897757732E+03  0.00000000000E+00 0.  1.
</event>
<event>
 7    1  0.5622879E-006  0.1803143E+03  0.7818608E-02  0.1182185E+00
          2   -1    0    0  502    0  0.00000000000E+00  0.00000000000E+00  0.38561406225E+03  0.38561406225E+03  0.00000000000E+00 0. -1.
          1   -1    0    0  501    0 -0.00000000000E+00 -0.00000000000E+00 -0.57552215896E+03  0.57552215896E+03  0.00000000000E+00 0. -1.
         25    2    1    2    0    0 -0.14689793563E+03  0.11694437953E+03 -0.14856748196E+03  0.27009469663E+03  0.12499542813E+03 0.  0.
          2    1    1    2  501    0  0.19438526309E+03  0.28131244791E+02 -0.31875109581E+03  0.37440520631E+03  0.00000000000E+00 0. -1.
          1    1    1    2  502    0 -0.47487327460E+02 -0.14507562432E+03  0.27741048107E+03  0.31663631827E+03  0.00000000000E+00 0. -1.
         22    1    3    3    0    0 -0.81400372869E+02 -0.10458044325E+02 -0.60167819858E+02  0.10176226187E+03  0.00000000000E+00 0.  1.
         22    1    3    3    0    0 -0.65497562756E+02  0.12740242385E+03 -0.88399662105E+02  0.16833243476E+03  0.00000000000E+00 0.  1.
</event>
<event>
 7    1  0.5622879E-006  0.6393471E+02  0.7818608E-02  0.1457221E+00
          2   -1    0    0  502    0  0.00000000000E+00  0.00000000000E+00  0.65147914552E+03  0.65147914552E+03  0.00000000000E+00 0. -1.
          1   -1    0    0  501    0 -0.00000000000E+00 -0.00000000000E+00 -0.52824595395E+03  0.52824595395E+03  0.00000000000E+00 0. -1.
         25    2    1    2    0    0 -0.98772186085E+01 -0.60052388110E+02  0.32570309423E+03  0.35413296282E+03  0.12499520390E+03 0.  0.
          2    1    1    2  501    0  0.43301821673E+02  0.47141824607E+02 -0.51099736387E+03  0.51499097591E+03  0.00000000000E+00 0. -1.
          1    1    1    2  502    0 -0.33424603064E+02  0.12910563503E+02  0.30852746120E+03  0.31060116074E+03  0.00000000000E+00 0. -1.
         22    1    3    3    0    0  0.63084972404E+01 -0.93684996654E+02  0.27882336496E+03  0.29420935502E+03  0.00000000000E+00 0. -1.
         22    1    3    3    0    0 -0.16185715849E+02  0.33632608544E+02  0.46879729277E+02  0.59923607803E+02  0.00000000000E+00 0. -1.
</event>
<event>
 7    1  0.5622879E-006  0.1911604E+03  0.7818608E-02  0.1243679E+00
          2   -1    0    0  502    0  0.00000000000E+00  0.00000000000E+00  0.90730842251E+03  0.90730842251E+03  0.00000000000E+00 0. -1.
          1   -1    0    0  501    0 -0.00000000000E+00 -0.00000000000E+00 -0.30865599330E+04  0.30865599330E+04  0.00000000000E+00 0. -1.
         25    2    1    2    0    0  0.18453219776E+03  0.12366903549E+03 -0.92051603092E+03  0.95515507996E+03  0.12500120495E+03 0.  0.
          2    1    1    2  501    0  0.84679743287E-01 -0.74887907660E+02 -0.21378186542E+04  0.21391299176E+04  0.00000000000E+00 0. -1.
          1    1    1    2  502    0 -0.18461687750E+03 -0.48781127830E+02  0.87908317469E+03  0.89958335796E+03  0.00000000000E+00 0. -1.
         22    1    3    3    0    0  0.17131695891E+03  0.47911352641E+02 -0.65499644433E+03  0.67872331638E+03  0.00000000000E+00 0.  1.
         22    1    3    3    0    0  0.13215238853E+02  0.75757682849E+02 -0.26551958659E+03  0.27643176357E+03  0.00000000000E+00 0.  1.
</event>
<event>
 7    1  0.5622879E-006  0.1219534E+03  0.7818608E-02  0.1294440E+00
          2   -1    0    0  502    0  0.00000000000E+00  0.00000000000E+00  0.98524098749E+03  0.98524098749E+03  0.00000000000E+00 0. -1.
          1   -1    0    0  501    0 -0.00000000000E+00 -0.00000000000E+00 -0.54865352245E+03  0.54865352245E+03  0.00000000000E+00 0. -1.
         25    2    1    2    0    0 -0.26394966345E+02  0.65425828255E+02 -0.11303389355E+03  0.18270228925E+03  0.12500492852E+03 0.  0.
          2    1    1    2  501    0  0.73100399591E+02 -0.11994029593E+03 -0.38706306424E+03  0.41176104564E+03  0.00000000000E+00 0. -1.
          1    1    1    2  502    0 -0.46705433247E+02  0.54514467671E+02  0.93668442283E+03  0.93943117505E+03  0.00000000000E+00 0. -1.
         22    1    3    3    0    0 -0.14769731284E+02  0.83059194966E+02 -0.13043325351E+03  0.15533772386E+03  0.00000000000E+00 0. -1.
         22    1    3    3    0    0 -0.11625235061E+02 -0.17633366711E+02  0.17399359968E+02  0.27364565392E+02  0.00000000000E+00 0. -1.
</event>
<event>
 7    1  0.5622879E-006  0.8885523E+02  0.7818608E-02  0.1349441E+00
          2   -1    0    0  502    0  0.00000000000E+00  0.00000000000E+00  0.45550289240E+03  0.45550289240E+03  0.00000000000E+00 0. -1.
          1   -1    0    0  501    0 -0.00000000000E+00 -0.00000000000E+00 -0.62091234001E+03  0.62091234001E+03  0.00000000000E+00 0. -1.
         25    2    1    2    0    0  0.72807355519E+01  0.10821742121E+03 -0.47329716113E+03  0.50139789654E+03  0.12500251420E+03 0.  0.
          2    1    1    2  501    0 -0.51637600680E+02 -0.31241468172E+02 -0.12196455381E+03  0.13608020989E+03  0.00000000000E+00 0. -1.
          1    1    1    2  502    0  0.44356865128E+02 -0.76975953042E+02  0.42985226733E+03  0.43893712598E+03  0.00000000000E+00 0. -1.
         22    1    3    3    0    0  0.43072833747E+02  0.49462795008E+02 -0.86631135020E+02  0.10865905692E+03  0.00000000000E+00 0.  1.
         22    1    3    3    0    0 -0.35792098196E+02  0.58754626206E+02 -0.38666602611E+03  0.39273883962E+03  0.00000000000E+00 0.  1.
</event>
<event>
 7    1  0.5622879E-006  0.1035979E+03  0.7818608E-02  0.1439455E+00
          2   -1    0    0  502    0  0.00000000000E+00  0.00000000000E+00  0.11544604327E+03  0.11544604327E+03  0.00000000000E+00 0. -1.
          1   -1    0    0  501    0 -0.00000000000E+00 -0.00000000000E+00 -0.61753119611E+03  0.61753119611E+03  0.00000000000E+00 0. -1.
         25    2    1    2    0    0 -0.89507668980E+02  0.25820034921E+02 -0.23074085031E+03  0.27846669893E+03  0.12499626156E+03 0.  0.
          2    1    1    2  501    0 -0.24283436774E+01  0.25096048743E+02 -0.33214217064E+03  0.33309777849E+03  0.00000000000E+00 0. -1.
          1    1    1    2  502    0  0.91936012657E+02 -0.50916083664E+02  0.60797868110E+02  0.12141276196E+03  0.00000000000E+00 0. -1.
         22    1    3    3    0    0  0.86914679991E+01  0.25924702219E+02 -0.14666635684E+03  0.14919333776E+03  0.00000000000E+00 0.  1.
         22    1    3    3    0    0 -0.98199136979E+02 -0.10466729816E+00 -0.84074493464E+02  0.12927336118E+03  0.00000000000E+00 0.  1.
</event>
<event>
 7    1  0.5622879E-006  0.5550880E+02  0.7818608E-02  0.1542416E+00
          2   -1    0    0  502    0  0.00000000000E+00  0.00000000000E+00  0.25130827253E+03  0.25130827253E+03  0.00000000000E+00 0. -1.
          1   -1    0    0  501    0 -0.00000000000E+00 -0.00000000000E+00 -0.15541283154E+04  0.15541283154E+04  0.00000000000E+00 0. -1.
         25    2    1    2    0    0 -0.47404259313E+02  0.63328720001E+01 -0.52340911377E+03  0.54025012564E+03  0.12500331519E+03 0.  0.
          2    1    1    2  501    0  0.48400767842E+02 -0.29279588206E+02 -0.10209709975E+04  0.10225368973E+04  0.00000000000E+00 0. -1.
          1    1    1    2  502    0 -0.99650852815E+00  0.22946716206E+02  0.24156006833E+03  0.24264956506E+03  0.00000000000E+00 0. -1.
         22    1    3    3    0    0 -0.72398991536E+01  0.61477283722E+02 -0.31283966634E+03  0.31890520440E+03  0.00000000000E+00 0.  1.
         22    1    3    3    0    0 -0.40164360160E+02 -0.55144411722E+02 -0.21056944743E+03  0.22134492125E+03  0.00000000000E+00 0.  1.
</event>
<event>
 7    1  0.5622879E-006  0.2113509E+03  0.7818608E-02  0.1276614E+00
          2   -1    0    0  502    0  0.00000000000E+00  0.00000000000E+00  0.11694434397E+04  0.11694434397E+04  0.00000000000E+00 0. -1.
          1   -1    0    0  501    0 -0.00000000000E+00 -0.00000000000E+00 -0.15352970742E+04  0.15352970742E+04  0.00000000000E+00 0. -1.
         25    2    1    2    0    0 -0.19916768971E+03  0.16673622063E+03  0.88976705907E+03  0.93529755199E+03  0.12500942152E+03 0.  0.
          2    1    1    2  501    0  0.16440621387E+03 -0.13219289763E+03 -0.15027581743E+04  0.15174934912E+04  0.00000000000E+00 0. -1.
          1    1    1    2  502    0  0.34761475838E+02 -0.34543323003E+02  0.24713748080E+03  0.25194947069E+03  0.00000000000E+00 0. -1.
         22    1    3    3    0    0 -0.26698112898E+02  0.82196563707E+01  0.29102518345E+03  0.29236280438E+03  0.00000000000E+00 0.  1.
         22    1    3    3    0    0 -0.17246957681E+03  0.15851656426E+03  0.59874187562E+03  0.64293474761E+03  0.00000000000E+00 0.  1.
</event>
<event>
 7    1  0.5622879E-006  0.5488053E+02  0.7818608E-02  0.1485642E+00
          2   -1    0    0  502    0  0.00000000000E+00  0.00000000000E+00  0.10871654757E+04  0.10871654757E+04  0.00000000000E+00 0. -1.
          1   -1    0    0  501    0 -0.00000000000E+00 -0.00000000000E+00 -0.33187092189E+03  0.33187092189E+03  0.00000000000E+00 0. -1.
         25    2    1    2    0    0 -0.28352560266E+02  0.64992421356E+01  0.43235303050E+03  0.45099815272E+03  0.12499633175E+03 0.  0.
          2    1    1    2  501    0 -0.29664289087E+02 -0.16751987913E+02 -0.32029879586E+03  0.32210544512E+03  0.00000000000E+00 0. -1.
          1    1    1    2  502    0  0.58016849353E+02  0.10252745777E+02  0.64324031917E+03  0.64593279976E+03  0.00000000000E+00 0. -1.
         22    1    3    3    0    0 -0.67476119989E+01  0.65310840515E+02  0.22553391707E+03  0.23489696444E+03  0.00000000000E+00 0.  1.
         22    1    3    3    0    0 -0.21604948267E+02 -0.58811598379E+02  0.20681911343E+03  0.21610118828E+03  0.00000000000E+00 0.  1.
</event>
<event>
 7    1  0.6332739E-006  0.4092481E+02  0.7818608E-02  0.1536324E+00
          2   -1    0    0  502    0  0.00000000000E+00  0.00000000000E+00  0.20871864984E+04  0.20871864984E+04  0.00000000000E+00 0. -1.
          1   -1    0    0  501    0 -0.00000000000E+00 -0.00000000000E+00 -0.23929327166E+04  0.23929327166E+04  0.00000000000E+00 0. -1.
         25    2    1    2    0    0  0.11543882255E+02  0.28287904644E+02 -0.53858555509E+03  0.55374412994E+03  0.12499877813E+03 0.  0.
          2    1    1    2  501    0  0.27736448800E+02 -0.16774579693E+02 -0.18464241898E+04  0.18467086900E+04  0.00000000000E+00 0. -1.
          1    1    1    2  502    0 -0.39280331054E+02 -0.11513324951E+02  0.20792635267E+04  0.20796663950E+04  0.00000000000E+00 0. -1.
         22    1    3    3    0    0  0.22856006754E+02 -0.38356221924E+02 -0.36061050839E+03  0.36336419137E+03  0.00000000000E+00 0. -1.
         22    1    3    3    0    0 -0.11312124500E+02  0.66644126568E+02 -0.17797504670E+03  0.19037993858E+03  0.00000000000E+00 0. -1.
</event>
<event>
 7    1  0.5622879E-006  0.1225803E+03  0.7818608E-02  0.1418911E+00
          2   -1    0    0  502    0  0.00000000000E+00  0.00000000000E+00  0.18427605253E+04  0.18427605253E+04  0.00000000000E+00 0. -1.
          1   -1    0    0  501    0 -0.00000000000E+00 -0.00000000000E+00 -0.97926849478E+03  0.97926849478E+03  0.00000000000E+00 0. -1.
         25    2    1    2    0    0  0.14161948557E+03 -0.19805631807E+02 -0.80499949778E+03  0.82710150567E+03  0.12499747004E+03 0.  0.
          2    1    1    2  501    0 -0.19149990322E+02  0.15921806824E+02 -0.16020567500E+03  0.16212983798E+03  0.00000000000E+00 0. -1.
          1    1    1    2  502    0 -0.12246949525E+03  0.38838249828E+01  0.18286972033E+04  0.18327976764E+04  0.00000000000E+00 0. -1.
         22    1    3    3    0    0  0.19510678667E+02 -0.10840305021E+02 -0.46829612494E+03  0.46882772895E+03  0.00000000000E+00 0.  1.
         22    1    3    3    0    0  0.12210880690E+03 -0.89653267853E+01 -0.33670337283E+03  0.35827377672E+03  0.00000000000E+00 0.  1.
</event>
<event>
 7    1  0.5622879E-006  0.6258905E+02  0.7818608E-02  0.1492859E+00
          2   -1    0    0  502    0  0.00000000000E+00  0.00000000000E+00  0.15101517570E+04  0.15101517570E+04  0.00000000000E+00 0. -1.
          1   -1    0    0  501    0 -0.00000000000E+00 -0.00000000000E+00 -0.41436177369E+03  0.41436177369E+03  0.00000000000E+00 0. -1.
         25    2    1    2    0    0  0.53469984247E+02 -0.65591346314E+02  0.60541567554E+03  0.62394992424E+03  0.12499641533E+03 0.  0.
          2    1    1    2  501    0 -0.50100669665E+02  0.37386270454E+02 -0.40245576318E+03  0.40728178407E+03  0.00000000000E+00 0. -1.
          1    1    1    2  502    0 -0.33693145820E+01  0.28205075861E+02  0.89283007095E+03  0.89328182237E+03  0.00000000000E+00 0. -1.
         22    1    3    3    0    0 -0.27493075013E+02 -0.60686928158E+02  0.21054714888E+03  0.22083675945E+03  0.00000000000E+00 0.  1.
         22    1    3    3    0    0  0.80963059260E+02 -0.49044181561E+01  0.39486852666E+03  0.40311316480E+03  0.00000000000E+00 0.  1.
</event>
<event>
 7    1  0.5622879E-006  0.1757701E+03  0.7818608E-02  0.1246785E+00
          2   -1    0    0  502    0  0.00000000000E+00  0.00000000000E+00  0.55144033751E+03  0.55144033751E+03  0.00000000000E+00 0. -1.
          1   -1    0    0  501    0 -0.00000000000E+00 -0.00000000000E+00 -0.21634921215E+04  0.21634921215E+04  0.00000000000E+00 0. -1.
         25    2    1    2    0    0  0.17353766372E+03 -0.13539195969E+03 -0.77063878565E+03  0.81114387947E+03  0.12499580700E+03 0.  0.
          2    1    1    2  501    0 -0.78433950623E+01  0.78547083748E+02 -0.13569803932E+04  0.13592744207E+04  0.00000000000E+00 0. -1.
          1    1    1    2  502    0 -0.16569426866E+03  0.56844875946E+02  0.51556739484E+03  0.54451415887E+03  0.00000000000E+00 0. -1.
         22    1    3    3    0    0  0.17692956397E+03 -0.75874310853E+02 -0.55626365894E+03  0.58863421571E+03  0.00000000000E+00 0. -1.
         22    1    3    3    0    0 -0.33919002442E+01 -0.59517648842E+02 -0.21437512672E+03  0.22250966376E+03  0.00000000000E+00 0. -1.
</event>
<event>
 7    1  0.5622879E-006  0.1192675E+03  0.7818608E-02  0.1372117E+00
          2   -1    0    0  502    0  0.00000000000E+00  0.00000000000E+00  0.18413424388E+04  0.18413424388E+04  0.00000000000E+00 0. -1.
          1   -1    0    0  501    0 -0.00000000000E+00 -0.00000000000E+00 -0.11728292233E+04  0.11728292233E+04  0.00000000000E+00 0. -1.
         25    2    1    2    0    0 -0.90518980790E+01 -0.95546447870E+02  0.11134467168E+03  0.19296093995E+03  0.12500091150E+03 0.  0.
          2    1    1    2  501    0  0.28811245625E+02 -0.23484600940E+02 -0.11295602909E+04  0.11301716972E+04  0.00000000000E+00 0. -1.
          1    1    1    2  502    0 -0.19759347546E+02  0.11903104881E+03  0.16867288346E+04  0.16910390250E+04  0.00000000000E+00 0. -1.
         22    1    3    3    0    0 -0.27870348137E+01 -0.10732449140E+03  0.31325567155E+02  0.11183740508E+03  0.00000000000E+00 0.  1.
         22    1    3    3    0    0 -0.62648632652E+01  0.11778043528E+02  0.80019104529E+02  0.81123534875E+02  0.00000000000E+00 0.  1.
</event>
<event>
 7    1  0.5622879E-006  0.3133846E+03  0.7818608E-02  0.1211037E+00
          2   -1    0    0  502    0  0.00000000000E+00  0.00000000000E+00  0.96575428011E+03  0.96575428011E+03  0.00000000000E+00 0. -1.
          1   -1    0    0  501    0 -0.00000000000E+00 -0.00000000000E+00 -0.71216542761E+03  0.71216542761E+03  0.00000000000E+00 0. -1.
         25    2    1    2    0    0 -0.30368675361E+02  0.36271269505E+03  0.16816381006E+03  0.41998442610E+03  0.12500038224E+03 0.  0.
          2    1    1    2  501    0  0.51195051880E+01 -0.63882036314E+02 -0.55082973567E+03  0.55454532871E+03  0.00000000000E+00 0. -1.
          1    1    1    2  502    0  0.25249170173E+02 -0.29883065873E+03  0.63625477811E+03  0.70338995291E+03  0.00000000000E+00 0. -1.
         22    1    3    3    0    0 -0.39458944501E+02  0.31495206638E+03  0.18635327612E+03  0.36807520419E+03  0.00000000000E+00 0.  1.
         22    1    3    3    0    0  0.90902691402E+01  0.47760628663E+02 -0.18189466059E+02  0.51909221905E+02  0.00000000000E+00 0.  1.
</event>
<event>
 7    1  0.5622879E-006  0.4048659E+02  0.7818608E-02  0.1567230E+00
          2   -1    0    0  502    0  0.00000000000E+00  0.00000000000E+00  0.88210603039E+03  0.88210603039E+03  0.00000000000E+00 0. -1.
          1   -1    0    0  501    0 -0.00000000000E+00 -0.00000000000E+00 -0.27081878719E+03  0.27081878719E+03  0.00000000000E+00 0. -1.
         25    2    1    2    0    0 -0.12076241463E+02  0.48230797679E+02  0.10919792418E+02  0.13496862198E+03  0.12500096639E+03 0.  0.
          2    1    1    2  501    0  0.29448512291E+02 -0.27721334349E+02 -0.20661003431E+03  0.21053121747E+03  0.00000000000E+00 0. -1.
          1    1    1    2  502    0 -0.17372270828E+02 -0.20509463330E+02  0.80697748509E+03  0.80742497814E+03  0.00000000000E+00 0. -1.
         22    1    3    3    0    0 -0.20002634173E-02 -0.38116030244E+02  0.26470099825E+02  0.46405796517E+02  0.00000000000E+00 0.  1.
         22    1    3    3    0    0 -0.12074241200E+02  0.86346827923E+02 -0.15550307407E+02  0.88562825460E+02  0.00000000000E+00 0.  1.
</event>
<event>
 7    1  0.5622879E-006  0.1590029E+03  0.7818608E-02  0.1342790E+00
          2   -1    0    0  502    0  0.00000000000E+00  0.00000000000E+00  0.20923960044E+04  0.20923960044E+04  0.00000000000E+00 0. -1.
          1   -1    0    0  501    0 -0.00000000000E+00 -0.00000000000E+00 -0.77956469727E+02  0.77956469727E+02  0.00000000000E+00 0. -1.
         25    2    1    2    0    0 -0.10124220681E+03  0.10198408935E+03  0.15226598165E+03  0.24384560446E+03  0.12500004291E+03 0.  0.
          2    1    1    2  501    0  0.11862193437E+03 -0.13317698439E+03  0.21673154376E+03  0.28067745643E+03  0.00000000000E+00 0. -1.
          1    1    1    2  502    0 -0.17379727565E+02  0.31192895043E+02  0.16454420093E+04  0.16458294132E+04  0.00000000000E+00 0. -1.
         22    1    3    3    0    0 -0.10694698483E+03  0.75118442219E+02  0.53306103349E+02  0.14114523931E+03  0.00000000000E+00 0.  1.
         22    1    3    3    0    0  0.57047780258E+01  0.26865647130E+02  0.98959878297E+02  0.10270036514E+03  0.00000000000E+00 0.  1.
</event>
<event>
 7    1  0.5622879E-006  0.6176001E+02  0.7818608E-02  0.1462426E+00
          2   -1    0    0  502    0  0.00000000000E+00  0.00000000000E+00  0.36130133707E+04  0.36130133707E+04  0.00000000000E+00 0. -1.
          1   -1    0    0  501    0 -0.00000000000E+00 -0.00000000000E+00 -0.94413237324E+03  0.94413237324E+03  0.00000000000E+00 0. -1.
         25    2    1    2    0    0 -0.22122680765E+02 -0.67514971227E+02  0.11255275791E+04  0.11346759038E+04  0.12501756334E+03 0.  0.
          2    1    1    2  501    0  0.34993299390E+02  0.71501479803E+01 -0.93883501174E+03  0.93951414831E+03  0.00000000000E+00 0. -1.
          1    1    1    2  502    0 -0.12870618625E+02  0.60364823247E+02  0.24821884302E+04  0.24829556918E+04  0.00000000000E+00 0. -1.
         22    1    3    3    0    0 -0.51649663153E+02  0.24223669253E+01  0.22099774472E+03  0.22696598586E+03  0.00000000000E+00 0. -1.
         22    1    3    3    0    0  0.29526982388E+02 -0.69937338153E+02  0.90452983436E+03  0.90770991798E+03  0.00000000000E+00 0. -1.
</event>
<event>
 7    1  0.5622879E-006  0.4082290E+02  0.7818608E-02  0.1536709E+00
          2   -1    0    0  502    0  0.00000000000E+00  0.00000000000E+00  0.68389105091E+03  0.68389105091E+03  0.00000000000E+00 0. -1.
          1   -1    0    0  501    0 -0.00000000000E+00 -0.00000000000E+00 -0.17014580110E+04  0.17014580110E+04  0.00000000000E+00 0. -1.
         25    2    1    2    0    0 -0.28068885580E+02  0.67388602915E+02 -0.67149147500E+02  0.15957314844E+03  0.12500198219E+03 0.  0.
          2    1    1    2  501    0  0.13720740619E+02 -0.29366460087E+02 -0.15872837475E+04  0.15876146708E+04  0.00000000000E+00 0. -1.
          1    1    1    2  502    0  0.14348144960E+02 -0.38022142829E+02  0.63686593493E+03  0.63816124270E+03  0.00000000000E+00 0. -1.
         22    1    3    3    0    0  0.46134777370E+02  0.12095108362E+02 -0.42314666524E+02  0.63759237231E+02  0.00000000000E+00 0. -1.
         22    1    3    3    0    0 -0.74203662950E+02  0.55293494553E+02 -0.24834480976E+02  0.95813911205E+02  0.00000000000E+00 0. -1.
</event>
<event>
 7    1  0.5622879E-006  0.1056147E+03  0.7818608E-02  0.1318330E+00
          2   -1    0    0  502    0  0.00000000000E+00  0.00000000000E+00  0.19045046199E+03  0.19045046199E+03  0.00000000000E+00 0. -1.
          1   -1    0    0  501    0 -0.00000000000E+00 -0.00000000000E+00 -0.71776776613E+03  0.71776776613E+03  0.00000000000E+00 0. -1.
         25    2    1    2    0    0  0.12851573197E+02 -0.71147261386E+02 -0.19564410851E+03  0.24316442309E+03  0.12500089490E+03 0.  0.
          2    1    1    2  501    0 -0.76889532859E+02  0.89632366186E+02 -0.48430945008E+03  0.49849935283E+03  0.00000000000E+00 0. -1.
          1    1    1    2  502    0  0.64037959662E+02 -0.18485104799E+02  0.15263625445E+03  0.16655445221E+03  0.00000000000E+00 0. -1.
         22    1    3    3    0    0  0.25398098560E+01  0.92643420522E+00  0.17614020468E+02  0.17820287077E+02  0.00000000000E+00 0. -1.
         22    1    3    3    0    0  0.10311763341E+02 -0.72073695592E+02 -0.21325812898E+03  0.22534413601E+03  0.00000000000E+00 0. -1.
</event>
<event>
 7    1  0.5622879E-006  0.5704649E+02  0.7818608E-02  0.1516544E+00
          2   -1    0    0  502    0  0.00000000000E+00  0.00000000000E+00  0.16918184242E+03  0.16918184242E+03  0.00000000000E+00 0. -1.
          1   -1    0    0  501    0 -0.00000000000E+00 -0.00000000000E+00 -0.48916582412E+03  0.48916582412E+03  0.00000000000E+00 0. -1.
         25    2    1    2    0    0  0.63030390649E+02 -0.16003710592E+02  0.17989646152E+02  0.14204765873E+03  0.12499984434E+03 0.  0.
          2    1    1    2  501    0 -0.18536483332E+02 -0.18954848859E+02 -0.41769664924E+03  0.41853718867E+03  0.00000000000E+00 0. -1.
          1    1    1    2  502    0 -0.44493907317E+02  0.34958559451E+02  0.79723021390E+02  0.97762819143E+02  0.00000000000E+00 0. -1.
         22    1    3    3    0    0  0.63826994975E+02 -0.13578430869E+02 -0.44833539632E+02  0.79172630046E+02  0.00000000000E+00 0. -1.
         22    1    3    3    0    0 -0.79660432665E+00 -0.24252797227E+01  0.62823185785E+02  0.62875028687E+02  0.00000000000E+00 0. -1.
</event>
<event>
 7    1  0.5622879E-006  0.1436640E+03  0.7818608E-02  0.1392146E+00
          2   -1    0    0  502    0  0.00000000000E+00  0.00000000000E+00  0.13965565388E+04  0.13965565388E+04  0.00000000000E+00 0. -1.
          1   -1    0    0  501    0 -0.00000000000E+00 -0.00000000000E+00 -0.36866591993E+03  0.36866591993E+03  0.00000000000E+00 0. -1.
         25    2    1    2    0    0  0.87388213126E+02 -0.12196094737E+03  0.50926544794E+02  0.20181653338E+03  0.12500091081E+03 0.  0.
          2    1    1    2  501    0 -0.10206638173E+03  0.10023308726E+03 -0.27562776607E+03  0.31053966492E+03  0.00000000000E+00 0. -1.
          1    1    1    2  502    0  0.14678168601E+02  0.21727860108E+02  0.12525918402E+04  0.12528662605E+04  0.00000000000E+00 0. -1.
         22    1    3    3    0    0  0.41495139528E+02  0.18532690070E+02 -0.13376159116E+00  0.45445847971E+02  0.00000000000E+00 0.  1.
         22    1    3    3    0    0  0.45893073598E+02 -0.14049363744E+03  0.51060306385E+02  0.15637068540E+03  0.00000000000E+00 0.  1.
</event>
<event>
 7    1  0.5622879E-006  0.5859364E+02  0.7818608E-02  0.1411339E+00
          2   -1    0    0  502    0  0.00000000000E+00  0.00000000000E+00  0.71501339089E+03  0.71501339089E+03  0.00000000000E+00 0. -1.
          1   -1    0    0  501    0 -0.00000000000E+00 -0.00000000000E+00 -0.10546738313E+03  0.10546738313E+03  0.00000000000E+00 0. -1.
         25    2    1    2    0    0 -0.61558352003E+02  0.16349551686E+02  0.18408147138E+03  0.23144647784E+03  0.12499898182E+03 0.  0.
          2    1    1    2  501    0  0.22348936544E+02 -0.55271671229E+02 -0.69173545261E+02  0.91320380908E+02  0.00000000000E+00 0. -1.
          1    1    1    2  502    0  0.39209415458E+02  0.38922119543E+02  0.49463808163E+03  0.49771391527E+03  0.00000000000E+00 0. -1.
         22    1    3    3    0    0 -0.10241201448E+02 -0.46431720957E+02  0.11671127165E+03  0.12602502866E+03  0.00000000000E+00 0. -1.
         22    1    3    3    0    0 -0.51317150555E+02  0.62781272643E+02  0.67370199730E+02  0.10542144918E+03  0.00000000000E+00 0. -1.
</event>
<event>
 7    1  0.5622879E-006  0.2961858E+03  0.7818608E-02  0.1244468E+00
          2   -1    0    0  502    0  0.00000000000E+00  0.00000000000E+00  0.10364563546E+04  0.10364563546E+04  0.00000000000E+00 0. -1.
          1   -1    0    0  501    0 -0.00000000000E+00 -0.00000000000E+00 -0.29932683982E+03  0.29932683982E+03  0.00000000000E+00 0. -1.
         25    2    1    2    0    0  0.22841383988E+03 -0.24353529164E+03  0.43978359871E+03  0.56614238244E+03  0.12500105191E+03 0.  0.
          2    1    1    2  501    0 -0.21020021769E+03  0.19917898226E+03 -0.14558893110E+03  0.32411808859E+03  0.00000000000E+00 0. -1.
          1    1    1    2  502    0 -0.18213622183E+02  0.44356309379E+02  0.44293484714E+03  0.44552272336E+03  0.00000000000E+00 0. -1.
         22    1    3    3    0    0  0.57235132774E+02 -0.79572561372E+02  0.22839789489E+03  0.24854225262E+03  0.00000000000E+00 0.  1.
         22    1    3    3    0    0  0.17117870710E+03 -0.16396273027E+03  0.21138570382E+03  0.31760012982E+03  0.00000000000E+00 0.  1.
</event>
<event>
 7    1  0.5622879E-006  0.2696060E+03  0.7818608E-02  0.1246003E+00
          2   -1    0    0  502    0  0.00000000000E+00  0.00000000000E+00  0.21806827719E+04  0.21806827719E+04  0.00000000000E+00 0. -1.
          1   -1    0    0  501    0 -0.00000000000E+00 -0.00000000000E+00 -0.45607078738E+03  0.45607078738E+03  0.00000000000E+00 0. -1.
         25    2    1    2    0    0  0.10187197323E+03 -0.30054973040E+03  0.63863082622E+02  0.34700330788E+03  0.12499905193E+03 0.  0.
          2    1    1    2  501    0 -0.25601930437E+02  0.45111099280E+02 -0.30329435410E+03  0.30769779874E+03  0.00000000000E+00 0. -1.
          1    1    1    2  502    0 -0.76270042794E+02  0.25543863112E+03  0.19640432560E+04  0.19820524527E+04  0.00000000000E+00 0. -1.
         22    1    3    3    0    0  0.12465858510E+03 -0.27311555767E+03  0.75358601918E+02  0.30953318007E+03  0.00000000000E+00 0. -1.
         22    1    3    3    0    0 -0.22786611873E+02 -0.27434172735E+02 -0.11495519296E+02  0.37470127811E+02  0.00000000000E+00 0. -1.
</event>
<event>
 7    1  0.5622879E-006  0.5321392E+02  0.7818608E-02  0.1434294E+00
          2   -1    0    0  502    0  0.00000000000E+00  0.00000000000E+00  0.17984841266E+04  0.17984841266E+04  0.00000000000E+00 0. -1.
          1   -1    0    0  501    0 -0.00000000000E+00 -0.00000000000E+00 -0.10079720325E+03  0.10079720325E+03  0.00000000000E+00 0. -1.
         25    2    1    2    0    0  0.22487506461E+02  0.26480726737E+01 -0.30643586212E+01  0.12707324411E+03  0.12500207534E+03 0.  0.
          2    1    1    2  501    0 -0.47616767420E+02 -0.49554806358E+02 -0.18755023708E+01  0.68749930050E+02  0.00000000000E+00 0. -1.
          1    1    1    2  502    0  0.25129260959E+02  0.46906733684E+02  0.17026267843E+04  0.17034581557E+04  0.00000000000E+00 0. -1.
         22    1    3    3    0    0  0.13091600885E+01  0.58653268888E+02 -0.24358541946E+02  0.63523683907E+02  0.00000000000E+00 0.  1.
         22    1    3    3    0    0  0.21178346373E+02 -0.56005196214E+02  0.21294183325E+02  0.63549560199E+02  0.00000000000E+00 0.  1.
</event>
<event>
 7    1  0.5622879E-006  0.6569084E+02  0.7818608E-02  0.1446022E+00
          2   -1    0    0  502    0  0.00000000000E+00  0.00000000000E+00  0.26112634462E+03  0.26112634462E+03  0.00000000000E+00 0. -1.
          1   -1    0    0  501    0 -0.00000000000E+00 -0.00000000000E+00 -0.17608577141E+03  0.17608577141E+03  0.00000000000E+00 0. -1.
         25    2    1    2    0    0 -0.29840201009E+02  0.81241479473E+02 -0.19413972886E+02  0.15327148365E+03  0.12499851909E+03 0.  0.
          2    1    1    2  501    0  0.34041146489E+02 -0.16583424606E+02 -0.79960958481E+02  0.88473524329E+02  0.00000000000E+00 0. -1.
          1    1    1    2  502    0 -0.42009454803E+01 -0.64658054867E+02  0.18441550458E+03  0.19546710805E+03  0.00000000000E+00 0. -1.
         22    1    3    3    0    0  0.32576233046E+02 -0.73954372664E+01 -0.29272545747E+02  0.44416048747E+02  0.00000000000E+00 0.  1.
         22    1    3    3    0    0 -0.62416434054E+02  0.88636916740E+02  0.98585728605E+01  0.10885543490E+03  0.00000000000E+00 0.  1.
</event>
<event>
 7    1  0.5622879E-006  0.7252622E+02  0.7818608E-02  0.1398793E+00
          2   -1    0    0  502    0  0.00000000000E+00  0.00000000000E+00  0.33157639124E+03  0.33157639124E+03  0.00000000000E+00 0. -1.
          1   -1    0    0  501    0 -0.00000000000E+00 -0.00000000000E+00 -0.11194049313E+04  0.11194049313E+04  0.00000000000E+00 0. -1.
         25    2    1    2    0    0 -0.40754933410E+02  0.42595112193E+01 -0.27470197432E+03  0.30457440298E+03  0.12500113690E+03 0.  0.
          2    1    1    2  501    0  0.58603084887E+02 -0.50172401800E+02 -0.82604262256E+03  0.82963727360E+03  0.00000000000E+00 0. -1.
          1    1    1    2  502    0 -0.17848151477E+02  0.45912890580E+02  0.31291605678E+03  0.31676964599E+03  0.00000000000E+00 0. -1.
         22    1    3    3    0    0  0.20334178225E+02 -0.19227538295E+02 -0.68080090592E+01  0.28801493369E+02  0.00000000000E+00 0. -1.
         22    1    3    3    0    0 -0.61089111635E+02  0.23487049514E+02 -0.26789396526E+03  0.27577290961E+03  0.00000000000E+00 0. -1.
</event>
<event>
 7    1  0.5622879E-006  0.5023430E+02  0.7818608E-02  0.1484628E+00
          2   -1    0    0  502    0  0.00000000000E+00  0.00000000000E+00  0.17111887410E+04  0.17111887410E+04  0.00000000000E+00 0. -1.
          1   -1    0    0  501    0 -0.00000000000E+00 -0.00000000000E+00 -0.13264762744E+03  0.13264762744E+03  0.00000000000E+00 0. -1.
         25    2    1    2    0    0 -0.10992243742E+02  0.19726462013E+02  0.18008148832E+03  0.22037299495E+03  0.12499980696E+03 0.  0.
          2    1    1    2  501    0  0.48363517703E+02 -0.16822047006E+02 -0.10642979024E+03  0.11810720283E+03  0.00000000000E+00 0. -1.
          1    1    1    2  502    0 -0.37371273961E+02 -0.29044150077E+01  0.15048894155E+04  0.15053561707E+04  0.00000000000E+00 0. -1.
         22    1    3    3    0    0 -0.19586935318E+02 -0.43592214715E+02  0.13205780692E+03  0.14043928790E+03  0.00000000000E+00 0.  1.
         22    1    3    3    0    0  0.85946915761E+01  0.63318676728E+02  0.48023681403E+02  0.79933707041E+02  0.00000000000E+00 0.  1.
</event>
<event>
 7    1  0.5622879E-006  0.1352240E+03  0.7818608E-02  0.1409787E+00
          2   -1    0    0  502    0  0.00000000000E+00  0.00000000000E+00  0.25628299393E+03  0.25628299393E+03  0.00000000000E+00 0. -1.
          1   -1    0    0  501    0 -0.00000000000E+00 -0.00000000000E+00 -0.15092762954E+04  0.15092762954E+04  0.00000000000E+00 0. -1.
         25    2    1    2    0    0 -0.47328691204E+02  0.14323140681E+03  0.48272382808E+02  0.20176561459E+03  0.12499559745E+03 0.  0.
          2    1    1    2  501    0  0.25656335214E+02 -0.13239441240E+03 -0.14282073334E+04  0.14345601120E+04  0.00000000000E+00 0. -1.
          1    1    1    2  502    0  0.21672355991E+02 -0.10836994410E+02  0.12694164908E+03  0.12923356272E+03  0.00000000000E+00 0. -1.
         22    1    3    3    0    0 -0.29200687526E+02 -0.14685396697E+01  0.47683374452E+02  0.55933361779E+02  0.00000000000E+00 0. -1.
         22    1    3    3    0    0 -0.18128003678E+02  0.14469994648E+03  0.58900835606E+00  0.14583225281E+03  0.00000000000E+00 0. -1.
</event>
<event>
 7    1  0.5622879E-006  0.2073290E+03  0.7818608E-02  0.1264237E+00
          2   -1    0    0  502    0  0.00000000000E+00  0.00000000000E+00  0.33874800192E+04  0.33874800192E+04  0.00000000000E+00 0. -1.
          1   -1    0    0  501    0 -0.00000000000E+00 -0.00000000000E+00 -0.45054050008E+02  0.45054050008E+02  0.00000000000E+00 0. -1.
         25    2    1    2    0    0 -0.16313165537E+03 -0.28963998667E+02  0.10274542912E+04  0.10482070247E+04  0.12499918379E+03 0.  0.
          2    1    1    2  501    0  0.21931157145E+03  0.32693719911E+02  0.32428913900E+03  0.39284843180E+03  0.00000000000E+00 0. -1.
          1    1    1    2  502    0 -0.56179916074E+02 -0.37297212443E+01  0.19906825389E+04  0.19914786127E+04  0.00000000000E+00 0. -1.
         22    1    3    3    0    0 -0.11912237534E+03  0.58649374952E+01  0.91274163225E+03  0.92050085553E+03  0.00000000000E+00 0. -1.
         22    1    3    3    0    0 -0.44009280036E+02 -0.34828936162E+02  0.11471265898E+03  0.12770616921E+03  0.00000000000E+00 0. -1.
</event>
<event>
 7    1  0.5622879E-006  0.8925092E+02  0.7818608E-02  0.1374640E+00
          2   -1    0    0  502    0  0.00000000000E+00  0.00000000000E+00  0.30234107989E+04  0.30234107989E+04  0.00000000000E+00 0. -1.
          1   -1    0    0  501    0 -0.00000000000E+00 -0.00000000000E+00 -0.79822863675E+03  0.79822863675E+03  0.00000000000E+00 0. -1.
         25    2    1    2    0    0  0.12366898223E+03  0.58278465261E+02  0.17998096665E+03  0.25828930855E+03  0.12501928601E+03 0.  0.
          2    1    1    2  501    0 -0.45790207329E+02 -0.16432278800E+02 -0.75759725421E+03  0.75915766641E+03  0.00000000000E+00 0. -1.
          1    1    1    2  502    0 -0.77878774903E+02 -0.41846186460E+02  0.28027984498E+04  0.28041924607E+04  0.00000000000E+00 0. -1.
         22    1    3    3    0    0  0.66884069304E+02  0.51875859954E+02  0.18017274736E+02  0.86540197374E+02  0.00000000000E+00 0.  1.
         22    1    3    3    0    0  0.56784912929E+02  0.64026053067E+01  0.16196369191E+03  0.17174911117E+03  0.00000000000E+00 0.  1.
</event>
<event>
 7    1  0.5622879E-006  0.3072710E+03  0.7818608E-02  0.1312182E+00
          2   -1    0    0  502    0  0.00000000000E+00  0.00000000000E+00  0.51838139938E+03  0.51838139938E+03  0.00000000000E+00 0. -1.
          1   -1    0    0  501    0 -0.00000000000E+00 -0.00000000000E+00 -0.10224741295E+04  0.10224741295E+04  0.00000000000E+00 0. -1.
         25    2    1    2    0    0 -0.24530862298E+03 -0.18157161595E+03 -0.51437733468E+02  0.33378729909E+03  0.12499419339E+03 0.  0.
          2    1    1    2  501    0  0.12715041054E+02 -0.20605832370E+02 -0.76669198229E+03  0.76707422607E+03  0.00000000000E+00 0. -1.
          1    1    1    2  502    0  0.23259358192E+03  0.20217744832E+03  0.31403698564E+03  0.43999400372E+03  0.00000000000E+00 0. -1.
         22    1    3    3    0    0 -0.35599424265E+02  0.16490381594E+02 -0.18757073701E+02  0.43486543975E+02  0.00000000000E+00 0.  1.
         22    1    3    3    0    0 -0.20970919871E+03 -0.19806199754E+03 -0.32680659767E+02  0.29030075511E+03  0.00000000000E+00 0.  1.
</event>
<event>
 7    1  0.5622879E-006  0.1517983E+03  0.7818608E-02  0.1210730E+00
          2   -1    0    0  502    0  0.00000000000E+00  0.00000000000E+00  0.49299035570E+03  0.49299035570E+03  0.00000000000E+00 0. -1.
          1   -1    0    0  501    0 -0.00000000000E+00 -0.00000000000E+00 -0.69095946530E+03  0.69095946530E+03  0.00000000000E+00 0. -1.
         25    2    1    2    0    0  0.60796104296E+02  0.17068002028E+03 -0.92320915161E+02  0.23869598138E+03  0.12499913812E+03 0.  0.
          2    1    1    2  501    0  0.78892664779E+02 -0.10674953008E+03 -0.50248379703E+03  0.51972057974E+03  0.00000000000E+00 0. -1.
          1    1    1    2  502    0 -0.13968876907E+03 -0.63930490200E+02  0.39683560259E+03  0.42553325988E+03  0.00000000000E+00 0. -1.
         22    1    3    3    0    0  0.36311775075E+02  0.12409735832E+03 -0.12242935515E+03  0.17806640995E+03  0.00000000000E+00 0. -1.
         22    1    3    3    0    0  0.24484329220E+02  0.46582661960E+02  0.30108439991E+02  0.60629571426E+02  0.00000000000E+00 0. -1.
</event>
<event>
 7    1  0.5622879E-006  0.3446764E+02  0.7818608E-02  0.1554865E+00
          2   -1    0    0  502    0  0.00000000000E+00  0.00000000000E+00  0.13214756440E+04  0.13214756440E+04  0.00000000000E+00 0. -1.
          1   -1    0    0  501    0 -0.00000000000E+00 -0.00000000000E+00 -0.64341963583E+03  0.64341963583E+03  0.00000000000E+00 0. -1.
         25    2    1    2    0    0  0.53911741887E+02  0.39472566917E+02  0.44150689571E+02  0.14845652763E+03  0.12500199100E+03 0.  0.
          2    1    1    2  501    0 -0.31293546352E+02 -0.13652507681E+02 -0.59053311957E+03  0.59151926623E+03  0.00000000000E+00 0. -1.
          1    1    1    2  502    0 -0.22618195534E+02 -0.25820059236E+02  0.12244384382E+04  0.12249194860E+04  0.00000000000E+00 0. -1.
         22    1    3    3    0    0  0.74447122726E+02 -0.18959416870E+02  0.92867375680E+01  0.77382666437E+02  0.00000000000E+00 0. -1.
         22    1    3    3    0    0 -0.20535380839E+02  0.58431983787E+02  0.34863952003E+02  0.71073861192E+02  0.00000000000E+00 0. -1.
</event>
<event>
 7    1  0.5622879E-006  0.4436833E+02  0.7818608E-02  0.1538312E+00
          2   -1    0    0  502    0  0.00000000000E+00  0.00000000000E+00  0.25304396591E+03  0.25304396591E+03  0.00000000000E+00 0. -1.
          1   -1    0    0  501    0 -0.00000000000E+00 -0.00000000000E+00 -0.47459330115E+03  0.47459330115E+03  0.00000000000E+00 0. -1.
         25    2    1    2    0    0 -0.26165785927E+02  0.16692496699E+02 -0.77544356323E+02  0.15034400930E+03  0.12500762431E+03 0.  0.
          2    1    1    2  501    0 -0.18140368773E+02 -0.23279748918E+02 -0.35771955785E+03  0.35893495477E+03  0.00000000000E+00 0. -1.
          1    1    1    2  502    0  0.44306154700E+02  0.65872522195E+01  0.21371457893E+03  0.21835830299E+03  0.00000000000E+00 0. -1.
         22    1    3    3    0    0  0.39822092580E+02 -0.25444512736E+02 -0.13374598438E+02  0.49113156783E+02  0.00000000000E+00 0.  1.
         22    1    3    3    0    0 -0.65987878508E+02  0.42137009435E+02 -0.64169757885E+02  0.10123085252E+03  0.00000000000E+00 0.  1.
</event>
<event>
 7    1  0.5622879E-006  0.7533597E+02  0.7818608E-02  0.1437099E+00
          2   -1    0    0  502    0  0.00000000000E+00  0.00000000000E+00  0.17482476251E+04  0.17482476251E+04  0.00000000000E+00 0. -1.
          1   -1    0    0  501    0 -0.00000000000E+00 -0.00000000000E+00 -0.11582547051E+03  0.11582547051E+03  0.00000000000E+00 0. -1.
         25    2    1    2    0    0  0.54908628640E+02  0.12799612864E+02  0.11450843724E+04  0.11532670472E+04  0.12501149879E+03 0.  0.
          2    1    1    2  501    0  0.34591402276E+02  0.69826666575E+01 -0.10533405899E+03  0.11108819347E+03  0.00000000000E+00 0. -1.
          1    1    1    2  502    0 -0.89500030916E+02 -0.19782279521E+02  0.59267184123E+03  0.59971785491E+03  0.00000000000E+00 0. -1.
         22    1    3    3    0    0 -0.39939260399E+02  0.32041806600E+01  0.42848718182E+03  0.43035645258E+03  0.00000000000E+00 0. -1.
         22    1    3    3    0    0  0.94847889039E+02  0.95954322038E+01  0.71659719055E+03  0.72291059466E+03  0.00000000000E+00 0. -1.
</event>
<event>
 7    1  0.5622879E-006  0.6806917E+02  0.7818608E-02  0.1467036E+00
          2   -1    0    0  502    0  0.00000000000E+00  0.00000000000E+00  0.44991834811E+03  0.44991834811E+03  0.00000000000E+00 0. -1.
          1   -1    0    0  501    0 -0.00000000000E+00 -0.00000000000E+00 -0.86609422119E+03  0.86609422119E+03  0.00000000000E+00 0. -1.
         25    2    1    2    0    0  0.70330614038E+02 -0.66467199434E+02  0.68380442465E+02  0.17223558683E+03  0.12499971435E+03 0.  0.
          2    1    1    2  501    0 -0.18312794037E+02  0.25439944105E+02 -0.81053164420E+03  0.81113753176E+03  0.00000000000E+00 0. -1.
          1    1    1    2  502    0 -0.52017820001E+02  0.41027255329E+02  0.32597532866E+03  0.33263945071E+03  0.00000000000E+00 0. -1.
         22    1    3    3    0    0 -0.22476682832E+02  0.19941130231E+02  0.49569411258E+01  0.30453591108E+02  0.00000000000E+00 0.  1.
         22    1    3    3    0    0  0.92807296870E+02 -0.86408329666E+02  0.63423501339E+02  0.14178199572E+03  0.00000000000E+00 0.  1.
</event>
<event>
 7    1  0.5622879E-006  0.4590714E+02  0.7818608E-02  0.1590453E+00
          2   -1    0    0  502    0  0.00000000000E+00  0.00000000000E+00  0.35858576007E+04  0.35858576007E+04  0.00000000000E+00 0. -1.
          1   -1    0    0  501    0 -0.00000000000E+00 -0.00000000000E+00 -0.88288694893E+02  0.88288694893E+02  0.00000000000E+00 0. -1.
         25    2    1    2    0    0 -0.10749977958E+01 -0.59713176978E+02  0.87170031993E+03  0.88263992638E+03  0.12499989099E+03 0.  0.
          2    1    1    2  501    0  0.13087080267E+02  0.15822377529E+02 -0.81352025876E+02  0.83903345670E+02  0.00000000000E+00 0. -1.
          1    1    1    2  502    0 -0.12012082471E+02  0.43890799449E+02  0.27072206117E+04  0.27076030235E+04  0.00000000000E+00 0. -1.
         22    1    3    3    0    0  0.15495686418E+01 -0.51233596973E+02  0.87224218478E+03  0.87374693793E+03  0.00000000000E+00 0.  1.
         22    1    3    3    0    0 -0.26245664376E+01 -0.84795800044E+01 -0.54186485635E+00  0.88929884492E+01  0.00000000000E+00 0.  1.
</event>
<event>
 7    1  0.5622879E-006  0.2176441E+03  0.7818608E-02  0.1251352E+00
          2   -1    0    0  502    0  0.00000000000E+00  0.00000000000E+00  0.30943706741E+03  0.30943706741E+03  0.00000000000E+00 0. -1.
          1   -1    0    0  501    0 -0.00000000000E+00 -0.00000000000E+00 -0.19989474279E+04  0.19989474279E+04  0.00000000000E+00 0. -1.
         25    2    1    2    0    0 -0.14437222370E+03  0.12612768975E+03 -0.38701177920E+03  0.44961604906E+03  0.12499976495E+03 0.  0.
          2    1    1    2  501    0  0.20946329178E+02  0.57187848579E+02 -0.15360363611E+04  0.15372432798E+04  0.00000000000E+00 0. -1.
          1    1    1    2  502    0  0.12342589453E+03 -0.18331553832E+03  0.23353777983E+03  0.32152516642E+03  0.00000000000E+00 0. -1.
         22    1    3    3    0    0 -0.37108836473E+02  0.80174389801E+02 -0.72936615540E+02  0.11456329434E+03  0.00000000000E+00 0. -1.
         22    1    3    3    0    0 -0.10726338723E+03  0.45953299944E+02 -0.31407516366E+03  0.33505275472E+03  0.00000000000E+00 0. -1.
</event>
<event>
 7    1  0.5622879E-006  0.2152812E+03  0.7818608E-02  0.1223779E+00
          2   -1    0    0  502    0  0.00000000000E+00  0.00000000000E+00  0.27275544146E+04  0.27275544146E+04  0.00000000000E+00 0. -1.
          1   -1    0    0  501    0 -0.00000000000E+00 -0.00000000000E+00 -0.33494843224E+03  0.33494843224E+03  0.00000000000E+00 0. -1.
         25    2    1    2    0    0 -0.10113088057E+03 -0.18873587692E+03  0.17402828456E+04  0.17578561416E+04  0.12500058230E+03 0.  0.
          2    1    1    2  501    0  0.16532026307E+03  0.13841572622E+03 -0.28856979078E+03  0.36022524453E+03  0.00000000000E+00 0. -1.
          1    1    1    2  502    0 -0.64189382494E+02  0.50320150696E+02  0.94089292746E+03  0.94442146065E+03  0.00000000000E+00 0. -1.
         22    1    3    3    0    0 -0.68625940857E+02 -0.12032900090E+03  0.14884290692E+04  0.14948610913E+04  0.00000000000E+00 0. -1.
         22    1    3    3    0    0 -0.32504939714E+02 -0.68406876018E+02  0.25185377643E+03  0.26299505033E+03  0.00000000000E+00 0. -1.
</event>
<event>
 7    1  0.5622879E-006  0.8886071E+02  0.7818608E-02  0.1489389E+00
          2   -1    0    0  502    0  0.00000000000E+00  0.00000000000E+00  0.38565206474E+03  0.38565206474E+03  0.00000000000E+00 0. -1.
          1   -1    0    0  501    0 -0.00000000000E+00 -0.00000000000E+00 -0.16233815358E+04  0.16233815358E+04  0.00000000000E+00 0. -1.
         25    2    1    2    0    0 -0.94808362886E+02  0.17455309399E+02 -0.12236432816E+03  0.19972753358E+03  0.12499898146E+03 0.  0.
          2    1    1    2  501    0  0.82084824535E+02 -0.33524056843E+02 -0.14606874166E+04  0.14633760657E+04  0.00000000000E+00 0. -1.
          1    1    1    2  502    0  0.12723538351E+02  0.16068747444E+02  0.34532227366E+03  0.34593000124E+03  0.00000000000E+00 0. -1.
         22    1    3    3    0    0 -0.54623980009E+02  0.65586331179E+02 -0.35137921782E+02  0.92303952119E+02  0.00000000000E+00 0.  1.
         22    1    3    3    0    0 -0.40184382877E+02 -0.48131021779E+02 -0.87226406377E+02  0.10742358146E+03  0.00000000000E+00 0.  1.
</event>
<event>
 7    1  0.5622879E-006  0.6427769E+02  0.7818608E-02  0.1407451E+00
          2   -1    0    0  502    0  0.00000000000E+00  0.00000000000E+00  0.19927188898E+04  0.19927188898E+04  0.00000000000E+00 0. -1.
          1   -1    0    0  501    0 -0.00000000000E+00 -0.00000000000E+00 -0.11143459654E+03  0.11143459654E+03  0.00000000000E+00 0. -1.
         25    2    1    2    0    0 -0.42762425884E+02  0.29386338513E+02  0.11337529710E+03  0.17655226773E+03  0.12499825314E+03 0.  0.
          2    1    1    2  501    0  0.68052585101E+01 -0.66833007658E+02 -0.65283112185E+02  0.93674154347E+02  0.00000000000E+00 0. -1.
          1    1    1    2  502    0  0.35957167374E+02  0.37446669145E+02  0.18331921083E+04  0.18339270642E+04  0.00000000000E+00 0. -1.
         22    1    3    3    0    0 -0.71982167716E+01 -0.87469808187E+01 -0.25666136595E+02  0.28054849240E+02  0.00000000000E+00 0. -1.
         22    1    3    3    0    0 -0.35564209113E+02  0.38133319331E+02  0.13904143370E+03  0.14849741849E+03  0.00000000000E+00 0. -1.
</event>
<event>
 7    1  0.5622879E-006  0.7656912E+02  0.7818608E-02  0.1472016E+00
          2   -1    0    0  502    0  0.00000000000E+00  0.00000000000E+00  0.14495919730E+03  0.14495919730E+03  0.00000000000E+00 0. -1.
          1   -1    0    0  501    0 -0.00000000000E+00 -0.00000000000E+00 -0.29970801227E+03  0.29970801227E+03  0.00000000000E+00 0. -1.
         25    2    1    2    0    0 -0.28765555577E+02  0.65026028457E+02 -0.97557571061E+02  0.17377677437E+03  0.12500018430E+03 0.  0.
          2    1    1    2  501    0  0.23867758991E+02  0.12383241167E+02 -0.14859717465E+03  0.15101038010E+03  0.00000000000E+00 0. -1.
          1    1    1    2  502    0  0.48977965860E+01 -0.77409269625E+02  0.91405930750E+02  0.11988005510E+03  0.00000000000E+00 0. -1.
         22    1    3    3    0    0 -0.18236019104E+02  0.91900431861E+02 -0.26940438688E+02  0.97488609621E+02  0.00000000000E+00 0.  1.
         22    1    3    3    0    0 -0.10529536473E+02 -0.26874403404E+02 -0.70617132373E+02  0.76288164752E+02  0.00000000000E+00 0.  1.
</event>
<event>
 7    1  0.5622879E-006  0.1846382E+03  0.7818608E-02  0.1196399E+00
          2   -1    0    0  502    0  0.00000000000E+00  0.00000000000E+00  0.28457371421E+03  0.28457371421E+03  0.00000000000E+00 0. -1.
          1   -1    0    0  501    0 -0.00000000000E+00 -0.00000000000E+00 -0.27820025391E+03  0.27820025391E+03  0.00000000000E+00 0. -1.
         25    2    1    2    0    0 -0.35238981426E+02  0.79851116456E+02  0.15098757527E+02  0.15320187157E+03  0.12499941745E+03 0.  0.
          2    1    1    2  501    0 -0.18016030457E+03 -0.40416719149E+02 -0.38406842908E+02  0.18859038181E+03  0.00000000000E+00 0. -1.
          1    1    1    2  502    0  0.21539928599E+03 -0.39434397307E+02  0.29681545678E+02  0.22098171474E+03  0.00000000000E+00 0. -1.
         22    1    3    3    0    0 -0.46291078299E+02 -0.18877804872E+02  0.19738541400E+02  0.53747981018E+02  0.00000000000E+00 0. -1.
         22    1    3    3    0    0  0.11052096873E+02  0.98728921328E+02 -0.46397838728E+01  0.99453890554E+02  0.00000000000E+00 0. -1.
</event>
<event>
 7    1  0.5622879E-006  0.7908333E+02  0.7818608E-02  0.1396623E+00
          2   -1    0    0  502    0  0.00000000000E+00  0.00000000000E+00  0.20235695962E+04  0.20235695962E+04  0.00000000000E+00 0. -1.
          1   -1    0    0  501    0 -0.00000000000E+00 -0.00000000000E+00 -0.48382422401E+02  0.48382422401E+02  0.00000000000E+00 0. -1.
         25    2    1    2    0    0  0.67434862218E+02  0.84672037514E+02  0.16583531982E+03  0.23418581935E+03  0.12499932041E+03 0.  0.
          2    1    1    2  501    0 -0.27383930461E+02 -0.62125366603E+02  0.68977287039E+02  0.96784848764E+02  0.00000000000E+00 0. -1.
          1    1    1    2  502    0 -0.40050931756E+02 -0.22546670910E+02  0.17403745669E+04  0.17409813505E+04  0.00000000000E+00 0. -1.
         22    1    3    3    0    0  0.55145144705E+02 -0.14704189075E+01  0.10523347355E+02  0.56159504590E+02  0.00000000000E+00 0. -1.
         22    1    3    3    0    0  0.12289717513E+02  0.86142456421E+02  0.15531197246E+03  0.17802631475E+03  0.00000000000E+00 0. -1.
</event>
<event>
 7    1  0.5622879E-006  0.8671433E+02  0.7818608E-02  0.1381132E+00
          2   -1    0    0  502    0  0.00000000000E+00  0.00000000000E+00  0.15370375671E+04  0.15370375671E+04  0.00000000000E+00 0. -1.
          1   -1    0    0  501    0 -0.00000000000E+00 -0.00000000000E+00 -0.21359555973E+03  0.21359555973E+03  0.00000000000E+00 0. -1.
         25    2    1    2    0    0 -0.76330898224E+02 -0.82675661309E+02  0.15762038119E+03  0.23049920654E+03  0.12499611455E+03 0.  0.
          2    1    1    2  501    0  0.28886633045E+02  0.80770624394E+02 -0.16632435460E+03  0.18714198424E+03  0.00000000000E+00 0. -1.
          1    1    1    2  502    0  0.47444265179E+02  0.19050369149E+01  0.13321459808E+04  0.13329919361E+04  0.00000000000E+00 0. -1.
         22    1    3    3    0    0 -0.13441136829E+02  0.25949240527E+02  0.27747552201E+00  0.29225061777E+02  0.00000000000E+00 0. -1.
         22    1    3    3    0    0 -0.62889761396E+02 -0.10862490184E+03  0.15734290566E+03  0.20127414476E+03  0.00000000000E+00 0. -1.
</event>
<event>
 7    1  0.5622879E-006  0.2843281E+02  0.7818608E-02  0.1639424E+00
          2   -1    0    0  502    0  0.00000000000E+00  0.00000000000E+00  0.20857535826E+03  0.20857535826E+03  0.00000000000E+00 0. -1.
          1   -1    0    0  501    0 -0.00000000000E+00 -0.00000000000E+00 -0.12456347864E+03  0.12456347864E+03  0.00000000000E+00 0. -1.
         25    2    1    2    0    0  0.14735544927E+01  0.52436750515E+02  0.39934627306E+02  0.14131615178E+03  0.12499478441E+03 0.  0.
          2    1    1    2  501    0  0.78529406856E-01 -0.24829117781E+02 -0.70088267219E+02  0.74356280558E+02  0.00000000000E+00 0. -1.
          1    1    1    2  502    0 -0.15520838996E+01 -0.27607632734E+02  0.11416551953E+03  0.11746640456E+03  0.00000000000E+00 0. -1.
         22    1    3    3    0    0 -0.18225049471E+02 -0.37886859227E+02  0.43874408861E+01  0.42270748371E+02  0.00000000000E+00 0. -1.
         22    1    3    3    0    0  0.19698603964E+02  0.90323609742E+02  0.35547186420E+02  0.99045403413E+02  0.00000000000E+00 0. -1.
</event>
<event>
 7    1  0.5622879E-006  0.2012272E+03  0.7818608E-02  0.1222165E+00
          2   -1    0    0  502    0  0.00000000000E+00  0.00000000000E+00  0.49595324561E+03  0.49595324561E+03  0.00000000000E+00 0. -1.
          1   -1    0    0  501    0 -0.00000000000E+00 -0.00000000000E+00 -0.44520113176E+03  0.44520113176E+03  0.00000000000E+00 0. -1.
         25    2    1    2    0    0 -0.15897772725E+03  0.34282871236E+02  0.26110771290E+03  0.33203963248E+03  0.12499538705E+03 0.  0.
          2    1    1    2  501    0  0.16529078577E+03 -0.12280012698E+03 -0.37172860599E+03  0.42495066956E+03  0.00000000000E+00 0. -1.
          1    1    1    2  502    0 -0.63130585182E+01  0.88517255739E+02  0.16137300695E+03  0.18416407533E+03  0.00000000000E+00 0. -1.
         22    1    3    3    0    0 -0.65803273433E+02  0.53299167268E+02  0.20457677430E+03  0.22141031730E+03  0.00000000000E+00 0. -1.
         22    1    3    3    0    0 -0.93174453816E+02 -0.19016296032E+02  0.56530938598E+02  0.11062931518E+03  0.00000000000E+00 0. -1.
</event>
<event>
 7    1  0.5622879E-006  0.5536654E+02  0.7818608E-02  0.1523461E+00
          2   -1    0    0  502    0  0.00000000000E+00  0.00000000000E+00  0.13550309699E+04  0.13550309699E+04  0.00000000000E+00 0. -1.
          1   -1    0    0  501    0 -0.00000000000E+00 -0.00000000000E+00 -0.49126841975E+02  0.49126841975E+02  0.00000000000E+00 0. -1.
         25    2    1    2    0    0  0.39681690053E+02  0.33867000668E+02  0.82912399327E+03  0.84011507050E+03  0.12500050088E+03 0.  0.
          2    1    1    2  501    0 -0.20568316298E+02 -0.51613638215E+02 -0.25466546166E+02  0.61119295306E+02  0.00000000000E+00 0. -1.
          1    1    1    2  502    0 -0.19113373755E+02  0.17746637546E+02  0.50224668082E+03  0.50292344605E+03  0.00000000000E+00 0. -1.
         22    1    3    3    0    0  0.25373426355E+01  0.76357995450E+02  0.39327532030E+03  0.40062758159E+03  0.00000000000E+00 0.  1.
         22    1    3    3    0    0  0.37144347418E+02 -0.42490994781E+02  0.43584867297E+03  0.43948748891E+03  0.00000000000E+00 0.  1.
</event>
<event>
 7    1  0.5622879E-006  0.5096525E+02  0.7818608E-02  0.1555570E+00
          2   -1    0    0  502    0  0.00000000000E+00  0.00000000000E+00  0.13102086352E+04  0.13102086352E+04  0.00000000000E+00 0. -1.
          1   -1    0    0  501    0 -0.00000000000E+00 -0.00000000000E+00 -0.55873686892E+02  0.55873686892E+02  0.00000000000E+00 0. -1.
         25    2    1    2    0    0  0.42608801953E+02 -0.15443005392E+02  0.79084134842E+03  0.80194199020E+03  0.12500768317E+03 0.  0.
          2    1    1    2  501    0 -0.50777675330E+02 -0.60431851823E+01 -0.37000669546E+02  0.63118475472E+02  0.00000000000E+00 0. -1.
          1    1    1    2  502    0  0.81688733764E+01  0.21486190574E+02  0.50049426948E+03  0.50102185646E+03  0.00000000000E+00 0. -1.
         22    1    3    3    0    0  0.36135269667E+02 -0.67613399168E+02  0.37224489848E+03  0.38005735607E+03  0.00000000000E+00 0.  1.
         22    1    3    3    0    0  0.64735322857E+01  0.52170393776E+02  0.41859644995E+03  0.42188463413E+03  0.00000000000E+00 0.  1.
</event>
<event>
 7    1  0.5622879E-006  0.7545284E+02  0.7818608E-02  0.1505590E+00
          2   -1    0    0  502    0  0.00000000000E+00  0.00000000000E+00  0.40781632563E+03  0.40781632563E+03  0.00000000000E+00 0. -1.
          1   -1    0    0  501    0 -0.00000000000E+00 -0.00000000000E+00 -0.14903344362E+03  0.14903344362E+03  0.00000000000E+00 0. -1.
         25    2    1    2    0    0 -0.40335670114E+02  0.85474109353E+02  0.16973923651E+03  0.23102051683E+03  0.12500512443E+03 0.  0.
          2    1    1    2  501    0  0.37794810722E+02 -0.64037055966E+02 -0.10606297886E+03  0.12953203364E+03  0.00000000000E+00 0. -1.
          1    1    1    2  502    0  0.25408593920E+01 -0.21437053387E+02  0.19510662437E+03  0.19629721877E+03  0.00000000000E+00 0. -1.
         22    1    3    3    0    0 -0.83388237225E+02  0.75538797132E+02  0.12325529966E+03  0.16688791710E+03  0.00000000000E+00 0.  1.
         22    1    3    3    0    0  0.43052567111E+02  0.99353122203E+01  0.46483936846E+02  0.64132599732E+02  0.00000000000E+00 0.  1.
</event>
<event>
 7    1  0.5622879E-006  0.1313003E+03  0.7818608E-02  0.1433948E+00
          2   -1    0    0  502    0  0.00000000000E+00  0.00000000000E+00  0.87393185217E+03  0.87393185217E+03  0.00000000000E+00 0. -1.
          1   -1    0    0  501    0 -0.00000000000E+00 -0.00000000000E+00 -0.12069436560E+03  0.12069436560E+03  0.00000000000E+00 0. -1.
         25    2    1    2    0    0  0.12111933728E+03  0.59090636250E+02  0.32861875712E+03  0.37653148740E+03  0.12499630520E+03 0.  0.
          2    1    1    2  501    0 -0.13923530366E+02  0.15362475184E+02 -0.87337103753E+02  0.89764358370E+02  0.00000000000E+00 0. -1.
          1    1    1    2  502    0 -0.10719580692E+03 -0.74453111434E+02  0.51195583320E+03  0.52833037200E+03  0.00000000000E+00 0. -1.
         22    1    3    3    0    0 -0.21917887136E+02  0.18888322957E+02  0.23935090508E+02  0.37550646842E+02  0.00000000000E+00 0.  1.
         22    1    3    3    0    0  0.14303722442E+03  0.40202313293E+02  0.30468366662E+03  0.33898084056E+03  0.00000000000E+00 0.  1.
</event>
<event>
 7    1  0.5622879E-006  0.5301832E+03  0.7818608E-02  0.1141854E+00
          2   -1    0    0  502    0  0.00000000000E+00  0.00000000000E+00  0.56241222328E+03  0.56241222328E+03  0.00000000000E+00 0. -1.
          1   -1    0    0  501    0 -0.00000000000E+00 -0.00000000000E+00 -0.19160684421E+04  0.19160684421E+04  0.00000000000E+00 0. -1.
         25    2    1    2    0    0 -0.36490235582E+03  0.45540157635E+03 -0.10741589552E+04  0.12288153480E+04  0.12500149426E+03 0.  0.
          2    1    1    2  501    0 -0.34537062692E+01 -0.82819040550E+02 -0.61953899719E+03  0.62505958964E+03  0.00000000000E+00 0. -1.
          1    1    1    2  502    0  0.36835606209E+03 -0.37258253580E+03  0.34004173357E+03  0.62460572766E+03  0.00000000000E+00 0. -1.
         22    1    3    3    0    0 -0.21929017363E+03  0.17757828897E+03 -0.54349013825E+03  0.61237550518E+03  0.00000000000E+00 0.  1.
         22    1    3    3    0    0 -0.14561218219E+03  0.27782328738E+03 -0.53066881693E+03  0.61643984287E+03  0.00000000000E+00 0.  1.
</event>
<event>
 7    1  0.5622879E-006  0.5366323E+02  0.7818608E-02  0.1508641E+00
          2   -1    0    0  502    0  0.00000000000E+00  0.00000000000E+00  0.15298004706E+03  0.15298004706E+03  0.00000000000E+00 0. -1.
          1   -1    0    0  501    0 -0.00000000000E+00 -0.00000000000E+00 -0.10616127947E+04  0.10616127947E+04  0.00000000000E+00 0. -1.
         25    2    1    2    0    0  0.12033359422E+02 -0.75523846961E+02 -0.25701850698E+02  0.14877792814E+03  0.12500253427E+03 0.  0.
          2    1    1    2  501    0 -0.17683330632E+02  0.23897490252E+02 -0.96675186035E+03  0.96720884493E+03  0.00000000000E+00 0. -1.
          1    1    1    2  502    0  0.56499712099E+01  0.51626356709E+02  0.83820963388E+02  0.98606068703E+02  0.00000000000E+00 0. -1.
         22    1    3    3    0    0  0.30708527201E+02 -0.41335310871E+02  0.44783426812E+02  0.68243511667E+02  0.00000000000E+00 0.  1.
         22    1    3    3    0    0 -0.18675167779E+02 -0.34188536089E+02 -0.70485277510E+02  0.80534416476E+02  0.00000000000E+00 0.  1.
</event>
<event>
 7    1  0.5622879E-006  0.1731877E+03  0.7818608E-02  0.1386590E+00
          2   -1    0    0  502    0  0.00000000000E+00  0.00000000000E+00  0.11231375301E+04  0.11231375301E+04  0.00000000000E+00 0. -1.
          1   -1    0    0  501    0 -0.00000000000E+00 -0.00000000000E+00 -0.17693382277E+03  0.17693382277E+03  0.00000000000E+00 0. -1.
         25    2    1    2    0    0  0.37223182553E+02  0.18006430139E+03  0.15531355309E+03  0.27121295722E+03  0.12500180171E+03 0.  0.
          2    1    1    2  501    0  0.15591384330E+02 -0.16560364484E+02 -0.10969526985E+03  0.11202851943E+03  0.00000000000E+00 0. -1.
          1    1    1    2  502    0 -0.52814566883E+02 -0.16350393691E+03  0.90058542404E+03  0.91682987618E+03  0.00000000000E+00 0. -1.
         22    1    3    3    0    0  0.37784288653E+02  0.19558329436E+03  0.15943409436E+03  0.25514644412E+03  0.00000000000E+00 0. -1.
         22    1    3    3    0    0 -0.56110609934E+00 -0.15518992969E+02 -0.41205412629E+01  0.16066513098E+02  0.00000000000E+00 0. -1.
</event>
<event>
 7    1  0.5622879E-006  0.1787708E+03  0.7818608E-02  0.1228920E+00
          2   -1    0    0  502    0  0.00000000000E+00  0.00000000000E+00  0.29427124238E+03  0.29427124238E+03  0.00000000000E+00 0. -1.
          1   -1    0    0  501    0 -0.00000000000E+00 -0.00000000000E+00 -0.19612131944E+04  0.19612131944E+04  0.00000000000E+00 0. -1.
         25    2    1    2    0    0 -0.14847552277E+03  0.11347830924E+03  0.11557224772E+03  0.25279322664E+03  0.12500065384E+03 0.  0.
          2    1    1    2  501    0  0.70656669762E+02 -0.16460503910E+03 -0.18678324309E+04  0.18764021887E+04  0.00000000000E+00 0. -1.
          1    1    1    2  502    0  0.77818853007E+02  0.51126729864E+02  0.85318231101E+02  0.12628902149E+03  0.00000000000E+00 0. -1.
         22    1    3    3    0    0 -0.82982465836E+01  0.71825015127E+02  0.67352781296E+02  0.98813414285E+02  0.00000000000E+00 0.  1.
         22    1    3    3    0    0 -0.14017727619E+03  0.41653294113E+02  0.48219466428E+02  0.15397981235E+03  0.00000000000E+00 0.  1.
</event>
<event>
 7    1  0.5622879E-006  0.1274442E+03  0.7818608E-02  0.1346504E+00
          2   -1    0    0  502    0  0.00000000000E+00  0.00000000000E+00  0.28205797806E+03  0.28205797806E+03  0.00000000000E+00 0. -1.
          1   -1    0    0  501    0 -0.00000000000E+00 -0.00000000000E+00 -0.15248775244E+03  0.15248775244E+03  0.00000000000E+00 0. -1.
         25    2    1    2    0    0  0.14816291397E+02 -0.94808835441E+02 -0.23194843552E+01  0.15760377276E+03  0.12500132565E+03 0.  0.
          2    1    1    2  501    0 -0.91424485279E+01 -0.42169831494E+02 -0.38788536459E+02  0.58020941168E+02  0.00000000000E+00 0. -1.
          1    1    1    2  502    0 -0.56738428691E+01  0.13697866694E+03  0.17067824643E+03  0.21892101656E+03  0.00000000000E+00 0. -1.
         22    1    3    3    0    0 -0.19827460264E+02 -0.34803751698E+02 -0.56771601822E+02  0.69479810638E+02  0.00000000000E+00 0. -1.
         22    1    3    3    0    0  0.34643751661E+02 -0.60005083742E+02  0.54452117467E+02  0.88123962126E+02  0.00000000000E+00 0. -1.
</event>
<event>
 7    1  0.5622879E-006  0.1136650E+03  0.7818608E-02  0.1383374E+00
          2   -1    0    0  502    0  0.00000000000E+00  0.00000000000E+00  0.35505003713E+03  0.35505003713E+03  0.00000000000E+00 0. -1.
          1   -1    0    0  501    0 -0.00000000000E+00 -0.00000000000E+00 -0.30202131895E+04  0.30202131895E+04  0.00000000000E+00 0. -1.
         25    2    1    2    0    0 -0.11654632579E+03  0.75964864239E+02 -0.10821012146E+04  0.10981401009E+04  0.12495973681E+03 0.  0.
          2    1    1    2  501    0  0.81112027625E+02 -0.72859505417E+02 -0.19276364866E+04  0.19307175073E+04  0.00000000000E+00 0. -1.
          1    1    1    2  502    0  0.35434298162E+02 -0.31053588217E+01  0.34457454887E+03  0.34640561842E+03  0.00000000000E+00 0. -1.
         22    1    3    3    0    0 -0.37668293179E+02  0.63689296914E+02 -0.83924239811E+03  0.84249808881E+03  0.00000000000E+00 0. -1.
         22    1    3    3    0    0 -0.78878032608E+02  0.12275567324E+02 -0.24285881652E+03  0.25564201209E+03  0.00000000000E+00 0. -1.
</event>
<event>
 7    1  0.5622879E-006  0.6625781E+02  0.7818608E-02  0.1432098E+00
          2   -1    0    0  502    0  0.00000000000E+00  0.00000000000E+00  0.88863491510E+03  0.88863491510E+03  0.00000000000E+00 0. -1.
          1   -1    0    0  501    0 -0.00000000000E+00 -0.00000000000E+00 -0.35294010371E+03  0.35294010371E+03  0.00000000000E+00 0. -1.
         25    2    1    2    0    0 -0.26702311281E+02  0.44035670617E+02  0.63294404808E+03  0.64722109993E+03  0.12499932191E+03 0.  0.
          2    1    1    2  501    0 -0.41457359630E+02  0.41461727120E+01 -0.33747637944E+03  0.34003854207E+03  0.00000000000E+00 0. -1.
          1    1    1    2  502    0  0.68159670911E+02 -0.48181843329E+02  0.24022714276E+03  0.25431537681E+03  0.00000000000E+00 0. -1.
         22    1    3    3    0    0  0.13449973692E+02  0.41350060961E+02  0.67158345266E+02  0.80006078973E+02  0.00000000000E+00 0.  1.
         22    1    3    3    0    0 -0.40152284973E+02  0.26856096556E+01  0.56578570281E+03  0.56721502095E+03  0.00000000000E+00 0.  1.
</event>
<event>
 7    1  0.5622879E-006  0.5044545E+02  0.7818608E-02  0.1495243E+00
          2   -1    0    0  502    0  0.00000000000E+00  0.00000000000E+00  0.10824172238E+04  0.10824172238E+04  0.00000000000E+00 0. -1.
          1   -1    0    0  501    0 -0.00000000000E+00 -0.00000000000E+00 -0.39184463651E+03  0.39184463651E+03  0.00000000000E+00 0. -1.
         25    2    1    2    0    0  0.28107182553E+02 -0.13981190064E+02 -0.22752074601E+02  0.13087079866E+03  0.12499608657E+03 0.  0.
          2    1    1    2  501    0 -0.97848217887E+01 -0.33256608082E+02 -0.31345297758E+03  0.31536409731E+03  0.00000000000E+00 0. -1.
          1    1    1    2  502    0 -0.18322360764E+02  0.47237798146E+02  0.10267776395E+04  0.10280269644E+04  0.00000000000E+00 0. -1.
         22    1    3    3    0    0  0.40522298392E+02 -0.49398726551E+02  0.26311917248E+02  0.69098537185E+02  0.00000000000E+00 0.  1.
         22    1    3    3    0    0 -0.12415115838E+02  0.35417536487E+02 -0.49063991848E+02  0.61772261479E+02  0.00000000000E+00 0.  1.
</event>
<event>
 7    1  0.5622879E-006  0.1180837E+03  0.7818608E-02  0.1377184E+00
          2   -1    0    0  502    0  0.00000000000E+00  0.00000000000E+00  0.18054260139E+03  0.18054260139E+03  0.00000000000E+00 0. -1.
          1   -1    0    0  501    0 -0.00000000000E+00 -0.00000000000E+00 -0.16938578865E+04  0.16938578865E+04  0.00000000000E+00 0. -1.
         25    2    1    2    0    0 -0.73464876863E+02 -0.12099336102E+03 -0.47933476562E+03  0.51519232714E+03  0.12499933950E+03 0.  0.
          2    1    1    2  501    0  0.76992683942E+02  0.85155580395E+02 -0.11918080863E+04  0.11973244593E+04  0.00000000000E+00 0. -1.
          1    1    1    2  502    0 -0.35278070789E+01  0.35837780623E+02  0.15782756683E+03  0.16188370144E+03  0.00000000000E+00 0. -1.
         22    1    3    3    0    0 -0.11624809471E+01 -0.53980250054E+02 -0.46448284448E+02  0.71222622011E+02  0.00000000000E+00 0.  1.
         22    1    3    3    0    0 -0.72302395916E+02 -0.67013110963E+02 -0.43288648117E+03  0.44396970513E+03  0.00000000000E+00 0.  1.
</event>
<event>
 7    1  0.5622879E-006  0.1450378E+03  0.7818608E-02  0.1327367E+00
          2   -1    0    0  502    0  0.00000000000E+00  0.00000000000E+00  0.79326415027E+03  0.79326415027E+03  0.00000000000E+00 0. -1.
          1   -1    0    0  501    0 -0.00000000000E+00 -0.00000000000E+00 -0.18785796650E+04  0.18785796650E+04  0.00000000000E+00 0. -1.
         25    2    1    2    0    0 -0.89974608647E+02 -0.93659923099E+02 -0.62577322561E+02  0.19081178757E+03  0.12500242230E+03 0.  0.
          2    1    1    2  501    0  0.12808563971E+03  0.70134690221E+02 -0.17481501521E+04  0.17542387979E+04  0.00000000000E+00 0. -1.
          1    1    1    2  502    0 -0.38111031062E+02  0.23525232877E+02  0.72541195991E+03  0.72679322978E+03  0.00000000000E+00 0. -1.
         22    1    3    3    0    0 -0.22254858266E+02 -0.58004327964E+02 -0.90132165405E+02  0.10946957577E+03  0.00000000000E+00 0.  1.
         22    1    3    3    0    0 -0.67719750380E+02 -0.35655595135E+02  0.27554842844E+02  0.81342211798E+02  0.00000000000E+00 0.  1.
</event>
<event>
 7    1  0.5622879E-006  0.1029699E+03  0.7818608E-02  0.1382708E+00
          2   -1    0    0  502    0  0.00000000000E+00  0.00000000000E+00  0.12574159154E+04  0.12574159154E+04  0.00000000000E+00 0. -1.
          1   -1    0    0  501    0 -0.00000000000E+00 -0.00000000000E+00 -0.60905364066E+03  0.60905364066E+03  0.00000000000E+00 0. -1.
         25    2    1    2    0    0 -0.83318130245E+02  0.10452886632E+03 -0.29240410486E+03  0.34495203827E+03  0.12499421365E+03 0.  0.
          2    1    1    2  501    0  0.37426145314E+02 -0.12560429323E+02 -0.28687621612E+03  0.28957977159E+03  0.00000000000E+00 0. -1.
          1    1    1    2  502    0  0.45891984931E+02 -0.91968436998E+02  0.12276425957E+04  0.12319377462E+04  0.00000000000E+00 0. -1.
         22    1    3    3    0    0 -0.29088348414E+02 -0.27278278075E+02 -0.52889163991E+02  0.66238207523E+02  0.00000000000E+00 0.  1.
         22    1    3    3    0    0 -0.54229781832E+02  0.13180714439E+03 -0.23951494087E+03  0.27871383075E+03  0.00000000000E+00 0.  1.
</event>
<event>
 7    1  0.5622879E-006  0.8360162E+02  0.7818608E-02  0.1489342E+00
          2   -1    0    0  502    0  0.00000000000E+00  0.00000000000E+00  0.49551238733E+03  0.49551238733E+03  0.00000000000E+00 0. -1.
          1   -1    0    0  501    0 -0.00000000000E+00 -0.00000000000E+00 -0.36798854081E+03  0.36798854081E+03  0.00000000000E+00 0. -1.
         25    2    1    2    0    0 -0.96083858488E+02  0.30346865505E+02 -0.12038795453E+03  0.20067716283E+03  0.12500009590E+03 0.  0.
          2    1    1    2  501    0  0.78363339939E+02 -0.17662047114E+02 -0.19940469517E+03  0.21497672761E+03  0.00000000000E+00 0. -1.
          1    1    1    2  502    0  0.17720518550E+02 -0.12684818391E+02  0.44731649622E+03  0.44784703771E+03  0.00000000000E+00 0. -1.
         22    1    3    3    0    0  0.15176040284E+02 -0.28703502573E+02 -0.38844345238E+02  0.50626933698E+02  0.00000000000E+00 0.  1.
         22    1    3    3    0    0 -0.11125989877E+03  0.59050368077E+02 -0.81543609292E+02  0.15005022913E+03  0.00000000000E+00 0.  1.
</event>
<event>
 7    1  0.5622879E-006  0.1525734E+03  0.7818608E-02  0.1218605E+00
          2   -1    0    0  502    0  0.00000000000E+00  0.00000000000E+00  0.20682466876E+03  0.20682466876E+03  0.00000000000E+00 0. -1.
          1   -1    0    0  501    0 -0.00000000000E+00 -0.00000000000E+00 -0.66389770743E+03  0.66389770743E+03  0.00000000000E+00 0. -1.
         25    2    1    2    0    0  0.23490205513E+03 -0.97969942589E+02 -0.18316373937E+03  0.33756601305E+03  0.12499909035E+03 0.  0.
          2    1    1    2  501    0 -0.11640145301E+03  0.71161179195E+02 -0.35951499870E+03  0.38453120287E+03  0.00000000000E+00 0. -1.
          1    1    1    2  502    0 -0.11850060212E+03  0.26808763394E+02  0.85605699400E+02  0.14862516028E+03  0.00000000000E+00 0. -1.
         22    1    3    3    0    0  0.22093662966E+03 -0.97110436601E+02 -0.11383007047E+03  0.26683462325E+03  0.00000000000E+00 0. -1.
         22    1    3    3    0    0  0.13965425474E+02 -0.85950598792E+00 -0.69333668904E+02  0.70731389799E+02  0.00000000000E+00 0. -1.
</event>
<event>
 7    1  0.5622879E-006  0.8235814E+02  0.7818608E-02  0.1401537E+00
          2   -1    0    0  502    0  0.00000000000E+00  0.00000000000E+00  0.45698857367E+02  0.45698857367E+02  0.00000000000E+00 0. -1.
          1   -1    0    0  501    0 -0.00000000000E+00 -0.00000000000E+00 -0.58957719627E+03  0.58957719627E+03  0.00000000000E+00 0. -1.
         25    2    1    2    0    0 -0.29789943556E+02  0.44930536879E+02 -0.19109068111E+03  0.23463079011E+03  0.12501906006E+03 0.  0.
          2    1    1    2  501    0 -0.20432046188E+02  0.37205977562E+02 -0.27104888083E+03  0.27435241766E+03  0.00000000000E+00 0. -1.
          1    1    1    2  502    0  0.50221989745E+02 -0.82136514441E+02 -0.81738776965E+02  0.12629284587E+03  0.00000000000E+00 0. -1.
         22    1    3    3    0    0  0.48632552518E+01 -0.99127182338E+01 -0.16392872391E+03  0.16430015142E+03  0.00000000000E+00 0.  1.
         22    1    3    3    0    0 -0.34653198808E+02  0.54843255113E+02 -0.27161957203E+02  0.70330638687E+02  0.00000000000E+00 0.  1.
</event>
<event>
 7    1  0.8078434E-006  0.5500550E+02  0.7818608E-02  0.1488800E+00
          2   -1    0    0  502    0  0.00000000000E+00  0.00000000000E+00  0.11069504690E+04  0.11069504690E+04  0.00000000000E+00 0. -1.
          1   -1    0    0  501    0 -0.00000000000E+00 -0.00000000000E+00 -0.17439904705E+04  0.17439904705E+04  0.00000000000E+00 0. -1.
         25    2    1    2    0    0  0.74004479688E+02  0.25830220988E+02 -0.30687444296E+03  0.34049361883E+03  0.12498046803E+03 0.  0.
          2    1    1    2  501    0 -0.19056410919E+02 -0.27244453274E+02 -0.14194187820E+04  0.14198081158E+04  0.00000000000E+00 0. -1.
          1    1    1    2  502    0 -0.54948068768E+02  0.14142322862E+01  0.10892532235E+04  0.10906392049E+04  0.00000000000E+00 0. -1.
         22    1    3    3    0    0  0.10678757788E+03  0.15864619319E+02 -0.18814573450E+03  0.21691954809E+03  0.00000000000E+00 0. -1.
         22    1    3    3    0    0 -0.32783098192E+02  0.99656016690E+01 -0.11872870847E+03  0.12357407073E+03  0.00000000000E+00 0. -1.
</event>
<event>
 7    1  0.5622879E-006  0.8955640E+02  0.7818608E-02  0.1368824E+00
          2   -1    0    0  502    0  0.00000000000E+00  0.00000000000E+00  0.82494078772E+03  0.82494078772E+03  0.00000000000E+00 0. -1.
          1   -1    0    0  501    0 -0.00000000000E+00 -0.00000000000E+00 -0.95837151464E+03  0.95837151464E+03  0.00000000000E+00 0. -1.
         25    2    1    2    0    0  0.84985229473E+02  0.14106659420E+02  0.10593219791E+03  0.18511647570E+03  0.12499996782E+03 0.  0.
          2    1    1    2  501    0 -0.18227579440E+02  0.47490426293E+02 -0.91503381467E+03  0.91644665269E+03  0.00000000000E+00 0. -1.
          1    1    1    2  502    0 -0.66757650033E+02 -0.61597085713E+02  0.67567088985E+03  0.68174917396E+03  0.00000000000E+00 0. -1.
         22    1    3    3    0    0  0.97205194217E+02 -0.26961160465E+02  0.44587599747E+02  0.11028965503E+03  0.00000000000E+00 0. -1.
         22    1    3    3    0    0 -0.12219964744E+02  0.41067819885E+02  0.61344598158E+02  0.74826820670E+02  0.00000000000E+00 0. -1.
</event>
<event>
 7    1  0.5622879E-006  0.7826329E+02  0.7818608E-02  0.1344906E+00
          2   -1    0    0  502    0  0.00000000000E+00  0.00000000000E+00  0.89651217957E+03  0.89651217957E+03  0.00000000000E+00 0. -1.
          1   -1    0    0  501    0 -0.00000000000E+00 -0.00000000000E+00 -0.15460559725E+04  0.15460559725E+04  0.00000000000E+00 0. -1.
         25    2    1    2    0    0 -0.38233501193E+02  0.73085779669E+02 -0.11348545671E+00  0.14976280896E+03  0.12500221704E+03 0.  0.
          2    1    1    2  501    0 -0.39501554004E+02 -0.59279857169E+02 -0.14683558596E+04  0.14700827883E+04  0.00000000000E+00 0. -1.
          1    1    1    2  502    0  0.77735055197E+02 -0.13805922500E+02  0.81892555208E+03  0.82272255479E+03  0.00000000000E+00 0. -1.
         22    1    3    3    0    0 -0.79181679843E+02  0.27144970466E+02 -0.18114538990E+02  0.85643005361E+02  0.00000000000E+00 0.  1.
         22    1    3    3    0    0  0.40948178650E+02  0.45940809203E+02  0.18001053533E+02  0.64119803597E+02  0.00000000000E+00 0.  1.
</event>
<event>
 7    1  0.5622879E-006  0.1020150E+03  0.7818608E-02  0.1334005E+00
          2   -1    0    0  502    0  0.00000000000E+00  0.00000000000E+00  0.55218493445E+03  0.55218493445E+03  0.00000000000E+00 0. -1.
          1   -1    0    0  501    0 -0.00000000000E+00 -0.00000000000E+00 -0.18458135457E+04  0.18458135457E+04  0.00000000000E+00 0. -1.
         25    2    1    2    0    0  0.25312004877E+02 -0.15782177818E+03 -0.67475747465E+02  0.21383769331E+03  0.12500068529E+03 0.  0.
          2    1    1    2  501    0 -0.12245192299E+02  0.58805700963E+02 -0.16994143618E+04  0.17004755889E+04  0.00000000000E+00 0. -1.
          1    1    1    2  502    0 -0.13066812578E+02  0.99016077219E+02  0.47326149807E+03  0.48368519793E+03  0.00000000000E+00 0. -1.
         22    1    3    3    0    0 -0.23663052015E+01 -0.10836138024E+03 -0.10086208372E+03  0.14805724589E+03  0.00000000000E+00 0.  1.
         22    1    3    3    0    0  0.27678310078E+02 -0.49460397940E+02  0.33386336258E+02  0.65780447413E+02  0.00000000000E+00 0.  1.
</event>
<event>
 7    1  0.5622879E-006  0.9793248E+02  0.7818608E-02  0.1351023E+00
          2   -1    0    0  502    0  0.00000000000E+00  0.00000000000E+00  0.10742382248E+04  0.10742382248E+04  0.00000000000E+00 0. -1.
          1   -1    0    0  501    0 -0.00000000000E+00 -0.00000000000E+00 -0.67540630615E+03  0.67540630615E+03  0.00000000000E+00 0. -1.
         25    2    1    2    0    0  0.94411539833E+02  0.10720059701E+03  0.26918271505E+03  0.32937828436E+03  0.12500085308E+03 0.  0.
          2    1    1    2  501    0 -0.80410126908E+02 -0.55021551940E+02 -0.64067930030E+03  0.64804561994E+03  0.00000000000E+00 0. -1.
          1    1    1    2  502    0 -0.14001412925E+02 -0.52179045070E+02  0.77032850394E+03  0.77222062669E+03  0.00000000000E+00 0. -1.
         22    1    3    3    0    0  0.13755508537E+02 -0.11711443018E+02 -0.59211776323E+01  0.19011371787E+02  0.00000000000E+00 0. -1.
         22    1    3    3    0    0  0.80656031297E+02  0.11891204003E+03  0.27510389268E+03  0.31036691257E+03  0.00000000000E+00 0. -1.
</event>
<event>
 7    1  0.5622879E-006  0.1547248E+03  0.7818608E-02  0.1288595E+00
          2   -1    0    0  502    0  0.00000000000E+00  0.00000000000E+00  0.49494423605E+03  0.49494423605E+03  0.00000000000E+00 0. -1.
          1   -1    0    0  501    0 -0.00000000000E+00 -0.00000000000E+00 -0.10237196187E+04  0.10237196187E+04  0.00000000000E+00 0. -1.
         25    2    1    2    0    0 -0.11391976539E+03 -0.13131869219E+03  0.15268535403E+03  0.26298346223E+03  0.12500068882E+03 0.  0.
          2    1    1    2  501    0  0.13483270874E+03  0.75340767282E+02 -0.95921503752E+03  0.97157067616E+03  0.00000000000E+00 0. -1.
          1    1    1    2  502    0 -0.20912943347E+02  0.55977924909E+02  0.27775430086E+03  0.28410971635E+03  0.00000000000E+00 0. -1.
         22    1    3    3    0    0  0.10283391894E+02 -0.64076679092E+02  0.16899811167E+02  0.67060961593E+02  0.00000000000E+00 0.  1.
         22    1    3    3    0    0 -0.12420315728E+03 -0.67242013099E+02  0.13578554286E+03  0.19592250064E+03  0.00000000000E+00 0.  1.
</event>
<event>
 7    1  0.5622879E-006  0.9407682E+02  0.7818608E-02  0.1446860E+00
          2   -1    0    0  502    0  0.00000000000E+00  0.00000000000E+00  0.19772229456E+03  0.19772229456E+03  0.00000000000E+00 0. -1.
          1   -1    0    0  501    0 -0.00000000000E+00 -0.00000000000E+00 -0.42288845421E+03  0.42288845421E+03  0.00000000000E+00 0. -1.
         25    2    1    2    0    0 -0.83747780925E+02  0.12913339075E+02 -0.71537964699E+02  0.16710200844E+03  0.12499982279E+03 0.  0.
          2    1    1    2  501    0  0.95384674780E+02  0.10646232421E+02 -0.29473910538E+03  0.30997212566E+03  0.00000000000E+00 0. -1.
          1    1    1    2  502    0 -0.11636893855E+02 -0.23559571496E+02  0.14111091043E+03  0.14353661467E+03  0.00000000000E+00 0. -1.
         22    1    3    3    0    0 -0.51614042465E+02 -0.52006560908E+02 -0.14007290993E+02  0.74598230261E+02  0.00000000000E+00 0. -1.
         22    1    3    3    0    0 -0.32133738460E+02  0.64919899983E+02 -0.57530673706E+02  0.92503778183E+02  0.00000000000E+00 0. -1.
</event>
<event>
 7    1  0.5622879E-006  0.5311223E+02  0.7818608E-02  0.1476840E+00
          2   -1    0    0  502    0  0.00000000000E+00  0.00000000000E+00  0.11218775782E+04  0.11218775782E+04  0.00000000000E+00 0. -1.
          1   -1    0    0  501    0 -0.00000000000E+00 -0.00000000000E+00 -0.10753743837E+03  0.10753743837E+03  0.00000000000E+00 0. -1.
         25    2    1    2    0    0  0.93479789825E+01 -0.40184304692E+02  0.10946849848E+03  0.17120346000E+03  0.12500043801E+03 0.  0.
          2    1    1    2  501    0  0.35767972978E+02  0.11117228564E+02 -0.71313844472E+02  0.80551878161E+02  0.00000000000E+00 0. -1.
          1    1    1    2  502    0 -0.45115951961E+02  0.29067076128E+02  0.97618548582E+03  0.97765967839E+03  0.00000000000E+00 0. -1.
         22    1    3    3    0    0  0.66876825702E+02 -0.14118904387E+02  0.53182217189E+02  0.86603703744E+02  0.00000000000E+00 0.  1.
         22    1    3    3    0    0 -0.57528846719E+02 -0.26065400306E+02  0.56286281288E+02  0.84599756260E+02  0.00000000000E+00 0.  1.
</event>
<event>
 7    1  0.5622879E-006  0.1487809E+03  0.7818608E-02  0.1296674E+00
          2   -1    0    0  502    0  0.00000000000E+00  0.00000000000E+00  0.32127060324E+04  0.32127060324E+04  0.00000000000E+00 0. -1.
          1   -1    0    0  501    0 -0.00000000000E+00 -0.00000000000E+00 -0.11123375793E+03  0.11123375793E+03  0.00000000000E+00 0. -1.
         25    2    1    2    0    0  0.10911193774E+03 -0.25634359401E+02  0.76705373734E+03  0.78521303427E+03  0.12500215148E+03 0.  0.
          2    1    1    2  501    0  0.33898450296E+02 -0.46611035671E+02 -0.91166061176E+02  0.10785612773E+03  0.00000000000E+00 0. -1.
          1    1    1    2  502    0 -0.14301038803E+03  0.72245395073E+02  0.24255845983E+04  0.24308706283E+04  0.00000000000E+00 0. -1.
         22    1    3    3    0    0  0.11417382917E+03 -0.61627911154E+02  0.64224445371E+03  0.65521874288E+03  0.00000000000E+00 0.  1.
         22    1    3    3    0    0 -0.50618914319E+01  0.35993551753E+02  0.12480928363E+03  0.12999429139E+03  0.00000000000E+00 0.  1.
</event>
<event>
 7    1  0.1544958E-005  0.8043118E+02  0.7818608E-02  0.1388528E+00
          2   -1    0    0  502    0  0.00000000000E+00  0.00000000000E+00  0.11056806375E+04  0.11056806375E+04  0.00000000000E+00 0. -1.
          1   -1    0    0  501    0 -0.00000000000E+00 -0.00000000000E+00 -0.20108002022E+04  0.20108002022E+04  0.00000000000E+00 0. -1.
         25    2    1    2    0    0  0.33008938781E+02 -0.96206587356E+01 -0.18584271071E+03  0.22659426819E+03  0.12500120855E+03 0.  0.
          2    1    1    2  501    0  0.36539409752E+02 -0.31459396421E+02 -0.18027559968E+04  0.18034006782E+04  0.00000000000E+00 0. -1.
          1    1    1    2  502    0 -0.69548348533E+02  0.41080055156E+02  0.10834791427E+04  0.10864858933E+04  0.00000000000E+00 0. -1.
         22    1    3    3    0    0  0.35545432145E+02 -0.73432485621E+01  0.41845442216E+01  0.36536440113E+02  0.00000000000E+00 0. -1.
         22    1    3    3    0    0 -0.25364933641E+01 -0.22774101735E+01 -0.19002725493E+03  0.19005782808E+03  0.00000000000E+00 0. -1.
</event>
<event>
 7    1  0.5622879E-006  0.1595158E+03  0.7818608E-02  0.1303979E+00
          2   -1    0    0  502    0  0.00000000000E+00  0.00000000000E+00  0.27188962931E+04  0.27188962931E+04  0.00000000000E+00 0. -1.
          1   -1    0    0  501    0 -0.00000000000E+00 -0.00000000000E+00 -0.16626690995E+03  0.16626690995E+03  0.00000000000E+00 0. -1.
         25    2    1    2    0    0 -0.19167981563E+02  0.14316247378E+03  0.41375792515E+03  0.45572362658E+03  0.12500199114E+03 0.  0.
          2    1    1    2  501    0  0.69337384636E+02 -0.14611769405E+03 -0.99902600721E+02  0.19010150723E+03  0.00000000000E+00 0. -1.
          1    1    1    2  502    0 -0.50169403073E+02  0.29552202625E+01  0.22387740587E+04  0.22393380692E+04  0.00000000000E+00 0. -1.
         22    1    3    3    0    0 -0.43719512163E+02  0.54860418359E+02  0.66810409351E+02  0.96874620226E+02  0.00000000000E+00 0.  1.
         22    1    3    3    0    0  0.24551530600E+02  0.88302055425E+02  0.34694751580E+03  0.35884900636E+03  0.00000000000E+00 0.  1.
</event>
<event>
 7    1  0.5622879E-006  0.6771959E+02  0.7818608E-02  0.1505937E+00
          2   -1    0    0  502    0  0.00000000000E+00  0.00000000000E+00  0.20894480543E+04  0.20894480543E+04  0.00000000000E+00 0. -1.
          1   -1    0    0  501    0 -0.00000000000E+00 -0.00000000000E+00 -0.10638654597E+03  0.10638654597E+03  0.00000000000E+00 0. -1.
         25    2    1    2    0    0  0.30289910850E+02 -0.58753779725E+02  0.13705093185E+02  0.14206260965E+03  0.12499788058E+03 0.  0.
          2    1    1    2  501    0  0.19974798476E+02  0.13295940752E+02 -0.38178792683E+02  0.45093179367E+02  0.00000000000E+00 0. -1.
          1    1    1    2  502    0 -0.50264709326E+02  0.45457838974E+02  0.20075352078E+04  0.20086788112E+04  0.00000000000E+00 0. -1.
         22    1    3    3    0    0  0.59710987076E+02  0.53882717578E+01 -0.20867003244E+02  0.63481235610E+02  0.00000000000E+00 0.  1.
         22    1    3    3    0    0 -0.29421076226E+02 -0.64142051483E+02  0.34572096429E+02  0.78581374041E+02  0.00000000000E+00 0.  1.
</event>
<event>
 7    1  0.5622879E-006  0.1040398E+03  0.7818608E-02  0.1310824E+00
          2   -1    0    0  502    0  0.00000000000E+00  0.00000000000E+00  0.11831288434E+04  0.11831288434E+04  0.00000000000E+00 0. -1.
          1   -1    0    0  501    0 -0.00000000000E+00 -0.00000000000E+00 -0.72547384856E+03  0.72547384856E+03  0.00000000000E+00 0. -1.
         25    2    1    2    0    0  0.64181694124E+02  0.25783867940E+02  0.84605356392E+03  0.85803004007E+03  0.12499927573E+03 0.  0.
          2    1    1    2  501    0 -0.57703486563E+02  0.86571305540E+02 -0.70599813175E+03  0.71362290135E+03  0.00000000000E+00 0. -1.
          1    1    1    2  502    0 -0.64782075613E+01 -0.11235517348E+03  0.31759956265E+03  0.33694975052E+03  0.00000000000E+00 0. -1.
         22    1    3    3    0    0  0.58181198868E+02 -0.43888078343E+02  0.44330649620E+03  0.44925701430E+03  0.00000000000E+00 0.  1.
         22    1    3    3    0    0  0.60004952564E+01  0.69671946283E+02  0.40274706771E+03  0.40877302577E+03  0.00000000000E+00 0.  1.
</event>
<event>
 7    1  0.5622879E-006  0.1226246E+03  0.7818608E-02  0.1317045E+00
          2   -1    0    0  502    0  0.00000000000E+00  0.00000000000E+00  0.58588422598E+03  0.58588422598E+03  0.00000000000E+00 0. -1.
          1   -1    0    0  501    0 -0.00000000000E+00 -0.00000000000E+00 -0.14419801383E+03  0.14419801383E+03  0.00000000000E+00 0. -1.
         25    2    1    2    0    0 -0.94394450375E+02  0.45795233512E+02 -0.66894827651E+02  0.17637393839E+03  0.12500133000E+03 0.  0.
          2    1    1    2  501    0 -0.30134515226E+02 -0.49641515463E+02  0.44407948558E+02  0.73105642467E+02  0.00000000000E+00 0. -1.
          1    1    1    2  502    0  0.12452896560E+03  0.38462819519E+01  0.46417309125E+03  0.48060265896E+03  0.00000000000E+00 0. -1.
         22    1    3    3    0    0 -0.22637235719E+02  0.21457314055E+02  0.36611841682E+02  0.48096649768E+02  0.00000000000E+00 0.  1.
         22    1    3    3    0    0 -0.71757214656E+02  0.24337919456E+02 -0.10350666933E+03  0.12827728862E+03  0.00000000000E+00 0.  1.
</event>
<event>
 7    1  0.5622879E-006  0.1562234E+03  0.7818608E-02  0.1220438E+00
          2   -1    0    0  502    0  0.00000000000E+00  0.00000000000E+00  0.64461893296E+03  0.64461893296E+03  0.00000000000E+00 0. -1.
          1   -1    0    0  501    0 -0.00000000000E+00 -0.00000000000E+00 -0.39062288299E+04  0.39062288299E+04  0.00000000000E+00 0. -1.
         25    2    1    2    0    0  0.65695274972E+02 -0.14780266990E+03 -0.18010345960E+04  0.18125969030E+04  0.12498167319E+03 0.  0.
          2    1    1    2  501    0 -0.15290885731E+03  0.70723192824E+02 -0.20906947457E+04  0.20974716705E+04  0.00000000000E+00 0. -1.
          1    1    1    2  502    0  0.87213582334E+02  0.77079477072E+02  0.63011944480E+03  0.64077918930E+03  0.00000000000E+00 0. -1.
         22    1    3    3    0    0  0.65916475381E+02 -0.14477780095E+03 -0.10891480910E+04  0.11007039373E+04  0.00000000000E+00 0.  1.
         22    1    3    3    0    0 -0.22120040900E+00 -0.30248689454E+01 -0.71188650493E+03  0.71189296573E+03  0.00000000000E+00 0.  1.
</event>
<event>
 7    1  0.5622879E-006  0.1503574E+03  0.7818608E-02  0.1218316E+00
          2   -1    0    0  502    0  0.00000000000E+00  0.00000000000E+00  0.26224992060E+04  0.26224992060E+04  0.00000000000E+00 0. -1.
          1   -1    0    0  501    0 -0.00000000000E+00 -0.00000000000E+00 -0.10650503575E+03  0.10650503575E+03  0.00000000000E+00 0. -1.
         25    2    1    2    0    0  0.23189148439E+02  0.56906652704E+02  0.10067895380E+03  0.17185845973E+03  0.12499189859E+03 0.  0.
          2    1    1    2  501    0  0.42195626197E+02 -0.19230306758E+03  0.72948305976E+02  0.20995808156E+03  0.00000000000E+00 0. -1.
          1    1    1    2  502    0 -0.65384774637E+02  0.13539641487E+03  0.23423669105E+04  0.23471877005E+04  0.00000000000E+00 0. -1.
         22    1    3    3    0    0 -0.39629924259E+02 -0.77761591417E+01  0.55123755062E+01  0.40760100975E+02  0.00000000000E+00 0.  1.
         22    1    3    3    0    0  0.62819072699E+02  0.64682811846E+02  0.95166578293E+02  0.13109835875E+03  0.00000000000E+00 0.  1.
</event>
<event>
 7    1  0.6349788E-006  0.1331632E+03  0.7818608E-02  0.1240953E+00
          2   -1    0    0  502    0  0.00000000000E+00  0.00000000000E+00  0.74238004727E+03  0.74238004727E+03  0.00000000000E+00 0. -1.
          1   -1    0    0  501    0 -0.00000000000E+00 -0.00000000000E+00 -0.23076371402E+04  0.23076371402E+04  0.00000000000E+00 0. -1.
         25    2    1    2    0    0  0.38184479397E+02  0.67996406133E+02 -0.80015302627E+03  0.81360293948E+03  0.12499324770E+03 0.  0.
          2    1    1    2  501    0 -0.14725979869E+03  0.83907753250E+01 -0.14910643101E+04  0.14983419604E+04  0.00000000000E+00 0. -1.
          1    1    1    2  502    0  0.10907531930E+03 -0.76387181458E+02  0.72596024340E+03  0.73807228763E+03  0.00000000000E+00 0. -1.
         22    1    3    3    0    0 -0.12994823878E+02 -0.38406238869E+01 -0.51367762523E+03  0.51385632088E+03  0.00000000000E+00 0. -1.
         22    1    3    3    0    0  0.51179303275E+02  0.71837030019E+02 -0.28647540104E+03  0.29974661860E+03  0.00000000000E+00 0. -1.
</event>
<event>
 7    1  0.5622879E-006  0.5251530E+02  0.7818608E-02  0.1468585E+00
          2   -1    0    0  502    0  0.00000000000E+00  0.00000000000E+00  0.66834017352E+03  0.66834017352E+03  0.00000000000E+00 0. -1.
          1   -1    0    0  501    0 -0.00000000000E+00 -0.00000000000E+00 -0.13755185344E+04  0.13755185344E+04  0.00000000000E+00 0. -1.
         25    2    1    2    0    0 -0.46103720785E+02  0.39085774999E+02 -0.67378070427E+02  0.15433250555E+03  0.12500186806E+03 0.  0.
          2    1    1    2  501    0  0.38060515692E+02  0.12877513539E+02 -0.12632370650E+04  0.12638759099E+04  0.00000000000E+00 0. -1.
          1    1    1    2  502    0  0.80432050927E+01 -0.51963288538E+02  0.62343677460E+03  0.62565029243E+03  0.00000000000E+00 0. -1.
         22    1    3    3    0    0 -0.69889232547E+02  0.59479829427E+02 -0.14560782060E+02  0.92921317838E+02  0.00000000000E+00 0.  1.
         22    1    3    3    0    0  0.23785511762E+02 -0.20394054428E+02 -0.52817288367E+02  0.61411187712E+02  0.00000000000E+00 0.  1.
</event>
<event>
 7    1  0.5622879E-006  0.4430552E+02  0.7818608E-02  0.1571166E+00
          2   -1    0    0  502    0  0.00000000000E+00  0.00000000000E+00  0.14080306497E+04  0.14080306497E+04  0.00000000000E+00 0. -1.
          1   -1    0    0  501    0 -0.00000000000E+00 -0.00000000000E+00 -0.71167070429E+03  0.71167070429E+03  0.00000000000E+00 0. -1.
         25    2    1    2    0    0  0.55086028377E+02  0.39956288751E+02  0.32224009406E+03  0.35226844513E+03  0.12499361457E+03 0.  0.
          2    1    1    2  501    0 -0.37118944058E+02 -0.24099706026E+02 -0.69581937127E+03  0.69722536476E+03  0.00000000000E+00 0. -1.
          1    1    1    2  502    0 -0.17967084319E+02 -0.15856582725E+02  0.10699392226E+04  0.10702075441E+04  0.00000000000E+00 0. -1.
         22    1    3    3    0    0  0.38506886332E+02  0.22396884676E+02  0.19602530290E+02  0.48668880529E+02  0.00000000000E+00 0.  1.
         22    1    3    3    0    0  0.16579142045E+02  0.17559404075E+02  0.30263756377E+03  0.30359956460E+03  0.00000000000E+00 0.  1.
</event>
<event>
 7    1  0.5622879E-006  0.1451215E+03  0.7818608E-02  0.1356735E+00
          2   -1    0    0  502    0  0.00000000000E+00  0.00000000000E+00  0.76754401420E+03  0.76754401420E+03  0.00000000000E+00 0. -1.
          1   -1    0    0  501    0 -0.00000000000E+00 -0.00000000000E+00 -0.12390738134E+04  0.12390738134E+04  0.00000000000E+00 0. -1.
         25    2    1    2    0    0  0.12976961419E+02  0.11201302632E+03  0.39726010659E+03  0.43145888205E+03  0.12500342003E+03 0.  0.
          2    1    1    2  501    0 -0.34800365992E+01 -0.14542305736E+03 -0.12167777414E+04  0.12254419807E+04  0.00000000000E+00 0. -1.
          1    1    1    2  502    0 -0.94969248197E+01  0.33410031046E+02  0.34798783558E+03  0.34971696480E+03  0.00000000000E+00 0. -1.
         22    1    3    3    0    0  0.42614515881E+02  0.89090870059E+02  0.37519960402E+03  0.38797928160E+03  0.00000000000E+00 0.  1.
         22    1    3    3    0    0 -0.29637554462E+02  0.22922156260E+02  0.22060502573E+02  0.43479600457E+02  0.00000000000E+00 0.  1.
</event>
<event>
 7    1  0.5622879E-006  0.7184842E+02  0.7818608E-02  0.1358700E+00
          2   -1    0    0  502    0  0.00000000000E+00  0.00000000000E+00  0.93406101617E+03  0.93406101617E+03  0.00000000000E+00 0. -1.
          1   -1    0    0  501    0 -0.00000000000E+00 -0.00000000000E+00 -0.65845036376E+03  0.65845036376E+03  0.00000000000E+00 0. -1.
         25    2    1    2    0    0 -0.52002504699E+02 -0.12994810845E+03 -0.17299234483E+03  0.25522967172E+03  0.12500025028E+03 0.  0.
          2    1    1    2  501    0  0.30659617682E+02  0.61817088052E+02 -0.44022036516E+03  0.44559548296E+03  0.00000000000E+00 0. -1.
          1    1    1    2  502    0  0.21342887018E+02  0.68131020397E+02  0.88882336240E+03  0.89168622526E+03  0.00000000000E+00 0. -1.
         22    1    3    3    0    0  0.50400439490E+01 -0.40075741693E+02  0.11705392406E+02  0.42053339066E+02  0.00000000000E+00 0.  1.
         22    1    3    3    0    0 -0.57042548648E+02 -0.89872366756E+02 -0.18469773724E+03  0.21317633265E+03  0.00000000000E+00 0.  1.
</event>
<event>
 7    1  0.5622879E-006  0.8338871E+02  0.7818608E-02  0.1386665E+00
          2   -1    0    0  502    0  0.00000000000E+00  0.00000000000E+00  0.98801398350E+03  0.98801398350E+03  0.00000000000E+00 0. -1.
          1   -1    0    0  501    0 -0.00000000000E+00 -0.00000000000E+00 -0.57803852246E+03  0.57803852246E+03  0.00000000000E+00 0. -1.
         25    2    1    2    0    0 -0.12408000795E+02  0.50512463948E+02  0.29104288085E+02  0.13848492003E+03  0.12500218396E+03 0.  0.
          2    1    1    2  501    0 -0.45906582962E+02  0.11016633083E+02 -0.52029020629E+03  0.52242767856E+03  0.00000000000E+00 0. -1.
          1    1    1    2  502    0  0.58314583757E+02 -0.61529097032E+02  0.90116137925E+03  0.90513990737E+03  0.00000000000E+00 0. -1.
         22    1    3    3    0    0 -0.42848020158E+02  0.55093886630E+02 -0.26721137926E+02  0.74734920804E+02  0.00000000000E+00 0. -1.
         22    1    3    3    0    0  0.30440019363E+02 -0.45814226820E+01  0.55825426012E+02  0.63749999231E+02  0.00000000000E+00 0. -1.
</event>
<event>
 7    1  0.5622879E-006  0.9604279E+02  0.7818608E-02  0.1336654E+00
          2   -1    0    0  502    0  0.00000000000E+00  0.00000000000E+00  0.10063065025E+04  0.10063065025E+04  0.00000000000E+00 0. -1.
          1   -1    0    0  501    0 -0.00000000000E+00 -0.00000000000E+00 -0.58389590260E+03  0.58389590260E+03  0.00000000000E+00 0. -1.
         25    2    1    2    0    0  0.41938476992E+02 -0.37535738331E+01  0.43122593250E+03  0.45094813425E+03  0.12500195900E+03 0.  0.
          2    1    1    2  501    0 -0.89307257627E+02 -0.36781136982E+02 -0.56822809091E+03  0.57637817585E+03  0.00000000000E+00 0. -1.
          1    1    1    2  502    0  0.47368780635E+02  0.40534710815E+02  0.55941275829E+03  0.56287609498E+03  0.00000000000E+00 0. -1.
         22    1    3    3    0    0  0.77249695440E+02  0.20161344260E+02  0.19178735301E+03  0.20774114668E+03  0.00000000000E+00 0.  1.
         22    1    3    3    0    0 -0.35311218448E+02 -0.23914918093E+02  0.23943857949E+03  0.24320698757E+03  0.00000000000E+00 0.  1.
</event>
<event>
 7    1  0.5622879E-006  0.5245301E+02  0.7818608E-02  0.1442441E+00
          2   -1    0    0  502    0  0.00000000000E+00  0.00000000000E+00  0.44821714597E+03  0.44821714597E+03  0.00000000000E+00 0. -1.
          1   -1    0    0  501    0 -0.00000000000E+00 -0.00000000000E+00 -0.28303903299E+03  0.28303903299E+03  0.00000000000E+00 0. -1.
         25    2    1    2    0    0  0.36982888839E+01  0.20347798851E+01 -0.16704687892E+03  0.20868182949E+03  0.12500251410E+03 0.  0.
          2    1    1    2  501    0  0.45638894361E+02  0.16993992613E+02 -0.87173952896E+02  0.99854907375E+02  0.00000000000E+00 0. -1.
          1    1    1    2  502    0 -0.49337183245E+02 -0.19028772498E+02  0.41939894480E+03  0.42271944210E+03  0.00000000000E+00 0. -1.
         22    1    3    3    0    0  0.59804460575E+02  0.17774130789E+02 -0.11362987130E+03  0.12963117249E+03  0.00000000000E+00 0. -1.
         22    1    3    3    0    0 -0.56106171691E+02 -0.15739350904E+02 -0.53417007625E+02  0.79050657001E+02  0.00000000000E+00 0. -1.
</event>
<event>
 7    1  0.5622879E-006  0.5284398E+02  0.7818608E-02  0.1470965E+00
          2   -1    0    0  502    0  0.00000000000E+00  0.00000000000E+00  0.52687527427E+02  0.52687527427E+02  0.00000000000E+00 0. -1.
          1   -1    0    0  501    0 -0.00000000000E+00 -0.00000000000E+00 -0.82280370648E+03  0.82280370648E+03  0.00000000000E+00 0. -1.
         25    2    1    2    0    0 -0.96053008545E+01  0.87902399159E+02 -0.20723289908E+03  0.25766151780E+03  0.12499955884E+03 0.  0.
          2    1    1    2  501    0  0.72257081486E+01 -0.38584191237E+02 -0.56693108915E+03  0.56828849234E+03  0.00000000000E+00 0. -1.
          1    1    1    2  502    0  0.23795927058E+01 -0.49318207922E+02  0.40478091790E+01  0.49541223776E+02  0.00000000000E+00 0. -1.
         22    1    3    3    0    0  0.19530519688E+02  0.11154710763E+03 -0.13454128761E+03  0.17585663619E+03  0.00000000000E+00 0. -1.
         22    1    3    3    0    0 -0.29135820542E+02 -0.23644708468E+02 -0.72691611467E+02  0.81804881608E+02  0.00000000000E+00 0. -1.
</event>
<event>
 7    1  0.5622879E-006  0.2443800E+03  0.7818608E-02  0.1276125E+00
          2   -1    0    0  502    0  0.00000000000E+00  0.00000000000E+00  0.41018626295E+03  0.41018626295E+03  0.00000000000E+00 0. -1.
          1   -1    0    0  501    0 -0.00000000000E+00 -0.00000000000E+00 -0.18508547602E+04  0.18508547602E+04  0.00000000000E+00 0. -1.
         25    2    1    2    0    0 -0.28025003347E+03  0.26896584299E+02 -0.93926582699E+03  0.98848822889E+03  0.12500070957E+03 0.  0.
          2    1    1    2  501    0  0.37410443632E+02 -0.20338124382E+02 -0.84812684512E+03  0.84919510479E+03  0.00000000000E+00 0. -1.
          1    1    1    2  502    0  0.24283958984E+03 -0.65584599173E+01  0.34672417486E+03  0.42335768946E+03  0.00000000000E+00 0. -1.
         22    1    3    3    0    0 -0.79600735010E+02  0.54917553451E+02 -0.42252822570E+03  0.43345393781E+03  0.00000000000E+00 0.  1.
         22    1    3    3    0    0 -0.20064929846E+03 -0.28020969152E+02 -0.51673760129E+03  0.55503429107E+03  0.00000000000E+00 0.  1.
</event>
<event>
 7    1  0.5622879E-006  0.2226734E+03  0.7818608E-02  0.1165627E+00
          2   -1    0    0  502    0  0.00000000000E+00  0.00000000000E+00  0.64019192395E+03  0.64019192395E+03  0.00000000000E+00 0. -1.
          1   -1    0    0  501    0 -0.00000000000E+00 -0.00000000000E+00 -0.44144197050E+03  0.44144197050E+03  0.00000000000E+00 0. -1.
         25    2    1    2    0    0 -0.62196558530E+02  0.26066071626E+03 -0.58009184255E+02  0.30133529060E+03  0.12500188402E+03 0.  0.
          2    1    1    2  501    0 -0.75658003207E+02 -0.20361232287E+03 -0.20277487529E+03  0.29715275789E+03  0.00000000000E+00 0. -1.
          1    1    1    2  502    0  0.13785456174E+03 -0.57048393383E+02  0.45953401298E+03  0.48314584596E+03  0.00000000000E+00 0. -1.
         22    1    3    3    0    0 -0.37723521934E+02  0.22352662462E+02  0.21616566973E+02  0.48887437998E+02  0.00000000000E+00 0. -1.
         22    1    3    3    0    0 -0.24473036595E+02  0.23830805379E+03 -0.79625751228E+02  0.25244785260E+03  0.00000000000E+00 0. -1.
</event>
<event>
 7    1  0.5622879E-006  0.1193309E+03  0.7818608E-02  0.1413156E+00
          2   -1    0    0  502    0  0.00000000000E+00  0.00000000000E+00  0.50701682569E+02  0.50701682569E+02  0.00000000000E+00 0. -1.
          1   -1    0    0  501    0 -0.00000000000E+00 -0.00000000000E+00 -0.95324169717E+03  0.95324169717E+03  0.00000000000E+00 0. -1.
         25    2    1    2    0    0  0.10728811727E+03 -0.42680829488E+01 -0.27001012437E+03  0.31632074609E+03  0.12499756198E+03 0.  0.
          2    1    1    2  501    0 -0.11945694183E+03  0.28086551388E+02 -0.64608591494E+03  0.65763654461E+03  0.00000000000E+00 0. -1.
          1    1    1    2  502    0  0.12168824555E+02 -0.23818468439E+02  0.13556024717E+02  0.29986089041E+02  0.00000000000E+00 0. -1.
         22    1    3    3    0    0  0.67032479467E+02 -0.69701737631E+01 -0.31446512981E+02  0.74369481674E+02  0.00000000000E+00 0.  1.
         22    1    3    3    0    0  0.40255637805E+02  0.27020908143E+01 -0.23856361139E+03  0.24195126441E+03  0.00000000000E+00 0.  1.
</event>
<event>
 7    1  0.5622879E-006  0.1067006E+03  0.7818608E-02  0.1320543E+00
          2   -1    0    0  502    0  0.00000000000E+00  0.00000000000E+00  0.15562676812E+04  0.15562676812E+04  0.00000000000E+00 0. -1.
          1   -1    0    0  501    0 -0.00000000000E+00 -0.00000000000E+00 -0.73858117479E+03  0.73858117479E+03  0.00000000000E+00 0. -1.
         25    2    1    2    0    0  0.26106381043E+02 -0.13642748826E+03  0.28107511157E+03  0.33752389269E+03  0.12500062843E+03 0.  0.
          2    1    1    2  501    0  0.28940005059E+02  0.10246315314E+03 -0.70552096418E+03  0.71350967235E+03  0.00000000000E+00 0. -1.
          1    1    1    2  502    0 -0.55046386102E+02  0.33964335124E+02  0.12421323590E+04  0.12438152909E+04  0.00000000000E+00 0. -1.
         22    1    3    3    0    0  0.27874927379E+02 -0.89334377808E+02  0.27441021064E+03  0.28992862284E+03  0.00000000000E+00 0. -1.
         22    1    3    3    0    0 -0.17685463354E+01 -0.47093110452E+02  0.66649009300E+01  0.47595269855E+02  0.00000000000E+00 0. -1.
</event>
<event>
 7    1  0.5622879E-006  0.9100261E+02  0.7818608E-02  0.1415167E+00
          2   -1    0    0  502    0  0.00000000000E+00  0.00000000000E+00  0.10552647600E+03  0.10552647600E+03  0.00000000000E+00 0. -1.
          1   -1    0    0  501    0 -0.00000000000E+00 -0.00000000000E+00 -0.11434132906E+04  0.11434132906E+04  0.00000000000E+00 0. -1.
         25    2    1    2    0    0 -0.87704123490E+02  0.33712065662E+02 -0.18381567239E+03  0.24133445855E+03  0.12500241125E+03 0.  0.
          2    1    1    2  501    0  0.67322543251E+02 -0.61585662996E+02 -0.92459264873E+03  0.92908378783E+03  0.00000000000E+00 0. -1.
          1    1    1    2  502    0  0.20381580239E+02  0.27873597333E+02  0.70521506577E+02  0.78521520179E+02  0.00000000000E+00 0. -1.
         22    1    3    3    0    0 -0.73988196784E+02 -0.23325968418E+02 -0.42796077506E+02  0.88599426160E+02  0.00000000000E+00 0.  1.
         22    1    3    3    0    0 -0.13715926705E+02  0.57038034081E+02 -0.14101959489E+03  0.15273503239E+03  0.00000000000E+00 0.  1.
</event>
<event>
 7    1  0.5622879E-006  0.1787441E+03  0.7818608E-02  0.1333113E+00
          2   -1    0    0  502    0  0.00000000000E+00  0.00000000000E+00  0.41200899261E+04  0.41200899261E+04  0.00000000000E+00 0. -1.
          1   -1    0    0  501    0 -0.00000000000E+00 -0.00000000000E+00 -0.23122913447E+03  0.23122913447E+03  0.00000000000E+00 0. -1.
         25    2    1    2    0    0  0.25389757497E+02  0.18099700049E+03 -0.15244728927E+03  0.26883208489E+03  0.12500383949E+03 0.  0.
          2    1    1    2  501    0  0.32445620485E+02 -0.11875811774E+02 -0.25836056012E+01  0.34647196306E+02  0.00000000000E+00 0. -1.
          1    1    1    2  502    0 -0.57835377982E+02 -0.16912118871E+03  0.40438916865E+04  0.40478397794E+04  0.00000000000E+00 0. -1.
         22    1    3    3    0    0  0.62336152836E+02  0.40050289107E+02 -0.67139608541E+02  0.99987742463E+02  0.00000000000E+00 0.  1.
         22    1    3    3    0    0 -0.36946395338E+02  0.14094671138E+03 -0.85307680729E+02  0.16884434243E+03  0.00000000000E+00 0.  1.
</event>
<event>
 7    1  0.5622879E-006  0.8604236E+02  0.7818608E-02  0.1433083E+00
          2   -1    0    0  502    0  0.00000000000E+00  0.00000000000E+00  0.81678391055E+03  0.81678391055E+03  0.00000000000E+00 0. -1.
          1   -1    0    0  501    0 -0.00000000000E+00 -0.00000000000E+00 -0.47245875170E+02  0.47245875170E+02  0.00000000000E+00 0. -1.
         25    2    1    2    0    0  0.62525607454E+02 -0.45937757560E+02  0.14747944007E+03  0.20833334440E+03  0.12503146799E+03 0.  0.
          2    1    1    2  501    0 -0.15586111015E+02 -0.27771358024E+02  0.47085901641E+01  0.32192328347E+02  0.00000000000E+00 0. -1.
          1    1    1    2  502    0 -0.46939496439E+02  0.73709115584E+02  0.61735000515E+03  0.62350411298E+03  0.00000000000E+00 0. -1.
         22    1    3    3    0    0  0.65028597384E+02  0.21013932340E+02  0.11524454690E+03  0.13398361624E+03  0.00000000000E+00 0. -1.
         22    1    3    3    0    0 -0.25029899295E+01 -0.66951689900E+02  0.32234893164E+02  0.74349728153E+02  0.00000000000E+00 0. -1.
</event>
<event>
 7    1  0.5622879E-006  0.9667943E+02  0.7818608E-02  0.1354577E+00
          2   -1    0    0  502    0  0.00000000000E+00  0.00000000000E+00  0.19851009700E+03  0.19851009700E+03  0.00000000000E+00 0. -1.
          1   -1    0    0  501    0 -0.00000000000E+00 -0.00000000000E+00 -0.57233493803E+03  0.57233493803E+03  0.00000000000E+00 0. -1.
         25    2    1    2    0    0 -0.77595179960E+02  0.11762417309E+03 -0.34306979247E+03  0.39138354688E+03  0.12501096040E+03 0.  0.
          2    1    1    2  501    0  0.45014957806E+02 -0.28160106757E+02 -0.18815572432E+03  0.19550425733E+03  0.00000000000E+00 0. -1.
          1    1    1    2  502    0  0.32580222154E+02 -0.89464066334E+02  0.15740067575E+03  0.18395723081E+03  0.00000000000E+00 0. -1.
         22    1    3    3    0    0 -0.24677981023E+02  0.76323221758E+02 -0.59223578500E+02  0.99707919331E+02  0.00000000000E+00 0. -1.
         22    1    3    3    0    0 -0.52917198937E+02  0.41300951332E+02 -0.28384621397E+03  0.29167562755E+03  0.00000000000E+00 0. -1.
</event>
<event>
 7    1  0.5622879E-006  0.2582993E+03  0.7818608E-02  0.1153709E+00
          2   -1    0    0  502    0  0.00000000000E+00  0.00000000000E+00  0.91702321979E+03  0.91702321979E+03  0.00000000000E+00 0. -1.
          1   -1    0    0  501    0 -0.00000000000E+00 -0.00000000000E+00 -0.13406924565E+04  0.13406924565E+04  0.00000000000E+00 0. -1.
         25    2    1    2    0    0 -0.25499106249E+02  0.32557857690E+03  0.36603883621E+03  0.50622440938E+03  0.12500843525E+03 0.  0.
          2    1    1    2  501    0  0.10649505353E+03 -0.10243807991E+03 -0.12366351438E+04  0.12454321481E+04  0.00000000000E+00 0. -1.
          1    1    1    2  502    0 -0.80995947286E+02 -0.22314049699E+03  0.44692707097E+03  0.50605911872E+03  0.00000000000E+00 0. -1.
         22    1    3    3    0    0  0.49525558872E+02  0.11283387364E+03  0.11248378814E+03  0.16684383901E+03  0.00000000000E+00 0.  1.
         22    1    3    3    0    0 -0.75024665120E+02  0.21274470326E+03  0.25355504808E+03  0.33938057037E+03  0.00000000000E+00 0.  1.
</event>
<event>
 7    1  0.5622879E-006  0.4784359E+02  0.7818608E-02  0.1515464E+00
          2   -1    0    0  502    0  0.00000000000E+00  0.00000000000E+00  0.13125924291E+04  0.13125924291E+04  0.00000000000E+00 0. -1.
          1   -1    0    0  501    0 -0.00000000000E+00 -0.00000000000E+00 -0.51908127656E+03  0.51908127656E+03  0.00000000000E+00 0. -1.
         25    2    1    2    0    0  0.24609377511E+02 -0.81062405922E+01  0.10331325716E+04  0.10409896924E+04  0.12500118688E+03 0.  0.
          2    1    1    2  501    0 -0.44991961889E+02 -0.16357209385E+02 -0.51311481246E+03  0.51534323096E+03  0.00000000000E+00 0. -1.
          1    1    1    2  502    0  0.20382584378E+02  0.24463449977E+02  0.27349339342E+03  0.27534078226E+03  0.00000000000E+00 0. -1.
         22    1    3    3    0    0  0.15033135599E+02  0.43997723889E+01  0.10209673418E+04  0.10210874919E+04  0.00000000000E+00 0. -1.
         22    1    3    3    0    0  0.95762419119E+01 -0.12506012981E+02  0.12165229794E+02  0.19902200526E+02  0.00000000000E+00 0. -1.
</event>
<event>
 7    1  0.5622879E-006  0.3228245E+02  0.7818608E-02  0.1621869E+00
          2   -1    0    0  502    0  0.00000000000E+00  0.00000000000E+00  0.35405457388E+03  0.35405457388E+03  0.00000000000E+00 0. -1.
          1   -1    0    0  501    0 -0.00000000000E+00 -0.00000000000E+00 -0.85293978351E+03  0.85293978351E+03  0.00000000000E+00 0. -1.
         25    2    1    2    0    0  0.41042610211E+02 -0.27026778869E+02 -0.46252543736E+02  0.14205173151E+03  0.12499781595E+03 0.  0.
          2    1    1    2  501    0 -0.24203245320E+02 -0.38631789592E+00 -0.75774864857E+03  0.75813518632E+03  0.00000000000E+00 0. -1.
          1    1    1    2  502    0 -0.16839364891E+02  0.27413096765E+02  0.30511598268E+03  0.30680743956E+03  0.00000000000E+00 0. -1.
         22    1    3    3    0    0 -0.71417886063E+01  0.34502085522E+02 -0.52964623392E+02  0.63613287770E+02  0.00000000000E+00 0.  1.
         22    1    3    3    0    0  0.48184398817E+02 -0.61528864391E+02  0.67120796566E+01  0.78438443738E+02  0.00000000000E+00 0.  1.
</event>
<event>
 7    1  0.5622879E-006  0.1570780E+03  0.7818608E-02  0.1237583E+00
          2   -1    0    0  502    0  0.00000000000E+00  0.00000000000E+00  0.61803990577E+03  0.61803990577E+03  0.00000000000E+00 0. -1.
          1   -1    0    0  501    0 -0.00000000000E+00 -0.00000000000E+00 -0.18142234629E+04  0.18142234629E+04  0.00000000000E+00 0. -1.
         25    2    1    2    0    0  0.75219974777E+02 -0.28270860815E+02 -0.53309267044E+02  0.15787185210E+03  0.12499743020E+03 0.  0.
          2    1    1    2  501    0  0.91395167657E+02  0.32346399891E+02 -0.16949432016E+04  0.16977137047E+04  0.00000000000E+00 0. -1.
          1    1    1    2  502    0 -0.16661514243E+03 -0.40755390759E+01  0.55206891152E+03  0.57667781193E+03  0.00000000000E+00 0. -1.
         22    1    3    3    0    0 -0.76951881380E+01  0.34000655883E+02  0.10139657493E+02  0.36305277509E+02  0.00000000000E+00 0. -1.
         22    1    3    3    0    0  0.82915162915E+02 -0.62271516698E+02 -0.63448924537E+02  0.12156657459E+03  0.00000000000E+00 0. -1.
</event>
<event>
 7    1  0.5622879E-006  0.8706079E+02  0.7818608E-02  0.1460378E+00
          2   -1    0    0  502    0  0.00000000000E+00  0.00000000000E+00  0.80574001872E+03  0.80574001872E+03  0.00000000000E+00 0. -1.
          1   -1    0    0  501    0 -0.00000000000E+00 -0.00000000000E+00 -0.45954644317E+02  0.45954644317E+02  0.00000000000E+00 0. -1.
         25    2    1    2    0    0 -0.48987743966E+02  0.81875027114E+02  0.28944147178E+03  0.32939680204E+03  0.12499027357E+03 0.  0.
          2    1    1    2  501    0 -0.12955342517E+02 -0.22214146954E+02 -0.14745631935E+02  0.29643597720E+02  0.00000000000E+00 0. -1.
          1    1    1    2  502    0  0.61943086483E+02 -0.59660880160E+02  0.48508953455E+03  0.49265426327E+03  0.00000000000E+00 0. -1.
         22    1    3    3    0    0 -0.52243722255E+02  0.22622041988E+02  0.32214871812E+02  0.65413769687E+02  0.00000000000E+00 0. -1.
         22    1    3    3    0    0  0.32559782889E+01  0.59252985126E+02  0.25722659997E+03  0.26398303236E+03  0.00000000000E+00 0. -1.
</event>
<event>
 7    1  0.5622879E-006  0.6935199E+02  0.7818608E-02  0.1474672E+00
          2   -1    0    0  502    0  0.00000000000E+00  0.00000000000E+00  0.16995216156E+04  0.16995216156E+04  0.00000000000E+00 0. -1.
          1   -1    0    0  501    0 -0.00000000000E+00 -0.00000000000E+00 -0.54956939254E+02  0.54956939254E+02  0.00000000000E+00 0. -1.
         25    2    1    2    0    0  0.12204986047E+02  0.50524094211E+02  0.16353201782E+03  0.21229229230E+03  0.12499460283E+03 0.  0.
          2    1    1    2  501    0 -0.38393270544E+02 -0.63281254565E+02  0.14574196319E+02  0.75438502111E+02  0.00000000000E+00 0. -1.
          1    1    1    2  502    0  0.26188284497E+02  0.12757160355E+02  0.14664584622E+04  0.14667477605E+04  0.00000000000E+00 0. -1.
         22    1    3    3    0    0  0.25206434343E+02  0.48546361567E+02  0.69281614822E+01  0.55137219510E+02  0.00000000000E+00 0.  1.
         22    1    3    3    0    0 -0.13001448296E+02  0.19777326435E+01  0.15660385634E+03  0.15715507279E+03  0.00000000000E+00 0.  1.
</event>
<event>
 7    1  0.5622879E-006  0.5970421E+02  0.7818608E-02  0.1544871E+00
          2   -1    0    0  502    0  0.00000000000E+00  0.00000000000E+00  0.52325641713E+03  0.52325641713E+03  0.00000000000E+00 0. -1.
          1   -1    0    0  501    0 -0.00000000000E+00 -0.00000000000E+00 -0.68641426140E+03  0.68641426140E+03  0.00000000000E+00 0. -1.
         25    2    1    2    0    0 -0.70363722930E+02 -0.24586351094E+02  0.47806619422E+03  0.49972949522E+03  0.12500696047E+03 0.  0.
          2    1    1    2  501    0  0.50574088998E+02  0.31664728191E+02 -0.67091556382E+03  0.67356372176E+03  0.00000000000E+00 0. -1.
          1    1    1    2  502    0  0.19789633931E+02 -0.70783770970E+01  0.29691525319E+02  0.36377461555E+02  0.00000000000E+00 0. -1.
         22    1    3    3    0    0 -0.55482128986E+02  0.40739609474E+02  0.15211952202E+03  0.16696805502E+03  0.00000000000E+00 0. -1.
         22    1    3    3    0    0 -0.14881593944E+02 -0.65325960568E+02  0.32594667221E+03  0.33276144020E+03  0.00000000000E+00 0. -1.
</event>
<event>
 7    1  0.5622879E-006  0.4170143E+02  0.7818608E-02  0.1608256E+00
          2   -1    0    0  502    0  0.00000000000E+00  0.00000000000E+00  0.36160051039E+03  0.36160051039E+03  0.00000000000E+00 0. -1.
          1   -1    0    0  501    0 -0.00000000000E+00 -0.00000000000E+00 -0.10278447848E+04  0.10278447848E+04  0.00000000000E+00 0. -1.
         25    2    1    2    0    0 -0.42718394933E+02  0.31450833345E+02 -0.17928361813E+03  0.22490190339E+03  0.12499693690E+03 0.  0.
          2    1    1    2  501    0  0.26342127608E+01 -0.20134835285E+02 -0.82434638254E+03  0.82459645225E+03  0.00000000000E+00 0. -1.
          1    1    1    2  502    0  0.40084182172E+02 -0.11315998060E+02  0.33738572622E+03  0.33994693958E+03  0.00000000000E+00 0. -1.
         22    1    3    3    0    0  0.14072458175E+02 -0.41091158774E+02 -0.63597984757E+02  0.77014421205E+02  0.00000000000E+00 0. -1.
         22    1    3    3    0    0 -0.56790853108E+02  0.72541992118E+02 -0.11568563337E+03  0.14788748218E+03  0.00000000000E+00 0. -1.
</event>
<event>
 7    1  0.5622879E-006  0.4110353E+02  0.7818608E-02  0.1585675E+00
          2   -1    0    0  502    0  0.00000000000E+00  0.00000000000E+00  0.20120572387E+03  0.20120572387E+03  0.00000000000E+00 0. -1.
          1   -1    0    0  501    0 -0.00000000000E+00 -0.00000000000E+00 -0.12892109361E+04  0.12892109361E+04  0.00000000000E+00 0. -1.
         25    2    1    2    0    0  0.57136535312E+02  0.19531153674E+02  0.72436211676E+02  0.15658527830E+03  0.12500357990E+03 0.  0.
          2    1    1    2  501    0 -0.18197085361E+02 -0.15047052133E+02 -0.12425880578E+04  0.12428123870E+04  0.00000000000E+00 0. -1.
          1    1    1    2  502    0 -0.38939449952E+02 -0.44841015417E+01  0.82146633944E+02  0.91018994707E+02  0.00000000000E+00 0. -1.
         22    1    3    3    0    0  0.12714914442E+02  0.66439323208E+02  0.13171105010E+02  0.68915388157E+02  0.00000000000E+00 0.  1.
         22    1    3    3    0    0  0.44421620870E+02 -0.46908169534E+02  0.59265106666E+02  0.87669890144E+02  0.00000000000E+00 0.  1.
</event>
<event>
 7    1  0.5622879E-006  0.5315366E+02  0.7818608E-02  0.1478537E+00
          2   -1    0    0  502    0  0.00000000000E+00  0.00000000000E+00  0.22893132635E+03  0.22893132635E+03  0.00000000000E+00 0. -1.
          1   -1    0    0  501    0 -0.00000000000E+00 -0.00000000000E+00 -0.97108195611E+02  0.97108195611E+02  0.00000000000E+00 0. -1.
         25    2    1    2    0    0  0.27699355739E+02  0.50134922206E+02  0.10001606399E+03  0.17002654817E+03  0.12500019717E+03 0.  0.
          2    1    1    2  501    0 -0.36792560469E+02  0.37113311356E+01 -0.47205768290E+02  0.59965415404E+02  0.00000000000E+00 0. -1.
          1    1    1    2  502    0  0.90932047305E+01 -0.53846253342E+02  0.79012835042E+02  0.96047558390E+02  0.00000000000E+00 0. -1.
         22    1    3    3    0    0  0.62339885599E+02 -0.62709910920E+01  0.78469579344E+02  0.10041444890E+03  0.00000000000E+00 0.  1.
         22    1    3    3    0    0 -0.34640529860E+02  0.56405913298E+02  0.21546484646E+02  0.69612099269E+02  0.00000000000E+00 0.  1.
</event>
<event>
 7    1  0.5622879E-006  0.6244279E+02  0.7818608E-02  0.1399229E+00
          2   -1    0    0  502    0  0.00000000000E+00  0.00000000000E+00  0.67496268264E+03  0.67496268264E+03  0.00000000000E+00 0. -1.
          1   -1    0    0  501    0 -0.00000000000E+00 -0.00000000000E+00 -0.16769945003E+03  0.16769945003E+03  0.00000000000E+00 0. -1.
         25    2    1    2    0    0  0.99469410177E+02  0.22394620048E+02  0.30906969828E+02  0.16424485667E+03  0.12500179835E+03 0.  0.
          2    1    1    2  501    0 -0.45029310236E+02 -0.39341673547E+02 -0.90626327373E+02  0.10857503061E+03  0.00000000000E+00 0. -1.
          1    1    1    2  502    0 -0.54440099942E+02  0.16947053499E+02  0.56698259015E+03  0.56984224540E+03  0.00000000000E+00 0. -1.
         22    1    3    3    0    0  0.46099493693E+02  0.72909244600E+02  0.28040140254E+02  0.90703752581E+02  0.00000000000E+00 0. -1.
         22    1    3    3    0    0  0.53369916484E+02 -0.50514624552E+02  0.28668295738E+01  0.73541104091E+02  0.00000000000E+00 0. -1.
</event>
<event>
 7    1  0.5622879E-006  0.8637256E+02  0.7818608E-02  0.1324134E+00
          2   -1    0    0  502    0  0.00000000000E+00  0.00000000000E+00  0.12584363985E+04  0.12584363985E+04  0.00000000000E+00 0. -1.
          1   -1    0    0  501    0 -0.00000000000E+00 -0.00000000000E+00 -0.36649397092E+03  0.36649397092E+03  0.00000000000E+00 0. -1.
         25    2    1    2    0    0 -0.19946990222E+02  0.10380687899E+03  0.25381730718E+02  0.16565803146E+03  0.12499840235E+03 0.  0.
          2    1    1    2  501    0 -0.50225742915E+02 -0.71171245489E+02 -0.28863195059E+03  0.30149025580E+03  0.00000000000E+00 0. -1.
          1    1    1    2  502    0  0.70172733137E+02 -0.32635633497E+02  0.11551926474E+04  0.11577820821E+04  0.00000000000E+00 0. -1.
         22    1    3    3    0    0 -0.65653251250E+02  0.85098295672E+02  0.39148372007E+02  0.11438821774E+03  0.00000000000E+00 0.  1.
         22    1    3    3    0    0  0.45706261028E+02  0.18708583313E+02 -0.13766641289E+02  0.51269813723E+02  0.00000000000E+00 0.  1.
</event>
<event>
 7    1  0.5622879E-006  0.8477437E+02  0.7818608E-02  0.1345833E+00
          2   -1    0    0  502    0  0.00000000000E+00  0.00000000000E+00  0.21272995592E+04  0.21272995592E+04  0.00000000000E+00 0. -1.
          1   -1    0    0  501    0 -0.00000000000E+00 -0.00000000000E+00 -0.18805491965E+04  0.18805491965E+04  0.00000000000E+00 0. -1.
         25    2    1    2    0    0 -0.13217798357E+02  0.12330283546E+03 -0.19267892308E+03  0.26101664789E+03  0.12500489451E+03 0.  0.
          2    1    1    2  501    0 -0.33011404344E+02 -0.77265534755E+02 -0.16521251657E+04  0.16542603419E+04  0.00000000000E+00 0. -1.
          1    1    1    2  502    0  0.46229202701E+02 -0.46037300705E+02  0.20915544514E+04  0.20925717659E+04  0.00000000000E+00 0. -1.
         22    1    3    3    0    0  0.98206222844E+01  0.17940601888E+02 -0.13908902693E+03  0.14058473327E+03  0.00000000000E+00 0. -1.
         22    1    3    3    0    0 -0.23038420642E+02  0.10536223357E+03 -0.53589896150E+02  0.12043191462E+03  0.00000000000E+00 0. -1.
</event>
<event>
 7    1  0.5622879E-006  0.9871821E+02  0.7818608E-02  0.1330492E+00
          2   -1    0    0  502    0  0.00000000000E+00  0.00000000000E+00  0.24089679738E+03  0.24089679738E+03  0.00000000000E+00 0. -1.
          1   -1    0    0  501    0 -0.00000000000E+00 -0.00000000000E+00 -0.48843492011E+03  0.48843492011E+03  0.00000000000E+00 0. -1.
         25    2    1    2    0    0  0.35488615891E+02  0.70851021255E+02 -0.12568742044E+03  0.19416874240E+03  0.12499945519E+03 0.  0.
          2    1    1    2  501    0  0.57077180539E+02 -0.28983111431E+02 -0.31257780409E+03  0.31906536774E+03  0.00000000000E+00 0. -1.
          1    1    1    2  502    0 -0.92565796430E+02 -0.41867909824E+02  0.19072710179E+03  0.21609760734E+03  0.00000000000E+00 0. -1.
         22    1    3    3    0    0  0.57964045740E+01 -0.80204886067E+01 -0.10749829210E+03  0.10795281075E+03  0.00000000000E+00 0. -1.
         22    1    3    3    0    0  0.29692211317E+02  0.78871509861E+02 -0.18189128331E+02  0.86215931649E+02  0.00000000000E+00 0. -1.
</event>
<event>
 7    1  0.5622879E-006  0.1405222E+03  0.7818608E-02  0.1357013E+00
          2   -1    0    0  502    0  0.00000000000E+00  0.00000000000E+00  0.34522483007E+03  0.34522483007E+03  0.00000000000E+00 0. -1.
          1   -1    0    0  501    0 -0.00000000000E+00 -0.00000000000E+00 -0.29378686675E+03  0.29378686675E+03  0.00000000000E+00 0. -1.
         25    2    1    2    0    0  0.13705971239E+03  0.36924031033E+02  0.40979831177E+02  0.19353610336E+03  0.12501251102E+03 0.  0.
          2    1    1    2  501    0 -0.12258215219E+03 -0.69650949970E+02 -0.19293440166E+03  0.23895882954E+03  0.00000000000E+00 0. -1.
          1    1    1    2  502    0 -0.14477560199E+02  0.32726918937E+02  0.20339253380E+03  0.20651676392E+03  0.00000000000E+00 0. -1.
         22    1    3    3    0    0 -0.10062207389E+02  0.40184150396E+02  0.15267021311E+02  0.44148566232E+02  0.00000000000E+00 0. -1.
         22    1    3    3    0    0  0.14712191978E+03 -0.32601193627E+01  0.25712809866E+02  0.14938753713E+03  0.00000000000E+00 0. -1.
</event>
<event>
 7    1  0.5622879E-006  0.8155300E+02  0.7818608E-02  0.1381560E+00
          2   -1    0    0  502    0  0.00000000000E+00  0.00000000000E+00  0.43562808764E+03  0.43562808764E+03  0.00000000000E+00 0. -1.
          1   -1    0    0  501    0 -0.00000000000E+00 -0.00000000000E+00 -0.44832177383E+03  0.44832177383E+03  0.00000000000E+00 0. -1.
         25    2    1    2    0    0 -0.64852930041E+02  0.81586316204E+02  0.22900667799E+03  0.28094716951E+03  0.12500009586E+03 0.  0.
          2    1    1    2  501    0  0.49942044522E+02 -0.60918351645E+01 -0.41255834681E+03  0.41561485511E+03  0.00000000000E+00 0. -1.
          1    1    1    2  502    0  0.14910885519E+02 -0.75494481040E+02  0.17085798262E+03  0.18738783685E+03  0.00000000000E+00 0. -1.
         22    1    3    3    0    0 -0.57287300373E+02  0.10427355921E+03  0.22780466756E+03  0.25700151069E+03  0.00000000000E+00 0.  1.
         22    1    3    3    0    0 -0.75656296674E+01 -0.22687243004E+02  0.12020104313E+01  0.23945658822E+02  0.00000000000E+00 0.  1.
</event>
<event>
 7    1  0.5622879E-006  0.1006334E+03  0.7818608E-02  0.1315307E+00
          2   -1    0    0  502    0  0.00000000000E+00  0.00000000000E+00  0.27029550638E+03  0.27029550638E+03  0.00000000000E+00 0. -1.
          1   -1    0    0  501    0 -0.00000000000E+00 -0.00000000000E+00 -0.59564411202E+03  0.59564411202E+03  0.00000000000E+00 0. -1.
         25    2    1    2    0    0 -0.68126870368E+02  0.81939586037E+02 -0.24458254048E+02  0.16606958325E+03  0.12500213624E+03 0.  0.
          2    1    1    2  501    0 -0.90984579207E+00 -0.10194297532E+03 -0.48846791732E+03  0.49899309042E+03  0.00000000000E+00 0. -1.
          1    1    1    2  502    0  0.69036716160E+02  0.20003389282E+02  0.18757756573E+03  0.20087694473E+03  0.00000000000E+00 0. -1.
         22    1    3    3    0    0 -0.81528179675E+02  0.28349803912E+02  0.27136794298E+02  0.90481827279E+02  0.00000000000E+00 0. -1.
         22    1    3    3    0    0  0.13401309307E+02  0.53589782125E+02 -0.51595048346E+02  0.75587755974E+02  0.00000000000E+00 0. -1.
</event>
<event>
 7    1  0.5622879E-006  0.4714214E+02  0.7818608E-02  0.1516515E+00
          2   -1    0    0  502    0  0.00000000000E+00  0.00000000000E+00  0.28986350308E+04  0.28986350308E+04  0.00000000000E+00 0. -1.
          1   -1    0    0  501    0 -0.00000000000E+00 -0.00000000000E+00 -0.58027379608E+01  0.58027379608E+01  0.00000000000E+00 0. -1.
         25    2    1    2    0    0 -0.59102368482E+02  0.38800492927E+01  0.11100208168E+04  0.11186060275E+04  0.12500034505E+03 0.  0.
          2    1    1    2  501    0  0.21389748575E+02  0.23919386235E+02  0.22096941504E+03  0.22328712629E+03  0.00000000000E+00 0. -1.
          1    1    1    2  502    0  0.37712619908E+02 -0.27799435528E+02  0.15618420609E+04  0.15625446149E+04  0.00000000000E+00 0. -1.
         22    1    3    3    0    0  0.11970801385E+02 -0.47912432430E+02  0.46573735807E+03  0.46834836176E+03  0.00000000000E+00 0.  1.
         22    1    3    3    0    0 -0.71073169867E+02  0.51792481722E+02  0.64428345876E+03  0.65025766575E+03  0.00000000000E+00 0.  1.
</event>
<event>
 7    1  0.5622879E-006  0.1544620E+03  0.7818608E-02  0.1363933E+00
          2   -1    0    0  502    0  0.00000000000E+00  0.00000000000E+00  0.15796249227E+04  0.15796249227E+04  0.00000000000E+00 0. -1.
          1   -1    0    0  501    0 -0.00000000000E+00 -0.00000000000E+00 -0.94044985415E+02  0.94044985415E+02  0.00000000000E+00 0. -1.
         25    2    1    2    0    0  0.71304445048E+02 -0.11201424780E+03  0.44295084765E+03  0.47902158725E+03  0.12499884806E+03 0.  0.
          2    1    1    2  501    0 -0.69080292788E+02  0.14265236781E+03  0.70934832720E+01  0.15865718515E+03  0.00000000000E+00 0. -1.
          1    1    1    2  502    0 -0.22241522597E+01 -0.30638120009E+02  0.10355356064E+04  0.10359911357E+04  0.00000000000E+00 0. -1.
         22    1    3    3    0    0 -0.23242382619E+02 -0.76440863096E+02  0.22595763183E+03  0.23966698830E+03  0.00000000000E+00 0.  1.
         22    1    3    3    0    0  0.94546827667E+02 -0.35573384707E+02  0.21699321582E+03  0.23935459894E+03  0.00000000000E+00 0.  1.
</event>
<event>
 7    1  0.5622879E-006  0.6498541E+02  0.7818608E-02  0.1483900E+00
          2   -1    0    0  502    0  0.00000000000E+00  0.00000000000E+00  0.24837975451E+04  0.24837975451E+04  0.00000000000E+00 0. -1.
          1   -1    0    0  501    0 -0.00000000000E+00 -0.00000000000E+00 -0.13485101119E+03  0.13485101119E+03  0.00000000000E+00 0. -1.
         25    2    1    2    0    0  0.29150352321E+02  0.87632824041E+02  0.15754840991E+03  0.22130663364E+03  0.12500347890E+03 0.  0.
          2    1    1    2  501    0 -0.18908405333E+01 -0.29062532190E+02 -0.10044827028E+03  0.10458518565E+03  0.00000000000E+00 0. -1.
          1    1    1    2  502    0 -0.27259511788E+02 -0.58570291851E+02  0.22918463943E+04  0.22927567370E+04  0.00000000000E+00 0. -1.
         22    1    3    3    0    0  0.32368611862E+02  0.79943503124E+02  0.17878030278E+03  0.19849707148E+03  0.00000000000E+00 0.  1.
         22    1    3    3    0    0 -0.32182595406E+01  0.76893209173E+01 -0.21231892874E+02  0.22809562154E+02  0.00000000000E+00 0.  1.
</event>
<event>
 7    1  0.5622879E-006  0.1066777E+03  0.7818608E-02  0.1426338E+00
          2   -1    0    0  502    0  0.00000000000E+00  0.00000000000E+00  0.12763525764E+04  0.12763525764E+04  0.00000000000E+00 0. -1.
          1   -1    0    0  501    0 -0.00000000000E+00 -0.00000000000E+00 -0.17531988852E+03  0.17531988852E+03  0.00000000000E+00 0. -1.
         25    2    1    2    0    0 -0.64662814027E+01 -0.95889153601E+02  0.24062264201E+03  0.28768185101E+03  0.12500019591E+03 0.  0.
          2    1    1    2  501    0  0.32665848379E+02  0.10255423510E+03 -0.13250348882E+03  0.17070911907E+03  0.00000000000E+00 0. -1.
          1    1    1    2  502    0 -0.26199566976E+02 -0.66650814968E+01  0.99291353473E+03  0.99328149488E+03  0.00000000000E+00 0. -1.
         22    1    3    3    0    0  0.14214498679E+01 -0.92703448819E+02  0.25480240292E+03  0.27114611278E+03  0.00000000000E+00 0.  1.
         22    1    3    3    0    0 -0.78877312706E+01 -0.31857047818E+01 -0.14179760904E+02  0.16535738231E+02  0.00000000000E+00 0.  1.
</event>
<event>
 7    1  0.5622879E-006  0.1182272E+03  0.7818608E-02  0.1426519E+00
          2   -1    0    0  502    0  0.00000000000E+00  0.00000000000E+00  0.88915392439E+03  0.88915392439E+03  0.00000000000E+00 0. -1.
          1   -1    0    0  501    0 -0.00000000000E+00 -0.00000000000E+00 -0.72704279057E+03  0.72704279057E+03  0.00000000000E+00 0. -1.
         25    2    1    2    0    0 -0.69172982448E+00 -0.97456209070E+02  0.86758679367E+02  0.18069607447E+03  0.12500324678E+03 0.  0.
          2    1    1    2  501    0  0.13273835747E+02  0.11831457554E+03 -0.67466418265E+03  0.68508852920E+03  0.00000000000E+00 0. -1.
          1    1    1    2  502    0 -0.12582105922E+02 -0.20858366469E+02  0.75001663710E+03  0.75041211129E+03  0.00000000000E+00 0. -1.
         22    1    3    3    0    0 -0.25811540995E+01 -0.17418025694E+02  0.98249745499E+02  0.99815141468E+02  0.00000000000E+00 0. -1.
         22    1    3    3    0    0  0.18894242751E+01 -0.80038183375E+02 -0.11491066132E+02  0.80880933000E+02  0.00000000000E+00 0. -1.
</event>
<event>
 7    1  0.5622879E-006  0.6650013E+02  0.7818608E-02  0.1378194E+00
          2   -1    0    0  502    0  0.00000000000E+00  0.00000000000E+00  0.26839490643E+04  0.26839490643E+04  0.00000000000E+00 0. -1.
          1   -1    0    0  501    0 -0.00000000000E+00 -0.00000000000E+00 -0.32826468557E+04  0.32826468557E+04  0.00000000000E+00 0. -1.
         25    2    1    2    0    0 -0.74414928783E+02 -0.22510125488E+02  0.12216744383E+04  0.12305121045E+04  0.12500927492E+03 0.  0.
          2    1    1    2  501    0  0.24618624294E+02  0.61780662909E+02 -0.32772008111E+04  0.32778755442E+04  0.00000000000E+00 0. -1.
          1    1    1    2  502    0  0.49796304489E+02 -0.39270537421E+02  0.14568285814E+04  0.14582082713E+04  0.00000000000E+00 0. -1.
         22    1    3    3    0    0 -0.42564934105E+02 -0.11084783402E+02  0.11207800706E+03  0.12039985757E+03  0.00000000000E+00 0. -1.
         22    1    3    3    0    0 -0.31849994678E+02 -0.11425342086E+02  0.11095964312E+04  0.11101122469E+04  0.00000000000E+00 0. -1.
</event>
<event>
 7    1  0.5622879E-006  0.4950652E+02  0.7818608E-02  0.1570471E+00
          2   -1    0    0  502    0  0.00000000000E+00  0.00000000000E+00  0.14169446258E+04  0.14169446258E+04  0.00000000000E+00 0. -1.
          1   -1    0    0  501    0 -0.00000000000E+00 -0.00000000000E+00 -0.44976991223E+03  0.44976991223E+03  0.00000000000E+00 0. -1.
         25    2    1    2    0    0  0.40164551927E+02 -0.33755411970E+02  0.94543040028E+03  0.95509532640E+03  0.12496328132E+03 0.  0.
          2    1    1    2  501    0 -0.47619302470E+02  0.13547382043E+02 -0.44331017844E+03  0.44606618773E+03  0.00000000000E+00 0. -1.
          1    1    1    2  502    0  0.74547505427E+01  0.20208029926E+02  0.46505449178E+03  0.46555302394E+03  0.00000000000E+00 0. -1.
         22    1    3    3    0    0 -0.21734138738E+02 -0.63062695415E+02  0.43265478131E+03  0.43776641732E+03  0.00000000000E+00 0.  1.
         22    1    3    3    0    0  0.61898690665E+02  0.29307283446E+02  0.51277561896E+03  0.51732890908E+03  0.00000000000E+00 0.  1.
</event>
<event>
 7    1  0.5622879E-006  0.1152517E+03  0.7818608E-02  0.1319935E+00
          2   -1    0    0  502    0  0.00000000000E+00  0.00000000000E+00  0.50550920719E+03  0.50550920719E+03  0.00000000000E+00 0. -1.
          1   -1    0    0  501    0 -0.00000000000E+00 -0.00000000000E+00 -0.12808270180E+04  0.12808270180E+04  0.00000000000E+00 0. -1.
         25    2    1    2    0    0 -0.12438449266E+02  0.89661343649E+02 -0.26740970848E+03  0.30875226902E+03  0.12500455940E+03 0.  0.
          2    1    1    2  501    0 -0.42772037851E+02 -0.11367943412E+03 -0.98714022578E+03  0.99458447923E+03  0.00000000000E+00 0. -1.
          1    1    1    2  502    0  0.55210487117E+02  0.24018090474E+02  0.47923212347E+03  0.48299947694E+03  0.00000000000E+00 0. -1.
         22    1    3    3    0    0 -0.35854714647E+02  0.60555664725E+02 -0.45684968594E+02  0.83902714188E+02  0.00000000000E+00 0. -1.
         22    1    3    3    0    0  0.23416265381E+02  0.29105678924E+02 -0.22172473988E+03  0.22484955483E+03  0.00000000000E+00 0. -1.
</event>
<event>
 7    1  0.5622879E-006  0.1498742E+03  0.7818608E-02  0.1303640E+00
          2   -1    0    0  502    0  0.00000000000E+00  0.00000000000E+00  0.21874189626E+04  0.21874189626E+04  0.00000000000E+00 0. -1.
          1   -1    0    0  501    0 -0.00000000000E+00 -0.00000000000E+00 -0.64335819400E+03  0.64335819400E+03  0.00000000000E+00 0. -1.
         25    2    1    2    0    0 -0.34257245670E+02  0.19810260508E+03  0.68175684538E+03  0.72168934681E+03  0.12499966424E+03 0.  0.
          2    1    1    2  501    0  0.37175169446E+02 -0.14452609967E+03 -0.61396668481E+03  0.63184244616E+03  0.00000000000E+00 0. -1.
          1    1    1    2  502    0 -0.29179237756E+01 -0.53576505416E+02  0.14762706080E+04  0.14772453636E+04  0.00000000000E+00 0. -1.
         22    1    3    3    0    0  0.33527918867E+02  0.35536175788E+02  0.72057255921E+02  0.87058539295E+02  0.00000000000E+00 0. -1.
         22    1    3    3    0    0 -0.67785164538E+02  0.16256642929E+03  0.60969958946E+03  0.63463080752E+03  0.00000000000E+00 0. -1.
</event>
<event>
 7    1  0.5622879E-006  0.6227927E+02  0.7818608E-02  0.1452264E+00
          2   -1    0    0  502    0  0.00000000000E+00  0.00000000000E+00  0.64996376961E+03  0.64996376961E+03  0.00000000000E+00 0. -1.
          1   -1    0    0  501    0 -0.00000000000E+00 -0.00000000000E+00 -0.88851685883E+03  0.88851685883E+03  0.00000000000E+00 0. -1.
         25    2    1    2    0    0  0.58121971815E+01 -0.60001972842E+02  0.45896046520E+03  0.47948345945E+03  0.12500264351E+03 0.  0.
          2    1    1    2  501    0 -0.41483443674E+02  0.46495544667E+02 -0.87512281582E+03  0.87733839227E+03  0.00000000000E+00 0. -1.
          1    1    1    2  502    0  0.35671246492E+02  0.13506428175E+02  0.17760926140E+03  0.18165877673E+03  0.00000000000E+00 0. -1.
         22    1    3    3    0    0  0.39537551353E+02 -0.51473157081E+02  0.42806429369E+03  0.43295697638E+03  0.00000000000E+00 0. -1.
         22    1    3    3    0    0 -0.33725354172E+02 -0.85288157609E+01  0.30896171518E+02  0.46526483069E+02  0.00000000000E+00 0. -1.
</event>
<event>
 7    1  0.5622879E-006  0.7721233E+02  0.7818608E-02  0.1464709E+00
          2   -1    0    0  502    0  0.00000000000E+00  0.00000000000E+00  0.16978440550E+04  0.16978440550E+04  0.00000000000E+00 0. -1.
          1   -1    0    0  501    0 -0.00000000000E+00 -0.00000000000E+00 -0.56067132102E+02  0.56067132102E+02  0.00000000000E+00 0. -1.
         25    2    1    2    0    0 -0.31929046896E+02 -0.59651089299E+02  0.14797300780E+03  0.20517589200E+03  0.12499367637E+03 0.  0.
          2    1    1    2  501    0  0.59713693678E+02  0.55445449365E+02  0.33406731505E+02  0.88067773776E+02  0.00000000000E+00 0. -1.
          1    1    1    2  502    0 -0.27784646782E+02  0.42056399335E+01  0.14603971836E+04  0.14606675213E+04  0.00000000000E+00 0. -1.
         22    1    3    3    0    0 -0.71181829945E+02 -0.71501035530E+02  0.11046923833E+03  0.14960850114E+03  0.00000000000E+00 0.  1.
         22    1    3    3    0    0  0.39252783049E+02  0.11849946231E+02  0.37503769470E+02  0.55567390862E+02  0.00000000000E+00 0.  1.
</event>
<event>
 7    1  0.5622879E-006  0.5028639E+03  0.7818608E-02  0.1078766E+00
          2   -1    0    0  502    0  0.00000000000E+00  0.00000000000E+00  0.20810083394E+04  0.20810083394E+04  0.00000000000E+00 0. -1.
          1   -1    0    0  501    0 -0.00000000000E+00 -0.00000000000E+00 -0.11087773536E+04  0.11087773536E+04  0.00000000000E+00 0. -1.
         25    2    1    2    0    0 -0.29633545664E+03  0.12348143311E+03  0.10542510207E+04  0.11091135017E+04  0.12500071120E+03 0.  0.
          2    1    1    2  501    0  0.45556768443E+03 -0.23642115735E+03 -0.10097046324E+04  0.11326695562E+04  0.00000000000E+00 0. -1.
          1    1    1    2  502    0 -0.15923222779E+03  0.11293972423E+03  0.92768459748E+03  0.94800263506E+03  0.00000000000E+00 0. -1.
         22    1    3    3    0    0 -0.26118879527E+03  0.14185742741E+03  0.98954961199E+03  0.10332238630E+04  0.00000000000E+00 0. -1.
         22    1    3    3    0    0 -0.35146661371E+02 -0.18375994301E+02  0.64701408763E+02  0.75889638739E+02  0.00000000000E+00 0. -1.
</event>
<event>
 7    1  0.5622879E-006  0.6622382E+02  0.7818608E-02  0.1413586E+00
          2   -1    0    0  502    0  0.00000000000E+00  0.00000000000E+00  0.13077646721E+03  0.13077646721E+03  0.00000000000E+00 0. -1.
          1   -1    0    0  501    0 -0.00000000000E+00 -0.00000000000E+00 -0.68815389414E+03  0.68815389414E+03  0.00000000000E+00 0. -1.
         25    2    1    2    0    0 -0.44901815800E+02 -0.10312114442E+03 -0.23797830045E+03  0.29139096683E+03  0.12499952231E+03 0.  0.
          2    1    1    2  501    0  0.20118480158E+02  0.43619421257E+02 -0.41195761087E+03  0.41474869537E+03  0.00000000000E+00 0. -1.
          1    1    1    2  502    0  0.24783335642E+02  0.59501723166E+02  0.92558484384E+02  0.11279069916E+03  0.00000000000E+00 0. -1.
         22    1    3    3    0    0 -0.14597458627E+02  0.11899269507E+02 -0.12804880458E+03  0.12942632950E+03  0.00000000000E+00 0.  1.
         22    1    3    3    0    0 -0.30304357174E+02 -0.11502041393E+03 -0.10992949586E+03  0.16196463733E+03  0.00000000000E+00 0.  1.
</event>
<event>
 7    1  0.5622879E-006  0.4956235E+02  0.7818608E-02  0.1524434E+00
          2   -1    0    0  502    0  0.00000000000E+00  0.00000000000E+00  0.84980353927E+03  0.84980353927E+03  0.00000000000E+00 0. -1.
          1   -1    0    0  501    0 -0.00000000000E+00 -0.00000000000E+00 -0.84735164134E+03  0.84735164134E+03  0.00000000000E+00 0. -1.
         25    2    1    2    0    0  0.71117976480E+02  0.24492007461E+02  0.20225730960E+03  0.24938041464E+03  0.12499978765E+03 0.  0.
          2    1    1    2  501    0 -0.28945928616E+02 -0.37228006333E+00 -0.82258946309E+03  0.82309867584E+03  0.00000000000E+00 0. -1.
          1    1    1    2  502    0 -0.42172047864E+02 -0.24119727397E+02  0.62278405143E+03  0.62467609014E+03  0.00000000000E+00 0. -1.
         22    1    3    3    0    0  0.18726968561E+02 -0.59028942519E+01  0.18549898099E+03  0.18653529280E+03  0.00000000000E+00 0.  1.
         22    1    3    3    0    0  0.52391007918E+02  0.30394901712E+02  0.16758328602E+02  0.62845121834E+02  0.00000000000E+00 0.  1.
</event>
<event>
 7    1  0.5622879E-006  0.1668104E+03  0.7818608E-02  0.1327674E+00
          2   -1    0    0  502    0  0.00000000000E+00  0.00000000000E+00  0.22677191982E+04  0.22677191982E+04  0.00000000000E+00 0. -1.
          1   -1    0    0  501    0 -0.00000000000E+00 -0.00000000000E+00 -0.49875269698E+02  0.49875269698E+02  0.00000000000E+00 0. -1.
         25    2    1    2    0    0 -0.12018636444E+03 -0.11587723346E+03  0.44472230395E+03  0.49119614454E+03  0.12499371726E+03 0.  0.
          2    1    1    2  501    0  0.91092359167E+02  0.14160182794E+03  0.24214364165E+03  0.29492785350E+03  0.00000000000E+00 0. -1.
          1    1    1    2  502    0  0.29094005278E+02 -0.25724594482E+02  0.15309779829E+04  0.15314704699E+04  0.00000000000E+00 0. -1.
         22    1    3    3    0    0 -0.11572035246E+03 -0.13780232388E+03  0.34629368875E+03  0.39025632514E+03  0.00000000000E+00 0. -1.
         22    1    3    3    0    0 -0.44660119819E+01  0.21925090417E+02  0.98428615193E+02  0.10093981941E+03  0.00000000000E+00 0. -1.
</event>
<event>
 7    1  0.5622879E-006  0.8304826E+02  0.7818608E-02  0.1392798E+00
          2   -1    0    0  502    0  0.00000000000E+00  0.00000000000E+00  0.28662008409E+03  0.28662008409E+03  0.00000000000E+00 0. -1.
          1   -1    0    0  501    0 -0.00000000000E+00 -0.00000000000E+00 -0.15866074548E+03  0.15866074548E+03  0.00000000000E+00 0. -1.
         25    2    1    2    0    0  0.43720588323E+02  0.39640029809E+02  0.19603422362E+03  0.23986987222E+03  0.12500126784E+03 0.  0.
          2    1    1    2  501    0 -0.25876557075E+02 -0.81085091962E+02 -0.11317827705E+03  0.14161112506E+03  0.00000000000E+00 0. -1.
          1    1    1    2  502    0 -0.17844031248E+02  0.41445062152E+02  0.45103392038E+02  0.63799832299E+02  0.00000000000E+00 0. -1.
         22    1    3    3    0    0  0.87783379231E+02  0.20652980031E+02  0.13162194698E+03  0.15955188554E+03  0.00000000000E+00 0.  1.
         22    1    3    3    0    0 -0.44062790908E+02  0.18987049779E+02  0.64412276644E+02  0.80317986680E+02  0.00000000000E+00 0.  1.
</event>
<event>
 7    1  0.5622879E-006  0.7491074E+02  0.7818608E-02  0.1377826E+00
          2   -1    0    0  502    0  0.00000000000E+00  0.00000000000E+00  0.27881769569E+04  0.27881769569E+04  0.00000000000E+00 0. -1.
          1   -1    0    0  501    0 -0.00000000000E+00 -0.00000000000E+00 -0.75837936485E+02  0.75837936485E+02  0.00000000000E+00 0. -1.
         25    2    1    2    0    0 -0.36664693935E+02  0.36604678335E+02  0.42618582678E+03  0.44715011127E+03  0.12499864321E+03 0.  0.
          2    1    1    2  501    0 -0.28916961415E+01 -0.76902422961E+02 -0.42239957604E+02  0.87787006910E+02  0.00000000000E+00 0. -1.
          1    1    1    2  502    0  0.39556390076E+02  0.40297744626E+02  0.23283931512E+04  0.23290777752E+04  0.00000000000E+00 0. -1.
         22    1    3    3    0    0 -0.65487824587E+02 -0.17626800844E+02  0.15655141527E+03  0.17060980306E+03  0.00000000000E+00 0. -1.
         22    1    3    3    0    0  0.28823130652E+02  0.54231479179E+02  0.26963441151E+03  0.27654030821E+03  0.00000000000E+00 0. -1.
</event>
<event>
 7    1  0.5622879E-006  0.2856182E+02  0.7818608E-02  0.1622425E+00
          2   -1    0    0  502    0  0.00000000000E+00  0.00000000000E+00  0.60092093347E+01  0.60092093347E+01  0.00000000000E+00 0. -1.
          1   -1    0    0  501    0 -0.00000000000E+00 -0.00000000000E+00 -0.16711618709E+04  0.16711618709E+04  0.00000000000E+00 0. -1.
         25    2    1    2    0    0 -0.79032327763E+00 -0.34014641648E+02 -0.12427691917E+04  0.12495029091E+04  0.12499854233E+03 0.  0.
          2    1    1    2  501    0  0.22767081223E+02  0.15011675676E+02 -0.32233832173E+03  0.32348985154E+03  0.00000000000E+00 0. -1.
          1    1    1    2  502    0 -0.21976757945E+02  0.19002965972E+02 -0.10004514814E+03  0.10417831959E+03  0.00000000000E+00 0. -1.
         22    1    3    3    0    0  0.32158700196E+01 -0.78274201765E+02 -0.58318112540E+03  0.58841942312E+03  0.00000000000E+00 0.  1.
         22    1    3    3    0    0 -0.40061932972E+01  0.44259560118E+02 -0.65958806628E+03  0.66108348597E+03  0.00000000000E+00 0.  1.
</event>
<event>
 7    1  0.5622879E-006  0.7072138E+02  0.7818608E-02  0.1368258E+00
          2   -1    0    0  502    0  0.00000000000E+00  0.00000000000E+00  0.50863475660E+03  0.50863475660E+03  0.00000000000E+00 0. -1.
          1   -1    0    0  501    0 -0.00000000000E+00 -0.00000000000E+00 -0.41394103032E+03  0.41394103032E+03  0.00000000000E+00 0. -1.
         25    2    1    2    0    0 -0.19692260447E+02 -0.72971418567E+02  0.42614601814E+02  0.15216158375E+03  0.12499812092E+03 0.  0.
          2    1    1    2  501    0 -0.46641332984E+02  0.44868180115E+02 -0.35304831335E+03  0.35893130135E+03  0.00000000000E+00 0. -1.
          1    1    1    2  502    0  0.66333593431E+02  0.28103238452E+02  0.40512743781E+03  0.41148290183E+03  0.00000000000E+00 0. -1.
         22    1    3    3    0    0 -0.66173141325E+02 -0.48434330562E+02  0.54255322807E+02  0.98328068540E+02  0.00000000000E+00 0. -1.
         22    1    3    3    0    0  0.46480880878E+02 -0.24537088005E+02 -0.11640720993E+02  0.53833515213E+02  0.00000000000E+00 0. -1.
</event>
<event>
 7    1  0.5622879E-006  0.1387661E+03  0.7818608E-02  0.1222563E+00
          2   -1    0    0  502    0  0.00000000000E+00  0.00000000000E+00  0.22340674785E+04  0.22340674785E+04  0.00000000000E+00 0. -1.
          1   -1    0    0  501    0 -0.00000000000E+00 -0.00000000000E+00 -0.91954785245E+03  0.91954785245E+03  0.00000000000E+00 0. -1.
         25    2    1    2    0    0 -0.25929030872E+03 -0.46660124861E+02  0.41781496299E+03  0.50951166910E+03  0.12499666480E+03 0.  0.
          2    1    1    2  501    0  0.13709711296E+03  0.80355004143E+01 -0.86596222797E+03  0.87678433375E+03  0.00000000000E+00 0. -1.
          1    1    1    2  502    0  0.12219319576E+03  0.38624624447E+02  0.17626668910E+04  0.17673193281E+04  0.00000000000E+00 0. -1.
         22    1    3    3    0    0 -0.20738549912E+03 -0.47292762467E+02  0.22415634447E+03  0.30901685617E+03  0.00000000000E+00 0.  1.
         22    1    3    3    0    0 -0.51904809593E+02  0.63263760617E+00  0.19365861852E+03  0.20049481294E+03  0.00000000000E+00 0.  1.
</event>
<event>
 7    1  0.5622879E-006  0.7866582E+02  0.7818608E-02  0.1377955E+00
          2   -1    0    0  502    0  0.00000000000E+00  0.00000000000E+00  0.98407513336E+03  0.98407513336E+03  0.00000000000E+00 0. -1.
          1   -1    0    0  501    0 -0.00000000000E+00 -0.00000000000E+00 -0.25666147192E+03  0.25666147192E+03  0.00000000000E+00 0. -1.
         25    2    1    2    0    0  0.32513509393E+02  0.12570004431E+03  0.95953899524E+02  0.20418691406E+03  0.12501006203E+03 0.  0.
          2    1    1    2  501    0 -0.16743406000E+02 -0.74351572461E+02 -0.19447211239E+03  0.20887292900E+03  0.00000000000E+00 0. -1.
          1    1    1    2  502    0 -0.15770103393E+02 -0.51348471844E+02  0.82593187430E+03  0.82767676222E+03  0.00000000000E+00 0. -1.
         22    1    3    3    0    0 -0.23423053210E+02  0.28762110612E+02  0.83759655748E+02  0.91605558563E+02  0.00000000000E+00 0.  1.
         22    1    3    3    0    0  0.55936562603E+02  0.96937933693E+02  0.12194243776E+02  0.11258135550E+03  0.00000000000E+00 0.  1.
</event>
<event>
 7    1  0.5622879E-006  0.6319097E+02  0.7818608E-02  0.1440716E+00
          2   -1    0    0  502    0  0.00000000000E+00  0.00000000000E+00  0.30248201225E+04  0.30248201225E+04  0.00000000000E+00 0. -1.
          1   -1    0    0  501    0 -0.00000000000E+00 -0.00000000000E+00 -0.19222155874E+04  0.19222155874E+04  0.00000000000E+00 0. -1.
         25    2    1    2    0    0 -0.69881915730E+02  0.72216874234E+01  0.67903910009E+03  0.69401130834E+03  0.12498784638E+03 0.  0.
          2    1    1    2  501    0  0.55091087697E+02  0.30961719899E+02 -0.19140286862E+04  0.19150716612E+04  0.00000000000E+00 0. -1.
          1    1    1    2  502    0  0.14790828034E+02 -0.38183407323E+02  0.23375941211E+04  0.23379527404E+04  0.00000000000E+00 0. -1.
         22    1    3    3    0    0 -0.68070794160E+02 -0.29634464516E+02  0.19640268295E+03  0.20996630295E+03  0.00000000000E+00 0.  1.
         22    1    3    3    0    0 -0.18111215698E+01  0.36856151940E+02  0.48263641714E+03  0.48404500539E+03  0.00000000000E+00 0.  1.
</event>
<event>
 7    1  0.5622879E-006  0.7709709E+02  0.7818608E-02  0.1452345E+00
          2   -1    0    0  502    0  0.00000000000E+00  0.00000000000E+00  0.17276400735E+04  0.17276400735E+04  0.00000000000E+00 0. -1.
          1   -1    0    0  501    0 -0.00000000000E+00 -0.00000000000E+00 -0.61096978386E+03  0.61096978386E+03  0.00000000000E+00 0. -1.
         25    2    1    2    0    0  0.52433776288E+02  0.82920648753E+00  0.77103505078E+02  0.15594580729E+03  0.12499662330E+03 0.  0.
          2    1    1    2  501    0  0.22679121724E+02 -0.20829896329E+02 -0.57019540171E+03  0.57102628948E+03  0.00000000000E+00 0. -1.
          1    1    1    2  502    0 -0.75112898012E+02  0.20000689842E+02  0.16097621862E+04  0.16116377606E+04  0.00000000000E+00 0. -1.
         22    1    3    3    0    0  0.47209156008E+02 -0.57599889483E+02  0.57520221054E+02  0.94101155729E+02  0.00000000000E+00 0. -1.
         22    1    3    3    0    0  0.52246202796E+01  0.58429095970E+02  0.19583284024E+02  0.61844651557E+02  0.00000000000E+00 0. -1.
</event>
<event>
 7    1  0.5622879E-006  0.1053709E+03  0.7818608E-02  0.1332113E+00
          2   -1    0    0  502    0  0.00000000000E+00  0.00000000000E+00  0.91912681403E+02  0.91912681403E+02  0.00000000000E+00 0. -1.
          1   -1    0    0  501    0 -0.00000000000E+00 -0.00000000000E+00 -0.12571746976E+04  0.12571746976E+04  0.00000000000E+00 0. -1.
         25    2    1    2    0    0  0.42137154014E+02  0.75608584288E+02 -0.14071181153E+03  0.20716460626E+03  0.12500064967E+03 0.  0.
          2    1    1    2  501    0 -0.44428481560E+02  0.39011964968E+02 -0.10255718561E+04  0.10272747711E+04  0.00000000000E+00 0. -1.
          1    1    1    2  502    0  0.22913275468E+01 -0.11462054926E+03  0.10216514595E+01  0.11464800158E+03  0.00000000000E+00 0. -1.
         22    1    3    3    0    0 -0.20010134885E+02  0.28305801759E+02  0.11135487321E+02  0.36409105855E+02  0.00000000000E+00 0.  1.
         22    1    3    3    0    0  0.62147288898E+02  0.47302782530E+02 -0.15184729885E+03  0.17075550041E+03  0.00000000000E+00 0.  1.
</event>
<event>
 7    1  0.5622879E-006  0.5012307E+02  0.7818608E-02  0.1529719E+00
          2   -1    0    0  502    0  0.00000000000E+00  0.00000000000E+00  0.17079459348E+02  0.17079459348E+02  0.00000000000E+00 0. -1.
          1   -1    0    0  501    0 -0.00000000000E+00 -0.00000000000E+00 -0.40946997129E+04  0.40946997129E+04  0.00000000000E+00 0. -1.
         25    2    1    2    0    0 -0.26221043769E+02  0.42177195542E+01 -0.30999738327E+04  0.31026066668E+04  0.12500013323E+03 0.  0.
          2    1    1    2  501    0 -0.22999101224E+02 -0.15329645682E+02 -0.95230786555E+03  0.95270888916E+03  0.00000000000E+00 0. -1.
          1    1    1    2  502    0  0.49220144993E+02  0.11111926128E+02 -0.25338555280E+02  0.56463616242E+02  0.00000000000E+00 0. -1.
         22    1    3    3    0    0 -0.99627869074E+01 -0.56142625463E+02 -0.20358196943E+04  0.20366180494E+04  0.00000000000E+00 0.  1.
         22    1    3    3    0    0 -0.16258256862E+02  0.60360345017E+02 -0.10641541384E+04  0.10659886174E+04  0.00000000000E+00 0.  1.
</event>
<event>
 7    1  0.5622879E-006  0.7779931E+02  0.7818608E-02  0.1417322E+00
          2   -1    0    0  502    0  0.00000000000E+00  0.00000000000E+00  0.29812800434E+03  0.29812800434E+03  0.00000000000E+00 0. -1.
          1   -1    0    0  501    0 -0.00000000000E+00 -0.00000000000E+00 -0.34132596269E+03  0.34132596269E+03  0.00000000000E+00 0. -1.
         25    2    1    2    0    0  0.87274397963E+01 -0.11303958269E+03 -0.38076591380E+02  0.17300169487E+03  0.12500257660E+03 0.  0.
          2    1    1    2  501    0 -0.13295350168E+02  0.37431765748E+02 -0.22780313194E+03  0.23124050325E+03  0.00000000000E+00 0. -1.
          1    1    1    2  502    0  0.45679103713E+01  0.75607816941E+02  0.22268176497E+03  0.23521176892E+03  0.00000000000E+00 0. -1.
         22    1    3    3    0    0  0.65339937727E+02 -0.77583697353E+02 -0.29625688283E+02  0.10567033152E+03  0.00000000000E+00 0.  1.
         22    1    3    3    0    0 -0.56612497931E+02 -0.35455885336E+02 -0.84509030973E+01  0.67331363347E+02  0.00000000000E+00 0.  1.
</event>
<event>
 7    1  0.5622879E-006  0.3627617E+02  0.7818608E-02  0.1622654E+00
          2   -1    0    0  502    0  0.00000000000E+00  0.00000000000E+00  0.16442968503E+04  0.16442968503E+04  0.00000000000E+00 0. -1.
          1   -1    0    0  501    0 -0.00000000000E+00 -0.00000000000E+00 -0.11795095283E+03  0.11795095283E+03  0.00000000000E+00 0. -1.
         25    2    1    2    0    0  0.37721870337E+02 -0.37159148940E+02  0.36051901143E+03  0.38523092997E+03  0.12500067981E+03 0.  0.
          2    1    1    2  501    0 -0.16920420637E+02  0.31954460256E+02 -0.10240641622E+03  0.10860231235E+03  0.00000000000E+00 0. -1.
          1    1    1    2  502    0 -0.20801449700E+02  0.52046886833E+01  0.12682333023E+04  0.12684145608E+04  0.00000000000E+00 0. -1.
         22    1    3    3    0    0  0.66812947668E+02  0.74558415208E+01  0.10845404110E+03  0.12760030792E+03  0.00000000000E+00 0.  1.
         22    1    3    3    0    0 -0.29091077330E+02 -0.44614990461E+02  0.25206497033E+03  0.25763062206E+03  0.00000000000E+00 0.  1.
</event>
<event>
 7    1  0.5622879E-006  0.1439429E+03  0.7818608E-02  0.1256796E+00
          2   -1    0    0  502    0  0.00000000000E+00  0.00000000000E+00  0.10103189648E+04  0.10103189648E+04  0.00000000000E+00 0. -1.
          1   -1    0    0  501    0 -0.00000000000E+00 -0.00000000000E+00 -0.61412301849E+03  0.61412301849E+03  0.00000000000E+00 0. -1.
         25    2    1    2    0    0 -0.14227192676E+03  0.87264240139E+02 -0.20512690874E+03  0.29250396089E+03  0.12500067879E+03 0.  0.
          2    1    1    2  501    0  0.64570267860E+02 -0.12693774333E+03 -0.34935342438E+03  0.37726691519E+03  0.00000000000E+00 0. -1.
          1    1    1    2  502    0  0.77701658901E+02  0.39673503191E+02  0.95067627945E+03  0.95467110722E+03  0.00000000000E+00 0. -1.
         22    1    3    3    0    0 -0.12761139202E+03  0.68334474668E+02 -0.22070355863E+03  0.26394000946E+03  0.00000000000E+00 0. -1.
         22    1    3    3    0    0 -0.14660534745E+02  0.18929765471E+02  0.15576649891E+02  0.28563951436E+02  0.00000000000E+00 0. -1.
</event>
<event>
 7    1  0.5622879E-006  0.3333847E+02  0.7818608E-02  0.1591162E+00
          2   -1    0    0  502    0  0.00000000000E+00  0.00000000000E+00  0.15800888579E+04  0.15800888579E+04  0.00000000000E+00 0. -1.
          1   -1    0    0  501    0 -0.00000000000E+00 -0.00000000000E+00 -0.16466615189E+02  0.16466615189E+02  0.00000000000E+00 0. -1.
         25    2    1    2    0    0  0.20781862281E+02  0.37017419232E+02  0.67957352253E+03  0.69227738592E+03  0.12500252556E+03 0.  0.
          2    1    1    2  501    0  0.70275509960E+01 -0.32633828816E+02  0.18294568231E+02  0.38066316909E+02  0.00000000000E+00 0. -1.
          1    1    1    2  502    0 -0.27809413277E+02 -0.43835904159E+01  0.86575415192E+03  0.86621177024E+03  0.00000000000E+00 0. -1.
         22    1    3    3    0    0  0.34699619115E+02  0.44182913403E+02  0.67293151043E+03  0.67527254582E+03  0.00000000000E+00 0.  1.
         22    1    3    3    0    0 -0.13917756834E+02 -0.71654941706E+01  0.66420121018E+01  0.17004840098E+02  0.00000000000E+00 0.  1.
</event>
<event>
 7    1  0.5622879E-006  0.7356003E+02  0.7818608E-02  0.1489739E+00
          2   -1    0    0  502    0  0.00000000000E+00  0.00000000000E+00  0.27788667730E+04  0.27788667730E+04  0.00000000000E+00 0. -1.
          1   -1    0    0  501    0 -0.00000000000E+00 -0.00000000000E+00 -0.70772893752E+03  0.70772893752E+03  0.00000000000E+00 0. -1.
         25    2    1    2    0    0 -0.12630913843E+02  0.85913508550E+02  0.11776620599E+04  0.11874563953E+04  0.12499636941E+03 0.  0.
          2    1    1    2  501    0  0.19960073293E+02 -0.14548066099E+02 -0.70180837477E+03  0.70224286800E+03  0.00000000000E+00 0. -1.
          1    1    1    2  502    0 -0.73291594506E+01 -0.71365442451E+02  0.15952841503E+04  0.15968964472E+04  0.00000000000E+00 0. -1.
         22    1    3    3    0    0 -0.32790516746E+02  0.31946002930E+02  0.99213483386E+03  0.99319046192E+03  0.00000000000E+00 0.  1.
         22    1    3    3    0    0  0.20159602904E+02  0.53967505620E+02  0.18552722606E+03  0.19426593335E+03  0.00000000000E+00 0.  1.
</event>
<event>
 7    1  0.5622879E-006  0.4541660E+02  0.7818608E-02  0.1553575E+00
          2   -1    0    0  502    0  0.00000000000E+00  0.00000000000E+00  0.48967779062E+03  0.48967779062E+03  0.00000000000E+00 0. -1.
          1   -1    0    0  501    0 -0.00000000000E+00 -0.00000000000E+00 -0.16715259515E+03  0.16715259515E+03  0.00000000000E+00 0. -1.
         25    2    1    2    0    0  0.23362360055E+02 -0.22331579546E+02  0.24703805137E+02  0.13145345452E+03  0.12500093361E+03 0.  0.
          2    1    1    2  501    0 -0.13392706375E+02 -0.22431598197E+02 -0.11097881079E+03  0.11401244504E+03  0.00000000000E+00 0. -1.
          1    1    1    2  502    0 -0.99696536804E+01  0.44763177742E+02  0.40880020112E+03  0.41136448620E+03  0.00000000000E+00 0. -1.
         22    1    3    3    0    0  0.49178178802E+02 -0.15565955213E+02 -0.37495347039E+02  0.63770630243E+02  0.00000000000E+00 0. -1.
         22    1    3    3    0    0 -0.25815818747E+02 -0.67656243325E+01  0.62199152177E+02  0.67682824274E+02  0.00000000000E+00 0. -1.
</event>
<event>
 7    1  0.5622879E-006  0.1175216E+03  0.7818608E-02  0.1289351E+00
          2   -1    0    0  502    0  0.00000000000E+00  0.00000000000E+00  0.10375256198E+04  0.10375256198E+04  0.00000000000E+00 0. -1.
          1   -1    0    0  501    0 -0.00000000000E+00 -0.00000000000E+00 -0.13700575331E+03  0.13700575331E+03  0.00000000000E+00 0. -1.
         25    2    1    2    0    0 -0.30235375367E+02 -0.77446496669E+02  0.18055775774E+03  0.23481358899E+03  0.12499671965E+03 0.  0.
          2    1    1    2  501    0  0.64316419093E+02 -0.44336944339E+02 -0.90440890047E+02  0.11950699139E+03  0.00000000000E+00 0. -1.
          1    1    1    2  502    0 -0.34081043726E+02  0.12178344101E+03  0.81040299878E+03  0.82021079271E+03  0.00000000000E+00 0. -1.
         22    1    3    3    0    0 -0.23408029088E+02 -0.10058019252E+03  0.18345177847E+03  0.21052046451E+03  0.00000000000E+00 0. -1.
         22    1    3    3    0    0 -0.68273462793E+01  0.23133695850E+02 -0.28940207314E+01  0.24293124478E+02  0.00000000000E+00 0. -1.
</event>
<event>
 7    1  0.5622879E-006  0.5543991E+02  0.7818608E-02  0.1511214E+00
          2   -1    0    0  502    0  0.00000000000E+00  0.00000000000E+00  0.74546576669E+02  0.74546576669E+02  0.00000000000E+00 0. -1.
          1   -1    0    0  501    0 -0.00000000000E+00 -0.00000000000E+00 -0.57988005906E+03  0.57988005906E+03  0.00000000000E+00 0. -1.
         25    2    1    2    0    0 -0.16797007548E+02 -0.64467478192E+02 -0.32195549459E+03  0.35173744799E+03  0.12500278641E+03 0.  0.
          2    1    1    2  501    0  0.26421170842E+02  0.10079447308E+02 -0.22919106283E+03  0.23092902981E+03  0.00000000000E+00 0. -1.
          1    1    1    2  502    0 -0.96241632943E+01  0.54388030885E+02  0.45813075033E+02  0.71760157934E+02  0.00000000000E+00 0. -1.
         22    1    3    3    0    0  0.36873356836E+02 -0.21114295312E+02 -0.30697229682E+02  0.52419250481E+02  0.00000000000E+00 0. -1.
         22    1    3    3    0    0 -0.53670364383E+02 -0.43353182880E+02 -0.29125826491E+03  0.29931819750E+03  0.00000000000E+00 0. -1.
</event>
<event>
 7    1  0.5622879E-006  0.5510751E+02  0.7818608E-02  0.1420334E+00
          2   -1    0    0  502    0  0.00000000000E+00  0.00000000000E+00  0.11591149808E+04  0.11591149808E+04  0.00000000000E+00 0. -1.
          1   -1    0    0  501    0 -0.00000000000E+00 -0.00000000000E+00 -0.12234175285E+03  0.12234175285E+03  0.00000000000E+00 0. -1.
         25    2    1    2    0    0 -0.24688684008E+02 -0.58125509542E+02  0.29159274383E+03  0.32348083749E+03  0.12500167196E+03 0.  0.
          2    1    1    2  501    0  0.54057737703E+02  0.10705056938E+02 -0.98278648012E+02  0.11267444211E+03  0.00000000000E+00 0. -1.
          1    1    1    2  502    0 -0.29369053695E+02  0.47420452604E+02  0.84345913215E+03  0.84530145407E+03  0.00000000000E+00 0. -1.
         22    1    3    3    0    0 -0.75128351184E+02 -0.39294073227E+02  0.15524367141E+03  0.17688666105E+03  0.00000000000E+00 0. -1.
         22    1    3    3    0    0  0.50439667176E+02 -0.18831436315E+02  0.13634907242E+03  0.14659417645E+03  0.00000000000E+00 0. -1.
</event>
<event>
 7    1  0.5622879E-006  0.9401656E+02  0.7818608E-02  0.1441802E+00
          2   -1    0    0  502    0  0.00000000000E+00  0.00000000000E+00  0.85741472495E+03  0.85741472495E+03  0.00000000000E+00 0. -1.
          1   -1    0    0  501    0 -0.00000000000E+00 -0.00000000000E+00 -0.20599351242E+03  0.20599351242E+03  0.00000000000E+00 0. -1.
         25    2    1    2    0    0 -0.87616090549E+02  0.67204312984E+02 -0.38411635903E+02  0.17115213493E+03  0.12499840203E+03 0.  0.
          2    1    1    2  501    0  0.79469276092E+02 -0.41148207006E+02 -0.81141026173E+02  0.12079903522E+03  0.00000000000E+00 0. -1.
          1    1    1    2  502    0  0.81468144565E+01 -0.26056105978E+02  0.77097387461E+03  0.77145706722E+03  0.00000000000E+00 0. -1.
         22    1    3    3    0    0 -0.17112925340E+02  0.89019074153E+01  0.43985654869E+02  0.48029511798E+02  0.00000000000E+00 0.  1.
         22    1    3    3    0    0 -0.70503165209E+02  0.58302405569E+02 -0.82397290772E+02  0.12312262313E+03  0.00000000000E+00 0.  1.
</event>
<event>
 7    1  0.5622879E-006  0.3189014E+03  0.7818608E-02  0.1175463E+00
          2   -1    0    0  502    0  0.00000000000E+00  0.00000000000E+00  0.11012159473E+04  0.11012159473E+04  0.00000000000E+00 0. -1.
          1   -1    0    0  501    0 -0.00000000000E+00 -0.00000000000E+00 -0.17262237757E+04  0.17262237757E+04  0.00000000000E+00 0. -1.
         25    2    1    2    0    0  0.35280721659E+03 -0.16277579582E+03  0.57243878751E+02  0.41215282012E+03  0.12499677475E+03 0.  0.
          2    1    1    2  501    0 -0.30301824408E+03  0.84107934547E+02 -0.15302319458E+04  0.15622112561E+04  0.00000000000E+00 0. -1.
          1    1    1    2  502    0 -0.49788972509E+02  0.78667861270E+02  0.84798023856E+03  0.85307564680E+03  0.00000000000E+00 0. -1.
         22    1    3    3    0    0  0.56447765659E+02 -0.46046690204E+02 -0.34614394686E+02  0.80652366650E+02  0.00000000000E+00 0. -1.
         22    1    3    3    0    0  0.29635945093E+03 -0.11672910561E+03  0.91858273437E+02  0.33150045347E+03  0.00000000000E+00 0. -1.
</event>
<event>
 7    1  0.5622879E-006  0.1011511E+03  0.7818608E-02  0.1400751E+00
          2   -1    0    0  502    0  0.00000000000E+00  0.00000000000E+00  0.57027522742E+02  0.57027522742E+02  0.00000000000E+00 0. -1.
          1   -1    0    0  501    0 -0.00000000000E+00 -0.00000000000E+00 -0.24995650070E+04  0.24995650070E+04  0.00000000000E+00 0. -1.
         25    2    1    2    0    0 -0.74038757878E+01 -0.11048232482E+03 -0.11109646614E+04  0.11234432729E+04  0.12498458694E+03 0.  0.
          2    1    1    2  501    0  0.37113769835E+02  0.92407114104E+02 -0.13743875679E+04  0.13779904548E+04  0.00000000000E+00 0. -1.
          1    1    1    2  502    0 -0.29709894048E+02  0.18075210719E+02  0.42814745096E+02  0.55158802059E+02  0.00000000000E+00 0. -1.
         22    1    3    3    0    0 -0.15112903312E+02  0.14654722817E+02 -0.40337991750E+02  0.45500706871E+02  0.00000000000E+00 0. -1.
         22    1    3    3    0    0  0.77090275245E+01 -0.12513704764E+03 -0.10706266697E+04  0.10779425660E+04  0.00000000000E+00 0. -1.
</event>
<event>
 7    1  0.5622879E-006  0.7369749E+02  0.7818608E-02  0.1511674E+00
          2   -1    0    0  502    0  0.00000000000E+00  0.00000000000E+00  0.16953948138E+04  0.16953948138E+04  0.00000000000E+00 0. -1.
          1   -1    0    0  501    0 -0.00000000000E+00 -0.00000000000E+00 -0.59661590549E+03  0.59661590549E+03  0.00000000000E+00 0. -1.
         25    2    1    2    0    0 -0.32739543854E+02 -0.65293177316E+02  0.33881813734E+02  0.14865640667E+03  0.12496268725E+03 0.  0.
          2    1    1    2  501    0  0.19899010320E+02 -0.73319507373E+01 -0.53817196203E+03  0.53858962933E+03  0.00000000000E+00 0. -1.
          1    1    1    2  502    0  0.12840533534E+02  0.72625128053E+02  0.16030690566E+04  0.16047646833E+04  0.00000000000E+00 0. -1.
         22    1    3    3    0    0 -0.23578393800E+02 -0.96479871393E+02  0.51293222304E+02  0.11178238185E+03  0.00000000000E+00 0.  1.
         22    1    3    3    0    0 -0.91611500541E+01  0.31186694077E+02 -0.17411408570E+02  0.36874024817E+02  0.00000000000E+00 0.  1.
</event>
<event>
 7    1  0.5622879E-006  0.6469888E+02  0.7818608E-02  0.1456405E+00
          2   -1    0    0  502    0  0.00000000000E+00  0.00000000000E+00  0.16949968640E+03  0.16949968640E+03  0.00000000000E+00 0. -1.
          1   -1    0    0  501    0 -0.00000000000E+00 -0.00000000000E+00 -0.16961430039E+04  0.16961430039E+04  0.00000000000E+00 0. -1.
         25    2    1    2    0    0 -0.30880619957E+02  0.56303851601E+02 -0.11073194027E+03  0.17891539181E+03  0.12500167374E+03 0.  0.
          2    1    1    2  501    0 -0.37122869044E+01 -0.64793588169E+02 -0.15482852625E+04  0.15496448768E+04  0.00000000000E+00 0. -1.
          1    1    1    2  502    0  0.34592906861E+02  0.84897365689E+01  0.13237388527E+03  0.13708242168E+03  0.00000000000E+00 0. -1.
         22    1    3    3    0    0 -0.71300647816E+02  0.10047754670E+02 -0.31330159772E+02  0.78525910782E+02  0.00000000000E+00 0. -1.
         22    1    3    3    0    0  0.40420027859E+02  0.46256096931E+02 -0.79401780498E+02  0.10038948103E+03  0.00000000000E+00 0. -1.
</event>
<event>
 7    1  0.5735705E-006  0.1129476E+03  0.7818608E-02  0.1339897E+00
          2   -1    0    0  502    0  0.00000000000E+00  0.00000000000E+00  0.92500823840E+03  0.92500823840E+03  0.00000000000E+00 0. -1.
          1   -1    0    0  501    0 -0.00000000000E+00 -0.00000000000E+00 -0.12411623792E+04  0.12411623792E+04  0.00000000000E+00 0. -1.
         25    2    1    2    0    0 -0.84589107221E+02  0.82857604721E+02 -0.20905798205E+03  0.27083395160E+03  0.12500035904E+03 0.  0.
          2    1    1    2  501    0  0.10739587386E+03 -0.36637213566E+02 -0.99725344374E+03  0.10036884926E+04  0.00000000000E+00 0. -1.
          1    1    1    2  502    0 -0.22806766640E+02 -0.46220391155E+02  0.89015728497E+03  0.89164817341E+03  0.00000000000E+00 0. -1.
         22    1    3    3    0    0  0.24663779759E+02 -0.68581177649E+01 -0.60848158689E+02  0.66013894197E+02  0.00000000000E+00 0. -1.
         22    1    3    3    0    0 -0.10925288698E+03  0.89715722486E+02 -0.14820982336E+03  0.20482005741E+03  0.00000000000E+00 0. -1.
</event>
<event>
 7    1  0.5622879E-006  0.1934244E+03  0.7818608E-02  0.1309801E+00
          2   -1    0    0  502    0  0.00000000000E+00  0.00000000000E+00  0.50135751464E+02  0.50135751464E+02  0.00000000000E+00 0. -1.
          1   -1    0    0  501    0 -0.00000000000E+00 -0.00000000000E+00 -0.19746838007E+04  0.19746838007E+04  0.00000000000E+00 0. -1.
         25    2    1    2    0    0  0.36371377502E+02  0.21606617511E+03 -0.72150233249E+03  0.76432849229E+03  0.12499983688E+03 0.  0.
          2    1    1    2  501    0 -0.12585168108E+02 -0.18477754794E+03 -0.12068735920E+04  0.12210016363E+04  0.00000000000E+00 0. -1.
          1    1    1    2  502    0 -0.23786209394E+02 -0.31288627176E+02  0.38278752563E+01  0.39489423608E+02  0.00000000000E+00 0. -1.
         22    1    3    3    0    0  0.15989134404E+02  0.44921409816E+02 -0.42766597345E+02  0.64051286695E+02  0.00000000000E+00 0. -1.
         22    1    3    3    0    0  0.20382243098E+02  0.17114476530E+03 -0.67873573514E+03  0.70027720560E+03  0.00000000000E+00 0. -1.
</event>
<event>
 7    1  0.5622879E-006  0.6334867E+02  0.7818608E-02  0.1440038E+00
          2   -1    0    0  502    0  0.00000000000E+00  0.00000000000E+00  0.40982866417E+03  0.40982866417E+03  0.00000000000E+00 0. -1.
          1   -1    0    0  501    0 -0.00000000000E+00 -0.00000000000E+00 -0.41167785618E+03  0.41167785618E+03  0.00000000000E+00 0. -1.
         25    2    1    2    0    0  0.12645410200E+02 -0.10013126980E+03  0.11669899488E+03  0.19857201034E+03  0.12500404111E+03 0.  0.
          2    1    1    2  501    0 -0.81306822146E+01  0.40240291699E+02 -0.36600144090E+03  0.36829667907E+03  0.00000000000E+00 0. -1.
          1    1    1    2  502    0 -0.45147279853E+01  0.59890978105E+02  0.24745325401E+03  0.25463783095E+03  0.00000000000E+00 0. -1.
         22    1    3    3    0    0 -0.51365626613E+02 -0.49229888899E+02  0.85035488222E+02  0.11087399973E+03  0.00000000000E+00 0.  1.
         22    1    3    3    0    0  0.64011036813E+02 -0.50901380906E+02  0.31663506659E+02  0.87698010616E+02  0.00000000000E+00 0.  1.
</event>
<event>
 7    1  0.5622879E-006  0.6662779E+02  0.7818608E-02  0.1394471E+00
          2   -1    0    0  502    0  0.00000000000E+00  0.00000000000E+00  0.68541489383E+03  0.68541489383E+03  0.00000000000E+00 0. -1.
          1   -1    0    0  501    0 -0.00000000000E+00 -0.00000000000E+00 -0.24596297372E+03  0.24596297372E+03  0.00000000000E+00 0. -1.
         25    2    1    2    0    0 -0.52323689039E+01  0.34356199997E+01  0.33264024672E+03  0.35540747954E+03  0.12500304639E+03 0.  0.
          2    1    1    2  501    0 -0.38794803966E+02  0.54168486913E+02 -0.22586374958E+03  0.23548608274E+03  0.00000000000E+00 0. -1.
          1    1    1    2  502    0  0.44027172870E+02 -0.57604106912E+02  0.33267542297E+03  0.34048430526E+03  0.00000000000E+00 0. -1.
         22    1    3    3    0    0  0.31861446614E+02  0.51225086597E+02  0.11972119714E+03  0.13406090527E+03  0.00000000000E+00 0.  1.
         22    1    3    3    0    0 -0.37093815518E+02 -0.47789466598E+02  0.21291904958E+03  0.22134657427E+03  0.00000000000E+00 0.  1.
</event>
<event>
 7    1  0.5622879E-006  0.1304951E+03  0.7818608E-02  0.1277453E+00
          2   -1    0    0  502    0  0.00000000000E+00  0.00000000000E+00  0.24394877562E+04  0.24394877562E+04  0.00000000000E+00 0. -1.
          1   -1    0    0  501    0 -0.00000000000E+00 -0.00000000000E+00 -0.39780752398E+03  0.39780752398E+03  0.00000000000E+00 0. -1.
         25    2    1    2    0    0  0.50170366916E+02  0.89051382764E+02  0.22546950761E+03  0.27732459405E+03  0.12500086845E+03 0.  0.
          2    1    1    2  501    0 -0.65080994259E+02  0.44315048962E+02 -0.36562761132E+03  0.37400923724E+03  0.00000000000E+00 0. -1.
          1    1    1    2  502    0  0.14910627343E+02 -0.13336643173E+03  0.21818383359E+04  0.21859614489E+04  0.00000000000E+00 0. -1.
         22    1    3    3    0    0 -0.16899924255E+02  0.84428978407E+02  0.82084944527E+02  0.11896132965E+03  0.00000000000E+00 0.  1.
         22    1    3    3    0    0  0.67070291171E+02  0.46224043572E+01  0.14338456309E+03  0.15836326440E+03  0.00000000000E+00 0.  1.
</event>
<event>
 7    1  0.5622879E-006  0.5663753E+02  0.7818608E-02  0.1441622E+00
          2   -1    0    0  502    0  0.00000000000E+00  0.00000000000E+00  0.37880645970E+03  0.37880645970E+03  0.00000000000E+00 0. -1.
          1   -1    0    0  501    0 -0.00000000000E+00 -0.00000000000E+00 -0.74035794157E+03  0.74035794157E+03  0.00000000000E+00 0. -1.
         25    2    1    2    0    0  0.72724091693E+02  0.12242685193E+02 -0.25954977694E+03  0.29737198343E+03  0.12500133184E+03 0.  0.
          2    1    1    2  501    0 -0.34473367535E+02  0.29508751612E+02 -0.45854292391E+03  0.46078280410E+03  0.00000000000E+00 0. -1.
          1    1    1    2  502    0 -0.38250724158E+02 -0.41751436804E+02  0.35654121899E+03  0.36100961374E+03  0.00000000000E+00 0. -1.
         22    1    3    3    0    0 -0.35410544897E+02  0.10649328983E+02 -0.64557275662E+02  0.74397289861E+02  0.00000000000E+00 0. -1.
         22    1    3    3    0    0  0.10813463659E+03  0.15933562093E+01 -0.19499250128E+03  0.22297469357E+03  0.00000000000E+00 0. -1.
</event>
<event>
 7    1  0.5622879E-006  0.2870741E+03  0.7818608E-02  0.1281667E+00
          2   -1    0    0  502    0  0.00000000000E+00  0.00000000000E+00  0.13378560724E+04  0.13378560724E+04  0.00000000000E+00 0. -1.
          1   -1    0    0  501    0 -0.00000000000E+00 -0.00000000000E+00 -0.94043305390E+03  0.94043305390E+03  0.00000000000E+00 0. -1.
         25    2    1    2    0    0 -0.14335643780E+03 -0.22474069193E+03  0.31255732104E+02  0.29607536031E+03  0.12499700527E+03 0.  0.
          2    1    1    2  501    0 -0.34071470116E+02 -0.46218380962E+01 -0.78974010406E+03  0.79048824054E+03  0.00000000000E+00 0. -1.
          1    1    1    2  502    0  0.17742790791E+03  0.22936253003E+03  0.11559073904E+04  0.11917255254E+04  0.00000000000E+00 0. -1.
         22    1    3    3    0    0 -0.14552650868E+03 -0.23681393216E+03  0.40264585822E+02  0.28085590623E+03  0.00000000000E+00 0.  1.
         22    1    3    3    0    0  0.21700708856E+01  0.12073240226E+02 -0.90088537176E+01  0.15219454080E+02  0.00000000000E+00 0.  1.
</event>
<event>
 7    1  0.5622879E-006  0.8901990E+02  0.7818608E-02  0.1447979E+00
          2   -1    0    0  502    0  0.00000000000E+00  0.00000000000E+00  0.13724166442E+03  0.13724166442E+03  0.00000000000E+00 0. -1.
          1   -1    0    0  501    0 -0.00000000000E+00 -0.00000000000E+00 -0.16484378529E+04  0.16484378529E+04  0.00000000000E+00 0. -1.
         25    2    1    2    0    0  0.65387172714E+01  0.82425914640E+02 -0.22309579932E+03  0.26876314165E+03  0.12500041762E+03 0.  0.
          2    1    1    2  501    0  0.27534326967E+02  0.59338121158E+00 -0.13847528801E+04  0.13850267255E+04  0.00000000000E+00 0. -1.
          1    1    1    2  502    0 -0.34073044238E+02 -0.83019295851E+02  0.96652490955E+02  0.13188965022E+03  0.00000000000E+00 0. -1.
         22    1    3    3    0    0 -0.33213552247E+02  0.54091318498E+01 -0.49280147849E+01  0.34010058659E+02  0.00000000000E+00 0.  1.
         22    1    3    3    0    0  0.39752269518E+02  0.77016782790E+02 -0.21816778454E+03  0.23475308299E+03  0.00000000000E+00 0.  1.
</event>
<event>
 7    1  0.5622879E-006  0.3731114E+02  0.7818608E-02  0.1538098E+00
          2   -1    0    0  502    0  0.00000000000E+00  0.00000000000E+00  0.17088013374E+04  0.17088013374E+04  0.00000000000E+00 0. -1.
          1   -1    0    0  501    0 -0.00000000000E+00 -0.00000000000E+00 -0.12451701891E+04  0.12451701891E+04  0.00000000000E+00 0. -1.
         25    2    1    2    0    0 -0.21120068547E+01 -0.67157171469E+00  0.37645406343E+03  0.39667038890E+03  0.12499929589E+03 0.  0.
          2    1    1    2  501    0  0.36823308363E+02  0.61708336271E+01 -0.12345462165E+04  0.12351106817E+04  0.00000000000E+00 0. -1.
          1    1    1    2  502    0 -0.34711301508E+02 -0.54992619124E+01  0.13217233014E+04  0.13221904559E+04  0.00000000000E+00 0. -1.
         22    1    3    3    0    0  0.21599907248E+02 -0.48441874976E+02  0.29206315904E+03  0.29684012551E+03  0.00000000000E+00 0.  1.
         22    1    3    3    0    0 -0.23711914102E+02  0.47770303261E+02  0.84390904395E+02  0.99830263391E+02  0.00000000000E+00 0.  1.
</event>
<event>
 7    1  0.5622879E-006  0.1785152E+03  0.7818608E-02  0.1267577E+00
          2   -1    0    0  502    0  0.00000000000E+00  0.00000000000E+00  0.41070075698E+04  0.41070075698E+04  0.00000000000E+00 0. -1.
          1   -1    0    0  501    0 -0.00000000000E+00 -0.00000000000E+00 -0.12379702238E+04  0.12379702238E+04  0.00000000000E+00 0. -1.
         25    2    1    2    0    0 -0.13966462935E+03  0.70504400054E+01 -0.94887496154E+02  0.21019892564E+03  0.12499613601E+03 0.  0.
          2    1    1    2  501    0 -0.33208287254E+02 -0.53889154835E+02 -0.10825215068E+04  0.10843706212E+04  0.00000000000E+00 0. -1.
          1    1    1    2  502    0  0.17287291660E+03  0.46838714830E+02  0.40464463490E+04  0.40504082468E+04  0.00000000000E+00 0. -1.
         22    1    3    3    0    0 -0.50425789440E+02 -0.32101116977E+02 -0.95596018516E+02  0.11274679910E+03  0.00000000000E+00 0.  1.
         22    1    3    3    0    0 -0.89238839909E+02  0.39151556983E+02  0.70852236229E+00  0.97452126536E+02  0.00000000000E+00 0.  1.
</event>
<event>
 7    1  0.5622879E-006  0.4710354E+02  0.7818608E-02  0.1501711E+00
          2   -1    0    0  502    0  0.00000000000E+00  0.00000000000E+00  0.16786965919E+04  0.16786965919E+04  0.00000000000E+00 0. -1.
          1   -1    0    0  501    0 -0.00000000000E+00 -0.00000000000E+00 -0.50466360061E+03  0.50466360061E+03  0.00000000000E+00 0. -1.
         25    2    1    2    0    0 -0.45324134250E+02 -0.47538184780E+01 -0.97080627256E+02  0.16469244462E+03  0.12498830821E+03 0.  0.
          2    1    1    2  501    0  0.37278392837E+02 -0.29831292139E+02 -0.37205977526E+03  0.37511073156E+03  0.00000000000E+00 0. -1.
          1    1    1    2  502    0  0.80457414123E+01  0.34585110617E+02  0.16431733938E+04  0.16435570163E+04  0.00000000000E+00 0. -1.
         22    1    3    3    0    0 -0.49253554579E+02  0.13883350064E+02  0.13144264829E+02  0.52834001794E+02  0.00000000000E+00 0. -1.
         22    1    3    3    0    0  0.39294203295E+01 -0.18637168542E+02 -0.11022489209E+03  0.11185844282E+03  0.00000000000E+00 0. -1.
</event>
<event>
 7    1  0.5622879E-006  0.9750985E+02  0.7818608E-02  0.1468089E+00
          2   -1    0    0  502    0  0.00000000000E+00  0.00000000000E+00  0.24286204027E+04  0.24286204027E+04  0.00000000000E+00 0. -1.
          1   -1    0    0  501    0 -0.00000000000E+00 -0.00000000000E+00 -0.10968901924E+03  0.10968901924E+03  0.00000000000E+00 0. -1.
         25    2    1    2    0    0  0.74199659823E+02  0.18088217915E+02  0.94924809382E+03  0.96048373234E+03  0.12499713321E+03 0.  0.
          2    1    1    2  501    0 -0.94754274871E+02 -0.25096779285E+02 -0.80891001487E+02  0.12708884710E+03  0.00000000000E+00 0. -1.
          1    1    1    2  502    0  0.20554615048E+02  0.70085613699E+01  0.14505742911E+04  0.14507368425E+04  0.00000000000E+00 0. -1.
         22    1    3    3    0    0  0.41993679837E+02 -0.28687799334E+02  0.78592125818E+03  0.78756503417E+03  0.00000000000E+00 0. -1.
         22    1    3    3    0    0  0.32205979986E+02  0.46776017249E+02  0.16332683564E+03  0.17291869817E+03  0.00000000000E+00 0. -1.
</event>
<event>
 7    1  0.5622879E-006  0.6204876E+02  0.7818608E-02  0.1426980E+00
          2   -1    0    0  502    0  0.00000000000E+00  0.00000000000E+00  0.23116652335E+04  0.23116652335E+04  0.00000000000E+00 0. -1.
          1   -1    0    0  501    0 -0.00000000000E+00 -0.00000000000E+00 -0.30182578121E+02  0.30182578121E+02  0.00000000000E+00 0. -1.
         25    2    1    2    0    0 -0.79329412329E+01 -0.37061660137E+02  0.95435254418E+03  0.96324963613E+03  0.12499833885E+03 0.  0.
          2    1    1    2  501    0 -0.45974626828E+02 -0.50530897194E+01 -0.33387317491E+01  0.46371835821E+02  0.00000000000E+00 0. -1.
          1    1    1    2  502    0  0.53907568061E+02  0.42114749857E+02  0.13304688430E+04  0.13322263397E+04  0.00000000000E+00 0. -1.
         22    1    3    3    0    0 -0.21369804900E+02  0.39587368530E+02  0.20560426631E+03  0.21046838868E+03  0.00000000000E+00 0.  1.
         22    1    3    3    0    0  0.13436863667E+02 -0.76649028667E+02  0.74874827787E+03  0.75278124745E+03  0.00000000000E+00 0.  1.
</event>
<event>
 7    1  0.5622879E-006  0.9735569E+02  0.7818608E-02  0.1417990E+00
          2   -1    0    0  502    0  0.00000000000E+00  0.00000000000E+00  0.46738055772E+03  0.46738055772E+03  0.00000000000E+00 0. -1.
          1   -1    0    0  501    0 -0.00000000000E+00 -0.00000000000E+00 -0.14361778101E+03  0.14361778101E+03  0.00000000000E+00 0. -1.
         25    2    1    2    0    0 -0.68465048841E+02  0.13329493036E+02  0.16485245315E+01  0.14315355986E+03  0.12500034308E+03 0.  0.
          2    1    1    2  501    0 -0.31105195329E+02 -0.54576372233E+01 -0.62740500474E+02  0.70240226226E+02  0.00000000000E+00 0. -1.
          1    1    1    2  502    0  0.99570244169E+02 -0.78718558130E+01  0.38485475266E+03  0.39760455264E+03  0.00000000000E+00 0. -1.
         22    1    3    3    0    0 -0.21368085985E+02  0.64409637414E+02 -0.19357949635E+02  0.70568595739E+02  0.00000000000E+00 0.  1.
         22    1    3    3    0    0 -0.47096962855E+02 -0.51080144378E+02  0.21006474166E+02  0.72584964123E+02  0.00000000000E+00 0.  1.
</event>
<event>
 7    1  0.5622879E-006  0.9039005E+02  0.7818608E-02  0.1347098E+00
          2   -1    0    0  502    0  0.00000000000E+00  0.00000000000E+00  0.12869492038E+04  0.12869492038E+04  0.00000000000E+00 0. -1.
          1   -1    0    0  501    0 -0.00000000000E+00 -0.00000000000E+00 -0.11009077780E+03  0.11009077780E+03  0.00000000000E+00 0. -1.
         25    2    1    2    0    0 -0.12449286693E+03  0.69191083909E+02  0.57629286104E+03  0.60664944632E+03  0.12499683609E+03 0.  0.
          2    1    1    2  501    0  0.54101760362E+02 -0.27143009137E+02 -0.82554704449E+02  0.10236709748E+03  0.00000000000E+00 0. -1.
          1    1    1    2  502    0  0.70391106572E+02 -0.42048074772E+02  0.68312026944E+03  0.68802343783E+03  0.00000000000E+00 0. -1.
         22    1    3    3    0    0 -0.36230200210E+02  0.22781392124E+02  0.41373269117E+03  0.41594033103E+03  0.00000000000E+00 0.  1.
         22    1    3    3    0    0 -0.88262666724E+02  0.46409691785E+02  0.16256016987E+03  0.19070911529E+03  0.00000000000E+00 0.  1.
</event>
<event>
 7    1  0.5622879E-006  0.1050130E+03  0.7818608E-02  0.1274110E+00
          2   -1    0    0  502    0  0.00000000000E+00  0.00000000000E+00  0.13103432125E+04  0.13103432125E+04  0.00000000000E+00 0. -1.
          1   -1    0    0  501    0 -0.00000000000E+00 -0.00000000000E+00 -0.15047394786E+03  0.15047394786E+03  0.00000000000E+00 0. -1.
         25    2    1    2    0    0  0.15684226354E+02 -0.48874015145E+01  0.18979338898E+03  0.22785576193E+03  0.12500734415E+03 0.  0.
          2    1    1    2  501    0 -0.80130537800E+02 -0.78024600520E+02 -0.10461989059E+03  0.15314719351E+03  0.00000000000E+00 0. -1.
          1    1    1    2  502    0  0.64446311447E+02  0.82912002034E+02  0.10746957662E+04  0.10798142049E+04  0.00000000000E+00 0. -1.
         22    1    3    3    0    0 -0.95549667942E+01  0.50384494817E+02  0.36460936201E+02  0.62922925687E+02  0.00000000000E+00 0.  1.
         22    1    3    3    0    0  0.25239193148E+02 -0.55271896331E+02  0.15333245278E+03  0.16493283624E+03  0.00000000000E+00 0.  1.
</event>
<event>
 7    1  0.5622879E-006  0.1801240E+03  0.7818608E-02  0.1291753E+00
          2   -1    0    0  502    0  0.00000000000E+00  0.00000000000E+00  0.27720713219E+04  0.27720713219E+04  0.00000000000E+00 0. -1.
          1   -1    0    0  501    0 -0.00000000000E+00 -0.00000000000E+00 -0.81066470612E+03  0.81066470612E+03  0.00000000000E+00 0. -1.
         25    2    1    2    0    0 -0.74289722620E+02  0.12788885352E+03  0.24480439069E+03  0.31213545744E+03  0.12499932939E+03 0.  0.
          2    1    1    2  501    0  0.17332706945E+02  0.46723751328E+02 -0.77281348903E+03  0.77441863387E+03  0.00000000000E+00 0. -1.
          1    1    1    2  502    0  0.56957015674E+02 -0.17461260484E+03  0.24894157141E+04  0.24961819367E+04  0.00000000000E+00 0. -1.
         22    1    3    3    0    0 -0.88946373081E+02  0.13285533670E+03  0.16094315233E+03  0.22685831714E+03  0.00000000000E+00 0.  1.
         22    1    3    3    0    0  0.14656650461E+02 -0.49664831852E+01  0.83861238358E+02  0.85277140295E+02  0.00000000000E+00 0.  1.
</event>
<event>
 7    1  0.5622879E-006  0.7830471E+02  0.7818608E-02  0.1452008E+00
          2   -1    0    0  502    0  0.00000000000E+00  0.00000000000E+00  0.15301301066E+03  0.15301301066E+03  0.00000000000E+00 0. -1.
          1   -1    0    0  501    0 -0.00000000000E+00 -0.00000000000E+00 -0.69061709538E+03  0.69061709538E+03  0.00000000000E+00 0. -1.
         25    2    1    2    0    0 -0.10380814221E+03 -0.22602756496E+02 -0.15332732550E+03  0.22454601090E+03  0.12499850910E+03 0.  0.
          2    1    1    2  501    0  0.74862711875E+02  0.13333017745E+02 -0.49677061439E+03  0.50255670159E+03  0.00000000000E+00 0. -1.
          1    1    1    2  502    0  0.28945430336E+02  0.92697387506E+01  0.11249385518E+03  0.11652739354E+03  0.00000000000E+00 0. -1.
         22    1    3    3    0    0 -0.10530187160E+03  0.31508767176E+02 -0.10243730437E+03  0.15024875340E+03  0.00000000000E+00 0.  1.
         22    1    3    3    0    0  0.14937293914E+01 -0.54111523672E+02 -0.50890021134E+02  0.74297257504E+02  0.00000000000E+00 0.  1.
</event>
<event>
 7    1  0.5622879E-006  0.1233537E+03  0.7818608E-02  0.1307556E+00
          2   -1    0    0  502    0  0.00000000000E+00  0.00000000000E+00  0.36325495063E+03  0.36325495063E+03  0.00000000000E+00 0. -1.
          1   -1    0    0  501    0 -0.00000000000E+00 -0.00000000000E+00 -0.87423037397E+03  0.87423037397E+03  0.00000000000E+00 0. -1.
         25    2    1    2    0    0 -0.43794454560E+02  0.87595753301E+02 -0.36593580691E+03  0.39890408908E+03  0.12499794905E+03 0.  0.
          2    1    1    2  501    0 -0.59999013448E+02 -0.18884123169E+02 -0.47851504421E+03  0.48263147355E+03  0.00000000000E+00 0. -1.
          1    1    1    2  502    0  0.10379346801E+03 -0.68711630132E+02  0.33347542778E+03  0.35594976197E+03  0.00000000000E+00 0. -1.
         22    1    3    3    0    0 -0.76119424146E+02  0.12657335210E+02 -0.17499218247E+03  0.19125019946E+03  0.00000000000E+00 0. -1.
         22    1    3    3    0    0  0.32324969586E+02  0.74938418091E+02 -0.19094362443E+03  0.20765388963E+03  0.00000000000E+00 0. -1.
</event>
<event>
 7    1  0.5622879E-006  0.8592927E+02  0.7818608E-02  0.1468641E+00
          2   -1    0    0  502    0  0.00000000000E+00  0.00000000000E+00  0.89650161215E+02  0.89650161215E+02  0.00000000000E+00 0. -1.
          1   -1    0    0  501    0 -0.00000000000E+00 -0.00000000000E+00 -0.59615979668E+03  0.59615979668E+03  0.00000000000E+00 0. -1.
         25    2    1    2    0    0  0.12943657991E+02  0.94902127473E+02 -0.61965604115E+02  0.16922602424E+03  0.12499503632E+03 0.  0.
          2    1    1    2  501    0  0.16825851722E+02 -0.17871653699E+02 -0.43241977839E+03  0.43311588523E+03  0.00000000000E+00 0. -1.
          1    1    1    2  502    0 -0.29769509713E+02 -0.77030473774E+02 -0.12124252957E+02  0.83468048427E+02  0.00000000000E+00 0. -1.
         22    1    3    3    0    0  0.54291412896E+02  0.43452711313E+02  0.11478678254E+02  0.70480179407E+02  0.00000000000E+00 0. -1.
         22    1    3    3    0    0 -0.41347754905E+02  0.51449416160E+02 -0.73444282369E+02  0.98745844832E+02  0.00000000000E+00 0. -1.
</event>
<event>
 7    1  0.5622879E-006  0.4190424E+02  0.7818608E-02  0.1576837E+00
          2   -1    0    0  502    0  0.00000000000E+00  0.00000000000E+00  0.99443288031E+03  0.99443288031E+03  0.00000000000E+00 0. -1.
          1   -1    0    0  501    0 -0.00000000000E+00 -0.00000000000E+00 -0.61403742846E+03  0.61403742846E+03  0.00000000000E+00 0. -1.
         25    2    1    2    0    0  0.22288193457E+02 -0.13190706232E+01  0.32913813523E+01  0.12702223917E+03  0.12500125014E+03 0.  0.
          2    1    1    2  501    0  0.16194100301E+02  0.18328845192E+02 -0.55142455314E+03  0.55196669579E+03  0.00000000000E+00 0. -1.
          1    1    1    2  502    0 -0.38482293758E+02 -0.17009774569E+02  0.92852862363E+03  0.92948137381E+03  0.00000000000E+00 0. -1.
         22    1    3    3    0    0  0.32914168562E+02  0.28909966496E+01 -0.56877154405E+02  0.65777739753E+02  0.00000000000E+00 0.  1.
         22    1    3    3    0    0 -0.10625975105E+02 -0.42100672728E+01  0.60168535758E+02  0.61244499415E+02  0.00000000000E+00 0.  1.
</event>
<event>
 7    1  0.5622879E-006  0.7023402E+02  0.7818608E-02  0.1389845E+00
          2   -1    0    0  502    0  0.00000000000E+00  0.00000000000E+00  0.29520175863E+02  0.29520175863E+02  0.00000000000E+00 0. -1.
          1   -1    0    0  501    0 -0.00000000000E+00 -0.00000000000E+00 -0.26246519932E+04  0.26246519932E+04  0.00000000000E+00 0. -1.
         25    2    1    2    0    0  0.68694992976E+02  0.66548560985E+02 -0.27906699578E+03  0.32039296557E+03  0.12500220490E+03 0.  0.
          2    1    1    2  501    0 -0.14096897558E+02 -0.68552463600E+02 -0.22345663932E+04  0.22356621231E+04  0.00000000000E+00 0. -1.
          1    1    1    2  502    0 -0.54598095418E+02  0.20039026155E+01 -0.81498428326E+02  0.98117080412E+02  0.00000000000E+00 0. -1.
         22    1    3    3    0    0 -0.34994991100E+02  0.24840858930E+02 -0.10619886518E+03  0.11454220462E+03  0.00000000000E+00 0.  1.
         22    1    3    3    0    0  0.10368998408E+03  0.41707702055E+02 -0.17286813059E+03  0.20585076095E+03  0.00000000000E+00 0.  1.
</event>
<event>
 7    1  0.5622879E-006  0.5180547E+02  0.7818608E-02  0.1533481E+00
          2   -1    0    0  502    0  0.00000000000E+00  0.00000000000E+00  0.68138062447E+03  0.68138062447E+03  0.00000000000E+00 0. -1.
          1   -1    0    0  501    0 -0.00000000000E+00 -0.00000000000E+00 -0.49656133699E+03  0.49656133699E+03  0.00000000000E+00 0. -1.
         25    2    1    2    0    0 -0.13345112635E+02 -0.24749864944E+02  0.17961690082E+03  0.22062719045E+03  0.12499391290E+03 0.  0.
          2    1    1    2  501    0  0.36229697534E+02  0.37275257728E+02 -0.47428157244E+03  0.47712162578E+03  0.00000000000E+00 0. -1.
          1    1    1    2  502    0 -0.22884584898E+02 -0.12525392784E+02  0.47948395911E+03  0.48019314524E+03  0.00000000000E+00 0. -1.
         22    1    3    3    0    0 -0.29657957217E+02 -0.68938745752E+02  0.76013906911E+02  0.10681881452E+03  0.00000000000E+00 0.  1.
         22    1    3    3    0    0  0.16312844581E+02  0.44188880808E+02  0.10360299391E+03  0.11380837593E+03  0.00000000000E+00 0.  1.
</event>
<event>
 7    1  0.5622879E-006  0.7484532E+02  0.7818608E-02  0.1444927E+00
          2   -1    0    0  502    0  0.00000000000E+00  0.00000000000E+00  0.13269652822E+03  0.13269652822E+03  0.00000000000E+00 0. -1.
          1   -1    0    0  501    0 -0.00000000000E+00 -0.00000000000E+00 -0.15685136815E+04  0.15685136815E+04  0.00000000000E+00 0. -1.
         25    2    1    2    0    0 -0.28504161681E+02 -0.82129068559E+02 -0.55908800544E-01  0.15225786507E+03  0.12499913286E+03 0.  0.
          2    1    1    2  501    0 -0.41576819118E+01  0.74659733373E+02 -0.14863744014E+04  0.14882540856E+04  0.00000000000E+00 0. -1.
          1    1    1    2  502    0  0.32661843593E+02  0.74693351857E+01  0.50613156941E+02  0.60698259041E+02  0.00000000000E+00 0. -1.
         22    1    3    3    0    0 -0.37863265369E+02 -0.47245040196E+02  0.58026368280E+02  0.83861672433E+02  0.00000000000E+00 0.  1.
         22    1    3    3    0    0  0.93591036876E+01 -0.34884028362E+02 -0.58082277081E+02  0.68396192639E+02  0.00000000000E+00 0.  1.
</event>
<event>
 7    1  0.5622879E-006  0.5955802E+02  0.7818608E-02  0.1465504E+00
          2   -1    0    0  502    0  0.00000000000E+00  0.00000000000E+00  0.13570611618E+04  0.13570611618E+04  0.00000000000E+00 0. -1.
          1   -1    0    0  501    0 -0.00000000000E+00 -0.00000000000E+00 -0.66158243253E+02  0.66158243253E+02  0.00000000000E+00 0. -1.
         25    2    1    2    0    0 -0.62438572708E+02  0.16347348953E+02  0.49171566742E+03  0.51144432741E+03  0.12500076509E+03 0.  0.
          2    1    1    2  501    0  0.56037756090E+01 -0.35786417324E+02 -0.49293256451E+02  0.61171031522E+02  0.00000000000E+00 0. -1.
          1    1    1    2  502    0  0.56834797099E+02  0.19439068371E+02  0.84848050754E+03  0.85060404609E+03  0.00000000000E+00 0. -1.
         22    1    3    3    0    0  0.34620832546E+02  0.24045131393E+02  0.18036675959E+03  0.18522672149E+03  0.00000000000E+00 0.  1.
         22    1    3    3    0    0 -0.97059405254E+02 -0.76977824396E+01  0.31134890783E+03  0.32621760592E+03  0.00000000000E+00 0.  1.
</event>
<event>
 7    1  0.5622879E-006  0.7138132E+02  0.7818608E-02  0.1382462E+00
          2   -1    0    0  502    0  0.00000000000E+00  0.00000000000E+00  0.14962699681E+04  0.14962699681E+04  0.00000000000E+00 0. -1.
          1   -1    0    0  501    0 -0.00000000000E+00 -0.00000000000E+00 -0.26207904130E+03  0.26207904130E+03  0.00000000000E+00 0. -1.
         25    2    1    2    0    0 -0.29236370502E+01  0.28344231741E+02  0.10636127466E+04  0.10713137093E+04  0.12501618218E+03 0.  0.
          2    1    1    2  501    0 -0.48807352131E+02 -0.52425265599E+02 -0.25130355835E+03  0.26131215917E+03  0.00000000000E+00 0. -1.
          1    1    1    2  502    0  0.51730989181E+02  0.24081033858E+02  0.42188173850E+03  0.42572314092E+03  0.00000000000E+00 0. -1.
         22    1    3    3    0    0  0.31274322940E+02  0.60922045778E+02  0.83892590888E+03  0.84171625833E+03  0.00000000000E+00 0.  1.
         22    1    3    3    0    0 -0.34197959990E+02 -0.32577814037E+02  0.22468683772E+03  0.22959745094E+03  0.00000000000E+00 0.  1.
</event>
<event>
 7    1  0.5622879E-006  0.1312551E+03  0.7818608E-02  0.1246530E+00
          2   -1    0    0  502    0  0.00000000000E+00  0.00000000000E+00  0.33709862259E+03  0.33709862259E+03  0.00000000000E+00 0. -1.
          1   -1    0    0  501    0 -0.00000000000E+00 -0.00000000000E+00 -0.23152423368E+03  0.23152423368E+03  0.00000000000E+00 0. -1.
         25    2    1    2    0    0  0.13704449225E+03  0.43507722494E+02 -0.57655270208E+02  0.19905769289E+03  0.12500288054E+03 0.  0.
          2    1    1    2  501    0 -0.74106892352E+02  0.75763561135E+02 -0.50066802532E+02  0.11721191665E+03  0.00000000000E+00 0. -1.
          1    1    1    2  502    0 -0.62937599900E+02 -0.11927128363E+03  0.21329646166E+03  0.25235324673E+03  0.00000000000E+00 0. -1.
         22    1    3    3    0    0  0.89458085306E+01 -0.68457644896E+01  0.32582356887E+02  0.34474656808E+02  0.00000000000E+00 0.  1.
         22    1    3    3    0    0  0.12809868372E+03  0.50353486984E+02 -0.90237627094E+02  0.16458303608E+03  0.00000000000E+00 0.  1.
</event>
<event>
 7    1  0.5622879E-006  0.5512096E+02  0.7818608E-02  0.1503954E+00
          2   -1    0    0  502    0  0.00000000000E+00  0.00000000000E+00  0.70781734694E+03  0.70781734694E+03  0.00000000000E+00 0. -1.
          1   -1    0    0  501    0 -0.00000000000E+00 -0.00000000000E+00 -0.84367034935E+03  0.84367034935E+03  0.00000000000E+00 0. -1.
         25    2    1    2    0    0 -0.15757865103E+01 -0.82984970650E+02  0.12106838400E+03  0.19279926400E+03  0.12500005655E+03 0.  0.
          2    1    1    2  501    0 -0.55866202864E+01  0.29354582337E+02 -0.80619889409E+03  0.80675247670E+03  0.00000000000E+00 0. -1.
          1    1    1    2  502    0  0.71624067967E+01  0.53630388312E+02  0.54927750769E+03  0.55193595559E+03  0.00000000000E+00 0. -1.
         22    1    3    3    0    0 -0.14566266544E+02 -0.36337810794E+02  0.13647986078E+03  0.14198367868E+03  0.00000000000E+00 0.  1.
         22    1    3    3    0    0  0.12990480034E+02 -0.46647159856E+02 -0.15411476781E+02  0.50815585313E+02  0.00000000000E+00 0.  1.
</event>
<event>
 7    1  0.5622879E-006  0.4147161E+02  0.7818608E-02  0.1513534E+00
          2   -1    0    0  502    0  0.00000000000E+00  0.00000000000E+00  0.98682948058E+03  0.98682948058E+03  0.00000000000E+00 0. -1.
          1   -1    0    0  501    0 -0.00000000000E+00 -0.00000000000E+00 -0.43565659599E+02  0.43565659599E+02  0.00000000000E+00 0. -1.
         25    2    1    2    0    0 -0.91487884987E+01  0.10385998416E+02  0.53262185114E+03  0.54726779906E+03  0.12499775312E+03 0.  0.
          2    1    1    2  501    0  0.81295089961E+01  0.36316449056E+02 -0.25100001396E+02  0.44888567126E+02  0.00000000000E+00 0. -1.
          1    1    1    2  502    0  0.10192795026E+01 -0.46702447472E+02  0.43574197124E+03  0.43823877399E+03  0.00000000000E+00 0. -1.
         22    1    3    3    0    0 -0.61100798500E+02 -0.10274254376E+02  0.18300957890E+03  0.19321328590E+03  0.00000000000E+00 0.  1.
         22    1    3    3    0    0  0.51952010001E+02  0.20660252792E+02  0.34961227224E+03  0.35405451316E+03  0.00000000000E+00 0.  1.
</event>
<event>
 7    1  0.5622879E-006  0.7143170E+02  0.7818608E-02  0.1497295E+00
          2   -1    0    0  502    0  0.00000000000E+00  0.00000000000E+00  0.15024056216E+04  0.15024056216E+04  0.00000000000E+00 0. -1.
          1   -1    0    0  501    0 -0.00000000000E+00 -0.00000000000E+00 -0.32440974015E+02  0.32440974015E+02  0.00000000000E+00 0. -1.
         25    2    1    2    0    0 -0.83864839133E+02  0.43716077351E+02  0.13286080092E+04  0.13378224757E+04  0.12500131142E+03 0.  0.
          2    1    1    2  501    0  0.61396063589E+02 -0.34898604337E+02  0.20153272682E+02  0.73440748966E+02  0.00000000000E+00 0. -1.
          1    1    1    2  502    0  0.22468775544E+02 -0.88174730134E+01  0.12120336576E+03  0.12358337095E+03  0.00000000000E+00 0. -1.
         22    1    3    3    0    0 -0.11412816660E+03  0.40626533485E+02  0.89696295265E+03  0.90510678489E+03  0.00000000000E+00 0. -1.
         22    1    3    3    0    0  0.30263327468E+02  0.30895438655E+01  0.43164505653E+03  0.43271569084E+03  0.00000000000E+00 0. -1.
</event>
<event>
 7    1  0.5622879E-006  0.5182443E+02  0.7818608E-02  0.1450506E+00
          2   -1    0    0  502    0  0.00000000000E+00  0.00000000000E+00  0.35514447636E+03  0.35514447636E+03  0.00000000000E+00 0. -1.
          1   -1    0    0  501    0 -0.00000000000E+00 -0.00000000000E+00 -0.39361551227E+03  0.39361551227E+03  0.00000000000E+00 0. -1.
         25    2    1    2    0    0 -0.83864216166E+02 -0.17298893780E+02  0.62393483094E+02  0.16383244707E+03  0.12496265642E+03 0.  0.
          2    1    1    2  501    0  0.49486006486E+02 -0.13913423338E+02 -0.33871172335E+03  0.34259025047E+03  0.00000000000E+00 0. -1.
          1    1    1    2  502    0  0.34378209680E+02  0.31212317118E+02  0.23784720434E+03  0.24233729109E+03  0.00000000000E+00 0. -1.
         22    1    3    3    0    0  0.24224672591E+02  0.16351566265E+01  0.47163042389E+02  0.53045839297E+02  0.00000000000E+00 0. -1.
         22    1    3    3    0    0 -0.10808888876E+03 -0.18934050407E+02  0.15230440705E+02  0.11078660777E+03  0.00000000000E+00 0. -1.
</event>
<event>
 7    1  0.5622879E-006  0.8824451E+02  0.7818608E-02  0.1372903E+00
          2   -1    0    0  502    0  0.00000000000E+00  0.00000000000E+00  0.10611949657E+04  0.10611949657E+04  0.00000000000E+00 0. -1.
          1   -1    0    0  501    0 -0.00000000000E+00 -0.00000000000E+00 -0.20523397779E+04  0.20523397779E+04  0.00000000000E+00 0. -1.
         25    2    1    2    0    0  0.11707919235E+03  0.56744299162E+01  0.62521609323E+02  0.18241534221E+03  0.12500667584E+03 0.  0.
          2    1    1    2  501    0 -0.79318183337E+02 -0.38314946816E+02 -0.19907547904E+04  0.19927026985E+04  0.00000000000E+00 0. -1.
          1    1    1    2  502    0 -0.37761009010E+02  0.32640516900E+02  0.93708836881E+03  0.93841670280E+03  0.00000000000E+00 0. -1.
         22    1    3    3    0    0  0.54949588197E+02  0.55074880050E+02 -0.53440127204E+01  0.77982421914E+02  0.00000000000E+00 0.  1.
         22    1    3    3    0    0  0.62129604149E+02 -0.49400450134E+02  0.67865622044E+02  0.10443292029E+03  0.00000000000E+00 0.  1.
</event>
<event>
 7    1  0.5622879E-006  0.6034205E+02  0.7818608E-02  0.1462645E+00
          2   -1    0    0  502    0  0.00000000000E+00  0.00000000000E+00  0.27416692936E+04  0.27416692936E+04  0.00000000000E+00 0. -1.
          1   -1    0    0  501    0 -0.00000000000E+00 -0.00000000000E+00 -0.34982002790E+03  0.34982002790E+03  0.00000000000E+00 0. -1.
         25    2    1    2    0    0 -0.75276051891E+02  0.59557736123E+02  0.19742248961E+03  0.25261326221E+03  0.12499685164E+03 0.  0.
          2    1    1    2  501    0  0.31052959937E+02 -0.19178311156E+02 -0.32083359212E+03  0.32290290766E+03  0.00000000000E+00 0. -1.
          1    1    1    2  502    0  0.44223091954E+02 -0.40379424967E+02  0.25152603682E+04  0.25159731517E+04  0.00000000000E+00 0. -1.
         22    1    3    3    0    0 -0.93041926556E+02  0.28921344745E+02  0.19392549675E+03  0.21702613338E+03  0.00000000000E+00 0.  1.
         22    1    3    3    0    0  0.17765874665E+02  0.30636391378E+02  0.34969928597E+01  0.35587128830E+02  0.00000000000E+00 0.  1.
</event>
<event>
 7    1  0.5622879E-006  0.1677514E+03  0.7818608E-02  0.1386722E+00
          2   -1    0    0  502    0  0.00000000000E+00  0.00000000000E+00  0.15460299849E+04  0.15460299849E+04  0.00000000000E+00 0. -1.
          1   -1    0    0  501    0 -0.00000000000E+00 -0.00000000000E+00 -0.45585655219E+03  0.45585655219E+03  0.00000000000E+00 0. -1.
         25    2    1    2    0    0 -0.17717865070E+03  0.48788710388E+02  0.10012295446E+04  0.10256012976E+04  0.12499923281E+03 0.  0.
          2    1    1    2  501    0  0.15647261503E+03 -0.59811282206E+02 -0.42758312585E+03  0.45922586844E+03  0.00000000000E+00 0. -1.
          1    1    1    2  502    0  0.20706035668E+02  0.11022571818E+02  0.51652701393E+03  0.51705937099E+03  0.00000000000E+00 0. -1.
         22    1    3    3    0    0 -0.11566938279E+03  0.29841773640E+02  0.88250808318E+03  0.89055626125E+03  0.00000000000E+00 0. -1.
         22    1    3    3    0    0 -0.61509267905E+02  0.18946936749E+02  0.11872146141E+03  0.13504503638E+03  0.00000000000E+00 0. -1.
</event>
<event>
 7    1  0.5622879E-006  0.7542534E+02  0.7818608E-02  0.1442987E+00
          2   -1    0    0  502    0  0.00000000000E+00  0.00000000000E+00  0.64197851007E+03  0.64197851007E+03  0.00000000000E+00 0. -1.
          1   -1    0    0  501    0 -0.00000000000E+00 -0.00000000000E+00 -0.41581106692E+03  0.41581106692E+03  0.00000000000E+00 0. -1.
         25    2    1    2    0    0  0.72583791011E+02 -0.77145756443E+02  0.18369114437E+03  0.24614599469E+03  0.12500215889E+03 0.  0.
          2    1    1    2  501    0 -0.25403071018E+02  0.22190262736E+02 -0.38076165400E+03  0.38225274484E+03  0.00000000000E+00 0. -1.
          1    1    1    2  502    0 -0.47180719993E+02  0.54955493707E+02  0.42323795278E+03  0.42939083747E+03  0.00000000000E+00 0. -1.
         22    1    3    3    0    0  0.24299240262E+02  0.18031179726E+02  0.11572994853E+03  0.11962022198E+03  0.00000000000E+00 0.  1.
         22    1    3    3    0    0  0.48284550748E+02 -0.95176936168E+02  0.67961195839E+02  0.12652577271E+03  0.00000000000E+00 0.  1.
</event>
<event>
 7    1  0.5622879E-006  0.7301646E+02  0.7818608E-02  0.1424580E+00
          2   -1    0    0  502    0  0.00000000000E+00  0.00000000000E+00  0.13007541929E+04  0.13007541929E+04  0.00000000000E+00 0. -1.
          1   -1    0    0  501    0 -0.00000000000E+00 -0.00000000000E+00 -0.58992419192E+03  0.58992419192E+03  0.00000000000E+00 0. -1.
         25    2    1    2    0    0 -0.50833118919E+02 -0.83687192625E+02  0.11198673721E+03  0.19432060270E+03  0.12502765747E+03 0.  0.
          2    1    1    2  501    0 -0.66285698321E+01  0.39477590998E+02 -0.54687990931E+03  0.54834300701E+03  0.00000000000E+00 0. -1.
          1    1    1    2  502    0  0.57461688751E+02  0.44209601627E+02  0.11457231731E+04  0.11480147751E+04  0.00000000000E+00 0. -1.
         22    1    3    3    0    0 -0.37580109765E+02 -0.64049051212E+02  0.13948679485E+03  0.15802250330E+03  0.00000000000E+00 0. -1.
         22    1    3    3    0    0 -0.13253009154E+02 -0.19638141413E+02 -0.27500057639E+02  0.36298099399E+02  0.00000000000E+00 0. -1.
</event>
<event>
 7    1  0.5622879E-006  0.7417550E+02  0.7818608E-02  0.1480609E+00
          2   -1    0    0  502    0  0.00000000000E+00  0.00000000000E+00  0.10740714524E+04  0.10740714524E+04  0.00000000000E+00 0. -1.
          1   -1    0    0  501    0 -0.00000000000E+00 -0.00000000000E+00 -0.13049535088E+04  0.13049535088E+04  0.00000000000E+00 0. -1.
         25    2    1    2    0    0  0.43499785345E+02 -0.30523405721E+02 -0.24693059757E+03  0.28182392320E+03  0.12500437614E+03 0.  0.
          2    1    1    2  501    0  0.25829859043E+02  0.38403372450E+01 -0.10391062943E+04  0.10394343753E+04  0.00000000000E+00 0. -1.
          1    1    1    2  502    0 -0.69329644387E+02  0.26683068476E+02  0.10551548354E+04  0.10577666626E+04  0.00000000000E+00 0. -1.
         22    1    3    3    0    0  0.21356344331E+01 -0.74980486568E+02 -0.13118229739E+03  0.15111396180E+03  0.00000000000E+00 0.  1.
         22    1    3    3    0    0  0.41364150911E+02  0.44457080847E+02 -0.11574830017E+03  0.13070996141E+03  0.00000000000E+00 0.  1.
</event>
<event>
 7    1  0.5622879E-006  0.5711478E+02  0.7818608E-02  0.1449873E+00
          2   -1    0    0  502    0  0.00000000000E+00  0.00000000000E+00  0.12721266258E+04  0.12721266258E+04  0.00000000000E+00 0. -1.
          1   -1    0    0  501    0 -0.00000000000E+00 -0.00000000000E+00 -0.68080789169E+03  0.68080789169E+03  0.00000000000E+00 0. -1.
         25    2    1    2    0    0 -0.88936134897E+02  0.26911504963E+02 -0.13764382952E+03  0.20785420472E+03  0.12499472558E+03 0.  0.
          2    1    1    2  501    0  0.55700418623E+02 -0.69731170375E+00 -0.50616831589E+03  0.50922429919E+03  0.00000000000E+00 0. -1.
          1    1    1    2  502    0  0.33235716274E+02 -0.26214193260E+02  0.12351308795E+04  0.12358560136E+04  0.00000000000E+00 0. -1.
         22    1    3    3    0    0 -0.64378919158E+02 -0.39973595335E+02 -0.10497947975E+03  0.12947287255E+03  0.00000000000E+00 0.  1.
         22    1    3    3    0    0 -0.24557215739E+02  0.66885100299E+02 -0.32664349769E+02  0.78381332169E+02  0.00000000000E+00 0.  1.
</event>
<event>
 7    1  0.5622879E-006  0.8781939E+02  0.7818608E-02  0.1346354E+00
          2   -1    0    0  502    0  0.00000000000E+00  0.00000000000E+00  0.96797979277E+03  0.96797979277E+03  0.00000000000E+00 0. -1.
          1   -1    0    0  501    0 -0.00000000000E+00 -0.00000000000E+00 -0.13045309827E+04  0.13045309827E+04  0.00000000000E+00 0. -1.
         25    2    1    2    0    0  0.35243177615E+02  0.16598154888E+02  0.22830939869E+03  0.26318767437E+03  0.12499996038E+03 0.  0.
          2    1    1    2  501    0 -0.85740221429E+02  0.20566935029E+02 -0.12842165399E+04  0.12872398788E+04  0.00000000000E+00 0. -1.
          1    1    1    2  502    0  0.50497043814E+02 -0.37165089918E+02  0.71935595123E+03  0.72208322229E+03  0.00000000000E+00 0. -1.
         22    1    3    3    0    0  0.15433628445E+01  0.66851554165E+02  0.89137480877E+02  0.11143160575E+03  0.00000000000E+00 0. -1.
         22    1    3    3    0    0  0.33699814771E+02 -0.50253399277E+02  0.13917191781E+03  0.15175606862E+03  0.00000000000E+00 0. -1.
</event>
<event>
 7    1  0.5622879E-006  0.7492559E+02  0.7818608E-02  0.1420150E+00
          2   -1    0    0  502    0  0.00000000000E+00  0.00000000000E+00  0.15187759677E+04  0.15187759677E+04  0.00000000000E+00 0. -1.
          1   -1    0    0  501    0 -0.00000000000E+00 -0.00000000000E+00 -0.10861118611E+04  0.10861118611E+04  0.00000000000E+00 0. -1.
         25    2    1    2    0    0 -0.25035355628E+02 -0.60885382158E+02 -0.73123106580E+03  0.74475377516E+03  0.12500206089E+03 0.  0.
          2    1    1    2  501    0 -0.36250025703E+02  0.17739034022E+02 -0.34601710802E+03  0.34836270859E+03  0.00000000000E+00 0. -1.
          1    1    1    2  502    0  0.61285381331E+02  0.43146348136E+02  0.15099122803E+04  0.15117713450E+04  0.00000000000E+00 0. -1.
         22    1    3    3    0    0  0.77719775810E+01  0.29769770124E+02 -0.35629801955E+03  0.35762399469E+03  0.00000000000E+00 0.  1.
         22    1    3    3    0    0 -0.32807333209E+02 -0.90655152281E+02 -0.37493304625E+03  0.38712978046E+03  0.00000000000E+00 0.  1.
</event>
<event>
 7    1  0.5622879E-006  0.2988457E+02  0.7818608E-02  0.1608257E+00
          2   -1    0    0  502    0  0.00000000000E+00  0.00000000000E+00  0.54554140470E+03  0.54554140470E+03  0.00000000000E+00 0. -1.
          1   -1    0    0  501    0 -0.00000000000E+00 -0.00000000000E+00 -0.26955880030E+03  0.26955880030E+03  0.00000000000E+00 0. -1.
         25    2    1    2    0    0 -0.54097103074E+01 -0.24877875376E+02 -0.10325332895E+03  0.16408548419E+03  0.12495848325E+03 0.  0.
          2    1    1    2  501    0 -0.23247188892E+02  0.16201386269E+02 -0.13397114087E+03  0.13693496009E+03  0.00000000000E+00 0. -1.
          1    1    1    2  502    0  0.28656899199E+02  0.86764891071E+01  0.51320707423E+03  0.51407976071E+03  0.00000000000E+00 0. -1.
         22    1    3    3    0    0  0.36848125148E+02  0.32305460967E+02 -0.70357270250E+02  0.85741312167E+02  0.00000000000E+00 0.  1.
         22    1    3    3    0    0 -0.42257835455E+02 -0.57183336342E+02 -0.32896058701E+02  0.78344172028E+02  0.00000000000E+00 0.  1.
</event>
<event>
 7    1  0.5622879E-006  0.1474783E+03  0.7818608E-02  0.1264890E+00
          2   -1    0    0  502    0  0.00000000000E+00  0.00000000000E+00  0.89219818928E+03  0.89219818928E+03  0.00000000000E+00 0. -1.
          1   -1    0    0  501    0 -0.00000000000E+00 -0.00000000000E+00 -0.57964439870E+03  0.57964439870E+03  0.00000000000E+00 0. -1.
         25    2    1    2    0    0  0.10210354465E+03  0.91188330302E+02  0.38479006147E+02  0.18933570982E+03  0.12500772651E+03 0.  0.
          2    1    1    2  501    0 -0.14785952334E+03 -0.27217861604E+02 -0.49094778853E+03  0.51345202472E+03  0.00000000000E+00 0. -1.
          1    1    1    2  502    0  0.45755978690E+02 -0.63970468698E+02  0.76502257296E+03  0.76905485343E+03  0.00000000000E+00 0. -1.
         22    1    3    3    0    0  0.39900112176E+02  0.95086234098E+02  0.64682333676E+02  0.12172598390E+03  0.00000000000E+00 0.  1.
         22    1    3    3    0    0  0.62203432474E+02 -0.38979037961E+01 -0.26203327529E+02  0.67609725921E+02  0.00000000000E+00 0.  1.
</event>
<event>
 7    1  0.5622879E-006  0.2018309E+03  0.7818608E-02  0.1241447E+00
          2   -1    0    0  502    0  0.00000000000E+00  0.00000000000E+00  0.30481366847E+03  0.30481366847E+03  0.00000000000E+00 0. -1.
          1   -1    0    0  501    0 -0.00000000000E+00 -0.00000000000E+00 -0.60382321076E+03  0.60382321076E+03  0.00000000000E+00 0. -1.
         25    2    1    2    0    0  0.16803070454E+03  0.14359158634E+03  0.38308500677E+02  0.25679781925E+03  0.12499886965E+03 0.  0.
          2    1    1    2  501    0 -0.18666588528E+03 -0.73478145085E+02 -0.46419356941E+03  0.50568652385E+03  0.00000000000E+00 0. -1.
          1    1    1    2  502    0  0.18635180737E+02 -0.70113441258E+02  0.12687552643E+03  0.14615253612E+03  0.00000000000E+00 0. -1.
         22    1    3    3    0    0  0.74503720818E+02 -0.44520724470E+01 -0.95973754188E+01  0.75251146036E+02  0.00000000000E+00 0.  1.
         22    1    3    3    0    0  0.93526983722E+02  0.14804365879E+03  0.47905876096E+02  0.18154667322E+03  0.00000000000E+00 0.  1.
</event>
<event>
 7    1  0.5622879E-006  0.6326326E+02  0.7818608E-02  0.1450186E+00
          2   -1    0    0  502    0  0.00000000000E+00  0.00000000000E+00  0.95425566530E+03  0.95425566530E+03  0.00000000000E+00 0. -1.
          1   -1    0    0  501    0 -0.00000000000E+00 -0.00000000000E+00 -0.86615870654E+03  0.86615870654E+03  0.00000000000E+00 0. -1.
         25    2    1    2    0    0  0.29932436303E+02 -0.35432561222E+02 -0.38302857006E+02  0.13867236040E+03  0.12494597851E+03 0.  0.
          2    1    1    2  501    0 -0.62143784482E+02  0.15033134028E+02 -0.77595371192E+03  0.77858333408E+03  0.00000000000E+00 0. -1.
          1    1    1    2  502    0  0.32211348179E+02  0.20399427193E+02  0.90235352768E+03  0.90315867736E+03  0.00000000000E+00 0. -1.
         22    1    3    3    0    0 -0.16730876112E+02 -0.66715395382E+02 -0.44851645661E+02  0.82112948522E+02  0.00000000000E+00 0. -1.
         22    1    3    3    0    0  0.46663312415E+02  0.31282834160E+02  0.65487886558E+01  0.56559411873E+02  0.00000000000E+00 0. -1.
</event>
<event>
 7    1  0.5622879E-006  0.1858552E+03  0.7818608E-02  0.1271444E+00
          2   -1    0    0  502    0  0.00000000000E+00  0.00000000000E+00  0.15163134638E+03  0.15163134638E+03  0.00000000000E+00 0. -1.
          1   -1    0    0  501    0 -0.00000000000E+00 -0.00000000000E+00 -0.65388314440E+03  0.65388314440E+03  0.00000000000E+00 0. -1.
         25    2    1    2    0    0 -0.95596341068E+02  0.17545968206E+03 -0.41028751854E+03  0.47316914937E+03  0.12501374159E+03 0.  0.
          2    1    1    2  501    0  0.12193035036E+03 -0.12314732675E+03 -0.16462048796E+03  0.23902338689E+03  0.00000000000E+00 0. -1.
          1    1    1    2  502    0 -0.26334009292E+02 -0.52312355312E+02  0.72656208488E+02  0.93321954520E+02  0.00000000000E+00 0. -1.
         22    1    3    3    0    0 -0.12894379120E+02  0.25132396372E+02  0.22057884023E+00  0.28248026751E+02  0.00000000000E+00 0. -1.
         22    1    3    3    0    0 -0.82701961948E+02  0.15032728569E+03 -0.41050809738E+03  0.44492112262E+03  0.00000000000E+00 0. -1.
</event>
<event>
 7    1  0.5622879E-006  0.1231054E+03  0.7818608E-02  0.1315128E+00
          2   -1    0    0  502    0  0.00000000000E+00  0.00000000000E+00  0.63131220703E+03  0.63131220703E+03  0.00000000000E+00 0. -1.
          1   -1    0    0  501    0 -0.00000000000E+00 -0.00000000000E+00 -0.11856315978E+04  0.11856315978E+04  0.00000000000E+00 0. -1.
         25    2    1    2    0    0  0.70652180871E+02  0.77554653134E+02 -0.44052195539E+03  0.46977229020E+03  0.12497982469E+03 0.  0.
          2    1    1    2  501    0  0.45945408970E+02 -0.36775313252E+02 -0.72309155614E+03  0.72548246211E+03  0.00000000000E+00 0. -1.
          1    1    1    2  502    0 -0.11659758984E+03 -0.40779339882E+02  0.60929412072E+03  0.62168905255E+03  0.00000000000E+00 0. -1.
         22    1    3    3    0    0  0.78650302349E+01  0.84022635837E+02 -0.34578599057E+03  0.35593484419E+03  0.00000000000E+00 0.  1.
         22    1    3    3    0    0  0.62787150636E+02 -0.64679827030E+01 -0.94735964814E+02  0.11383744601E+03  0.00000000000E+00 0.  1.
</event>
<event>
 7    1  0.5622879E-006  0.4188997E+02  0.7818608E-02  0.1545131E+00
          2   -1    0    0  502    0  0.00000000000E+00  0.00000000000E+00  0.48632547735E+02  0.48632547735E+02  0.00000000000E+00 0. -1.
          1   -1    0    0  501    0 -0.00000000000E+00 -0.00000000000E+00 -0.14050464750E+04  0.14050464750E+04  0.00000000000E+00 0. -1.
         25    2    1    2    0    0 -0.29276305188E+01  0.22435064811E+02 -0.77722921717E+02  0.14892244645E+03  0.12500055737E+03 0.  0.
          2    1    1    2  501    0  0.11420020094E+02  0.27638746949E+02 -0.12413693030E+04  0.12417294648E+04  0.00000000000E+00 0. -1.
          1    1    1    2  502    0 -0.84923895750E+01 -0.50073811760E+02 -0.37321702484E+02  0.63027111478E+02  0.00000000000E+00 0. -1.
         22    1    3    3    0    0  0.48011455612E+01  0.21646841244E+02 -0.11179667053E+03  0.11397426146E+03  0.00000000000E+00 0.  1.
         22    1    3    3    0    0 -0.77287760801E+01  0.78822356765E+00  0.34073748808E+02  0.34948184987E+02  0.00000000000E+00 0.  1.
</event>
<event>
 7    1  0.5622879E-006  0.4447297E+02  0.7818608E-02  0.1544738E+00
          2   -1    0    0  502    0  0.00000000000E+00  0.00000000000E+00  0.20686951810E+04  0.20686951810E+04  0.00000000000E+00 0. -1.
          1   -1    0    0  501    0 -0.00000000000E+00 -0.00000000000E+00 -0.22151462444E+03  0.22151462444E+03  0.00000000000E+00 0. -1.
         25    2    1    2    0    0 -0.27506248167E+02  0.14483023416E+02  0.36674605991E+03  0.38870583093E+03  0.12499279534E+03 0.  0.
          2    1    1    2  501    0  0.17664484912E+02 -0.40952389674E+02 -0.20805334458E+03  0.21277999539E+03  0.00000000000E+00 0. -1.
          1    1    1    2  502    0  0.98417632554E+01  0.26469366258E+02  0.16884878412E+04  0.16887239791E+04  0.00000000000E+00 0. -1.
         22    1    3    3    0    0 -0.49817576477E+02 -0.42720680515E+02  0.22142630360E+03  0.23094686704E+03  0.00000000000E+00 0. -1.
         22    1    3    3    0    0  0.22311328309E+02  0.57203703931E+02  0.14531975630E+03  0.15775896389E+03  0.00000000000E+00 0. -1.
</event>
<event>
 7    1  0.5622879E-006  0.3295291E+02  0.7818608E-02  0.1582343E+00
          2   -1    0    0  502    0  0.00000000000E+00  0.00000000000E+00  0.34867011292E+03  0.34867011292E+03  0.00000000000E+00 0. -1.
          1   -1    0    0  501    0 -0.00000000000E+00 -0.00000000000E+00 -0.17826655831E+03  0.17826655831E+03  0.00000000000E+00 0. -1.
         25    2    1    2    0    0 -0.23440120820E+02 -0.11825641317E+02  0.19383889267E+03  0.23213727555E+03  0.12499965332E+03 0.  0.
          2    1    1    2  501    0 -0.70033435929E+01  0.29234604456E+02 -0.15538633268E+03  0.15826756238E+03  0.00000000000E+00 0. -1.
          1    1    1    2  502    0  0.30443464413E+02 -0.17408963139E+02  0.13195099462E+03  0.13653183330E+03  0.00000000000E+00 0. -1.
         22    1    3    3    0    0  0.23517315908E+02  0.18411017685E+02 -0.56254501478E+00  0.29872163908E+02  0.00000000000E+00 0.  1.
         22    1    3    3    0    0 -0.46957436728E+02 -0.30236659001E+02  0.19440143769E+03  0.20226511164E+03  0.00000000000E+00 0.  1.
</event>
<event>
 7    1  0.5622879E-006  0.3289181E+02  0.7818608E-02  0.1630729E+00
          2   -1    0    0  502    0  0.00000000000E+00  0.00000000000E+00  0.13097481583E+04  0.13097481583E+04  0.00000000000E+00 0. -1.
          1   -1    0    0  501    0 -0.00000000000E+00 -0.00000000000E+00 -0.54128034857E+02  0.54128034857E+02  0.00000000000E+00 0. -1.
         25    2    1    2    0    0  0.48107138903E+02 -0.18418515574E+02  0.65602623645E+02  0.15027129704E+03  0.12499687978E+03 0.  0.
          2    1    1    2  501    0 -0.29014671195E+02  0.63925745774E+01  0.71978033646E+01  0.30569993908E+02  0.00000000000E+00 0. -1.
          1    1    1    2  502    0 -0.19092467707E+02  0.12025940996E+02  0.11828196964E+04  0.11830349022E+04  0.00000000000E+00 0. -1.
         22    1    3    3    0    0 -0.32267105810E+02 -0.23879055690E+02 -0.82517429275E+01  0.40981296702E+02  0.00000000000E+00 0. -1.
         22    1    3    3    0    0  0.80374244713E+02  0.54605401166E+01  0.73854366572E+02  0.10929000034E+03  0.00000000000E+00 0. -1.
</event>
<event>
 7    1  0.5622879E-006  0.3058210E+03  0.7818608E-02  0.1182517E+00
          2   -1    0    0  502    0  0.00000000000E+00  0.00000000000E+00  0.18769983308E+03  0.18769983308E+03  0.00000000000E+00 0. -1.
          1   -1    0    0  501    0 -0.00000000000E+00 -0.00000000000E+00 -0.12820580489E+04  0.12820580489E+04  0.00000000000E+00 0. -1.
         25    2    1    2    0    0  0.11387372215E+03 -0.24669463342E+03 -0.69234486368E+03  0.75418291570E+03  0.12499997327E+03 0.  0.
          2    1    1    2  501    0 -0.62328448050E+02 -0.64466519469E+02 -0.38975293909E+03  0.39993514611E+03  0.00000000000E+00 0. -1.
          1    1    1    2  502    0 -0.51545274101E+02  0.31116115289E+03 -0.12260413069E+02  0.31563982018E+03  0.00000000000E+00 0. -1.
         22    1    3    3    0    0  0.14364914387E+02 -0.15393908097E+03 -0.27828542469E+03  0.31834944481E+03  0.00000000000E+00 0. -1.
         22    1    3    3    0    0  0.99508807764E+02 -0.92755552449E+02 -0.41405943899E+03  0.43583347089E+03  0.00000000000E+00 0. -1.
</event>
<event>
 7    1  0.5622879E-006  0.8092201E+02  0.7818608E-02  0.1413089E+00
          2   -1    0    0  502    0  0.00000000000E+00  0.00000000000E+00  0.55923295093E+03  0.55923295093E+03  0.00000000000E+00 0. -1.
          1   -1    0    0  501    0 -0.00000000000E+00 -0.00000000000E+00 -0.29473848082E+03  0.29473848082E+03  0.00000000000E+00 0. -1.
         25    2    1    2    0    0 -0.53710705234E+02  0.56080665808E+01  0.16625917383E+03  0.21490308794E+03  0.12499973623E+03 0.  0.
          2    1    1    2  501    0 -0.31521944268E+02 -0.23741636709E+02 -0.26377869536E+03  0.26671426360E+03  0.00000000000E+00 0. -1.
          1    1    1    2  502    0  0.85232649501E+02  0.18133570128E+02  0.36201399164E+03  0.37235408021E+03  0.00000000000E+00 0. -1.
         22    1    3    3    0    0 -0.35160480354E+02 -0.63302184413E+01  0.18347485567E+03  0.18692071503E+03  0.00000000000E+00 0. -1.
         22    1    3    3    0    0 -0.18550224879E+02  0.11938285022E+02 -0.17215681845E+02  0.27982372911E+02  0.00000000000E+00 0. -1.
</event>
<event>
 7    1  0.5622879E-006  0.1790105E+03  0.7818608E-02  0.1233099E+00
          2   -1    0    0  502    0  0.00000000000E+00  0.00000000000E+00  0.12085219357E+04  0.12085219357E+04  0.00000000000E+00 0. -1.
          1   -1    0    0  501    0 -0.00000000000E+00 -0.00000000000E+00 -0.28109351708E+03  0.28109351708E+03  0.00000000000E+00 0. -1.
         25    2    1    2    0    0 -0.63708062828E+02  0.84182798070E+02  0.83581571967E+01  0.16383110138E+03  0.12500124091E+03 0.  0.
          2    1    1    2  501    0 -0.83673179888E+02  0.30525155345E+02 -0.18537393581E+03  0.20566108582E+03  0.00000000000E+00 0. -1.
          1    1    1    2  502    0  0.14738124272E+03 -0.11470795342E+03  0.11044441973E+04  0.11201232656E+04  0.00000000000E+00 0. -1.
         22    1    3    3    0    0 -0.73521661103E+02  0.57327299444E+02 -0.44827223928E+02  0.10344725186E+03  0.00000000000E+00 0.  1.
         22    1    3    3    0    0  0.98135982749E+01  0.26855498626E+02  0.53185381125E+02  0.60383849521E+02  0.00000000000E+00 0.  1.
</event>
<event>
 7    1  0.5622879E-006  0.8456528E+02  0.7818608E-02  0.1348038E+00
          2   -1    0    0  502    0  0.00000000000E+00  0.00000000000E+00  0.19144979821E+04  0.19144979821E+04  0.00000000000E+00 0. -1.
          1   -1    0    0  501    0 -0.00000000000E+00 -0.00000000000E+00 -0.34783404381E+03  0.34783404381E+03  0.00000000000E+00 0. -1.
         25    2    1    2    0    0  0.70361287442E+02 -0.88710001044E+02  0.40779435906E+02  0.17351847698E+03  0.12500209760E+03 0.  0.
          2    1    1    2  501    0 -0.64019511682E+02  0.45250907756E+01 -0.27680523057E+03  0.28414804239E+03  0.00000000000E+00 0. -1.
          1    1    1    2  502    0 -0.63417757604E+01  0.84184910268E+02  0.18026897329E+04  0.18046655065E+04  0.00000000000E+00 0. -1.
         22    1    3    3    0    0  0.59714156043E+02 -0.32510140450E+02 -0.36660450012E+02  0.77244276545E+02  0.00000000000E+00 0.  1.
         22    1    3    3    0    0  0.10647131399E+02 -0.56199860594E+02  0.77439885918E+02  0.96274200432E+02  0.00000000000E+00 0.  1.
</event>
<event>
 7    1  0.5622879E-006  0.1163225E+03  0.7818608E-02  0.1367581E+00
          2   -1    0    0  502    0  0.00000000000E+00  0.00000000000E+00  0.20468246681E+04  0.20468246681E+04  0.00000000000E+00 0. -1.
          1   -1    0    0  501    0 -0.00000000000E+00 -0.00000000000E+00 -0.14079889495E+04  0.14079889495E+04  0.00000000000E+00 0. -1.
         25    2    1    2    0    0  0.26438708469E+02 -0.89340262387E+02  0.42014257485E+03  0.44813596524E+03  0.12500148942E+03 0.  0.
          2    1    1    2  501    0 -0.24367726187E+02 -0.31176453661E+02 -0.13914583702E+04  0.13920208883E+04  0.00000000000E+00 0. -1.
          1    1    1    2  502    0 -0.20709822823E+01  0.12051671605E+03  0.16101515139E+04  0.16146567640E+04  0.00000000000E+00 0. -1.
         22    1    3    3    0    0 -0.22511849426E+02 -0.10113625928E+03  0.31406694137E+03  0.33071644950E+03  0.00000000000E+00 0.  1.
         22    1    3    3    0    0  0.48950557895E+02  0.11795996893E+02  0.10607563347E+03  0.11741951575E+03  0.00000000000E+00 0.  1.
</event>
<event>
 7    1  0.5622879E-006  0.6004623E+02  0.7818608E-02  0.1432133E+00
          2   -1    0    0  502    0  0.00000000000E+00  0.00000000000E+00  0.16733751576E+03  0.16733751576E+03  0.00000000000E+00 0. -1.
          1   -1    0    0  501    0 -0.00000000000E+00 -0.00000000000E+00 -0.60164905378E+03  0.60164905378E+03  0.00000000000E+00 0. -1.
         25    2    1    2    0    0 -0.22776956006E+02 -0.42348944771E+02 -0.15898553906E+03  0.20787038852E+03  0.12498589498E+03 0.  0.
          2    1    1    2  501    0 -0.19935413135E+02  0.59323952834E+02 -0.41210052247E+03  0.41682561425E+03  0.00000000000E+00 0. -1.
          1    1    1    2  502    0  0.42712369142E+02 -0.16975008063E+02  0.13677452351E+03  0.14429056676E+03  0.00000000000E+00 0. -1.
         22    1    3    3    0    0 -0.45624331466E+02 -0.75045688365E+02 -0.13582311699E+03  0.16174471884E+03  0.00000000000E+00 0.  1.
         22    1    3    3    0    0  0.22847375459E+02  0.32696743594E+02 -0.23162422071E+02  0.46125669677E+02  0.00000000000E+00 0.  1.
</event>
<event>
 7    1  0.5622879E-006  0.1261642E+03  0.7818608E-02  0.1292147E+00
          2   -1    0    0  502    0  0.00000000000E+00  0.00000000000E+00  0.78610144457E+03  0.78610144457E+03  0.00000000000E+00 0. -1.
          1   -1    0    0  501    0 -0.00000000000E+00 -0.00000000000E+00 -0.49977095033E+03  0.49977095033E+03  0.00000000000E+00 0. -1.
         25    2    1    2    0    0 -0.56206642835E+00 -0.18165036461E+03 -0.31303276795E+03  0.38289909418E+03  0.12500012654E+03 0.  0.
          2    1    1    2  501    0  0.35700239821E+02  0.61242385463E+02 -0.13793363208E+03  0.15508328008E+03  0.00000000000E+00 0. -1.
          1    1    1    2  502    0 -0.35138173393E+02  0.12040797914E+03  0.73729689427E+03  0.74789002064E+03  0.00000000000E+00 0. -1.
         22    1    3    3    0    0  0.32434353157E+02 -0.36492272747E+01 -0.19471610759E+02  0.38005890990E+02  0.00000000000E+00 0. -1.
         22    1    3    3    0    0 -0.32996419585E+02 -0.17800113733E+03 -0.29356115719E+03  0.34489320319E+03  0.00000000000E+00 0. -1.
</event>
<event>
 7    1  0.5622879E-006  0.1753806E+03  0.7818608E-02  0.1182392E+00
          2   -1    0    0  502    0  0.00000000000E+00  0.00000000000E+00  0.37255418649E+03  0.37255418649E+03  0.00000000000E+00 0. -1.
          1   -1    0    0  501    0 -0.00000000000E+00 -0.00000000000E+00 -0.15974801906E+04  0.15974801906E+04  0.00000000000E+00 0. -1.
         25    2    1    2    0    0  0.14654225419E+03  0.10053970783E+03 -0.23833241216E+03  0.32250770902E+03  0.12500407425E+03 0.  0.
          2    1    1    2  501    0  0.26079674508E+02 -0.15439363954E+03 -0.12872189134E+04  0.12967073982E+04  0.00000000000E+00 0. -1.
          1    1    1    2  502    0 -0.17262192869E+03  0.53853931707E+02  0.30062532148E+03  0.35081926991E+03  0.00000000000E+00 0. -1.
         22    1    3    3    0    0  0.15104102235E+03  0.10591441118E+03 -0.24891016478E+03  0.30981853247E+03  0.00000000000E+00 0.  1.
         22    1    3    3    0    0 -0.44987681648E+01 -0.53747033552E+01  0.10577752618E+02  0.12689176554E+02  0.00000000000E+00 0.  1.
</event>
<event>
 7    1  0.5622879E-006  0.5131051E+02  0.7818608E-02  0.1460573E+00
          2   -1    0    0  502    0  0.00000000000E+00  0.00000000000E+00  0.58957391678E+03  0.58957391678E+03  0.00000000000E+00 0. -1.
          1   -1    0    0  501    0 -0.00000000000E+00 -0.00000000000E+00 -0.49277460281E+03  0.49277460281E+03  0.00000000000E+00 0. -1.
         25    2    1    2    0    0 -0.27905467191E+02  0.87316130975E+02  0.31874135743E+03  0.35443502817E+03  0.12500125773E+03 0.  0.
          2    1    1    2  501    0  0.38112865115E+01 -0.51012768414E+02 -0.47165841655E+03  0.47442437791E+03  0.00000000000E+00 0. -1.
          1    1    1    2  502    0  0.24094180679E+02 -0.36303362561E+02  0.24971637309E+03  0.25348911351E+03  0.00000000000E+00 0. -1.
         22    1    3    3    0    0 -0.33742757577E+02  0.85259070593E+02  0.10026244105E+03  0.13586846541E+03  0.00000000000E+00 0. -1.
         22    1    3    3    0    0  0.58372903866E+01  0.20570603816E+01  0.21847891638E+03  0.21856656276E+03  0.00000000000E+00 0. -1.
</event>
<event>
 7    1  0.5622879E-006  0.6475380E+02  0.7818608E-02  0.1478707E+00
          2   -1    0    0  502    0  0.00000000000E+00  0.00000000000E+00  0.22377833026E+04  0.22377833026E+04  0.00000000000E+00 0. -1.
          1   -1    0    0  501    0 -0.00000000000E+00 -0.00000000000E+00 -0.17791210106E+02  0.17791210106E+02  0.00000000000E+00 0. -1.
         25    2    1    2    0    0  0.14432456098E+02 -0.71292806223E+02  0.13438774309E+04  0.13516364022E+04  0.12499381778E+03 0.  0.
          2    1    1    2  501    0  0.14717014728E+02  0.62956195550E+02  0.63045802142E+02  0.90304187325E+02  0.00000000000E+00 0. -1.
          1    1    1    2  502    0 -0.29149470826E+02  0.83366106724E+01  0.81306885940E+03  0.81363392312E+03  0.00000000000E+00 0. -1.
         22    1    3    3    0    0  0.68004853751E+02 -0.52591784655E+02  0.91307525653E+03  0.91711339541E+03  0.00000000000E+00 0. -1.
         22    1    3    3    0    0 -0.53572397652E+02 -0.18701021568E+02  0.43080217441E+03  0.43452300684E+03  0.00000000000E+00 0. -1.
</event>
<event>
 7    1  0.5622879E-006  0.4148525E+02  0.7818608E-02  0.1560404E+00
          2   -1    0    0  502    0  0.00000000000E+00  0.00000000000E+00  0.35464615777E+02  0.35464615777E+02  0.00000000000E+00 0. -1.
          1   -1    0    0  501    0 -0.00000000000E+00 -0.00000000000E+00 -0.71885563255E+03  0.71885563255E+03  0.00000000000E+00 0. -1.
         25    2    1    2    0    0 -0.52500825803E+02 -0.38238093442E+02 -0.60615649813E+03  0.62230933284E+03  0.12499886804E+03 0.  0.
          2    1    1    2  501    0  0.14428518652E+02  0.23275655410E+02 -0.85931615344E+02  0.90189693430E+02  0.00000000000E+00 0. -1.
          1    1    1    2  502    0  0.38072307150E+02  0.14962438032E+02  0.86970967013E+01  0.41821222060E+02  0.00000000000E+00 0. -1.
         22    1    3    3    0    0 -0.32980113439E+02 -0.84413534908E+02 -0.40171807898E+03  0.41181397225E+03  0.00000000000E+00 0. -1.
         22    1    3    3    0    0 -0.19520712364E+02  0.46175441467E+02 -0.20443841915E+03  0.21049536059E+03  0.00000000000E+00 0. -1.
</event>
<event>
 7    1  0.5622879E-006  0.1158550E+03  0.7818608E-02  0.1374666E+00
          2   -1    0    0  502    0  0.00000000000E+00  0.00000000000E+00  0.29340935791E+03  0.29340935791E+03  0.00000000000E+00 0. -1.
          1   -1    0    0  501    0 -0.00000000000E+00 -0.00000000000E+00 -0.35641590182E+03  0.35641590182E+03  0.00000000000E+00 0. -1.
         25    2    1    2    0    0 -0.80395013791E+02 -0.45781190350E+02 -0.99213332877E+02  0.18446627827E+03  0.12500098706E+03 0.  0.
          2    1    1    2  501    0  0.11786499711E+03  0.45827879257E+02 -0.19429848988E+03  0.23182807257E+03  0.00000000000E+00 0. -1.
          1    1    1    2  502    0 -0.37469983320E+02 -0.46688907202E-01  0.23050527885E+03  0.23353090889E+03  0.00000000000E+00 0. -1.
         22    1    3    3    0    0 -0.94591014080E+02 -0.72693269802E+02 -0.56438727331E+02  0.13197386621E+03  0.00000000000E+00 0. -1.
         22    1    3    3    0    0  0.14196000289E+02  0.26912079453E+02 -0.42774605545E+02  0.52492412063E+02  0.00000000000E+00 0. -1.
</event>
<event>
 7    1  0.5622879E-006  0.1035586E+03  0.7818608E-02  0.1290436E+00
          2   -1    0    0  502    0  0.00000000000E+00  0.00000000000E+00  0.39031369001E+03  0.39031369001E+03  0.00000000000E+00 0. -1.
          1   -1    0    0  501    0 -0.00000000000E+00 -0.00000000000E+00 -0.17709228774E+03  0.17709228774E+03  0.00000000000E+00 0. -1.
         25    2    1    2    0    0  0.99538594483E+02 -0.53392953202E+02 -0.44518263959E+02  0.17423791277E+03  0.12497293778E+03 0.  0.
          2    1    1    2  501    0 -0.10656624230E+03 -0.34079494148E+02 -0.91162701109E+01  0.11225365161E+03  0.00000000000E+00 0. -1.
          1    1    1    2  502    0  0.70276478202E+01  0.87472447350E+02  0.26685593634E+03  0.28091441337E+03  0.00000000000E+00 0. -1.
         22    1    3    3    0    0  0.70684143795E+02 -0.41735967121E+01 -0.80169193034E+02  0.10696151927E+03  0.00000000000E+00 0. -1.
         22    1    3    3    0    0  0.28854450688E+02 -0.49219356490E+02  0.35650929075E+02  0.67276393495E+02  0.00000000000E+00 0. -1.
</event>
<event>
 7    1  0.5622879E-006  0.6572445E+02  0.7818608E-02  0.1397610E+00
          2   -1    0    0  502    0  0.00000000000E+00  0.00000000000E+00  0.56514565878E+03  0.56514565878E+03  0.00000000000E+00 0. -1.
          1   -1    0    0  501    0 -0.00000000000E+00 -0.00000000000E+00 -0.54893895360E+03  0.54893895360E+03  0.00000000000E+00 0. -1.
         25    2    1    2    0    0 -0.19588354166E+02 -0.11743329162E+03 -0.10894469271E+03  0.20412818524E+03  0.12500035336E+03 0.  0.
          2    1    1    2  501    0  0.19500344236E+01  0.54835952469E+02 -0.38842358215E+03  0.39228008296E+03  0.00000000000E+00 0. -1.
          1    1    1    2  502    0  0.17638319742E+02  0.62597339149E+02  0.51357498004E+03  0.51767634418E+03  0.00000000000E+00 0. -1.
         22    1    3    3    0    0 -0.23058581212E+02 -0.14361742369E+03 -0.98778440880E+02  0.17582617251E+03  0.00000000000E+00 0. -1.
         22    1    3    3    0    0  0.34702270456E+01  0.26184132076E+02 -0.10166251833E+02  0.28302012732E+02  0.00000000000E+00 0. -1.
</event>
<event>
 7    1  0.5622879E-006  0.9127664E+02  0.7818608E-02  0.1322844E+00
          2   -1    0    0  502    0  0.00000000000E+00  0.00000000000E+00  0.14297051024E+04  0.14297051024E+04  0.00000000000E+00 0. -1.
          1   -1    0    0  501    0 -0.00000000000E+00 -0.00000000000E+00 -0.22625788269E+04  0.22625788269E+04  0.00000000000E+00 0. -1.
         25    2    1    2    0    0 -0.17204011560E+02  0.25054191071E+01  0.35845735164E+03  0.38002473678E+03  0.12499948990E+03 0.  0.
          2    1    1    2  501    0  0.90451411111E+02 -0.13562857577E+02 -0.22495710733E+04  0.22514296397E+04  0.00000000000E+00 0. -1.
          1    1    1    2  502    0 -0.73247399552E+02  0.11057438470E+02  0.10582399972E+04  0.10608295528E+04  0.00000000000E+00 0. -1.
         22    1    3    3    0    0 -0.65237893583E+01  0.63649385974E+02  0.17267742365E+03  0.18415020174E+03  0.00000000000E+00 0.  1.
         22    1    3    3    0    0 -0.10680222201E+02 -0.61143966867E+02  0.18577992799E+03  0.19587453503E+03  0.00000000000E+00 0.  1.
</event>
<event>
 7    1  0.5622879E-006  0.6150696E+02  0.7818608E-02  0.1420434E+00
          2   -1    0    0  502    0  0.00000000000E+00  0.00000000000E+00  0.13562333095E+03  0.13562333095E+03  0.00000000000E+00 0. -1.
          1   -1    0    0  501    0 -0.00000000000E+00 -0.00000000000E+00 -0.13017742919E+04  0.13017742919E+04  0.00000000000E+00 0. -1.
         25    2    1    2    0    0  0.55943776467E+00  0.19546883232E+01 -0.68822451745E+03  0.69948691478E+03  0.12499929499E+03 0.  0.
          2    1    1    2  501    0  0.27550793958E+02 -0.56662282340E+02 -0.59889673740E+03  0.60220176233E+03  0.00000000000E+00 0. -1.
          1    1    1    2  502    0 -0.28110231722E+02  0.54707594016E+02  0.12097029386E+03  0.13570894579E+03  0.00000000000E+00 0. -1.
         22    1    3    3    0    0  0.22455293612E+02  0.59316375919E+02 -0.36908669541E+03  0.37449654390E+03  0.00000000000E+00 0.  1.
         22    1    3    3    0    0 -0.21895855847E+02 -0.57361687595E+02 -0.31913782204E+03  0.32499037088E+03  0.00000000000E+00 0.  1.
</event>
<event>
 7    1  0.5622879E-006  0.1037005E+03  0.7818608E-02  0.1391089E+00
          2   -1    0    0  502    0  0.00000000000E+00  0.00000000000E+00  0.10018404018E+04  0.10018404018E+04  0.00000000000E+00 0. -1.
          1   -1    0    0  501    0 -0.00000000000E+00 -0.00000000000E+00 -0.61078723438E+02  0.61078723438E+02  0.00000000000E+00 0. -1.
         25    2    1    2    0    0  0.25801136910E+02 -0.80755661095E+02  0.16552510544E+03  0.22407880121E+03  0.12500229261E+03 0.  0.
          2    1    1    2  501    0 -0.57442677183E+02  0.99220050132E+02  0.73581807712E+02  0.13622981295E+03  0.00000000000E+00 0. -1.
          1    1    1    2  502    0  0.31641540273E+02 -0.18464389037E+02  0.70165476519E+03  0.70261051106E+03  0.00000000000E+00 0. -1.
         22    1    3    3    0    0 -0.35115153970E+01 -0.38845843959E+02  0.16839659360E+03  0.17285468773E+03  0.00000000000E+00 0.  1.
         22    1    3    3    0    0  0.29312652307E+02 -0.41909817136E+02 -0.28714881629E+01  0.51224113481E+02  0.00000000000E+00 0.  1.
</event>
<event>
 7    1  0.5622879E-006  0.6513876E+02  0.7818608E-02  0.1378731E+00
          2   -1    0    0  502    0  0.00000000000E+00  0.00000000000E+00  0.77985112181E+03  0.77985112181E+03  0.00000000000E+00 0. -1.
          1   -1    0    0  501    0 -0.00000000000E+00 -0.00000000000E+00 -0.81963597518E+03  0.81963597518E+03  0.00000000000E+00 0. -1.
         25    2    1    2    0    0  0.12696030704E+03 -0.80894380512E+01 -0.43115102215E+03  0.46658260342E+03  0.12499505328E+03 0.  0.
          2    1    1    2  501    0 -0.63984551507E+02 -0.78158351430E+01 -0.36656790320E+03  0.37219233975E+03  0.00000000000E+00 0. -1.
          1    1    1    2  502    0 -0.62975755530E+02  0.15905273194E+02  0.75793407198E+03  0.76071215382E+03  0.00000000000E+00 0. -1.
         22    1    3    3    0    0  0.11913865104E+03 -0.28579947839E+02 -0.42704014058E+03  0.44426806463E+03  0.00000000000E+00 0. -1.
         22    1    3    3    0    0  0.78216560015E+01  0.20490509788E+02 -0.41108815721E+01  0.22314538787E+02  0.00000000000E+00 0. -1.
</event>
<event>
 7    1  0.5622879E-006  0.1093906E+03  0.7818608E-02  0.1354242E+00
          2   -1    0    0  502    0  0.00000000000E+00  0.00000000000E+00  0.52136508440E+03  0.52136508440E+03  0.00000000000E+00 0. -1.
          1   -1    0    0  501    0 -0.00000000000E+00 -0.00000000000E+00 -0.90236347375E+03  0.90236347375E+03  0.00000000000E+00 0. -1.
         25    2    1    2    0    0 -0.18033576012E+02 -0.89036890216E+02 -0.16248163873E+03  0.22422884247E+03  0.12500205273E+03 0.  0.
          2    1    1    2  501    0  0.43374861877E+02 -0.18257852012E+02 -0.70201546621E+03  0.70359110469E+03  0.00000000000E+00 0. -1.
          1    1    1    2  502    0 -0.25341285865E+02  0.10729474223E+03  0.48349871558E+03  0.49590861099E+03  0.00000000000E+00 0. -1.
         22    1    3    3    0    0 -0.28417373522E+02  0.18681976153E+02 -0.83778514048E+02  0.90417933879E+02  0.00000000000E+00 0.  1.
         22    1    3    3    0    0  0.10383797511E+02 -0.10771886637E+03 -0.78703124681E+02  0.13381090859E+03  0.00000000000E+00 0.  1.
</event>
<event>
 7    1  0.5622879E-006  0.4093541E+02  0.7818608E-02  0.1512978E+00
          2   -1    0    0  502    0  0.00000000000E+00  0.00000000000E+00  0.15681337816E+03  0.15681337816E+03  0.00000000000E+00 0. -1.
          1   -1    0    0  501    0 -0.00000000000E+00 -0.00000000000E+00 -0.19254678408E+04  0.19254678408E+04  0.00000000000E+00 0. -1.
         25    2    1    2    0    0  0.14982224306E+02 -0.14517047647E+02 -0.87084386450E+03  0.88001703746E+03  0.12500295262E+03 0.  0.
          2    1    1    2  501    0 -0.29310977638E+02 -0.23938684640E+02 -0.10469234075E+04  0.10476071855E+04  0.00000000000E+00 0. -1.
          1    1    1    2  502    0  0.14328753332E+02  0.38455732287E+02  0.14911280930E+03  0.15465699601E+03  0.00000000000E+00 0. -1.
         22    1    3    3    0    0 -0.23242951393E+02 -0.25534650749E+02 -0.68717425428E+02  0.76904731557E+02  0.00000000000E+00 0. -1.
         22    1    3    3    0    0  0.38225175699E+02  0.11017603101E+02 -0.80212643907E+03  0.80311230590E+03  0.00000000000E+00 0. -1.
</event>
<event>
 7    1  0.5622879E-006  0.8507330E+02  0.7818608E-02  0.1352893E+00
          2   -1    0    0  502    0  0.00000000000E+00  0.00000000000E+00  0.48190062913E+02  0.48190062913E+02  0.00000000000E+00 0. -1.
          1   -1    0    0  501    0 -0.00000000000E+00 -0.00000000000E+00 -0.74325802754E+03  0.74325802754E+03  0.00000000000E+00 0. -1.
         25    2    1    2    0    0  0.47177887105E+02 -0.29555819034E+02 -0.29125824069E+03  0.32179985651E+03  0.12499794161E+03 0.  0.
          2    1    1    2  501    0  0.46994656427E+02  0.39218728497E+02 -0.36029807390E+03  0.36546040614E+03  0.00000000000E+00 0. -1.
          1    1    1    2  502    0 -0.94172543533E+02 -0.96629094633E+01 -0.43511650034E+02  0.10418782781E+03  0.00000000000E+00 0. -1.
         22    1    3    3    0    0  0.14310251325E+02  0.48308265354E+02 -0.13592488700E+03  0.14496222508E+03  0.00000000000E+00 0.  1.
         22    1    3    3    0    0  0.32867635780E+02 -0.77864084387E+02 -0.15533335369E+03  0.17683763143E+03  0.00000000000E+00 0.  1.
</event>
<event>
 7    1  0.5622879E-006  0.2603023E+03  0.7818608E-02  0.1179750E+00
          2   -1    0    0  502    0  0.00000000000E+00  0.00000000000E+00  0.46145657524E+04  0.46145657524E+04  0.00000000000E+00 0. -1.
          1   -1    0    0  501    0 -0.00000000000E+00 -0.00000000000E+00 -0.10647419984E+04  0.10647419984E+04  0.00000000000E+00 0. -1.
         25    2    1    2    0    0 -0.30782040406E+03  0.16797539217E+03 -0.21248167672E+03  0.42865065366E+03  0.12499514555E+03 0.  0.
          2    1    1    2  501    0  0.22115318734E+03 -0.10241304939E+03 -0.72354610038E+03  0.76348943957E+03  0.00000000000E+00 0. -1.
          1    1    1    2  502    0  0.86667216723E+02 -0.65562342780E+02  0.44858515312E+04  0.44871676575E+04  0.00000000000E+00 0. -1.
         22    1    3    3    0    0 -0.19469642038E+03  0.64218646406E+02 -0.63209912577E+02  0.21453723151E+03  0.00000000000E+00 0. -1.
         22    1    3    3    0    0 -0.11312398368E+03  0.10375674576E+03 -0.14927176414E+03  0.21411342215E+03  0.00000000000E+00 0. -1.
</event>
<event>
 7    1  0.5622879E-006  0.9771128E+02  0.7818608E-02  0.1404535E+00
          2   -1    0    0  502    0  0.00000000000E+00  0.00000000000E+00  0.23427316662E+04  0.23427316662E+04  0.00000000000E+00 0. -1.
          1   -1    0    0  501    0 -0.00000000000E+00 -0.00000000000E+00 -0.60609810641E+02  0.60609810641E+02  0.00000000000E+00 0. -1.
         25    2    1    2    0    0  0.73276021830E+02 -0.10625991543E+03  0.61083163857E+03  0.63671100688E+03  0.12500028239E+03 0.  0.
          2    1    1    2  501    0 -0.47518308545E+02  0.82648995462E+02  0.36117738830E+00  0.95336124040E+02  0.00000000000E+00 0. -1.
          1    1    1    2  502    0 -0.25757713285E+02  0.23610919970E+02  0.16709290396E+04  0.16712943459E+04  0.00000000000E+00 0. -1.
         22    1    3    3    0    0  0.26492700966E+02 -0.70704094670E+02  0.11603839964E+03  0.13844075411E+03  0.00000000000E+00 0. -1.
         22    1    3    3    0    0  0.46783320864E+02 -0.35555820761E+02  0.49479323893E+03  0.49827025277E+03  0.00000000000E+00 0. -1.
</event>
<event>
 7    1  0.5622879E-006  0.2532832E+03  0.7818608E-02  0.1128304E+00
          2   -1    0    0  502    0  0.00000000000E+00  0.00000000000E+00  0.21982388631E+04  0.21982388631E+04  0.00000000000E+00 0. -1.
          1   -1    0    0  501    0 -0.00000000000E+00 -0.00000000000E+00 -0.12292400406E+04  0.12292400406E+04  0.00000000000E+00 0. -1.
         25    2    1    2    0    0  0.19840342246E+02  0.17271451448E+03 -0.78964150716E+02  0.22821408020E+03  0.12498954600E+03 0.  0.
          2    1    1    2  501    0 -0.20427914512E+03  0.11663219911E+02 -0.10578033589E+04  0.10774107601E+04  0.00000000000E+00 0. -1.
          1    1    1    2  502    0  0.18443880288E+03 -0.18437773439E+03  0.21057663321E+04  0.21218540634E+04  0.00000000000E+00 0. -1.
         22    1    3    3    0    0 -0.18217495892E+02  0.15995295996E+03 -0.92723707293E+02  0.18578081831E+03  0.00000000000E+00 0.  1.
         22    1    3    3    0    0  0.38057838138E+02  0.12761554525E+02  0.13759556577E+02  0.42433261893E+02  0.00000000000E+00 0.  1.
</event>
<event>
 7    1  0.5622879E-006  0.8655072E+02  0.7818608E-02  0.1381869E+00
          2   -1    0    0  502    0  0.00000000000E+00  0.00000000000E+00  0.90619059762E+03  0.90619059762E+03  0.00000000000E+00 0. -1.
          1   -1    0    0  501    0 -0.00000000000E+00 -0.00000000000E+00 -0.16084651962E+03  0.16084651962E+03  0.00000000000E+00 0. -1.
         25    2    1    2    0    0  0.60985159743E+02 -0.21492136067E+02  0.21508922014E+03  0.25704043750E+03  0.12500124906E+03 0.  0.
          2    1    1    2  501    0 -0.55866711935E+02  0.68502435514E+02 -0.12496734221E+03  0.15307027730E+03  0.00000000000E+00 0. -1.
          1    1    1    2  502    0 -0.51184478079E+01 -0.47010299447E+02  0.65522220007E+03  0.65692640245E+03  0.00000000000E+00 0. -1.
         22    1    3    3    0    0  0.24327649976E+02 -0.72144691901E+02  0.95914074561E+02  0.12245897608E+03  0.00000000000E+00 0.  1.
         22    1    3    3    0    0  0.36657509767E+02  0.50652555833E+02  0.11917514558E+03  0.13458146142E+03  0.00000000000E+00 0.  1.
</event>
<event>
 7    1  0.5622879E-006  0.3527921E+02  0.7818608E-02  0.1559262E+00
          2   -1    0    0  502    0  0.00000000000E+00  0.00000000000E+00  0.68783610957E+03  0.68783610957E+03  0.00000000000E+00 0. -1.
          1   -1    0    0  501    0 -0.00000000000E+00 -0.00000000000E+00 -0.23444800542E+02  0.23444800542E+02  0.00000000000E+00 0. -1.
         25    2    1    2    0    0  0.25078617473E+02 -0.21550212947E+02  0.32379025353E+03  0.34865310624E+03  0.12500204590E+03 0.  0.
          2    1    1    2  501    0  0.10316498402E+02  0.30752096230E+02  0.16356098123E+02  0.36326897854E+02  0.00000000000E+00 0. -1.
          1    1    1    2  502    0 -0.35395115875E+02 -0.92018832835E+01  0.32424495737E+03  0.32630090602E+03  0.00000000000E+00 0. -1.
         22    1    3    3    0    0 -0.96883891665E+01 -0.13617268738E+02  0.30995111328E+03  0.31040133299E+03  0.00000000000E+00 0. -1.
         22    1    3    3    0    0  0.34767006639E+02 -0.79329442086E+01  0.13839140243E+02  0.38251773255E+02  0.00000000000E+00 0. -1.
</event>
<event>
 7    1  0.5622879E-006  0.3999931E+02  0.7818608E-02  0.1543396E+00
          2   -1    0    0  502    0  0.00000000000E+00  0.00000000000E+00  0.14566896837E+04  0.14566896837E+04  0.00000000000E+00 0. -1.
          1   -1    0    0  501    0 -0.00000000000E+00 -0.00000000000E+00 -0.68892092797E+03  0.68892092797E+03  0.00000000000E+00 0. -1.
         25    2    1    2    0    0 -0.61822012572E+02  0.30501081188E+02 -0.23451294968E+03  0.27453120276E+03  0.12497511965E+03 0.  0.
          2    1    1    2  501    0  0.30961432734E+02 -0.23376410951E+02 -0.43335766200E+03  0.43509071482E+03  0.00000000000E+00 0. -1.
          1    1    1    2  502    0  0.30860579838E+02 -0.71246702369E+01  0.14356393674E+04  0.14359886941E+04  0.00000000000E+00 0. -1.
         22    1    3    3    0    0 -0.88631884427E+02  0.23132303395E+02 -0.93837019333E+02  0.13113390330E+03  0.00000000000E+00 0. -1.
         22    1    3    3    0    0  0.26809871855E+02  0.73687777922E+01 -0.14067593034E+03  0.14339729946E+03  0.00000000000E+00 0. -1.
</event>
<event>
 7    1  0.5622879E-006  0.1946918E+03  0.7818608E-02  0.1185789E+00
          2   -1    0    0  502    0  0.00000000000E+00  0.00000000000E+00  0.45873865700E+03  0.45873865700E+03  0.00000000000E+00 0. -1.
          1   -1    0    0  501    0 -0.00000000000E+00 -0.00000000000E+00 -0.33938584771E+03  0.33938584771E+03  0.00000000000E+00 0. -1.
         25    2    1    2    0    0 -0.27170207933E+03 -0.15126120183E+03 -0.36293806538E+02  0.33711245140E+03  0.12500237360E+03 0.  0.
          2    1    1    2  501    0  0.10992234661E+03  0.79745871176E+02 -0.86597245226E+02  0.16106336994E+03  0.00000000000E+00 0. -1.
          1    1    1    2  502    0  0.16177973271E+03  0.71515330650E+02  0.24224386106E+03  0.29994868337E+03  0.00000000000E+00 0. -1.
         22    1    3    3    0    0 -0.23913662762E+03 -0.13059936214E+03  0.15058197624E+02  0.27289058133E+03  0.00000000000E+00 0.  1.
         22    1    3    3    0    0 -0.32565451704E+02 -0.20661839688E+02 -0.51352004162E+02  0.64221870072E+02  0.00000000000E+00 0.  1.
</event>
<event>
 7    1  0.5622879E-006  0.8237981E+02  0.7818608E-02  0.1360172E+00
          2   -1    0    0  502    0  0.00000000000E+00  0.00000000000E+00  0.19092273313E+04  0.19092273313E+04  0.00000000000E+00 0. -1.
          1   -1    0    0  501    0 -0.00000000000E+00 -0.00000000000E+00 -0.66327285932E+03  0.66327285932E+03  0.00000000000E+00 0. -1.
         25    2    1    2    0    0 -0.18070189088E+02  0.36972859410E+02  0.20724009146E+03  0.24549635738E+03  0.12500592751E+03 0.  0.
          2    1    1    2  501    0 -0.23298599537E+02 -0.79655968409E+02 -0.64094355010E+03  0.64629446266E+03  0.00000000000E+00 0. -1.
          1    1    1    2  502    0  0.41368788625E+02  0.42683108999E+02  0.16796579306E+04  0.16807093706E+04  0.00000000000E+00 0. -1.
         22    1    3    3    0    0  0.26803980589E+02  0.70085791609E+02  0.13206845265E+03  0.15189650340E+03  0.00000000000E+00 0.  1.
         22    1    3    3    0    0 -0.44874169677E+02 -0.33112932199E+02  0.75171638811E+02  0.93599853977E+02  0.00000000000E+00 0.  1.
</event>
<event>
 7    1  0.5622879E-006  0.1942528E+03  0.7818608E-02  0.1257950E+00
          2   -1    0    0  502    0  0.00000000000E+00  0.00000000000E+00  0.12936504261E+03  0.12936504261E+03  0.00000000000E+00 0. -1.
          1   -1    0    0  501    0 -0.00000000000E+00 -0.00000000000E+00 -0.92370072906E+03  0.92370072906E+03  0.00000000000E+00 0. -1.
         25    2    1    2    0    0  0.17625681853E+03  0.39734299930E+02 -0.52876337446E+03  0.57259029191E+03  0.12499462206E+03 0.  0.
          2    1    1    2  501    0 -0.19425534162E+03 -0.10106436579E+03 -0.32586888337E+03  0.39260625687E+03  0.00000000000E+00 0. -1.
          1    1    1    2  502    0  0.17998523094E+02  0.61330065857E+02  0.60296571384E+02  0.87869222895E+02  0.00000000000E+00 0. -1.
         22    1    3    3    0    0  0.11700140030E+03 -0.23017317076E+02 -0.20152011310E+03  0.23415695706E+03  0.00000000000E+00 0.  1.
         22    1    3    3    0    0  0.59255418231E+02  0.62751617007E+02 -0.32724326137E+03  0.33843333485E+03  0.00000000000E+00 0.  1.
</event>
<event>
 7    1  0.5622879E-006  0.2405732E+03  0.7818608E-02  0.1251592E+00
          2   -1    0    0  502    0  0.00000000000E+00  0.00000000000E+00  0.20339774283E+04  0.20339774283E+04  0.00000000000E+00 0. -1.
          1   -1    0    0  501    0 -0.00000000000E+00 -0.00000000000E+00 -0.22601168908E+03  0.22601168908E+03  0.00000000000E+00 0. -1.
         25    2    1    2    0    0  0.88599653639E+02 -0.26258786536E+03  0.28445355369E+03  0.41634176953E+03  0.12499743674E+03 0.  0.
          2    1    1    2  501    0  0.18248577642E+02  0.51849104408E+02 -0.14677562257E+03  0.15673041694E+03  0.00000000000E+00 0. -1.
          1    1    1    2  502    0 -0.10684823128E+03  0.21073876095E+03  0.16702878081E+04  0.16869169309E+04  0.00000000000E+00 0. -1.
         22    1    3    3    0    0  0.11704282837E+03 -0.17098247740E+03  0.20897052304E+03  0.29428338511E+03  0.00000000000E+00 0. -1.
         22    1    3    3    0    0 -0.28443174732E+02 -0.91605387962E+02  0.75483030646E+02  0.12205838442E+03  0.00000000000E+00 0. -1.
</event>
<event>
 7    1  0.5622879E-006  0.5046751E+02  0.7818608E-02  0.1553345E+00
          2   -1    0    0  502    0  0.00000000000E+00  0.00000000000E+00  0.60824111332E+03  0.60824111332E+03  0.00000000000E+00 0. -1.
          1   -1    0    0  501    0 -0.00000000000E+00 -0.00000000000E+00 -0.18507558232E+02  0.18507558232E+02  0.00000000000E+00 0. -1.
         25    2    1    2    0    0 -0.21832380766E+02  0.43365911360E+02  0.33122352046E+03  0.35733896009E+03  0.12499942707E+03 0.  0.
          2    1    1    2  501    0  0.21807080318E+02  0.88790818087E+01  0.85584262236E+02  0.88764028684E+02  0.00000000000E+00 0. -1.
          1    1    1    2  502    0  0.25300447940E-01 -0.52244993169E+02  0.17292577239E+03  0.18064568278E+03  0.00000000000E+00 0. -1.
         22    1    3    3    0    0  0.45170152436E+00 -0.43555423209E+02  0.12730704559E+03  0.13455245364E+03  0.00000000000E+00 0.  1.
         22    1    3    3    0    0 -0.22284082290E+02  0.86921334570E+02  0.20391647488E+03  0.22278650644E+03  0.00000000000E+00 0.  1.
</event>
<event>
 7    1  0.5622879E-006  0.4677558E+02  0.7818608E-02  0.1575281E+00
          2   -1    0    0  502    0  0.00000000000E+00  0.00000000000E+00  0.14599141955E+04  0.14599141955E+04  0.00000000000E+00 0. -1.
          1   -1    0    0  501    0 -0.00000000000E+00 -0.00000000000E+00 -0.28132809667E+04  0.28132809667E+04  0.00000000000E+00 0. -1.
         25    2    1    2    0    0  0.20625050151E+02 -0.63108319247E+02 -0.55946866789E+03  0.57709506201E+03  0.12500187037E+03 0.  0.
          2    1    1    2  501    0 -0.21443032065E+02  0.40999847846E+02 -0.22446763589E+04  0.22451531679E+04  0.00000000000E+00 0. -1.
          1    1    1    2  502    0  0.81798191467E+00  0.22108471401E+02  0.14507782556E+04  0.14509469323E+04  0.00000000000E+00 0. -1.
         22    1    3    3    0    0 -0.25742636307E+01 -0.61812677276E+02 -0.10382754072E+03  0.12086187206E+03  0.00000000000E+00 0. -1.
         22    1    3    3    0    0  0.23199313781E+02 -0.12956419708E+01 -0.45564112717E+03  0.45623318995E+03  0.00000000000E+00 0. -1.
</event>
<event>
 7    1  0.5622879E-006  0.6724585E+02  0.7818608E-02  0.1455139E+00
          2   -1    0    0  502    0  0.00000000000E+00  0.00000000000E+00  0.26455408283E+03  0.26455408283E+03  0.00000000000E+00 0. -1.
          1   -1    0    0  501    0 -0.00000000000E+00 -0.00000000000E+00 -0.17221489753E+03  0.17221489753E+03  0.00000000000E+00 0. -1.
         25    2    1    2    0    0 -0.93951705350E+01  0.95003920905E+02  0.11271933274E+03  0.19350600471E+03  0.12499964668E+03 0.  0.
          2    1    1    2  501    0 -0.83145992026E+01 -0.65292738692E+02 -0.12051766963E+03  0.13732000211E+03  0.00000000000E+00 0. -1.
          1    1    1    2  502    0  0.17709769738E+02 -0.29711182213E+02  0.10013752219E+03  0.10594297354E+03  0.00000000000E+00 0. -1.
         22    1    3    3    0    0  0.37211497129E+02  0.54887281764E+02  0.13954783786E+01  0.66326891816E+02  0.00000000000E+00 0.  1.
         22    1    3    3    0    0 -0.46606667664E+02  0.40116639140E+02  0.11132385436E+03  0.12717911290E+03  0.00000000000E+00 0.  1.
</event>
<event>
 7    1  0.7159465E-006  0.4260120E+02  0.7818608E-02  0.1519217E+00
          2   -1    0    0  502    0  0.00000000000E+00  0.00000000000E+00  0.26001537047E+04  0.26001537047E+04  0.00000000000E+00 0. -1.
          1   -1    0    0  501    0 -0.00000000000E+00 -0.00000000000E+00 -0.10539526974E+04  0.10539526974E+04  0.00000000000E+00 0. -1.
         25    2    1    2    0    0  0.13009257451E+02  0.10899633333E+02 -0.23629123112E+03  0.26785408315E+03  0.12499688464E+03 0.  0.
          2    1    1    2  501    0 -0.13492174750E+01 -0.43763604986E+02 -0.80116461456E+03  0.80236015176E+03  0.00000000000E+00 0. -1.
          1    1    1    2  502    0 -0.11660039976E+02  0.32863971654E+02  0.25836568530E+04  0.25838921671E+04  0.00000000000E+00 0. -1.
         22    1    3    3    0    0  0.57938620378E+02  0.40722286812E+02 -0.15350662974E+03  0.16905464722E+03  0.00000000000E+00 0.  1.
         22    1    3    3    0    0 -0.44929362928E+02 -0.29822653479E+02 -0.82784601382E+02  0.98799435928E+02  0.00000000000E+00 0.  1.
</event>
<event>
 7    1  0.5622879E-006  0.3438675E+02  0.7818608E-02  0.1578484E+00
          2   -1    0    0  502    0  0.00000000000E+00  0.00000000000E+00  0.24454368591E+03  0.24454368591E+03  0.00000000000E+00 0. -1.
          1   -1    0    0  501    0 -0.00000000000E+00 -0.00000000000E+00 -0.19408119048E+03  0.19408119048E+03  0.00000000000E+00 0. -1.
         25    2    1    2    0    0 -0.14574122304E+02 -0.19466815450E+02  0.23804871670E+02  0.12955445964E+03  0.12500529649E+03 0.  0.
          2    1    1    2  501    0  0.26137591133E+02 -0.13683141285E+02 -0.13779189648E+03  0.14091489900E+03  0.00000000000E+00 0. -1.
          1    1    1    2  502    0 -0.11563468829E+02  0.33149956735E+02  0.16444952024E+03  0.16815551775E+03  0.00000000000E+00 0. -1.
         22    1    3    3    0    0  0.44882881547E+02  0.20048210175E+02 -0.10630221289E+02  0.50293194290E+02  0.00000000000E+00 0. -1.
         22    1    3    3    0    0 -0.59457003851E+02 -0.39515025625E+02  0.34435092959E+02  0.79261265346E+02  0.00000000000E+00 0. -1.
</event>
<event>
 7    1  0.5622879E-006  0.6276615E+02  0.7818608E-02  0.1465758E+00
          2   -1    0    0  502    0  0.00000000000E+00  0.00000000000E+00  0.52618468111E+02  0.52618468111E+02  0.00000000000E+00 0. -1.
          1   -1    0    0  501    0 -0.00000000000E+00 -0.00000000000E+00 -0.21385177545E+04  0.21385177545E+04  0.00000000000E+00 0. -1.
         25    2    1    2    0    0 -0.87560807486E+01  0.88611430193E+02 -0.37424202851E+03  0.40448828845E+03  0.12500010032E+03 0.  0.
          2    1    1    2  501    0  0.19421702761E+02 -0.28281824850E+02 -0.17238415756E+04  0.17241829490E+04  0.00000000000E+00 0. -1.
          1    1    1    2  502    0 -0.10665622012E+02 -0.60329605342E+02  0.12184317641E+02  0.62464985152E+02  0.00000000000E+00 0. -1.
         22    1    3    3    0    0 -0.29746455223E+02  0.37796183607E+02 -0.31797588106E+02  0.57658387967E+02  0.00000000000E+00 0.  1.
         22    1    3    3    0    0  0.20990374475E+02  0.50815246586E+02 -0.34244444040E+03  0.34682990048E+03  0.00000000000E+00 0.  1.
</event>
<event>
 7    1  0.5622879E-006  0.5720789E+02  0.7818608E-02  0.1429813E+00
          2   -1    0    0  502    0  0.00000000000E+00  0.00000000000E+00  0.12893320582E+02  0.12893320582E+02  0.00000000000E+00 0. -1.
          1   -1    0    0  501    0 -0.00000000000E+00 -0.00000000000E+00 -0.20536547270E+04  0.20536547270E+04  0.00000000000E+00 0. -1.
         25    2    1    2    0    0  0.95338408727E+02  0.39162095997E+02 -0.14464387685E+04  0.14554841048E+04  0.12500314550E+03 0.  0.
          2    1    1    2  501    0 -0.45825124366E+02 -0.17623302126E+02 -0.49980374520E+03  0.50220942496E+03  0.00000000000E+00 0. -1.
          1    1    1    2  502    0 -0.49513284361E+02 -0.21538793871E+02 -0.94518892760E+02  0.10885451786E+03  0.00000000000E+00 0. -1.
         22    1    3    3    0    0  0.47003382656E+02 -0.25364829087E+02 -0.21970627620E+03  0.22610515327E+03  0.00000000000E+00 0.  1.
         22    1    3    3    0    0  0.48335026071E+02  0.64526925084E+02 -0.12267324923E+04  0.12293789515E+04  0.00000000000E+00 0.  1.
</event>
<event>
 7    1  0.5622879E-006  0.5332762E+02  0.7818608E-02  0.1485900E+00
          2   -1    0    0  502    0  0.00000000000E+00  0.00000000000E+00  0.13638705025E+04  0.13638705025E+04  0.00000000000E+00 0. -1.
          1   -1    0    0  501    0 -0.00000000000E+00 -0.00000000000E+00 -0.56668696869E+02  0.56668696869E+02  0.00000000000E+00 0. -1.
         25    2    1    2    0    0  0.27374933077E+02 -0.63141306902E+02  0.19780034666E+03  0.24390214044E+03  0.12500826123E+03 0.  0.
          2    1    1    2  501    0  0.15308444123E+02  0.31470330329E+02 -0.23715179996E+02  0.42274577641E+02  0.00000000000E+00 0. -1.
          1    1    1    2  502    0 -0.42683377201E+02  0.31670976573E+02  0.11331166390E+04  0.11343624813E+04  0.00000000000E+00 0. -1.
         22    1    3    3    0    0  0.57120262323E+02 -0.71708945892E+02  0.19149865236E+03  0.21231257886E+03  0.00000000000E+00 0. -1.
         22    1    3    3    0    0 -0.29745329246E+02  0.85676389900E+01  0.63016943054E+01  0.31589561582E+02  0.00000000000E+00 0. -1.
</event>
<event>
 7    1  0.5622879E-006  0.1425228E+03  0.7818608E-02  0.1342570E+00
          2   -1    0    0  502    0  0.00000000000E+00  0.00000000000E+00  0.47012562009E+03  0.47012562009E+03  0.00000000000E+00 0. -1.
          1   -1    0    0  501    0 -0.00000000000E+00 -0.00000000000E+00 -0.36204815224E+03  0.36204815224E+03  0.00000000000E+00 0. -1.
         25    2    1    2    0    0  0.32722483175E+02 -0.11030366652E+03 -0.50720976936E+02  0.17730072076E+03  0.12500107331E+03 0.  0.
          2    1    1    2  501    0 -0.57143508048E+02  0.14187312501E+03 -0.22332020891E+03  0.27067559886E+03  0.00000000000E+00 0. -1.
          1    1    1    2  502    0  0.24421024873E+02 -0.31569458490E+02  0.38211865370E+03  0.38419745271E+03  0.00000000000E+00 0. -1.
         22    1    3    3    0    0 -0.98979098555E+01 -0.22780446181E+02  0.38126205279E+02  0.45503020523E+02  0.00000000000E+00 0. -1.
         22    1    3    3    0    0  0.42620393031E+02 -0.87523220335E+02 -0.88847182215E+02  0.13179770024E+03  0.00000000000E+00 0. -1.
</event>
<event>
 7    1  0.5622879E-006  0.9513865E+02  0.7818608E-02  0.1327952E+00
          2   -1    0    0  502    0  0.00000000000E+00  0.00000000000E+00  0.44074451870E+03  0.44074451870E+03  0.00000000000E+00 0. -1.
          1   -1    0    0  501    0 -0.00000000000E+00 -0.00000000000E+00 -0.46206723765E+03  0.46206723765E+03  0.00000000000E+00 0. -1.
         25    2    1    2    0    0 -0.87274801748E+02 -0.66618098135E+01 -0.20288841801E+03  0.25386763763E+03  0.12499518607E+03 0.  0.
          2    1    1    2  501    0  0.76006211540E+02  0.73646301275E+02 -0.21869683350E+03  0.24295889954E+03  0.00000000000E+00 0. -1.
          1    1    1    2  502    0  0.11268590208E+02 -0.66984491461E+02  0.40026253256E+03  0.40598521918E+03  0.00000000000E+00 0. -1.
         22    1    3    3    0    0 -0.92813823773E+02 -0.48115448112E+02 -0.17416162834E+03  0.20312994614E+03  0.00000000000E+00 0. -1.
         22    1    3    3    0    0  0.55390220251E+01  0.41453638298E+02 -0.28726789668E+02  0.50737691490E+02  0.00000000000E+00 0. -1.
</event>
<event>
 7    1  0.5622879E-006  0.1499526E+03  0.7818608E-02  0.1300948E+00
          2   -1    0    0  502    0  0.00000000000E+00  0.00000000000E+00  0.35591031114E+04  0.35591031114E+04  0.00000000000E+00 0. -1.
          1   -1    0    0  501    0 -0.00000000000E+00 -0.00000000000E+00 -0.80358631314E+02  0.80358631314E+02  0.00000000000E+00 0. -1.
         25    2    1    2    0    0  0.54767338501E+02 -0.12529828276E+03  0.27128394335E+04  0.27191584153E+04  0.12500229795E+03 0.  0.
          2    1    1    2  501    0 -0.10642580046E+03  0.10650605473E+03 -0.18558952290E+01  0.15057700703E+03  0.00000000000E+00 0. -1.
          1    1    1    2  502    0  0.51658461960E+02  0.18792228025E+02  0.76776094180E+03  0.76972632038E+03  0.00000000000E+00 0. -1.
         22    1    3    3    0    0 -0.36675932648E+01 -0.27436447401E+02  0.16486590274E+04  0.16488913847E+04  0.00000000000E+00 0. -1.
         22    1    3    3    0    0  0.58434931766E+02 -0.97861835354E+02  0.10641804061E+04  0.10702670306E+04  0.00000000000E+00 0. -1.
</event>
<event>
 7    1  0.5622879E-006  0.9352773E+02  0.7818608E-02  0.1327178E+00
          2   -1    0    0  502    0  0.00000000000E+00  0.00000000000E+00  0.69629246211E+03  0.69629246211E+03  0.00000000000E+00 0. -1.
          1   -1    0    0  501    0 -0.00000000000E+00 -0.00000000000E+00 -0.66659435858E+03  0.66659435858E+03  0.00000000000E+00 0. -1.
         25    2    1    2    0    0 -0.13236706577E+03  0.67584977213E+02 -0.30392787119E+03  0.36067430258E+03  0.12500012963E+03 0.  0.
          2    1    1    2  501    0  0.64151547656E+02 -0.53927456680E+02 -0.32718586427E+03  0.33774869567E+03  0.00000000000E+00 0. -1.
          1    1    1    2  502    0  0.68215518117E+02 -0.13657520533E+02  0.66081183899E+03  0.66446382244E+03  0.00000000000E+00 0. -1.
         22    1    3    3    0    0 -0.28849308663E+02 -0.31828304914E+02 -0.11946361359E+03  0.12695226888E+03  0.00000000000E+00 0.  1.
         22    1    3    3    0    0 -0.10351775711E+03  0.99413282126E+02 -0.18446425761E+03  0.23372203370E+03  0.00000000000E+00 0.  1.
</event>
<event>
 7    1  0.5622879E-006  0.5446669E+02  0.7818608E-02  0.1430465E+00
          2   -1    0    0  502    0  0.00000000000E+00  0.00000000000E+00  0.21716759444E+03  0.21716759444E+03  0.00000000000E+00 0. -1.
          1   -1    0    0  501    0 -0.00000000000E+00 -0.00000000000E+00 -0.80959898443E+03  0.80959898443E+03  0.00000000000E+00 0. -1.
         25    2    1    2    0    0  0.29441278965E+00 -0.16267797852E+02  0.13410949058E+02  0.12676578400E+03  0.12499993006E+03 0.  0.
          2    1    1    2  501    0 -0.51485475919E+02  0.19816772836E+02 -0.74739809662E+03  0.74943136680E+03  0.00000000000E+00 0. -1.
          1    1    1    2  502    0  0.51191063130E+02 -0.35489749842E+01  0.14155575756E+03  0.15056942806E+03  0.00000000000E+00 0. -1.
         22    1    3    3    0    0 -0.18519758600E+02 -0.62462664796E+02 -0.18285217059E+02  0.67667681466E+02  0.00000000000E+00 0. -1.
         22    1    3    3    0    0  0.18814171389E+02  0.46194866945E+02  0.31696166118E+02  0.59098102539E+02  0.00000000000E+00 0. -1.
</event>
<event>
 7    1  0.5622879E-006  0.5584718E+02  0.7818608E-02  0.1459177E+00
          2   -1    0    0  502    0  0.00000000000E+00  0.00000000000E+00  0.57418855647E+03  0.57418855647E+03  0.00000000000E+00 0. -1.
          1   -1    0    0  501    0 -0.00000000000E+00 -0.00000000000E+00 -0.16634284067E+04  0.16634284067E+04  0.00000000000E+00 0. -1.
         25    2    1    2    0    0  0.57770297946E+01 -0.49382058065E+02 -0.40228949037E+03  0.42419316696E+03  0.12502418606E+03 0.  0.
          2    1    1    2  501    0  0.34466427612E+02  0.45398318625E+02 -0.12488102738E+04  0.12501104119E+04  0.00000000000E+00 0. -1.
          1    1    1    2  502    0 -0.40243457407E+02  0.39837394400E+01  0.56185991395E+03  0.56331338431E+03  0.00000000000E+00 0. -1.
         22    1    3    3    0    0  0.40821818438E+02 -0.75768449829E+02 -0.20977621160E+03  0.22674509433E+03  0.00000000000E+00 0.  1.
         22    1    3    3    0    0 -0.35044788644E+02  0.26386391764E+02 -0.19251327877E+03  0.19744807263E+03  0.00000000000E+00 0.  1.
</event>
<event>
 7    1  0.5622879E-006  0.1642691E+03  0.7818608E-02  0.1282635E+00
          2   -1    0    0  502    0  0.00000000000E+00  0.00000000000E+00  0.24205156028E+04  0.24205156028E+04  0.00000000000E+00 0. -1.
          1   -1    0    0  501    0 -0.00000000000E+00 -0.00000000000E+00 -0.16877858845E+04  0.16877858845E+04  0.00000000000E+00 0. -1.
         25    2    1    2    0    0 -0.43978371863E+02 -0.95593162145E+02  0.49944191818E+03  0.52549068800E+03  0.12500433471E+03 0.  0.
          2    1    1    2  501    0  0.70892559295E+02  0.14870177010E+03 -0.16702438984E+04  0.16783481914E+04  0.00000000000E+00 0. -1.
          1    1    1    2  502    0 -0.26914187432E+02 -0.53108607953E+02  0.19035316985E+04  0.19044626079E+04  0.00000000000E+00 0. -1.
         22    1    3    3    0    0  0.27048369847E+02 -0.66198592924E+02  0.13232039459E+03  0.15040796137E+03  0.00000000000E+00 0.  1.
         22    1    3    3    0    0 -0.71026741710E+02 -0.29394569220E+02  0.36712152359E+03  0.37508272663E+03  0.00000000000E+00 0.  1.
</event>
<event>
 7    1  0.5622879E-006  0.7355091E+02  0.7818608E-02  0.1437863E+00
          2   -1    0    0  502    0  0.00000000000E+00  0.00000000000E+00  0.24843438619E+04  0.24843438619E+04  0.00000000000E+00 0. -1.
          1   -1    0    0  501    0 -0.00000000000E+00 -0.00000000000E+00 -0.69367248364E+02  0.69367248364E+02  0.00000000000E+00 0. -1.
         25    2    1    2    0    0  0.10148325759E+03  0.26008614599E+02  0.12652550046E+04  0.12757238170E+04  0.12500292383E+03 0.  0.
          2    1    1    2  501    0 -0.72950692521E+02 -0.41566905451E+01 -0.42961366034E+02  0.84762967073E+02  0.00000000000E+00 0. -1.
          1    1    1    2  502    0 -0.28532565072E+02 -0.21851924054E+02  0.11926829750E+04  0.11932243262E+04  0.00000000000E+00 0. -1.
         22    1    3    3    0    0  0.10432740808E+03  0.50356800451E+02  0.12066550307E+04  0.12122031095E+04  0.00000000000E+00 0.  1.
         22    1    3    3    0    0 -0.28441504870E+01 -0.24348185853E+02  0.58599973905E+02  0.63520707552E+02  0.00000000000E+00 0.  1.
</event>
<event>
 7    1  0.5622879E-006  0.7840644E+02  0.7818608E-02  0.1379099E+00
          2   -1    0    0  502    0  0.00000000000E+00  0.00000000000E+00  0.33978232078E+03  0.33978232078E+03  0.00000000000E+00 0. -1.
          1   -1    0    0  501    0 -0.00000000000E+00 -0.00000000000E+00 -0.17497268469E+04  0.17497268469E+04  0.00000000000E+00 0. -1.
         25    2    1    2    0    0  0.24743215104E+02 -0.36418373679E+02 -0.21437441253E+02  0.13424521007E+03  0.12499475150E+03 0.  0.
          2    1    1    2  501    0 -0.28507451317E+02 -0.45144075123E+02 -0.16655674978E+04  0.16664230412E+04  0.00000000000E+00 0. -1.
          1    1    1    2  502    0  0.37642362130E+01  0.81562448802E+02  0.27706041301E+03  0.28884091640E+03  0.00000000000E+00 0. -1.
         22    1    3    3    0    0  0.52345702698E+02  0.30112551601E+02 -0.12424510213E+02  0.61653927766E+02  0.00000000000E+00 0. -1.
         22    1    3    3    0    0 -0.27602487595E+02 -0.66530925280E+02 -0.90129310395E+01  0.72591282300E+02  0.00000000000E+00 0. -1.
</event>
<event>
 7    1  0.5622879E-006  0.9173966E+02  0.7818608E-02  0.1379874E+00
          2   -1    0    0  502    0  0.00000000000E+00  0.00000000000E+00  0.10612990058E+04  0.10612990058E+04  0.00000000000E+00 0. -1.
          1   -1    0    0  501    0 -0.00000000000E+00 -0.00000000000E+00 -0.12814988360E+03  0.12814988360E+03  0.00000000000E+00 0. -1.
         25    2    1    2    0    0  0.13038487343E+02  0.61278477325E+02  0.34751902465E+03  0.37459172477E+03  0.12499773532E+03 0.  0.
          2    1    1    2  501    0 -0.56340132081E+02 -0.74734049719E+02 -0.94625724301E+02  0.13309175921E+03  0.00000000000E+00 0. -1.
          1    1    1    2  502    0  0.43301644738E+02  0.13455572393E+02  0.68025582187E+03  0.68176540543E+03  0.00000000000E+00 0. -1.
         22    1    3    3    0    0 -0.18280963745E+02  0.17505586971E+02  0.25386516621E+01  0.25437845092E+02  0.00000000000E+00 0. -1.
         22    1    3    3    0    0  0.31319451089E+02  0.43772890354E+02  0.34498037299E+03  0.34915387968E+03  0.00000000000E+00 0. -1.
</event>
<event>
 7    1  0.5622879E-006  0.6596244E+02  0.7818608E-02  0.1407334E+00
          2   -1    0    0  502    0  0.00000000000E+00  0.00000000000E+00  0.30370391797E+04  0.30370391797E+04  0.00000000000E+00 0. -1.
          1   -1    0    0  501    0 -0.00000000000E+00 -0.00000000000E+00 -0.20411277725E+02  0.20411277725E+02  0.00000000000E+00 0. -1.
         25    2    1    2    0    0 -0.17860097675E+02  0.78440040406E+02  0.69083248804E+03  0.70664369611E+03  0.12499585469E+03 0.  0.
          2    1    1    2  501    0  0.46908573057E+02 -0.19066753339E+02  0.41265200000E+02  0.65320533067E+02  0.00000000000E+00 0. -1.
          1    1    1    2  502    0 -0.29048475382E+02 -0.59373287067E+02  0.22845302139E+04  0.22854862282E+04  0.00000000000E+00 0. -1.
         22    1    3    3    0    0  0.59301274986E+01  0.94375072847E+02  0.64958474039E+03  0.65643137931E+03  0.00000000000E+00 0.  1.
         22    1    3    3    0    0 -0.23790225173E+02 -0.15935032441E+02  0.41247747651E+02  0.50212316805E+02  0.00000000000E+00 0.  1.
</event>
<event>
 7    1  0.5622879E-006  0.6503415E+02  0.7818608E-02  0.1518110E+00
          2   -1    0    0  502    0  0.00000000000E+00  0.00000000000E+00  0.17328494293E+03  0.17328494293E+03  0.00000000000E+00 0. -1.
          1   -1    0    0  501    0 -0.00000000000E+00 -0.00000000000E+00 -0.64808406063E+03  0.64808406063E+03  0.00000000000E+00 0. -1.
         25    2    1    2    0    0  0.47782920130E+01 -0.54507869031E+02 -0.46676738826E+03  0.48630283126E+03  0.12499883636E+03 0.  0.
          2    1    1    2  501    0  0.22522928707E+02 -0.47221265063E+01 -0.16421134299E+03  0.16581600032E+03  0.00000000000E+00 0. -1.
          1    1    1    2  502    0 -0.27301220720E+02  0.59229995537E+02  0.15617961355E+03  0.16925017198E+03  0.00000000000E+00 0. -1.
         22    1    3    3    0    0 -0.37275065756E+02  0.21783847857E+02 -0.93224810024E+02  0.10273671086E+03  0.00000000000E+00 0.  1.
         22    1    3    3    0    0  0.42053357769E+02 -0.76291716888E+02 -0.37354257824E+03  0.38356612040E+03  0.00000000000E+00 0.  1.
</event>
<event>
 7    1  0.5622879E-006  0.1377717E+03  0.7818608E-02  0.1286403E+00
          2   -1    0    0  502    0  0.00000000000E+00  0.00000000000E+00  0.14885659770E+04  0.14885659770E+04  0.00000000000E+00 0. -1.
          1   -1    0    0  501    0 -0.00000000000E+00 -0.00000000000E+00 -0.25550855569E+04  0.25550855569E+04  0.00000000000E+00 0. -1.
         25    2    1    2    0    0  0.53084329402E+02  0.13401563953E+03  0.35308581090E+02  0.19403780711E+03  0.12500334805E+03 0.  0.
          2    1    1    2  501    0  0.52146788340E+02 -0.44429365920E+02 -0.24717697518E+04  0.24727189411E+04  0.00000000000E+00 0. -1.
          1    1    1    2  502    0 -0.10523111774E+03 -0.89586273606E+02  0.13699415907E+04  0.13768947856E+04  0.00000000000E+00 0. -1.
         22    1    3    3    0    0 -0.14331130126E+01  0.13076708264E+03  0.34705079173E+01  0.13082097745E+03  0.00000000000E+00 0.  1.
         22    1    3    3    0    0  0.54517442414E+02  0.32485568863E+01  0.31838073173E+02  0.63216829663E+02  0.00000000000E+00 0.  1.
</event>
<event>
 7    1  0.5622879E-006  0.1429603E+03  0.7818608E-02  0.1246255E+00
          2   -1    0    0  502    0  0.00000000000E+00  0.00000000000E+00  0.29047419279E+04  0.29047419279E+04  0.00000000000E+00 0. -1.
          1   -1    0    0  501    0 -0.00000000000E+00 -0.00000000000E+00 -0.12232449453E+03  0.12232449453E+03  0.00000000000E+00 0. -1.
         25    2    1    2    0    0 -0.55722969821E+02  0.11482115152E+02  0.40830162060E+02  0.14328132737E+03  0.12500219320E+03 0.  0.
          2    1    1    2  501    0  0.51171651846E+02 -0.15436990866E+03  0.26307311497E+02  0.16474429061E+03  0.00000000000E+00 0. -1.
          1    1    1    2  502    0  0.45513179744E+01  0.14288779351E+03  0.27152799598E+04  0.27190408045E+04  0.00000000000E+00 0. -1.
         22    1    3    3    0    0 -0.28792441206E+01  0.16618846572E+02 -0.41794184826E+02  0.45069168989E+02  0.00000000000E+00 0. -1.
         22    1    3    3    0    0 -0.52843725700E+02 -0.51367314194E+01  0.82624346885E+02  0.98212158381E+02  0.00000000000E+00 0. -1.
</event>
<event>
 7    1  0.5622879E-006  0.9283762E+02  0.7818608E-02  0.1347980E+00
          2   -1    0    0  502    0  0.00000000000E+00  0.00000000000E+00  0.58414805371E+03  0.58414805371E+03  0.00000000000E+00 0. -1.
          1   -1    0    0  501    0 -0.00000000000E+00 -0.00000000000E+00 -0.21579094682E+03  0.21579094682E+03  0.00000000000E+00 0. -1.
         25    2    1    2    0    0 -0.87184710648E+02 -0.11571457805E+01  0.14486499802E+03  0.21027498972E+03  0.12500876326E+03 0.  0.
          2    1    1    2  501    0  0.75831729242E+02 -0.56220132713E+02 -0.16860280132E+03  0.19323058530E+03  0.00000000000E+00 0. -1.
          1    1    1    2  502    0  0.11352981406E+02  0.57377278494E+02  0.39209491018E+03  0.39643342551E+03  0.00000000000E+00 0. -1.
         22    1    3    3    0    0 -0.82146125006E+02 -0.54654859858E+02  0.95027224336E+02  0.13698654286E+03  0.00000000000E+00 0. -1.
         22    1    3    3    0    0 -0.50385856420E+01  0.53497714078E+02  0.49837773687E+02  0.73288446858E+02  0.00000000000E+00 0. -1.
</event>
<event>
 7    1  0.5622879E-006  0.8589715E+02  0.7818608E-02  0.1324541E+00
          2   -1    0    0  502    0  0.00000000000E+00  0.00000000000E+00  0.11285969826E+04  0.11285969826E+04  0.00000000000E+00 0. -1.
          1   -1    0    0  501    0 -0.00000000000E+00 -0.00000000000E+00 -0.22949591918E+03  0.22949591918E+03  0.00000000000E+00 0. -1.
         25    2    1    2    0    0 -0.13829043731E+02 -0.51049502974E+02  0.42340343929E+03  0.44462668088E+03  0.12500047496E+03 0.  0.
          2    1    1    2  501    0 -0.77998800252E+02  0.35979269780E+02 -0.20717819735E+03  0.22427912554E+03  0.00000000000E+00 0. -1.
          1    1    1    2  502    0  0.91827843983E+02  0.15070233194E+02  0.68287582151E+03  0.68918709540E+03  0.00000000000E+00 0. -1.
         22    1    3    3    0    0  0.23767531670E+02 -0.24845759694E+02  0.37985505295E+03  0.38140800803E+03  0.00000000000E+00 0.  1.
         22    1    3    3    0    0 -0.37596575401E+02 -0.26203743279E+02  0.43548386342E+02  0.63218672849E+02  0.00000000000E+00 0.  1.
</event>
<event>
 7    1  0.5622879E-006  0.6392380E+02  0.7818608E-02  0.1487410E+00
          2   -1    0    0  502    0  0.00000000000E+00  0.00000000000E+00  0.82938787742E+03  0.82938787742E+03  0.00000000000E+00 0. -1.
          1   -1    0    0  501    0 -0.00000000000E+00 -0.00000000000E+00 -0.15443426997E+04  0.15443426997E+04  0.00000000000E+00 0. -1.
         25    2    1    2    0    0  0.20787093123E+01 -0.43295802601E+02  0.65727851259E+02  0.14772765314E+03  0.12499784605E+03 0.  0.
          2    1    1    2  501    0 -0.26833801187E+02  0.58186158183E+02 -0.15023709325E+04  0.15037367125E+04  0.00000000000E+00 0. -1.
          1    1    1    2  502    0  0.24755091875E+02 -0.14890355583E+02  0.72168825888E+03  0.72226621150E+03  0.00000000000E+00 0. -1.
         22    1    3    3    0    0 -0.34882315104E+02 -0.82653709495E+01 -0.24986697977E+02  0.43696994631E+02  0.00000000000E+00 0.  1.
         22    1    3    3    0    0  0.36961024416E+02 -0.35030431651E+02  0.90714549237E+02  0.10403065851E+03  0.00000000000E+00 0.  1.
</event>
<event>
 7    1  0.5622879E-006  0.1089013E+03  0.7818608E-02  0.1270210E+00
          2   -1    0    0  502    0  0.00000000000E+00  0.00000000000E+00  0.94314821012E+03  0.94314821012E+03  0.00000000000E+00 0. -1.
          1   -1    0    0  501    0 -0.00000000000E+00 -0.00000000000E+00 -0.38799422605E+03  0.38799422605E+03  0.00000000000E+00 0. -1.
         25    2    1    2    0    0  0.14320487675E+03  0.99696738345E+02  0.43675171321E+03  0.48664591839E+03  0.12500045811E+03 0.  0.
          2    1    1    2  501    0 -0.10809637222E+03 -0.48349877879E+01 -0.34945816457E+03  0.36582675077E+03  0.00000000000E+00 0. -1.
          1    1    1    2  502    0 -0.35108504527E+02 -0.94861750557E+02  0.46786043543E+03  0.47866976701E+03  0.00000000000E+00 0. -1.
         22    1    3    3    0    0  0.14533250334E+03  0.60266543273E+02  0.40945437861E+03  0.43864163155E+03  0.00000000000E+00 0.  1.
         22    1    3    3    0    0 -0.21276265931E+01  0.39430195072E+02  0.27297334603E+02  0.48004286837E+02  0.00000000000E+00 0.  1.
</event>
<event>
 7    1  0.7863773E-006  0.1245378E+03  0.7818608E-02  0.1264740E+00
          2   -1    0    0  502    0  0.00000000000E+00  0.00000000000E+00  0.13070951123E+04  0.13070951123E+04  0.00000000000E+00 0. -1.
          1   -1    0    0  501    0 -0.00000000000E+00 -0.00000000000E+00 -0.19171534053E+04  0.19171534053E+04  0.00000000000E+00 0. -1.
         25    2    1    2    0    0  0.57203501919E+02 -0.14437217654E+02 -0.17203560690E+03  0.22069099127E+03  0.12501035837E+03 0.  0.
          2    1    1    2  501    0 -0.12162825644E+03 -0.53013566972E+02 -0.17165310770E+04  0.17216511869E+04  0.00000000000E+00 0. -1.
          1    1    1    2  502    0  0.64424754521E+02  0.67450784626E+02  0.12785083910E+04  0.12819063394E+04  0.00000000000E+00 0. -1.
         22    1    3    3    0    0 -0.18663110252E+02 -0.45805462351E+02 -0.99609685545E+02  0.11121394481E+03  0.00000000000E+00 0.  1.
         22    1    3    3    0    0  0.75866612170E+02  0.31368244697E+02 -0.72425921355E+02  0.10947704646E+03  0.00000000000E+00 0.  1.
</event>
<event>
 7    1  0.5622879E-006  0.8759417E+02  0.7818608E-02  0.1329854E+00
          2   -1    0    0  502    0  0.00000000000E+00  0.00000000000E+00  0.10099550839E+04  0.10099550839E+04  0.00000000000E+00 0. -1.
          1   -1    0    0  501    0 -0.00000000000E+00 -0.00000000000E+00 -0.39231275766E+03  0.39231275766E+03  0.00000000000E+00 0. -1.
         25    2    1    2    0    0 -0.83671213071E+02  0.42901574602E+02  0.50572678526E+03  0.52936303375E+03  0.12499689265E+03 0.  0.
          2    1    1    2  501    0 -0.46463642099E+01 -0.72400675002E+02 -0.37256215207E+03  0.37956027663E+03  0.00000000000E+00 0. -1.
          1    1    1    2  502    0  0.88317577281E+02  0.29499100400E+02  0.48447769306E+03  0.49334453119E+03  0.00000000000E+00 0. -1.
         22    1    3    3    0    0 -0.82789269688E+02  0.72295241842E+02  0.47194552422E+03  0.48457532231E+03  0.00000000000E+00 0.  1.
         22    1    3    3    0    0 -0.88194338322E+00 -0.29393667240E+02  0.33781261047E+02  0.44787711438E+02  0.00000000000E+00 0.  1.
</event>
<event>
 7    1  0.5622879E-006  0.8086846E+02  0.7818608E-02  0.1404258E+00
          2   -1    0    0  502    0  0.00000000000E+00  0.00000000000E+00  0.10665158332E+04  0.10665158332E+04  0.00000000000E+00 0. -1.
          1   -1    0    0  501    0 -0.00000000000E+00 -0.00000000000E+00 -0.20546991189E+03  0.20546991189E+03  0.00000000000E+00 0. -1.
         25    2    1    2    0    0 -0.67902911097E+01  0.42423261233E+02  0.11383505975E+03  0.17443902364E+03  0.12499884397E+03 0.  0.
          2    1    1    2  501    0  0.11451526960E+02  0.40732586515E+02 -0.17069966726E+03  0.17586545277E+03  0.00000000000E+00 0. -1.
          1    1    1    2  502    0 -0.46612358498E+01 -0.83155847749E+02  0.91791052882E+03  0.92168126869E+03  0.00000000000E+00 0. -1.
         22    1    3    3    0    0  0.41169258669E+02  0.84916542507E+01 -0.45467467191E+01  0.42281070906E+02  0.00000000000E+00 0. -1.
         22    1    3    3    0    0 -0.47959549778E+02  0.33931606983E+02  0.11838180647E+03  0.13215795274E+03  0.00000000000E+00 0. -1.
</event>
<event>
 7    1  0.5622879E-006  0.3846193E+03  0.7818608E-02  0.1285361E+00
          2   -1    0    0  502    0  0.00000000000E+00  0.00000000000E+00  0.55521272175E+03  0.55521272175E+03  0.00000000000E+00 0. -1.
          1   -1    0    0  501    0 -0.00000000000E+00 -0.00000000000E+00 -0.44865795240E+03  0.44865795240E+03  0.00000000000E+00 0. -1.
         25    2    1    2    0    0  0.31220538576E+03 -0.23555126669E+03  0.85712757543E+02  0.41943912274E+03  0.12500359492E+03 0.  0.
          2    1    1    2  501    0 -0.29044043634E+03  0.24740130442E+03 -0.15136072515E+03  0.41045477413E+03  0.00000000000E+00 0. -1.
          1    1    1    2  502    0 -0.21764949419E+02 -0.11850037728E+02  0.17220273695E+03  0.17397677727E+03  0.00000000000E+00 0. -1.
         22    1    3    3    0    0  0.12244092140E+03 -0.10564412781E+03  0.98081907732E+02  0.18913625141E+03  0.00000000000E+00 0.  1.
         22    1    3    3    0    0  0.18976446436E+03 -0.12990713888E+03 -0.12369150189E+02  0.23030287133E+03  0.00000000000E+00 0.  1.
</event>
<event>
 7    1  0.5622879E-006  0.1125378E+03  0.7818608E-02  0.1298007E+00
          2   -1    0    0  502    0  0.00000000000E+00  0.00000000000E+00  0.16354156912E+03  0.16354156912E+03  0.00000000000E+00 0. -1.
          1   -1    0    0  501    0 -0.00000000000E+00 -0.00000000000E+00 -0.71723630143E+03  0.71723630143E+03  0.00000000000E+00 0. -1.
         25    2    1    2    0    0 -0.50875570557E+02  0.93803498786E+02 -0.32717425084E+03  0.36613746936E+03  0.12500494389E+03 0.  0.
          2    1    1    2  501    0  0.72939637895E+02  0.18546628114E+02 -0.34308884534E+03  0.35124652879E+03  0.00000000000E+00 0. -1.
          1    1    1    2  502    0 -0.22064067338E+02 -0.11235012690E+03  0.11656836387E+03  0.16339387240E+03  0.00000000000E+00 0. -1.
         22    1    3    3    0    0  0.13872023707E+02  0.11368717846E+02 -0.20232680999E+03  0.20312020783E+03  0.00000000000E+00 0. -1.
         22    1    3    3    0    0 -0.64747594265E+02  0.82434780940E+02 -0.12484744084E+03  0.16301726153E+03  0.00000000000E+00 0. -1.
</event>
<event>
 7    1  0.5622879E-006  0.1596830E+03  0.7818608E-02  0.1311418E+00
          2   -1    0    0  502    0  0.00000000000E+00  0.00000000000E+00  0.10268815389E+04  0.10268815389E+04  0.00000000000E+00 0. -1.
          1   -1    0    0  501    0 -0.00000000000E+00 -0.00000000000E+00 -0.79296478102E+03  0.79296478102E+03  0.00000000000E+00 0. -1.
         25    2    1    2    0    0 -0.17312641407E+03 -0.10653750786E+03  0.12211150649E+03  0.26806960309E+03  0.12500838474E+03 0.  0.
          2    1    1    2  501    0  0.12883969052E+03  0.91053608202E+02 -0.71066652423E+03  0.72796794853E+03  0.00000000000E+00 0. -1.
          1    1    1    2  502    0  0.44286723546E+02  0.15483899656E+02  0.82247177563E+03  0.82380876831E+03  0.00000000000E+00 0. -1.
         22    1    3    3    0    0  0.16331913228E+02 -0.33991667368E+01 -0.53433701608E+01  0.17516772787E+02  0.00000000000E+00 0.  1.
         22    1    3    3    0    0 -0.18945832730E+03 -0.10313834112E+03  0.12745487666E+03  0.25055283031E+03  0.00000000000E+00 0.  1.
</event>
<event>
 7    1  0.5622879E-006  0.9260163E+02  0.7818608E-02  0.1444954E+00
          2   -1    0    0  502    0  0.00000000000E+00  0.00000000000E+00  0.25099573791E+03  0.25099573791E+03  0.00000000000E+00 0. -1.
          1   -1    0    0  501    0 -0.00000000000E+00 -0.00000000000E+00 -0.39700799719E+03  0.39700799719E+03  0.00000000000E+00 0. -1.
         25    2    1    2    0    0 -0.73011913552E+02 -0.11671666379E+02 -0.15885635892E+03  0.21522868152E+03  0.12498430006E+03 0.  0.
          2    1    1    2  501    0  0.10007277742E+03  0.10795603973E+02 -0.19698267154E+03  0.22120867689E+03  0.00000000000E+00 0. -1.
          1    1    1    2  502    0 -0.27060863864E+02  0.87606240662E+00  0.20982677119E+03  0.21156637669E+03  0.00000000000E+00 0. -1.
         22    1    3    3    0    0  0.23976882002E+02  0.16182874405E+02 -0.23647027425E+01  0.29023578581E+02  0.00000000000E+00 0. -1.
         22    1    3    3    0    0 -0.96988795555E+02 -0.27854540785E+02 -0.15649165618E+03  0.18620510294E+03  0.00000000000E+00 0. -1.
</event>
<event>
 7    1  0.5622879E-006  0.1858028E+03  0.7818608E-02  0.1247312E+00
          2   -1    0    0  502    0  0.00000000000E+00  0.00000000000E+00  0.21515070756E+04  0.21515070756E+04  0.00000000000E+00 0. -1.
          1   -1    0    0  501    0 -0.00000000000E+00 -0.00000000000E+00 -0.14414076193E+04  0.14414076193E+04  0.00000000000E+00 0. -1.
         25    2    1    2    0    0  0.16615180288E+03  0.92696389887E+02 -0.21719402023E+03  0.31462928293E+03  0.12497720172E+03 0.  0.
          2    1    1    2  501    0 -0.51394860641E+02  0.53630746966E+02 -0.11702047627E+04  0.11725599667E+04  0.00000000000E+00 0. -1.
          1    1    1    2  502    0 -0.11475694224E+03 -0.14632713685E+03  0.20974982393E+04  0.21057254453E+04  0.00000000000E+00 0. -1.
         22    1    3    3    0    0 -0.19744006063E+02 -0.30022952354E+00 -0.17416573566E+02  0.26329697073E+02  0.00000000000E+00 0.  1.
         22    1    3    3    0    0  0.18589580895E+03  0.92996619411E+02 -0.19977744667E+03  0.28829958585E+03  0.00000000000E+00 0.  1.
</event>
<event>
 7    1  0.5622879E-006  0.9291320E+02  0.7818608E-02  0.1374415E+00
          2   -1    0    0  502    0  0.00000000000E+00  0.00000000000E+00  0.19258814246E+04  0.19258814246E+04  0.00000000000E+00 0. -1.
          1   -1    0    0  501    0 -0.00000000000E+00 -0.00000000000E+00 -0.11848494855E+04  0.11848494855E+04  0.00000000000E+00 0. -1.
         25    2    1    2    0    0  0.78725634467E+01  0.61698939906E+02  0.88027807611E+03  0.89128170580E+03  0.12499940549E+03 0.  0.
          2    1    1    2  501    0 -0.52114943072E+02 -0.77014853686E+02 -0.11769859971E+04  0.11806537564E+04  0.00000000000E+00 0. -1.
          1    1    1    2  502    0  0.44242379625E+02  0.15315913780E+02  0.10377398601E+04  0.10387954479E+04  0.00000000000E+00 0. -1.
         22    1    3    3    0    0  0.16142305741E+02  0.90939843135E+01  0.75409339147E+03  0.75432096461E+03  0.00000000000E+00 0. -1.
         22    1    3    3    0    0 -0.82697422945E+01  0.52604955593E+02  0.12618468464E+03  0.13696074119E+03  0.00000000000E+00 0. -1.
</event>
<event>
 7    1  0.5622879E-006  0.1067675E+03  0.7818608E-02  0.1439004E+00
          2   -1    0    0  502    0  0.00000000000E+00  0.00000000000E+00  0.99238623241E+03  0.99238623241E+03  0.00000000000E+00 0. -1.
          1   -1    0    0  501    0 -0.00000000000E+00 -0.00000000000E+00 -0.12114906425E+03  0.12114906425E+03  0.00000000000E+00 0. -1.
         25    2    1    2    0    0 -0.13626189571E+02  0.82977790574E+02  0.91382776086E+02  0.17619934216E+03  0.12499763854E+03 0.  0.
          2    1    1    2  501    0 -0.26655672528E+01  0.24402283335E+02 -0.73297470735E+02  0.77298744472E+02  0.00000000000E+00 0. -1.
          1    1    1    2  502    0  0.16291756824E+02 -0.10738007391E+03  0.85315186282E+03  0.86003721003E+03  0.00000000000E+00 0. -1.
         22    1    3    3    0    0  0.45929827304E+02  0.65146798912E+02  0.21279692069E+02  0.82501392347E+02  0.00000000000E+00 0.  1.
         22    1    3    3    0    0 -0.59556016875E+02  0.17830991662E+02  0.70103084017E+02  0.93697949809E+02  0.00000000000E+00 0.  1.
</event>
<event>
 7    1  0.5622879E-006  0.1775618E+03  0.7818608E-02  0.1234447E+00
          2   -1    0    0  502    0  0.00000000000E+00  0.00000000000E+00  0.31044879171E+04  0.31044879171E+04  0.00000000000E+00 0. -1.
          1   -1    0    0  501    0 -0.00000000000E+00 -0.00000000000E+00 -0.10504999418E+03  0.10504999418E+03  0.00000000000E+00 0. -1.
         25    2    1    2    0    0 -0.13780156528E+03  0.10286610973E+03  0.48690019922E+03  0.53128615019E+03  0.12498984543E+03 0.  0.
          2    1    1    2  501    0  0.75553515543E+02 -0.16585935652E+03  0.19114962660E+02  0.18325676428E+03  0.00000000000E+00 0. -1.
          1    1    1    2  502    0  0.62248049733E+02  0.62993246784E+02  0.24934227610E+04  0.24949949968E+04  0.00000000000E+00 0. -1.
         22    1    3    3    0    0 -0.39177014711E+02  0.92971955855E+02  0.33537201417E+03  0.35021851885E+03  0.00000000000E+00 0.  1.
         22    1    3    3    0    0 -0.98624550565E+02  0.98941538800E+01  0.15152818505E+03  0.18106763134E+03  0.00000000000E+00 0.  1.
</event>
<event>
 7    1  0.5622879E-006  0.3061168E+02  0.7818608E-02  0.1614591E+00
          2   -1    0    0  502    0  0.00000000000E+00  0.00000000000E+00  0.87499393034E+03  0.87499393034E+03  0.00000000000E+00 0. -1.
          1   -1    0    0  501    0 -0.00000000000E+00 -0.00000000000E+00 -0.12143553347E+03  0.12143553347E+03  0.00000000000E+00 0. -1.
         25    2    1    2    0    0  0.45149170767E+02 -0.74478413258E+01 -0.43104321147E+02  0.13991759815E+03  0.12500013524E+03 0.  0.
          2    1    1    2  501    0 -0.26769260605E+02 -0.11840500610E+02 -0.22497883963E+02  0.36918092459E+02  0.00000000000E+00 0. -1.
          1    1    1    2  502    0 -0.18379910162E+02  0.19288341935E+02  0.81916060198E+03  0.81959377320E+03  0.00000000000E+00 0. -1.
         22    1    3    3    0    0 -0.49064337678E+01 -0.29709173487E+02 -0.71955664074E+02  0.78002087625E+02  0.00000000000E+00 0.  1.
         22    1    3    3    0    0  0.50055604535E+02  0.22261332161E+02  0.28851342927E+02  0.61915510526E+02  0.00000000000E+00 0.  1.
</event>
<event>
 7    1  0.5622879E-006  0.2713086E+02  0.7818608E-02  0.1659219E+00
          2   -1    0    0  502    0  0.00000000000E+00  0.00000000000E+00  0.33239687658E+03  0.33239687658E+03  0.00000000000E+00 0. -1.
          1   -1    0    0  501    0 -0.00000000000E+00 -0.00000000000E+00 -0.65363338977E+03  0.65363338977E+03  0.00000000000E+00 0. -1.
         25    2    1    2    0    0  0.14658343082E+01 -0.21014476063E+02 -0.15188124412E+03  0.19782710571E+03  0.12499557817E+03 0.  0.
          2    1    1    2  501    0  0.21455958344E+02  0.17023452828E+02 -0.47794922412E+03  0.47873334638E+03  0.00000000000E+00 0. -1.
          1    1    1    2  502    0 -0.22921792652E+02  0.39910232349E+01  0.30859395506E+03  0.30946981427E+03  0.00000000000E+00 0. -1.
         22    1    3    3    0    0  0.97301002758E+01 -0.65317673271E+02 -0.13391077925E+03  0.14930897525E+03  0.00000000000E+00 0.  1.
         22    1    3    3    0    0 -0.82642659675E+01  0.44303197208E+02 -0.17970464875E+02  0.48518130453E+02  0.00000000000E+00 0.  1.
</event>
<event>
 7    1  0.5622879E-006  0.1908694E+03  0.7818608E-02  0.1209868E+00
          2   -1    0    0  502    0  0.00000000000E+00  0.00000000000E+00  0.45903014449E+03  0.45903014449E+03  0.00000000000E+00 0. -1.
          1   -1    0    0  501    0 -0.00000000000E+00 -0.00000000000E+00 -0.93919109300E+03  0.93919109300E+03  0.00000000000E+00 0. -1.
         25    2    1    2    0    0 -0.63341165635E+02 -0.19987263398E+03 -0.45701611358E+02  0.24834407361E+03  0.12499987416E+03 0.  0.
          2    1    1    2  501    0 -0.42410871623E+02  0.18691779883E+03 -0.77225119138E+03  0.79568137350E+03  0.00000000000E+00 0. -1.
          1    1    1    2  502    0  0.10575203726E+03  0.12954835154E+02  0.33779185423E+03  0.35419579038E+03  0.00000000000E+00 0. -1.
         22    1    3    3    0    0 -0.82587457420E+02 -0.59790041043E+02 -0.95992632604E+01  0.10240938915E+03  0.00000000000E+00 0. -1.
         22    1    3    3    0    0  0.19246291784E+02 -0.14008259294E+03 -0.36102348098E+02  0.14593468446E+03  0.00000000000E+00 0. -1.
</event>
<event>
 7    1  0.5622879E-006  0.9237802E+02  0.7818608E-02  0.1461484E+00
          2   -1    0    0  502    0  0.00000000000E+00  0.00000000000E+00  0.35702600159E+02  0.35702600159E+02  0.00000000000E+00 0. -1.
          1   -1    0    0  501    0 -0.00000000000E+00 -0.00000000000E+00 -0.94889915334E+03  0.94889915334E+03  0.00000000000E+00 0. -1.
         25    2    1    2    0    0  0.86999236668E+02  0.11761161186E+02 -0.49188658674E+03  0.51505741664E+03  0.12499814451E+03 0.  0.
          2    1    1    2  501    0  0.59654636851E+01 -0.23290121087E+02 -0.35248071122E+03  0.35329968622E+03  0.00000000000E+00 0. -1.
          1    1    1    2  502    0 -0.92964700353E+02  0.11528959902E+02 -0.68829255219E+02  0.11624465064E+03  0.00000000000E+00 0. -1.
         22    1    3    3    0    0  0.79449530023E+02 -0.33192935820E+02 -0.17638156397E+03  0.19627647571E+03  0.00000000000E+00 0.  1.
         22    1    3    3    0    0  0.75497066448E+01  0.44954097006E+02 -0.31550502277E+03  0.31878094093E+03  0.00000000000E+00 0.  1.
</event>
<event>
 7    1  0.5622879E-006  0.1169722E+03  0.7818608E-02  0.1265335E+00
          2   -1    0    0  502    0  0.00000000000E+00  0.00000000000E+00  0.11034509299E+04  0.11034509299E+04  0.00000000000E+00 0. -1.
          1   -1    0    0  501    0 -0.00000000000E+00 -0.00000000000E+00 -0.47559997346E+03  0.47559997346E+03  0.00000000000E+00 0. -1.
         25    2    1    2    0    0 -0.18210926526E+03  0.93684520737E+02  0.19484442897E+02  0.24071459204E+03  0.12499318937E+03 0.  0.
          2    1    1    2  501    0  0.97294797727E+02 -0.16789166946E+02 -0.35485543439E+03  0.36833481115E+03  0.00000000000E+00 0. -1.
          1    1    1    2  502    0  0.84814467530E+02 -0.76895353791E+02  0.96322194790E+03  0.97000150012E+03  0.00000000000E+00 0. -1.
         22    1    3    3    0    0 -0.11038509926E+03  0.56549183481E+02  0.72915925323E+02  0.14387290383E+03  0.00000000000E+00 0.  1.
         22    1    3    3    0    0 -0.71724165996E+02  0.37135337257E+02 -0.53431482427E+02  0.96841688209E+02  0.00000000000E+00 0.  1.
</event>
<event>
 7    1  0.5622879E-006  0.1085802E+03  0.7818608E-02  0.1313725E+00
          2   -1    0    0  502    0  0.00000000000E+00  0.00000000000E+00  0.75781658018E+02  0.75781658018E+02  0.00000000000E+00 0. -1.
          1   -1    0    0  501    0 -0.00000000000E+00 -0.00000000000E+00 -0.14313347667E+04  0.14313347667E+04  0.00000000000E+00 0. -1.
         25    2    1    2    0    0  0.18228455579E+02  0.75293073639E+02 -0.15086144860E+03  0.21069959123E+03  0.12503526519E+03 0.  0.
          2    1    1    2  501    0  0.42963984475E+02 -0.10395494485E+03 -0.12215947041E+04  0.12267624691E+04  0.00000000000E+00 0. -1.
          1    1    1    2  502    0 -0.61192440054E+02  0.28661871210E+02  0.16903044012E+02  0.69654364385E+02  0.00000000000E+00 0. -1.
         22    1    3    3    0    0 -0.30404620220E+02  0.83531121997E+02 -0.12920126751E+03  0.15682747463E+03  0.00000000000E+00 0.  1.
         22    1    3    3    0    0  0.48633075799E+02 -0.82380483574E+01 -0.21660181088E+02  0.53872116602E+02  0.00000000000E+00 0.  1.
</event>
<event>
 7    1  0.5622879E-006  0.8410082E+02  0.7818608E-02  0.1364873E+00
          2   -1    0    0  502    0  0.00000000000E+00  0.00000000000E+00  0.54661535587E+03  0.54661535587E+03  0.00000000000E+00 0. -1.
          1   -1    0    0  501    0 -0.00000000000E+00 -0.00000000000E+00 -0.31977616204E+03  0.31977616204E+03  0.00000000000E+00 0. -1.
         25    2    1    2    0    0  0.32604840911E+02  0.47423111046E+02 -0.20053571172E+02  0.13906547037E+03  0.12500012888E+03 0.  0.
          2    1    1    2  501    0  0.45861199847E+01 -0.89260338568E+02 -0.23020948971E+03  0.24695110790E+03  0.00000000000E+00 0. -1.
          1    1    1    2  502    0 -0.37190960895E+02  0.41837227521E+02  0.47710225472E+03  0.48037493964E+03  0.00000000000E+00 0. -1.
         22    1    3    3    0    0 -0.38339716850E+02  0.45433506198E+02  0.12874045872E+02  0.60826626001E+02  0.00000000000E+00 0. -1.
         22    1    3    3    0    0  0.70944557761E+02  0.19896048484E+01 -0.32927617043E+02  0.78238844364E+02  0.00000000000E+00 0. -1.
</event>
<event>
 7    1  0.5622879E-006  0.8096253E+02  0.7818608E-02  0.1453148E+00
          2   -1    0    0  502    0  0.00000000000E+00  0.00000000000E+00  0.59999381344E+03  0.59999381344E+03  0.00000000000E+00 0. -1.
          1   -1    0    0  501    0 -0.00000000000E+00 -0.00000000000E+00 -0.33581982763E+03  0.33581982763E+03  0.00000000000E+00 0. -1.
         25    2    1    2    0    0  0.47916003444E+02  0.81489201960E+02  0.18258877341E+02  0.15778041463E+03  0.12499935686E+03 0.  0.
          2    1    1    2  501    0 -0.28971654493E+02 -0.32284921226E+01 -0.26207994095E+03  0.26369618005E+03  0.00000000000E+00 0. -1.
          1    1    1    2  502    0 -0.18944348951E+02 -0.78260709838E+02  0.50799504942E+03  0.51433704640E+03  0.00000000000E+00 0. -1.
         22    1    3    3    0    0  0.55421603500E+02  0.84381593876E+02 -0.32755779224E+02  0.10613551994E+03  0.00000000000E+00 0.  1.
         22    1    3    3    0    0 -0.75056000564E+01 -0.28923919154E+01  0.51014656565E+02  0.51644894691E+02  0.00000000000E+00 0.  1.
</event>
<event>
 7    1  0.5622879E-006  0.1439712E+03  0.7818608E-02  0.1305451E+00
          2   -1    0    0  502    0  0.00000000000E+00  0.00000000000E+00  0.16979066419E+04  0.16979066419E+04  0.00000000000E+00 0. -1.
          1   -1    0    0  501    0 -0.00000000000E+00 -0.00000000000E+00 -0.60614219214E+02  0.60614219214E+02  0.00000000000E+00 0. -1.
         25    2    1    2    0    0 -0.11828569217E+03 -0.74769096748E+02  0.66196913634E+03  0.68804823773E+03  0.12500126870E+03 0.  0.
          2    1    1    2  501    0  0.30830569743E+02 -0.45471512885E+02 -0.24142251374E+02  0.60008589519E+02  0.00000000000E+00 0. -1.
          1    1    1    2  502    0  0.87455122422E+02  0.12024060963E+03  0.99946553767E+03  0.10104640338E+04  0.00000000000E+00 0. -1.
         22    1    3    3    0    0  0.10805160000E+02 -0.13363954361E+02  0.27471310871E+03  0.27525013870E+03  0.00000000000E+00 0. -1.
         22    1    3    3    0    0 -0.12909085217E+03 -0.61405142387E+02  0.38725602763E+03  0.41279809903E+03  0.00000000000E+00 0. -1.
</event>
<event>
 7    1  0.5622879E-006  0.3951419E+02  0.7818608E-02  0.1531423E+00
          2   -1    0    0  502    0  0.00000000000E+00  0.00000000000E+00  0.11775572045E+04  0.11775572045E+04  0.00000000000E+00 0. -1.
          1   -1    0    0  501    0 -0.00000000000E+00 -0.00000000000E+00 -0.32580612196E+02  0.32580612196E+02  0.00000000000E+00 0. -1.
         25    2    1    2    0    0 -0.26028265142E+02  0.28710558906E+02  0.26748977999E+03  0.29778836466E+03  0.12500144379E+03 0.  0.
          2    1    1    2  501    0 -0.13830981780E+02 -0.31790693292E+02  0.72498252674E+00  0.34676646848E+02  0.00000000000E+00 0. -1.
          1    1    1    2  502    0  0.39859246921E+02  0.30801343853E+01  0.87676182981E+03  0.87767280521E+03  0.00000000000E+00 0. -1.
         22    1    3    3    0    0  0.41749286106E+02  0.14849564252E+02  0.18449549640E+03  0.18974219520E+03  0.00000000000E+00 0.  1.
         22    1    3    3    0    0 -0.67777551248E+02  0.13860994654E+02  0.82994283594E+02  0.10804616946E+03  0.00000000000E+00 0.  1.
</event>
<event>
 7    1  0.5622879E-006  0.7424178E+02  0.7818608E-02  0.1371637E+00
          2   -1    0    0  502    0  0.00000000000E+00  0.00000000000E+00  0.35600519085E+03  0.35600519085E+03  0.00000000000E+00 0. -1.
          1   -1    0    0  501    0 -0.00000000000E+00 -0.00000000000E+00 -0.78682898622E+03  0.78682898622E+03  0.00000000000E+00 0. -1.
         25    2    1    2    0    0  0.13745135644E+01  0.10590602245E+03  0.70572404580E+02  0.17839040958E+03  0.12499879626E+03 0.  0.
          2    1    1    2  501    0  0.39849330989E+02 -0.62379355179E+02 -0.72712846865E+03  0.73088642281E+03  0.00000000000E+00 0. -1.
          1    1    1    2  502    0 -0.41223844554E+02 -0.43526667266E+02  0.22573226870E+03  0.23355734468E+03  0.00000000000E+00 0. -1.
         22    1    3    3    0    0 -0.32398618429E+02  0.98656334104E+02  0.46235300402E+01  0.10394286779E+03  0.00000000000E+00 0.  1.
         22    1    3    3    0    0  0.33773131994E+02  0.72496883418E+01  0.65948874539E+02  0.74447541791E+02  0.00000000000E+00 0.  1.
</event>
<event>
 7    1  0.5622879E-006  0.5331517E+02  0.7818608E-02  0.1443631E+00
          2   -1    0    0  502    0  0.00000000000E+00  0.00000000000E+00  0.31690990362E+03  0.31690990362E+03  0.00000000000E+00 0. -1.
          1   -1    0    0  501    0 -0.00000000000E+00 -0.00000000000E+00 -0.12146434180E+04  0.12146434180E+04  0.00000000000E+00 0. -1.
         25    2    1    2    0    0 -0.29052215191E+02 -0.54115153058E+02 -0.17899551092E+03  0.22680047493E+03  0.12500632585E+03 0.  0.
          2    1    1    2  501    0 -0.18296691646E+02  0.50451220347E+02 -0.10091034009E+04  0.10105294495E+04  0.00000000000E+00 0. -1.
          1    1    1    2  502    0  0.47348906837E+02  0.36639327108E+01  0.29036539749E+03  0.29422339717E+03  0.00000000000E+00 0. -1.
         22    1    3    3    0    0 -0.44231393017E+01 -0.27303212613E+02  0.13580465171E+02  0.30813286331E+02  0.00000000000E+00 0. -1.
         22    1    3    3    0    0 -0.24629075889E+02 -0.26811940445E+02 -0.19257597609E+03  0.19598718860E+03  0.00000000000E+00 0. -1.
</event>
<event>
 7    1  0.5622879E-006  0.1347252E+03  0.7818608E-02  0.1342570E+00
          2   -1    0    0  502    0  0.00000000000E+00  0.00000000000E+00  0.26091770653E+04  0.26091770653E+04  0.00000000000E+00 0. -1.
          1   -1    0    0  501    0 -0.00000000000E+00 -0.00000000000E+00 -0.13376779093E+03  0.13376779093E+03  0.00000000000E+00 0. -1.
         25    2    1    2    0    0 -0.43435659248E+02  0.11593786163E+03  0.60511569298E+02  0.18604117867E+03  0.12498570274E+03 0.  0.
          2    1    1    2  501    0  0.10735019720E+02 -0.14264773573E+03  0.14214938078E+01  0.14305816230E+03  0.00000000000E+00 0. -1.
          1    1    1    2  502    0  0.32700639528E+02  0.26709874101E+02  0.24134762113E+04  0.24138455153E+04  0.00000000000E+00 0. -1.
         22    1    3    3    0    0 -0.31539514363E+02 -0.15845046259E+02 -0.92093078654E+01  0.36477634361E+02  0.00000000000E+00 0.  1.
         22    1    3    3    0    0 -0.11896144885E+02  0.13178290789E+03  0.69720877163E+02  0.14956354431E+03  0.00000000000E+00 0.  1.
</event>
<event>
 7    1  0.5622879E-006  0.2725935E+02  0.7818608E-02  0.1646275E+00
          2   -1    0    0  502    0  0.00000000000E+00  0.00000000000E+00  0.14964777249E+04  0.14964777249E+04  0.00000000000E+00 0. -1.
          1   -1    0    0  501    0 -0.00000000000E+00 -0.00000000000E+00 -0.15907955257E+03  0.15907955257E+03  0.00000000000E+00 0. -1.
         25    2    1    2    0    0  0.22625264092E+02  0.46503493931E+02  0.14608400524E+03  0.19910024685E+03  0.12500357668E+03 0.  0.
          2    1    1    2  501    0 -0.82187115230E+01 -0.23511649521E+02 -0.13126123060E+03  0.13360335154E+03  0.00000000000E+00 0. -1.
          1    1    1    2  502    0 -0.14406552569E+02 -0.22991844410E+02  0.13225753977E+04  0.13228536791E+04  0.00000000000E+00 0. -1.
         22    1    3    3    0    0 -0.29288663098E+02 -0.25842146226E+02  0.77210374225E+02  0.86527938815E+02  0.00000000000E+00 0. -1.
         22    1    3    3    0    0  0.51913927190E+02  0.72345640157E+02  0.68873631015E+02  0.11257230803E+03  0.00000000000E+00 0. -1.
</event>
<event>
 7    1  0.5622879E-006  0.6251347E+02  0.7818608E-02  0.1401447E+00
          2   -1    0    0  502    0  0.00000000000E+00  0.00000000000E+00  0.19136617276E+04  0.19136617276E+04  0.00000000000E+00 0. -1.
          1   -1    0    0  501    0 -0.00000000000E+00 -0.00000000000E+00 -0.12961687022E+02  0.12961687022E+02  0.00000000000E+00 0. -1.
         25    2    1    2    0    0 -0.79004100365E+00 -0.51862701120E+02  0.63773588283E+03  0.65193580466E+03  0.12499149257E+03 0.  0.
          2    1    1    2  501    0  0.56443547155E+02  0.45996175820E+02  0.25555215173E+03  0.26572245758E+03  0.00000000000E+00 0. -1.
          1    1    1    2  502    0 -0.55653506152E+02  0.58665252998E+01  0.10074120060E+04  0.10089651524E+04  0.00000000000E+00 0. -1.
         22    1    3    3    0    0  0.37019743356E+01 -0.83579845147E+02  0.26657027621E+03  0.27939042089E+03  0.00000000000E+00 0.  1.
         22    1    3    3    0    0 -0.44920153393E+01  0.31717144027E+02  0.37116560662E+03  0.37254538377E+03  0.00000000000E+00 0.  1.
</event>
<event>
 7    1  0.5622879E-006  0.8833808E+02  0.7818608E-02  0.1428092E+00
          2   -1    0    0  502    0  0.00000000000E+00  0.00000000000E+00  0.18441535262E+02  0.18441535262E+02  0.00000000000E+00 0. -1.
          1   -1    0    0  501    0 -0.00000000000E+00 -0.00000000000E+00 -0.18148868215E+04  0.18148868215E+04  0.00000000000E+00 0. -1.
         25    2    1    2    0    0 -0.35985093090E+02 -0.93254249284E+02 -0.15844361649E+04  0.15924992892E+04  0.12499897410E+03 0.  0.
          2    1    1    2  501    0  0.35217087984E+02  0.61049789005E+02 -0.18762982768E+03  0.20043021793E+03  0.00000000000E+00 0. -1.
          1    1    1    2  502    0  0.76800510592E+00  0.32204460279E+02 -0.24379293701E+02  0.40398849675E+02  0.00000000000E+00 0. -1.
         22    1    3    3    0    0  0.22133502574E+02 -0.18378545437E+02 -0.78883104591E+02  0.83965511125E+02  0.00000000000E+00 0. -1.
         22    1    3    3    0    0 -0.58118595664E+02 -0.74875703846E+02 -0.15055530603E+04  0.15085337781E+04  0.00000000000E+00 0. -1.
</event>
<event>
 7    1  0.5622879E-006  0.1089588E+03  0.7818608E-02  0.1355566E+00
          2   -1    0    0  502    0  0.00000000000E+00  0.00000000000E+00  0.82222325028E+03  0.82222325028E+03  0.00000000000E+00 0. -1.
          1   -1    0    0  501    0 -0.00000000000E+00 -0.00000000000E+00 -0.20050775861E+03  0.20050775861E+03  0.00000000000E+00 0. -1.
         25    2    1    2    0    0  0.11635388054E+03 -0.97714966115E+02  0.36500683764E+03  0.41465764822E+03  0.12499813433E+03 0.  0.
          2    1    1    2  501    0 -0.88835442210E+02  0.59958288023E+02 -0.15790143408E+03  0.19083918618E+03  0.00000000000E+00 0. -1.
          1    1    1    2  502    0 -0.27518438335E+02  0.37756678092E+02  0.41461008812E+03  0.41723417449E+03  0.00000000000E+00 0. -1.
         22    1    3    3    0    0  0.45646837806E+02 -0.38264199477E+02  0.29123141638E+02  0.66301886415E+02  0.00000000000E+00 0.  1.
         22    1    3    3    0    0  0.70707042739E+02 -0.59450766638E+02  0.33588369600E+03  0.34835576181E+03  0.00000000000E+00 0.  1.
</event>
<event>
 7    1  0.5622879E-006  0.1170613E+03  0.7818608E-02  0.1316957E+00
          2   -1    0    0  502    0  0.00000000000E+00  0.00000000000E+00  0.29960206769E+03  0.29960206769E+03  0.00000000000E+00 0. -1.
          1   -1    0    0  501    0 -0.00000000000E+00 -0.00000000000E+00 -0.21090280669E+03  0.21090280669E+03  0.00000000000E+00 0. -1.
         25    2    1    2    0    0 -0.24063940653E+02 -0.14549844241E+03  0.57604702752E+02  0.20171745328E+03  0.12499103646E+03 0.  0.
          2    1    1    2  501    0  0.59626503134E+02  0.96085008474E+02 -0.10836254328E+03  0.15662084636E+03  0.00000000000E+00 0. -1.
          1    1    1    2  502    0 -0.35562562482E+02  0.49413433934E+02  0.13945710153E+03  0.15216657474E+03  0.00000000000E+00 0. -1.
         22    1    3    3    0    0  0.30512976838E+02 -0.10464896479E+03  0.73812160945E+02  0.13164605080E+03  0.00000000000E+00 0. -1.
         22    1    3    3    0    0 -0.54576917491E+02 -0.40849477616E+02 -0.16207458193E+02  0.70071402479E+02  0.00000000000E+00 0. -1.
</event>
<event>
 7    1  0.5622879E-006  0.1479933E+03  0.7818608E-02  0.1305024E+00
          2   -1    0    0  502    0  0.00000000000E+00  0.00000000000E+00  0.50836061133E+03  0.50836061133E+03  0.00000000000E+00 0. -1.
          1   -1    0    0  501    0 -0.00000000000E+00 -0.00000000000E+00 -0.18894109655E+03  0.18894109655E+03  0.00000000000E+00 0. -1.
         25    2    1    2    0    0  0.10174641114E+03 -0.68483972024E+02  0.13397909187E+03  0.22049719840E+03  0.12500492326E+03 0.  0.
          2    1    1    2  501    0  0.50933424198E+02  0.16868083498E+02 -0.12000120021E+03  0.13144973942E+03  0.00000000000E+00 0. -1.
          1    1    1    2  502    0 -0.15267983534E+03  0.51615888527E+02  0.30544162312E+03  0.34535477006E+03  0.00000000000E+00 0. -1.
         22    1    3    3    0    0  0.11331730714E+03 -0.93622435626E+02  0.11836417374E+03  0.18872215073E+03  0.00000000000E+00 0.  1.
         22    1    3    3    0    0 -0.11570895998E+02  0.25138463602E+02  0.15614918139E+02  0.31775047678E+02  0.00000000000E+00 0.  1.
</event>
<event>
 7    1  0.5622879E-006  0.4552094E+02  0.7818608E-02  0.1503623E+00
          2   -1    0    0  502    0  0.00000000000E+00  0.00000000000E+00  0.48374254993E+03  0.48374254993E+03  0.00000000000E+00 0. -1.
          1   -1    0    0  501    0 -0.00000000000E+00 -0.00000000000E+00 -0.10680034168E+03  0.10680034168E+03  0.00000000000E+00 0. -1.
         25    2    1    2    0    0  0.13315080919E+02 -0.17109893407E+02  0.27099408585E+03  0.29921992849E+03  0.12499892482E+03 0.  0.
          2    1    1    2  501    0  0.96966948305E+01  0.45138857707E+02 -0.85124829945E+02  0.96838933487E+02  0.00000000000E+00 0. -1.
          1    1    1    2  502    0 -0.23011775750E+02 -0.28028964300E+02  0.19107295235E+03  0.19448402963E+03  0.00000000000E+00 0. -1.
         22    1    3    3    0    0  0.55347898128E+02  0.30340092012E+02  0.14642686324E+03  0.15945136339E+03  0.00000000000E+00 0. -1.
         22    1    3    3    0    0 -0.42032817209E+02 -0.47449985419E+02  0.12456722261E+03  0.13976856509E+03  0.00000000000E+00 0. -1.
</event>
<event>
 7    1  0.5622879E-006  0.3939261E+02  0.7818608E-02  0.1535107E+00
          2   -1    0    0  502    0  0.00000000000E+00  0.00000000000E+00  0.41184796471E+03  0.41184796471E+03  0.00000000000E+00 0. -1.
          1   -1    0    0  501    0 -0.00000000000E+00 -0.00000000000E+00 -0.15711154880E+03  0.15711154880E+03  0.00000000000E+00 0. -1.
         25    2    1    2    0    0 -0.14015073187E+02 -0.13657235681E+02 -0.49828983143E+02  0.13597581886E+03  0.12499421343E+03 0.  0.
          2    1    1    2  501    0  0.22881338575E+02 -0.25073705118E+02 -0.58562191917E+02  0.67688822308E+02  0.00000000000E+00 0. -1.
          1    1    1    2  502    0 -0.88662653884E+01  0.38730940799E+02  0.36312759097E+03  0.36529487234E+03  0.00000000000E+00 0. -1.
         22    1    3    3    0    0  0.21787526097E+02 -0.58668039942E+02 -0.44963118348E+01  0.62744338583E+02  0.00000000000E+00 0. -1.
         22    1    3    3    0    0 -0.35802599284E+02  0.45010804261E+02 -0.45332671308E+02  0.73231480278E+02  0.00000000000E+00 0. -1.
</event>
<event>
 7    1  0.5622879E-006  0.1869864E+03  0.7818608E-02  0.1294174E+00
          2   -1    0    0  502    0  0.00000000000E+00  0.00000000000E+00  0.25517787232E+04  0.25517787232E+04  0.00000000000E+00 0. -1.
          1   -1    0    0  501    0 -0.00000000000E+00 -0.00000000000E+00 -0.46612616992E+02  0.46612616992E+02  0.00000000000E+00 0. -1.
         25    2    1    2    0    0  0.15768743619E+03 -0.18723013260E+02  0.75109202978E+03  0.77780532732E+03  0.12500404498E+03 0.  0.
          2    1    1    2  501    0 -0.19187174512E+03  0.50883597438E+02  0.26666520113E+03  0.33243681589E+03  0.00000000000E+00 0. -1.
          1    1    1    2  502    0  0.34184308931E+02 -0.32160584178E+02  0.14874088753E+04  0.14881491970E+04  0.00000000000E+00 0. -1.
         22    1    3    3    0    0  0.17072959795E+03 -0.38045067243E+01  0.55409152227E+03  0.57981073200E+03  0.00000000000E+00 0.  1.
         22    1    3    3    0    0 -0.13042161760E+02 -0.14918506536E+02  0.19700050750E+03  0.19799459532E+03  0.00000000000E+00 0.  1.
</event>
<event>
 7    1  0.5622879E-006  0.8930299E+02  0.7818608E-02  0.1378506E+00
          2   -1    0    0  502    0  0.00000000000E+00  0.00000000000E+00  0.15287309919E+03  0.15287309919E+03  0.00000000000E+00 0. -1.
          1   -1    0    0  501    0 -0.00000000000E+00 -0.00000000000E+00 -0.44107459638E+03  0.44107459638E+03  0.00000000000E+00 0. -1.
         25    2    1    2    0    0  0.26523758719E+02  0.42251580809E+02 -0.12786415230E+03  0.18564130662E+03  0.12499898969E+03 0.  0.
          2    1    1    2  501    0  0.30086793489E+01  0.47008527322E+02 -0.26410943450E+03  0.26827718349E+03  0.00000000000E+00 0. -1.
          1    1    1    2  502    0 -0.29532438068E+02 -0.89260108131E+02  0.10377208960E+03  0.14002920546E+03  0.00000000000E+00 0. -1.
         22    1    3    3    0    0 -0.16016764147E+02  0.39659844436E+02 -0.13572325760E+03  0.14230334728E+03  0.00000000000E+00 0.  1.
         22    1    3    3    0    0  0.42540522866E+02  0.25917363732E+01  0.78591053032E+01  0.43337959335E+02  0.00000000000E+00 0.  1.
</event>
<event>
 7    1  0.5622879E-006  0.3295766E+02  0.7818608E-02  0.1577707E+00
          2   -1    0    0  502    0  0.00000000000E+00  0.00000000000E+00  0.18466850321E+03  0.18466850321E+03  0.00000000000E+00 0. -1.
          1   -1    0    0  501    0 -0.00000000000E+00 -0.00000000000E+00 -0.11097364649E+03  0.11097364649E+03  0.00000000000E+00 0. -1.
         25    2    1    2    0    0 -0.57018658981E+01  0.98652530507E+01  0.33174962992E+02  0.12983049108E+03  0.12500217499E+03 0.  0.
          2    1    1    2  501    0  0.34619938875E+02  0.11082298532E+01 -0.55228368190E+02  0.65191571495E+02  0.00000000000E+00 0. -1.
          1    1    1    2  502    0 -0.28918072977E+02 -0.10973482904E+02  0.95748261923E+02  0.10062008713E+03  0.00000000000E+00 0. -1.
         22    1    3    3    0    0  0.54047444280E+01  0.28788755086E+02 -0.42175892733E+02  0.51349874484E+02  0.00000000000E+00 0.  1.
         22    1    3    3    0    0 -0.11106610326E+02 -0.18923502036E+02  0.75350855725E+02  0.78480616592E+02  0.00000000000E+00 0.  1.
</event>
<event>
 7    1  0.5622879E-006  0.6277533E+02  0.7818608E-02  0.1514069E+00
          2   -1    0    0  502    0  0.00000000000E+00  0.00000000000E+00  0.75655042510E+03  0.75655042510E+03  0.00000000000E+00 0. -1.
          1   -1    0    0  501    0 -0.00000000000E+00 -0.00000000000E+00 -0.73480940020E+02  0.73480940020E+02  0.00000000000E+00 0. -1.
         25    2    1    2    0    0 -0.12038631358E+02  0.65462215753E+02  0.78157804389E+02  0.16175085509E+03  0.12499786557E+03 0.  0.
          2    1    1    2  501    0 -0.21241252173E+02 -0.12203268205E+02 -0.25142863021E+02  0.35103762044E+02  0.00000000000E+00 0. -1.
          1    1    1    2  502    0  0.33279883531E+02 -0.53258947548E+02  0.63005454372E+03  0.63317674799E+03  0.00000000000E+00 0. -1.
         22    1    3    3    0    0  0.36553504841E+02  0.80720563164E+02  0.62611282092E+02  0.10849949621E+03  0.00000000000E+00 0.  1.
         22    1    3    3    0    0 -0.48592136199E+02 -0.15258347411E+02  0.15546522297E+02  0.53251358871E+02  0.00000000000E+00 0.  1.
</event>
<event>
 7    1  0.5622879E-006  0.1315928E+03  0.7818608E-02  0.1317853E+00
          2   -1    0    0  502    0  0.00000000000E+00  0.00000000000E+00  0.13444705361E+04  0.13444705361E+04  0.00000000000E+00 0. -1.
          1   -1    0    0  501    0 -0.00000000000E+00 -0.00000000000E+00 -0.96082372943E+02  0.96082372943E+02  0.00000000000E+00 0. -1.
         25    2    1    2    0    0 -0.39436806187E+02 -0.14401409965E+03  0.39671613879E+03  0.44193154361E+03  0.12499788751E+03 0.  0.
          2    1    1    2  501    0 -0.12346436912E+02  0.12970557583E+03 -0.14218880689E+02  0.13106543203E+03  0.00000000000E+00 0. -1.
          1    1    1    2  502    0  0.51783243099E+02  0.14308523819E+02  0.86589090507E+03  0.86755593341E+03  0.00000000000E+00 0. -1.
         22    1    3    3    0    0  0.36064216362E+02 -0.50391591846E+02  0.21706513674E+03  0.22573704573E+03  0.00000000000E+00 0. -1.
         22    1    3    3    0    0 -0.75501022549E+02 -0.93622507803E+02  0.17965100206E+03  0.21619449788E+03  0.00000000000E+00 0. -1.
</event>
<event>
 7    1  0.5622879E-006  0.8187636E+02  0.7818608E-02  0.1460839E+00
          2   -1    0    0  502    0  0.00000000000E+00  0.00000000000E+00  0.21709787942E+04  0.21709787942E+04  0.00000000000E+00 0. -1.
          1   -1    0    0  501    0 -0.00000000000E+00 -0.00000000000E+00 -0.28111768566E+02  0.28111768566E+02  0.00000000000E+00 0. -1.
         25    2    1    2    0    0 -0.37005120910E+02 -0.60829500793E+02  0.48069513988E+03  0.50176412255E+03  0.12501923863E+03 0.  0.
          2    1    1    2  501    0  0.63777532012E+02  0.55734473725E+02  0.85262336193E+02  0.12018140923E+03  0.00000000000E+00 0. -1.
          1    1    1    2  502    0 -0.26772411102E+02  0.50950270682E+01  0.15769095495E+04  0.15771450310E+04  0.00000000000E+00 0. -1.
         22    1    3    3    0    0 -0.58874066287E+02 -0.72721649413E+02  0.20969053005E+03  0.22961862374E+03  0.00000000000E+00 0.  1.
         22    1    3    3    0    0  0.21868945377E+02  0.11892148619E+02  0.27100460983E+03  0.27214549881E+03  0.00000000000E+00 0.  1.
</event>
<event>
 7    1  0.5622879E-006  0.4538982E+02  0.7818608E-02  0.1512287E+00
          2   -1    0    0  502    0  0.00000000000E+00  0.00000000000E+00  0.26785251681E+04  0.26785251681E+04  0.00000000000E+00 0. -1.
          1   -1    0    0  501    0 -0.00000000000E+00 -0.00000000000E+00 -0.60150088598E+03  0.60150088598E+03  0.00000000000E+00 0. -1.
         25    2    1    2    0    0 -0.14464904135E+02  0.17409420188E+01  0.45431536195E+03  0.47142410622E+03  0.12500390190E+03 0.  0.
          2    1    1    2  501    0 -0.28462110343E+02 -0.19123629474E+02 -0.59220849568E+03  0.59320039387E+03  0.00000000000E+00 0. -1.
          1    1    1    2  502    0  0.42927014478E+02  0.17382687455E+02  0.22149174158E+04  0.22154015539E+04  0.00000000000E+00 0. -1.
         22    1    3    3    0    0 -0.49300901089E+02  0.39756087860E+02  0.34231542011E+03  0.34812493765E+03  0.00000000000E+00 0. -1.
         22    1    3    3    0    0  0.34835996953E+02 -0.38015145841E+02  0.11199994185E+03  0.12329916857E+03  0.00000000000E+00 0. -1.
</event>
<event>
 7    1  0.5622879E-006  0.1544769E+03  0.7818608E-02  0.1399692E+00
          2   -1    0    0  502    0  0.00000000000E+00  0.00000000000E+00  0.88705393526E+03  0.88705393526E+03  0.00000000000E+00 0. -1.
          1   -1    0    0  501    0 -0.00000000000E+00 -0.00000000000E+00 -0.11904273138E+04  0.11904273138E+04  0.00000000000E+00 0. -1.
         25    2    1    2    0    0 -0.10396559218E+03 -0.14322491759E+03  0.44147504245E+03  0.49177957988E+03  0.12499888279E+03 0.  0.
          2    1    1    2  501    0  0.88226585993E+02  0.12650405063E+03 -0.11598529023E+04  0.11700623745E+04  0.00000000000E+00 0. -1.
          1    1    1    2  502    0  0.15739006189E+02  0.16720866963E+02  0.41500448134E+03  0.41563929463E+03  0.00000000000E+00 0. -1.
         22    1    3    3    0    0 -0.10152140436E+03 -0.12183798976E+03  0.23096170467E+03  0.28016852128E+03  0.00000000000E+00 0.  1.
         22    1    3    3    0    0 -0.24441878185E+01 -0.21386927832E+02  0.21051333778E+03  0.21161105860E+03  0.00000000000E+00 0.  1.
</event>
<event>
 7    1  0.5622879E-006  0.1346613E+03  0.7818608E-02  0.1354054E+00
          2   -1    0    0  502    0  0.00000000000E+00  0.00000000000E+00  0.25071562628E+03  0.25071562628E+03  0.00000000000E+00 0. -1.
          1   -1    0    0  501    0 -0.00000000000E+00 -0.00000000000E+00 -0.34621764414E+03  0.34621764414E+03  0.00000000000E+00 0. -1.
         25    2    1    2    0    0 -0.67420028736E+02  0.75451945511E+02 -0.12303804280E+03  0.20249052859E+03  0.12500239133E+03 0.  0.
          2    1    1    2  501    0 -0.26639555028E+02  0.27504472205E+02 -0.15786914757E+03  0.16244639005E+03  0.00000000000E+00 0. -1.
          1    1    1    2  502    0  0.94059583764E+02 -0.10295641772E+03  0.18540517252E+03  0.23199635179E+03  0.00000000000E+00 0. -1.
         22    1    3    3    0    0 -0.36432207978E+02 -0.22226855510E+02 -0.81338819970E+02  0.91855008127E+02  0.00000000000E+00 0.  1.
         22    1    3    3    0    0 -0.30987820758E+02  0.97678801020E+02 -0.41699222831E+02  0.11063552047E+03  0.00000000000E+00 0.  1.
</event>
<event>
 7    1  0.5622879E-006  0.1172079E+03  0.7818608E-02  0.1436926E+00
          2   -1    0    0  502    0  0.00000000000E+00  0.00000000000E+00  0.51967427157E+03  0.51967427157E+03  0.00000000000E+00 0. -1.
          1   -1    0    0  501    0 -0.00000000000E+00 -0.00000000000E+00 -0.23236377149E+03  0.23236377149E+03  0.00000000000E+00 0. -1.
         25    2    1    2    0    0  0.35611077780E+02  0.97713659360E+02 -0.31042058034E+02  0.16554564317E+03  0.12500257005E+03 0.  0.
          2    1    1    2  501    0 -0.54607117036E+02 -0.11016257512E+03 -0.10551181862E+03  0.16201998043E+03  0.00000000000E+00 0. -1.
          1    1    1    2  502    0  0.18996039256E+02  0.12448915764E+02  0.42386437674E+03  0.42447241945E+03  0.00000000000E+00 0. -1.
         22    1    3    3    0    0  0.53479690477E+02  0.11372196653E+03  0.80705546133E+00  0.12567185167E+03  0.00000000000E+00 0.  1.
         22    1    3    3    0    0 -0.17868612698E+02 -0.16008307165E+02 -0.31849113496E+02  0.39873791499E+02  0.00000000000E+00 0.  1.
</event>
<event>
 7    1  0.5622879E-006  0.1591871E+03  0.7818608E-02  0.1353083E+00
          2   -1    0    0  502    0  0.00000000000E+00  0.00000000000E+00  0.17594302672E+04  0.17594302672E+04  0.00000000000E+00 0. -1.
          1   -1    0    0  501    0 -0.00000000000E+00 -0.00000000000E+00 -0.73958287773E+03  0.73958287773E+03  0.00000000000E+00 0. -1.
         25    2    1    2    0    0  0.84650527253E+02  0.16726298381E+03  0.18193468641E+03  0.28959885474E+03  0.12499859612E+03 0.  0.
          2    1    1    2  501    0 -0.82886498785E+02 -0.13465149575E+03 -0.67645785564E+03  0.69469160600E+03  0.00000000000E+00 0. -1.
          1    1    1    2  502    0 -0.17640284682E+01 -0.32611488057E+02  0.15143705587E+04  0.15147226842E+04  0.00000000000E+00 0. -1.
         22    1    3    3    0    0  0.23574605311E+01  0.12354541337E+03  0.63588444303E+02  0.13896948239E+03  0.00000000000E+00 0.  1.
         22    1    3    3    0    0  0.82293066722E+02  0.43717570434E+02  0.11834624211E+03  0.15062937236E+03  0.00000000000E+00 0.  1.
</event>
<event>
 7    1  0.5622879E-006  0.4167654E+02  0.7818608E-02  0.1560950E+00
          2   -1    0    0  502    0  0.00000000000E+00  0.00000000000E+00  0.76227142553E+03  0.76227142553E+03  0.00000000000E+00 0. -1.
          1   -1    0    0  501    0 -0.00000000000E+00 -0.00000000000E+00 -0.11000685867E+04  0.11000685867E+04  0.00000000000E+00 0. -1.
         25    2    1    2    0    0 -0.97525035219E+01 -0.11109823162E+02 -0.27539922608E+03  0.30280029547E+03  0.12499898286E+03 0.  0.
          2    1    1    2  501    0 -0.21835646085E+02 -0.16160313104E+02 -0.81015939632E+03  0.81061470416E+03  0.00000000000E+00 0. -1.
          1    1    1    2  502    0  0.31588149607E+02  0.27270136267E+02  0.74776146125E+03  0.74892501257E+03  0.00000000000E+00 0. -1.
         22    1    3    3    0    0 -0.48793022312E+02  0.21541065791E+02 -0.22477168826E+03  0.23101317795E+03  0.00000000000E+00 0. -1.
         22    1    3    3    0    0  0.39040518790E+02 -0.32650888953E+02 -0.50627537822E+02  0.71787117527E+02  0.00000000000E+00 0. -1.
</event>
<event>
 7    1  0.5622879E-006  0.1420837E+03  0.7818608E-02  0.1332935E+00
          2   -1    0    0  502    0  0.00000000000E+00  0.00000000000E+00  0.68209662271E+03  0.68209662271E+03  0.00000000000E+00 0. -1.
          1   -1    0    0  501    0 -0.00000000000E+00 -0.00000000000E+00 -0.67670134961E+02  0.67670134961E+02  0.00000000000E+00 0. -1.
         25    2    1    2    0    0 -0.10790923338E+03  0.32661182442E+02  0.20593597339E+03  0.26598088949E+03  0.12500021181E+03 0.  0.
          2    1    1    2  501    0 -0.39993411090E+02  0.17195165714E+02 -0.30522010482E+01  0.43640148783E+02  0.00000000000E+00 0. -1.
          1    1    1    2  502    0  0.14790264447E+03 -0.49856348156E+02  0.41154271541E+03  0.44014571939E+03  0.00000000000E+00 0. -1.
         22    1    3    3    0    0 -0.13064765888E+03  0.27114654247E+01  0.15706525026E+03  0.20431753634E+03  0.00000000000E+00 0. -1.
         22    1    3    3    0    0  0.22738425497E+02  0.29949717017E+02  0.48870723126E+02  0.61663353156E+02  0.00000000000E+00 0. -1.
</event>
<event>
 7    1  0.5622879E-006  0.1026019E+03  0.7818608E-02  0.1446254E+00
          2   -1    0    0  502    0  0.00000000000E+00  0.00000000000E+00  0.48617431970E+03  0.48617431970E+03  0.00000000000E+00 0. -1.
          1   -1    0    0  501    0 -0.00000000000E+00 -0.00000000000E+00 -0.35068110443E+03  0.35068110443E+03  0.00000000000E+00 0. -1.
         25    2    1    2    0    0  0.79020412862E+02 -0.82392443740E+02  0.26741392365E+03  0.31649245518E+03  0.12499810876E+03 0.  0.
          2    1    1    2  501    0 -0.10130116880E+01  0.24180575820E+02 -0.31345144100E+03  0.31438437032E+03  0.00000000000E+00 0. -1.
          1    1    1    2  502    0 -0.78007401174E+02  0.58211867920E+02  0.18153073262E+03  0.20597859862E+03  0.00000000000E+00 0. -1.
         22    1    3    3    0    0  0.26816129055E+02 -0.56751774290E+02  0.25609658646E+02  0.67791764090E+02  0.00000000000E+00 0.  1.
         22    1    3    3    0    0  0.52204283807E+02 -0.25640669450E+02  0.24180426500E+03  0.24870069109E+03  0.00000000000E+00 0.  1.
</event>
<event>
 7    1  0.5622879E-006  0.9563229E+02  0.7818608E-02  0.1294270E+00
          2   -1    0    0  502    0  0.00000000000E+00  0.00000000000E+00  0.11848887578E+03  0.11848887578E+03  0.00000000000E+00 0. -1.
          1   -1    0    0  501    0 -0.00000000000E+00 -0.00000000000E+00 -0.20262623622E+04  0.20262623622E+04  0.00000000000E+00 0. -1.
         25    2    1    2    0    0  0.12845531081E+03 -0.21230406953E+02 -0.52513936077E+03  0.55529059876E+03  0.12499921513E+03 0.  0.
          2    1    1    2  501    0 -0.77918312691E+02 -0.55272402206E+02 -0.14638567867E+04  0.14669706860E+04  0.00000000000E+00 0. -1.
          1    1    1    2  502    0 -0.50536998118E+02  0.76502809158E+02  0.81222660955E+02  0.12248995322E+03  0.00000000000E+00 0. -1.
         22    1    3    3    0    0  0.14825609953E+03 -0.44672655184E+01 -0.48758769052E+03  0.50964849010E+03  0.00000000000E+00 0. -1.
         22    1    3    3    0    0 -0.19800788718E+02 -0.16763141434E+02 -0.37551670246E+02  0.45642108659E+02  0.00000000000E+00 0. -1.
</event>
<event>
 7    1  0.5622879E-006  0.2678692E+02  0.7818608E-02  0.1640354E+00
          2   -1    0    0  502    0  0.00000000000E+00  0.00000000000E+00  0.70708676169E+02  0.70708676169E+02  0.00000000000E+00 0. -1.
          1   -1    0    0  501    0 -0.00000000000E+00 -0.00000000000E+00 -0.70556088111E+03  0.70556088111E+03  0.00000000000E+00 0. -1.
         25    2    1    2    0    0 -0.56863276912E+01 -0.58326618740E+01  0.30493306443E+01  0.12530870690E+03  0.12500647720E+03 0.  0.
          2    1    1    2  501    0 -0.14321498599E+02  0.22771366070E+02 -0.61658863259E+03  0.61717516337E+03  0.00000000000E+00 0. -1.
          1    1    1    2  502    0  0.20007826290E+02 -0.16938704196E+02 -0.21312902996E+02  0.33785687011E+02  0.00000000000E+00 0. -1.
         22    1    3    3    0    0  0.38376031952E+02  0.13929777606E+02  0.45414965779E+02  0.61067811892E+02  0.00000000000E+00 0. -1.
         22    1    3    3    0    0 -0.44062359643E+02 -0.19762439480E+02 -0.42365635135E+02  0.64240895011E+02  0.00000000000E+00 0. -1.
</event>
<event>
 7    1  0.5622879E-006  0.1465722E+03  0.7818608E-02  0.1287416E+00
          2   -1    0    0  502    0  0.00000000000E+00  0.00000000000E+00  0.14664418670E+04  0.14664418670E+04  0.00000000000E+00 0. -1.
          1   -1    0    0  501    0 -0.00000000000E+00 -0.00000000000E+00 -0.36491123693E+03  0.36491123693E+03  0.00000000000E+00 0. -1.
         25    2    1    2    0    0  0.74045993289E+02 -0.63462282846E+02  0.24846136593E+03  0.29473321330E+03  0.12499738476E+03 0.  0.
          2    1    1    2  501    0 -0.13767603967E+03  0.59047574601E+02 -0.32445540334E+03  0.35736902037E+03  0.00000000000E+00 0. -1.
          1    1    1    2  502    0  0.63630046381E+02  0.44147082449E+01  0.11775246675E+04  0.11792508702E+04  0.00000000000E+00 0. -1.
         22    1    3    3    0    0  0.62067217037E+02 -0.10366678861E+02  0.22809761010E+03  0.23661852674E+03  0.00000000000E+00 0. -1.
         22    1    3    3    0    0  0.11978776251E+02 -0.53095603986E+02  0.20363755829E+02  0.58114686565E+02  0.00000000000E+00 0. -1.
</event>
<event>
 7    1  0.5622879E-006  0.3727259E+02  0.7818608E-02  0.1608689E+00
          2   -1    0    0  502    0  0.00000000000E+00  0.00000000000E+00  0.23186139855E+03  0.23186139855E+03  0.00000000000E+00 0. -1.
          1   -1    0    0  501    0 -0.00000000000E+00 -0.00000000000E+00 -0.65860011050E+02  0.65860011050E+02  0.00000000000E+00 0. -1.
         25    2    1    2    0    0 -0.55179037503E+02  0.18026989885E+02  0.96005755628E+02  0.16796369799E+03  0.12500000074E+03 0.  0.
          2    1    1    2  501    0  0.33103267255E+02 -0.12911139153E+02 -0.17334859966E+02  0.39535062758E+02  0.00000000000E+00 0. -1.
          1    1    1    2  502    0  0.22075770248E+02 -0.51158507316E+01  0.87330491837E+02  0.90222648849E+02  0.00000000000E+00 0. -1.
         22    1    3    3    0    0 -0.46733761070E+02  0.49006624499E+02  0.10502024550E+01  0.67725893082E+02  0.00000000000E+00 0.  1.
         22    1    3    3    0    0 -0.84452764329E+01 -0.30979634614E+02  0.94955553173E+02  0.10023780491E+03  0.00000000000E+00 0.  1.
</event>
<event>
 7    1  0.5622879E-006  0.1351768E+03  0.7818608E-02  0.1238735E+00
          2   -1    0    0  502    0  0.00000000000E+00  0.00000000000E+00  0.24065191142E+04  0.24065191142E+04  0.00000000000E+00 0. -1.
          1   -1    0    0  501    0 -0.00000000000E+00 -0.00000000000E+00 -0.40817045833E+03  0.40817045833E+03  0.00000000000E+00 0. -1.
         25    2    1    2    0    0  0.27917900956E+02 -0.89390512765E+02 -0.25943980191E+02  0.15833103957E+03  0.12500222004E+03 0.  0.
          2    1    1    2  501    0  0.10170598701E+03  0.45315424016E+02 -0.30415207622E+03  0.32389208220E+03  0.00000000000E+00 0. -1.
          1    1    1    2  502    0 -0.12962388796E+03  0.44075088749E+02  0.23284447123E+04  0.23324664508E+04  0.00000000000E+00 0. -1.
         22    1    3    3    0    0  0.78199961158E+01  0.22434173488E+02 -0.37220240354E+02  0.44156435220E+02  0.00000000000E+00 0.  1.
         22    1    3    3    0    0  0.20097904840E+02 -0.11182468625E+03  0.11276260163E+02  0.11417460435E+03  0.00000000000E+00 0.  1.
</event>
<event>
 7    1  0.5622879E-006  0.2264578E+03  0.7818608E-02  0.1240001E+00
          2   -1    0    0  502    0  0.00000000000E+00  0.00000000000E+00  0.18589802727E+03  0.18589802727E+03  0.00000000000E+00 0. -1.
          1   -1    0    0  501    0 -0.00000000000E+00 -0.00000000000E+00 -0.12765595616E+04  0.12765595616E+04  0.00000000000E+00 0. -1.
         25    2    1    2    0    0 -0.18427456261E+03 -0.19645374750E+03 -0.44329085536E+03  0.53355681008E+03  0.12499959120E+03 0.  0.
          2    1    1    2  501    0  0.84868912084E+01  0.65062685873E+02 -0.70011802733E+03  0.70318591611E+03  0.00000000000E+00 0. -1.
          1    1    1    2  502    0  0.17578767140E+03  0.13139106163E+03  0.52747348345E+02  0.22571486271E+03  0.00000000000E+00 0. -1.
         22    1    3    3    0    0 -0.88498020522E+02 -0.12912989592E+03 -0.14606555323E+03  0.21410645832E+03  0.00000000000E+00 0. -1.
         22    1    3    3    0    0 -0.95776542087E+02 -0.67323851583E+02 -0.29722530213E+03  0.31945035175E+03  0.00000000000E+00 0. -1.
</event>
<event>
 7    1  0.5622879E-006  0.1664576E+03  0.7818608E-02  0.1401050E+00
          2   -1    0    0  502    0  0.00000000000E+00  0.00000000000E+00  0.13349369443E+04  0.13349369443E+04  0.00000000000E+00 0. -1.
          1   -1    0    0  501    0 -0.00000000000E+00 -0.00000000000E+00 -0.26544447486E+03  0.26544447486E+03  0.00000000000E+00 0. -1.
         25    2    1    2    0    0 -0.12539832330E+03  0.13615249761E+03  0.12919623003E+03  0.25802805576E+03  0.12499827845E+03 0.  0.
          2    1    1    2  501    0  0.17651200566E+02 -0.11528728923E+02 -0.19451102634E+03  0.19565023854E+03  0.00000000000E+00 0. -1.
          1    1    1    2  502    0  0.10774712274E+03 -0.12462376868E+03  0.11348072658E+04  0.11467031249E+04  0.00000000000E+00 0. -1.
         22    1    3    3    0    0 -0.17308324118E+02 -0.87705257046E+01 -0.16785112371E+02  0.25656192278E+02  0.00000000000E+00 0. -1.
         22    1    3    3    0    0 -0.10808999918E+03  0.14492302331E+03  0.14598134240E+03  0.23237186348E+03  0.00000000000E+00 0. -1.
</event>
<event>
 7    1  0.5622879E-006  0.5681002E+02  0.7818608E-02  0.1461480E+00
          2   -1    0    0  502    0  0.00000000000E+00  0.00000000000E+00  0.17862735264E+03  0.17862735264E+03  0.00000000000E+00 0. -1.
          1   -1    0    0  501    0 -0.00000000000E+00 -0.00000000000E+00 -0.38299933516E+03  0.38299933516E+03  0.00000000000E+00 0. -1.
         25    2    1    2    0    0 -0.64353943167E+02  0.26884854626E+02 -0.77720814393E+02  0.16287743473E+03  0.12499723335E+03 0.  0.
          2    1    1    2  501    0  0.33252255364E+02  0.20560673147E+02 -0.25523232154E+03  0.25820920147E+03  0.00000000000E+00 0. -1.
          1    1    1    2  502    0  0.31101687803E+02 -0.47445527773E+02  0.12858115341E+03  0.14054005160E+03  0.00000000000E+00 0. -1.
         22    1    3    3    0    0  0.88196058036E+01  0.59659125217E+02 -0.18111210046E+02  0.62968345997E+02  0.00000000000E+00 0.  1.
         22    1    3    3    0    0 -0.73173548971E+02 -0.32774270591E+02 -0.59609604347E+02  0.99909088737E+02  0.00000000000E+00 0.  1.
</event>
<event>
 7    1  0.5622879E-006  0.7095830E+02  0.7818608E-02  0.1370257E+00
          2   -1    0    0  502    0  0.00000000000E+00  0.00000000000E+00  0.82876329037E+03  0.82876329037E+03  0.00000000000E+00 0. -1.
          1   -1    0    0  501    0 -0.00000000000E+00 -0.00000000000E+00 -0.13769958215E+03  0.13769958215E+03  0.00000000000E+00 0. -1.
         25    2    1    2    0    0  0.11494649969E+03  0.53188854837E+02  0.27921660022E+03  0.33110336980E+03  0.12500311830E+03 0.  0.
          2    1    1    2  501    0 -0.62174194600E+02 -0.12627892201E+02 -0.10042218818E+03  0.11878430037E+03  0.00000000000E+00 0. -1.
          1    1    1    2  502    0 -0.52772305086E+02 -0.40560962636E+02  0.51226929618E+03  0.51657520235E+03  0.00000000000E+00 0. -1.
         22    1    3    3    0    0  0.91765282407E+02  0.73280589539E+02  0.27638177300E+03  0.30029618097E+03  0.00000000000E+00 0. -1.
         22    1    3    3    0    0  0.23181217279E+02 -0.20091734702E+02  0.28348272140E+01  0.30807188823E+02  0.00000000000E+00 0. -1.
</event>
<event>
 7    1  0.5622879E-006  0.1129669E+03  0.7818608E-02  0.1302662E+00
          2   -1    0    0  502    0  0.00000000000E+00  0.00000000000E+00  0.13059530737E+04  0.13059530737E+04  0.00000000000E+00 0. -1.
          1   -1    0    0  501    0 -0.00000000000E+00 -0.00000000000E+00 -0.52416168020E+03  0.52416168020E+03  0.00000000000E+00 0. -1.
         25    2    1    2    0    0 -0.17266629489E+03 -0.61744385692E+02  0.29518187142E+03  0.36929994875E+03  0.12499638544E+03 0.  0.
          2    1    1    2  501    0  0.10585568555E+03  0.35371774650E+02 -0.47935849443E+03  0.49218000242E+03  0.00000000000E+00 0. -1.
          1    1    1    2  502    0  0.66810609341E+02  0.26372611042E+02  0.96596801647E+03  0.96863480269E+03  0.00000000000E+00 0. -1.
         22    1    3    3    0    0 -0.84731268721E+01 -0.31054980454E+02  0.24742098229E+01  0.32285095698E+02  0.00000000000E+00 0. -1.
         22    1    3    3    0    0 -0.16419316802E+03 -0.30689405239E+02  0.29270766160E+03  0.33701485305E+03  0.00000000000E+00 0. -1.
</event>
<event>
 7    1  0.5622879E-006  0.1165099E+03  0.7818608E-02  0.1354009E+00
          2   -1    0    0  502    0  0.00000000000E+00  0.00000000000E+00  0.23651768263E+04  0.23651768263E+04  0.00000000000E+00 0. -1.
          1   -1    0    0  501    0 -0.00000000000E+00 -0.00000000000E+00 -0.20635155159E+03  0.20635155159E+03  0.00000000000E+00 0. -1.
         25    2    1    2    0    0 -0.63758280727E+02 -0.86339556916E+02  0.42549138051E+03  0.45627644382E+03  0.12500256337E+03 0.  0.
          2    1    1    2  501    0  0.34044272039E+02 -0.28303184822E+02 -0.18654349064E+03  0.19172521125E+03  0.00000000000E+00 0. -1.
          1    1    1    2  502    0  0.29714008687E+02  0.11464274174E+03  0.19198773848E+04  0.19235267228E+04  0.00000000000E+00 0. -1.
         22    1    3    3    0    0 -0.19313029377E+02  0.31132849297E+02  0.66158789625E+02  0.75625609774E+02  0.00000000000E+00 0.  1.
         22    1    3    3    0    0 -0.44445251350E+02 -0.11747240621E+03  0.35933259089E+03  0.38065083405E+03  0.00000000000E+00 0.  1.
</event>
<event>
 7    1  0.5622879E-006  0.1131753E+03  0.7818608E-02  0.1274248E+00
          2   -1    0    0  502    0  0.00000000000E+00  0.00000000000E+00  0.33032573163E+03  0.33032573163E+03  0.00000000000E+00 0. -1.
          1   -1    0    0  501    0 -0.00000000000E+00 -0.00000000000E+00 -0.83071567591E+03  0.83071567591E+03  0.00000000000E+00 0. -1.
         25    2    1    2    0    0  0.90247722420E+02 -0.18318161472E+03  0.53647413277E+02  0.24535769337E+03  0.12498878897E+03 0.  0.
          2    1    1    2  501    0 -0.48054013757E+02  0.99613087693E+02 -0.71822049723E+03  0.72668606573E+03  0.00000000000E+00 0. -1.
          1    1    1    2  502    0 -0.42193708662E+02  0.83568527032E+02  0.16418313968E+03  0.18899764844E+03  0.00000000000E+00 0. -1.
         22    1    3    3    0    0 -0.12052001475E+02 -0.91547576145E+01  0.40301090580E+02  0.43049253519E+02  0.00000000000E+00 0. -1.
         22    1    3    3    0    0  0.10229972390E+03 -0.17402685711E+03  0.13346322696E+02  0.20230843985E+03  0.00000000000E+00 0. -1.
</event>
<event>
 7    1  0.5622879E-006  0.3411044E+02  0.7818608E-02  0.1587678E+00
          2   -1    0    0  502    0  0.00000000000E+00  0.00000000000E+00  0.91180769297E+03  0.91180769297E+03  0.00000000000E+00 0. -1.
          1   -1    0    0  501    0 -0.00000000000E+00 -0.00000000000E+00 -0.76342660687E+03  0.76342660687E+03  0.00000000000E+00 0. -1.
         25    2    1    2    0    0  0.37556236128E+01  0.53863511908E+02 -0.23043936588E+03  0.26766011148E+03  0.12499700519E+03 0.  0.
          2    1    1    2  501    0 -0.17001588805E+02 -0.29073815779E+02 -0.51360406493E+03  0.51470717529E+03  0.00000000000E+00 0. -1.
          1    1    1    2  502    0  0.13245965192E+02 -0.24789696129E+02  0.89242451692E+03  0.89286701307E+03  0.00000000000E+00 0. -1.
         22    1    3    3    0    0  0.66470980684E+01 -0.40809953974E+02 -0.74686871562E+02  0.85368407739E+02  0.00000000000E+00 0. -1.
         22    1    3    3    0    0 -0.28914744556E+01  0.94673465882E+02 -0.15575249432E+03  0.18229170374E+03  0.00000000000E+00 0. -1.
</event>
<event>
 7    1  0.5622879E-006  0.1189074E+03  0.7818608E-02  0.1331386E+00
          2   -1    0    0  502    0  0.00000000000E+00  0.00000000000E+00  0.19455837668E+03  0.19455837668E+03  0.00000000000E+00 0. -1.
          1   -1    0    0  501    0 -0.00000000000E+00 -0.00000000000E+00 -0.44587386763E+03  0.44587386763E+03  0.00000000000E+00 0. -1.
         25    2    1    2    0    0 -0.42644179824E+01  0.77923515972E+02 -0.59426048174E+02  0.15889238680E+03  0.12500030311E+03 0.  0.
          2    1    1    2  501    0  0.81196923312E+01  0.52100773093E+02 -0.30477725919E+03  0.30930502369E+03  0.00000000000E+00 0. -1.
          1    1    1    2  502    0 -0.38552743488E+01 -0.13002428907E+03  0.11288781641E+03  0.17223483382E+03  0.00000000000E+00 0. -1.
         22    1    3    3    0    0  0.48754955047E+02  0.52919329064E+02 -0.68769668029E+02  0.99532749741E+02  0.00000000000E+00 0.  1.
         22    1    3    3    0    0 -0.53019373029E+02  0.25004186909E+02  0.93436198554E+01  0.59359637055E+02  0.00000000000E+00 0.  1.
</event>
<event>
 7    1  0.5622879E-006  0.7833427E+02  0.7818608E-02  0.1376244E+00
          2   -1    0    0  502    0  0.00000000000E+00  0.00000000000E+00  0.35461051467E+04  0.35461051467E+04  0.00000000000E+00 0. -1.
          1   -1    0    0  501    0 -0.00000000000E+00 -0.00000000000E+00 -0.43244543108E+02  0.43244543108E+02  0.00000000000E+00 0. -1.
         25    2    1    2    0    0  0.25849135071E+02 -0.10555398638E+03  0.66819187505E+03  0.68841496825E+03  0.12499985923E+03 0.  0.
          2    1    1    2  501    0  0.19290855920E+02  0.74652002307E+02  0.12351336807E+02  0.78087221051E+02  0.00000000000E+00 0. -1.
          1    1    1    2  502    0 -0.45139990991E+02  0.30901984076E+02  0.28223173917E+04  0.28228475005E+04  0.00000000000E+00 0. -1.
         22    1    3    3    0    0 -0.10103195076E+02 -0.79010305219E+02  0.60931127587E+03  0.61449567434E+03  0.00000000000E+00 0. -1.
         22    1    3    3    0    0  0.35952330147E+02 -0.26543681164E+02  0.58880599177E+02  0.73919293910E+02  0.00000000000E+00 0. -1.
</event>
<event>
 7    1  0.5622879E-006  0.5776677E+02  0.7818608E-02  0.1427711E+00
          2   -1    0    0  502    0  0.00000000000E+00  0.00000000000E+00  0.14433381159E+04  0.14433381159E+04  0.00000000000E+00 0. -1.
          1   -1    0    0  501    0 -0.00000000000E+00 -0.00000000000E+00 -0.49728162940E+02  0.49728162940E+02  0.00000000000E+00 0. -1.
         25    2    1    2    0    0  0.10948644393E+02 -0.74872767657E+01  0.45163028355E+03  0.46879520137E+03  0.12499238252E+03 0.  0.
          2    1    1    2  501    0 -0.59997437128E+02  0.15691329178E+01 -0.18281003032E+02  0.62740335606E+02  0.00000000000E+00 0. -1.
          1    1    1    2  502    0  0.49048792735E+02  0.59181438479E+01  0.96026067240E+03  0.96153074181E+03  0.00000000000E+00 0. -1.
         22    1    3    3    0    0  0.59257446487E+02 -0.46105592212E+01  0.36281193680E+03  0.36764820645E+03  0.00000000000E+00 0.  1.
         22    1    3    3    0    0 -0.48308802094E+02 -0.28767175445E+01  0.88818346744E+02  0.10114699492E+03  0.00000000000E+00 0.  1.
</event>
<event>
 7    1  0.5622879E-006  0.2047363E+03  0.7818608E-02  0.1214208E+00
          2   -1    0    0  502    0  0.00000000000E+00  0.00000000000E+00  0.19126974669E+04  0.19126974669E+04  0.00000000000E+00 0. -1.
          1   -1    0    0  501    0 -0.00000000000E+00 -0.00000000000E+00 -0.27857023644E+03  0.27857023644E+03  0.00000000000E+00 0. -1.
         25    2    1    2    0    0  0.25494479378E+03 -0.11676670511E+03  0.10442882070E+03  0.32428610114E+03  0.12499914199E+03 0.  0.
          2    1    1    2  501    0 -0.58449797333E+02  0.74693086951E+02 -0.14882221766E+03  0.17647517819E+03  0.00000000000E+00 0. -1.
          1    1    1    2  502    0 -0.19649499645E+03  0.42073618163E+02  0.16785206274E+04  0.16905064240E+04  0.00000000000E+00 0. -1.
         22    1    3    3    0    0  0.66995539024E+02 -0.67848099225E+01 -0.23982007568E+02  0.71481274344E+02  0.00000000000E+00 0.  1.
         22    1    3    3    0    0  0.18794925475E+03 -0.10998189519E+03  0.12841082827E+03  0.25280482679E+03  0.00000000000E+00 0.  1.
</event>
<event>
 7    1  0.5622879E-006  0.9534551E+02  0.7818608E-02  0.1448508E+00
          2   -1    0    0  502    0  0.00000000000E+00  0.00000000000E+00  0.16647345276E+03  0.16647345276E+03  0.00000000000E+00 0. -1.
          1   -1    0    0  501    0 -0.00000000000E+00 -0.00000000000E+00 -0.88260076202E+03  0.88260076202E+03  0.00000000000E+00 0. -1.
         25    2    1    2    0    0 -0.81157477544E+02 -0.14010038733E+02  0.75622730856E+01  0.14988528901E+03  0.12500237815E+03 0.  0.
          2    1    1    2  501    0  0.87714165493E+02  0.38769905074E+02 -0.80666739278E+03  0.81234793220E+03  0.00000000000E+00 0. -1.
          1    1    1    2  502    0 -0.65566879494E+01 -0.24759866342E+02  0.82977810438E+02  0.86840993564E+02  0.00000000000E+00 0. -1.
         22    1    3    3    0    0 -0.11349599790E+03 -0.12476587672E+02 -0.69830880897E+01  0.11439305179E+03  0.00000000000E+00 0. -1.
         22    1    3    3    0    0  0.32338520358E+02 -0.15334510601E+01  0.14545361175E+02  0.35492237219E+02  0.00000000000E+00 0. -1.
</event>
<event>
 7    1  0.5622879E-006  0.7574907E+02  0.7818608E-02  0.1434147E+00
          2   -1    0    0  502    0  0.00000000000E+00  0.00000000000E+00  0.12881955100E+04  0.12881955100E+04  0.00000000000E+00 0. -1.
          1   -1    0    0  501    0 -0.00000000000E+00 -0.00000000000E+00 -0.81635576157E+03  0.81635576157E+03  0.00000000000E+00 0. -1.
         25    2    1    2    0    0  0.52310898907E+00  0.41632298204E+02  0.13832847383E+03  0.19103133543E+03  0.12499873017E+03 0.  0.
          2    1    1    2  501    0 -0.18649284828E+01  0.35835957217E+02 -0.78825986740E+03  0.78907623987E+03  0.00000000000E+00 0. -1.
          1    1    1    2  502    0  0.13418194937E+01 -0.77468255421E+02  0.11217711420E+04  0.11244436963E+04  0.00000000000E+00 0. -1.
         22    1    3    3    0    0  0.58183674898E+02  0.42248395795E+02  0.59305737397E+02  0.93206423921E+02  0.00000000000E+00 0. -1.
         22    1    3    3    0    0 -0.57660565909E+02 -0.61609759068E+00  0.79022736436E+02  0.97824911505E+02  0.00000000000E+00 0. -1.
</event>
<event>
 7    1  0.5622879E-006  0.1030202E+03  0.7818608E-02  0.1303522E+00
          2   -1    0    0  502    0  0.00000000000E+00  0.00000000000E+00  0.18249000502E+04  0.18249000502E+04  0.00000000000E+00 0. -1.
          1   -1    0    0  501    0 -0.00000000000E+00 -0.00000000000E+00 -0.12249832807E+03  0.12249832807E+03  0.00000000000E+00 0. -1.
         25    2    1    2    0    0  0.14344886225E+03  0.13918987880E+02  0.34093708106E+03  0.39068484678E+03  0.12500096784E+03 0.  0.
          2    1    1    2  501    0 -0.62373334256E+02  0.47074247161E+02 -0.79912848032E+02  0.11176976717E+03  0.00000000000E+00 0. -1.
          1    1    1    2  502    0 -0.81075527993E+02 -0.60993235041E+02  0.14413774891E+04  0.14449437643E+04  0.00000000000E+00 0. -1.
         22    1    3    3    0    0 -0.14339976045E+02  0.13446279634E+02  0.61842366403E+01  0.20607817249E+02  0.00000000000E+00 0.  1.
         22    1    3    3    0    0  0.15778883829E+03  0.47270824567E+00  0.33475284442E+03  0.37007702953E+03  0.00000000000E+00 0.  1.
</event>
<event>
 7    1  0.5622879E-006  0.6326490E+02  0.7818608E-02  0.1453308E+00
          2   -1    0    0  502    0  0.00000000000E+00  0.00000000000E+00  0.57042441710E+03  0.57042441710E+03  0.00000000000E+00 0. -1.
          1   -1    0    0  501    0 -0.00000000000E+00 -0.00000000000E+00 -0.17783438210E+04  0.17783438210E+04  0.00000000000E+00 0. -1.
         25    2    1    2    0    0 -0.48752183138E+02  0.94694999124E+00 -0.20242307606E+03  0.24285278154E+03  0.12499879882E+03 0.  0.
          2    1    1    2  501    0 -0.19541271530E+01  0.37210619614E+02 -0.15536519477E+04  0.15540987174E+04  0.00000000000E+00 0. -1.
          1    1    1    2  502    0  0.50706310291E+02 -0.38157569605E+02  0.54815561987E+03  0.55181673916E+03  0.00000000000E+00 0. -1.
         22    1    3    3    0    0 -0.24102201642E+02  0.24717695744E+02  0.29452139578E+01  0.34649024404E+02  0.00000000000E+00 0. -1.
         22    1    3    3    0    0 -0.24649981496E+02 -0.23770745753E+02 -0.20536829002E+03  0.20820375714E+03  0.00000000000E+00 0. -1.
</event>
<event>
 7    1  0.5622879E-006  0.1946160E+03  0.7818608E-02  0.1235722E+00
          2   -1    0    0  502    0  0.00000000000E+00  0.00000000000E+00  0.50446268233E+03  0.50446268233E+03  0.00000000000E+00 0. -1.
          1   -1    0    0  501    0 -0.00000000000E+00 -0.00000000000E+00 -0.54348307374E+03  0.54348307374E+03  0.00000000000E+00 0. -1.
         25    2    1    2    0    0 -0.18019006929E+03 -0.12303487261E+03 -0.25799506568E+02  0.25277794947E+03  0.12500014499E+03 0.  0.
          2    1    1    2  501    0 -0.75048173362E+01  0.79398032524E+02 -0.37601098837E+03  0.38437564078E+03  0.00000000000E+00 0. -1.
          1    1    1    2  502    0  0.18769488663E+03  0.43636840089E+02  0.36279010353E+03  0.41079216582E+03  0.00000000000E+00 0. -1.
         22    1    3    3    0    0 -0.19211954727E+03 -0.11470308944E+03 -0.69005788754E+00  0.22375700068E+03  0.00000000000E+00 0.  1.
         22    1    3    3    0    0  0.11929477979E+02 -0.83317831703E+01 -0.25109448680E+02  0.29020948790E+02  0.00000000000E+00 0.  1.
</event>
<event>
 7    1  0.6475270E-006  0.9124858E+02  0.7818608E-02  0.1333348E+00
          2   -1    0    0  502    0  0.00000000000E+00  0.00000000000E+00  0.10237592703E+04  0.10237592703E+04  0.00000000000E+00 0. -1.
          1   -1    0    0  501    0 -0.00000000000E+00 -0.00000000000E+00 -0.70309127885E+03  0.70309127885E+03  0.00000000000E+00 0. -1.
         25    2    1    2    0    0  0.64412417693E+02 -0.24641661029E+02 -0.10555388386E+03  0.17754459595E+03  0.12499716054E+03 0.  0.
          2    1    1    2  501    0  0.18138909016E+02  0.65060066832E+02 -0.55736064140E+03  0.56143807931E+03  0.00000000000E+00 0. -1.
          1    1    1    2  502    0 -0.82551326709E+02 -0.40418405803E+02  0.98358251673E+03  0.98786787390E+03  0.00000000000E+00 0. -1.
         22    1    3    3    0    0 -0.17963792420E+02  0.58485575912E+01  0.17903861523E+02  0.26027902747E+02  0.00000000000E+00 0.  1.
         22    1    3    3    0    0  0.82376210113E+02 -0.30490218621E+02 -0.12345774538E+03  0.15151669320E+03  0.00000000000E+00 0.  1.
</event>
<event>
 7    1  0.5622879E-006  0.8222587E+02  0.7818608E-02  0.1330008E+00
          2   -1    0    0  502    0  0.00000000000E+00  0.00000000000E+00  0.68968362264E+03  0.68968362264E+03  0.00000000000E+00 0. -1.
          1   -1    0    0  501    0 -0.00000000000E+00 -0.00000000000E+00 -0.19060474391E+04  0.19060474391E+04  0.00000000000E+00 0. -1.
         25    2    1    2    0    0  0.43378347639E+02  0.92727076836E+02  0.98615981109E+02  0.18928656599E+03  0.12499720202E+03 0.  0.
          2    1    1    2  501    0 -0.78702277393E+02 -0.24103541362E+02 -0.18570670798E+04  0.18588903055E+04  0.00000000000E+00 0. -1.
          1    1    1    2  502    0  0.35323929754E+02 -0.68623535474E+02  0.54208728224E+03  0.54755419020E+03  0.00000000000E+00 0. -1.
         22    1    3    3    0    0  0.48885518816E+02  0.10786828328E+03  0.34752998181E+02  0.12342257237E+03  0.00000000000E+00 0.  1.
         22    1    3    3    0    0 -0.55071711772E+01 -0.15141206448E+02  0.63862982929E+02  0.65863993620E+02  0.00000000000E+00 0.  1.
</event>
<event>
 7    1  0.5622879E-006  0.5335751E+02  0.7818608E-02  0.1512599E+00
          2   -1    0    0  502    0  0.00000000000E+00  0.00000000000E+00  0.22591442369E+04  0.22591442369E+04  0.00000000000E+00 0. -1.
          1   -1    0    0  501    0 -0.00000000000E+00 -0.00000000000E+00 -0.59501539117E+03  0.59501539117E+03  0.00000000000E+00 0. -1.
         25    2    1    2    0    0 -0.21209655348E+02 -0.43373009064E+02 -0.51040547792E+03  0.52771117100E+03  0.12503703736E+03 0.  0.
          2    1    1    2  501    0  0.27471417243E+02 -0.96236535000E+01 -0.72839910113E+02  0.78440716323E+02  0.00000000000E+00 0. -1.
          1    1    1    2  502    0 -0.62617618947E+01  0.52996662564E+02  0.22473742337E+04  0.22480077407E+04  0.00000000000E+00 0. -1.
         22    1    3    3    0    0 -0.55990829431E+02 -0.66388894900E+02 -0.26731897325E+03  0.28107275180E+03  0.00000000000E+00 0.  1.
         22    1    3    3    0    0  0.34781174083E+02  0.23015885836E+02 -0.24308650466E+03  0.24663841919E+03  0.00000000000E+00 0.  1.
</event>
<event>
 7    1  0.5622879E-006  0.6960236E+02  0.7818608E-02  0.1450166E+00
          2   -1    0    0  502    0  0.00000000000E+00  0.00000000000E+00  0.51315394318E+03  0.51315394318E+03  0.00000000000E+00 0. -1.
          1   -1    0    0  501    0 -0.00000000000E+00 -0.00000000000E+00 -0.36792888911E+03  0.36792888911E+03  0.00000000000E+00 0. -1.
         25    2    1    2    0    0  0.34446670328E+02 -0.54266649680E+02 -0.64563370128E+02  0.15467558596E+03  0.12499866306E+03 0.  0.
          2    1    1    2  501    0 -0.40249821118E+01  0.70875089657E+02 -0.25277140217E+03  0.26255068191E+03  0.00000000000E+00 0. -1.
          1    1    1    2  502    0 -0.30421688216E+02 -0.16608439976E+02  0.46255982637E+03  0.46385656442E+03  0.00000000000E+00 0. -1.
         22    1    3    3    0    0 -0.11436178500E+02  0.10175790770E+02  0.28610674202E+02  0.32448475693E+02  0.00000000000E+00 0. -1.
         22    1    3    3    0    0  0.45882848829E+02 -0.64442440450E+02 -0.93174044330E+02  0.12222711027E+03  0.00000000000E+00 0. -1.
</event>
<event>
 7    1  0.5622879E-006  0.9755985E+02  0.7818608E-02  0.1293314E+00
          2   -1    0    0  502    0  0.00000000000E+00  0.00000000000E+00  0.17961170843E+03  0.17961170843E+03  0.00000000000E+00 0. -1.
          1   -1    0    0  501    0 -0.00000000000E+00 -0.00000000000E+00 -0.16297606988E+04  0.16297606988E+04  0.00000000000E+00 0. -1.
         25    2    1    2    0    0  0.20280431760E+02  0.11986333677E+02 -0.12198498204E+03  0.17621878426E+03  0.12497102054E+03 0.  0.
          2    1    1    2  501    0  0.48901625293E+02 -0.84418928572E+02 -0.14624088315E+04  0.14656594130E+04  0.00000000000E+00 0. -1.
          1    1    1    2  502    0 -0.69182057052E+02  0.72432594896E+02  0.13424482317E+03  0.16749420996E+03  0.00000000000E+00 0. -1.
         22    1    3    3    0    0 -0.19080912647E+02 -0.16488799641E+02 -0.12502444167E+03  0.12754243512E+03  0.00000000000E+00 0. -1.
         22    1    3    3    0    0  0.39361344406E+02  0.28475133318E+02  0.30394596305E+01  0.48676349142E+02  0.00000000000E+00 0. -1.
</event>
<event>
 7    1  0.5622879E-006  0.7302542E+02  0.7818608E-02  0.1435453E+00
          2   -1    0    0  502    0  0.00000000000E+00  0.00000000000E+00  0.27986456675E+03  0.27986456675E+03  0.00000000000E+00 0. -1.
          1   -1    0    0  501    0 -0.00000000000E+00 -0.00000000000E+00 -0.82642756109E+03  0.82642756109E+03  0.00000000000E+00 0. -1.
         25    2    1    2    0    0  0.70570224420E+02  0.81864031246E+02 -0.52965303603E+02  0.17352659038E+03  0.12499711195E+03 0.  0.
          2    1    1    2  501    0 -0.23550778102E+02 -0.28353648484E+02 -0.70691177145E+03  0.70787203727E+03  0.00000000000E+00 0. -1.
          1    1    1    2  502    0 -0.47019446318E+02 -0.53510382761E+02  0.21331408072E+03  0.22489350020E+03  0.00000000000E+00 0. -1.
         22    1    3    3    0    0  0.77069159488E+02  0.75709645404E+02  0.11315002719E+02  0.10862612502E+03  0.00000000000E+00 0. -1.
         22    1    3    3    0    0 -0.64989350680E+01  0.61543858420E+01 -0.64280306322E+02  0.64900465352E+02  0.00000000000E+00 0. -1.
</event>
<event>
 7    1  0.5622879E-006  0.4594517E+02  0.7818608E-02  0.1559642E+00
          2   -1    0    0  502    0  0.00000000000E+00  0.00000000000E+00  0.16042648165E+02  0.16042648165E+02  0.00000000000E+00 0. -1.
          1   -1    0    0  501    0 -0.00000000000E+00 -0.00000000000E+00 -0.17434368181E+04  0.17434368181E+04  0.00000000000E+00 0. -1.
         25    2    1    2    0    0  0.69659171013E+02  0.35873527852E+01 -0.13636148020E+04  0.13711085910E+04  0.12501268288E+03 0.  0.
          2    1    1    2  501    0 -0.24781808984E+02  0.17909481549E+01 -0.33244729574E+03  0.33337448912E+03  0.00000000000E+00 0. -1.
          1    1    1    2  502    0 -0.44877362029E+02 -0.53783009401E+01 -0.31332072262E+02  0.54996386207E+02  0.00000000000E+00 0. -1.
         22    1    3    3    0    0  0.86657889567E+02 -0.18266310576E+02 -0.55513670690E+03  0.56215657185E+03  0.00000000000E+00 0.  1.
         22    1    3    3    0    0 -0.16998718554E+02  0.21853663361E+02 -0.80847809507E+03  0.80895201912E+03  0.00000000000E+00 0.  1.
</event>
<event>
 7    1  0.7522026E-006  0.1332903E+03  0.7818608E-02  0.1307078E+00
          2   -1    0    0  502    0  0.00000000000E+00  0.00000000000E+00  0.23390539655E+04  0.23390539655E+04  0.00000000000E+00 0. -1.
          1   -1    0    0  501    0 -0.00000000000E+00 -0.00000000000E+00 -0.16274946841E+04  0.16274946841E+04  0.00000000000E+00 0. -1.
         25    2    1    2    0    0  0.16134229572E+03 -0.87115888042E+02 -0.45243641993E+03  0.50392876043E+03  0.12499986868E+03 0.  0.
          2    1    1    2  501    0 -0.10540019182E+03  0.70124548682E+02 -0.11454548646E+04  0.11524293903E+04  0.00000000000E+00 0. -1.
          1    1    1    2  502    0 -0.55942103902E+02  0.16991339360E+02  0.23094505660E+04  0.23101904989E+04  0.00000000000E+00 0. -1.
         22    1    3    3    0    0  0.17871115458E+03 -0.93114337655E+02 -0.39203488301E+03  0.44079394976E+03  0.00000000000E+00 0. -1.
         22    1    3    3    0    0 -0.17368858859E+02  0.59984496136E+01 -0.60401536916E+02  0.63134810664E+02  0.00000000000E+00 0. -1.
</event>
<event>
 7    1  0.5622879E-006  0.1149295E+03  0.7818608E-02  0.1313716E+00
          2   -1    0    0  502    0  0.00000000000E+00  0.00000000000E+00  0.17843515415E+04  0.17843515415E+04  0.00000000000E+00 0. -1.
          1   -1    0    0  501    0 -0.00000000000E+00 -0.00000000000E+00 -0.12209104285E+04  0.12209104285E+04  0.00000000000E+00 0. -1.
         25    2    1    2    0    0  0.14654754063E+03  0.22566839014E+02  0.53413663384E+03  0.56825133203E+03  0.12498875493E+03 0.  0.
          2    1    1    2  501    0 -0.38665541911E+02 -0.50804368988E+02 -0.12004819486E+04  0.12021784463E+04  0.00000000000E+00 0. -1.
          1    1    1    2  502    0 -0.10788199872E+03  0.28237529974E+02  0.12297864277E+04  0.12348321917E+04  0.00000000000E+00 0. -1.
         22    1    3    3    0    0  0.93626139595E+02 -0.48264981315E+02  0.30232764278E+03  0.32015209827E+03  0.00000000000E+00 0. -1.
         22    1    3    3    0    0  0.52921401037E+02  0.70831820329E+02  0.23180899106E+03  0.24809923377E+03  0.00000000000E+00 0. -1.
</event>
<event>
 7    1  0.5622879E-006  0.6393282E+02  0.7818608E-02  0.1401067E+00
          2   -1    0    0  502    0  0.00000000000E+00  0.00000000000E+00  0.54709532290E+03  0.54709532290E+03  0.00000000000E+00 0. -1.
          1   -1    0    0  501    0 -0.00000000000E+00 -0.00000000000E+00 -0.10919864693E+04  0.10919864693E+04  0.00000000000E+00 0. -1.
         25    2    1    2    0    0 -0.44170082701E+02  0.56630991659E+02  0.15713702165E+03  0.21325019420E+03  0.12500214530E+03 0.  0.
          2    1    1    2  501    0  0.63785407173E+02 -0.53721389966E+01 -0.10608787874E+04  0.10628081857E+04  0.00000000000E+00 0. -1.
          1    1    1    2  502    0 -0.19615324472E+02 -0.51258852662E+02  0.35885061931E+03  0.36302341234E+03  0.00000000000E+00 0. -1.
         22    1    3    3    0    0 -0.51489261393E+02 -0.25603194375E+02  0.90172592223E+02  0.10694748239E+03  0.00000000000E+00 0. -1.
         22    1    3    3    0    0  0.73191786920E+01  0.82234186034E+02  0.66964429427E+02  0.10630271181E+03  0.00000000000E+00 0. -1.
</event>
<event>
 7    1  0.5622879E-006  0.1005782E+03  0.7818608E-02  0.1357011E+00
          2   -1    0    0  502    0  0.00000000000E+00  0.00000000000E+00  0.10058141801E+04  0.10058141801E+04  0.00000000000E+00 0. -1.
          1   -1    0    0  501    0 -0.00000000000E+00 -0.00000000000E+00 -0.44466423035E+03  0.44466423035E+03  0.00000000000E+00 0. -1.
         25    2    1    2    0    0 -0.13077306049E+02  0.83336438160E+02  0.51688977569E+01  0.15088898886E+03  0.12499916639E+03 0.  0.
          2    1    1    2  501    0  0.63039168332E+02 -0.81401204034E+02 -0.36398482352E+03  0.37826583842E+03  0.00000000000E+00 0. -1.
          1    1    1    2  502    0 -0.49961862284E+02 -0.19352341261E+01  0.91996587548E+03  0.92132358315E+03  0.00000000000E+00 0. -1.
         22    1    3    3    0    0  0.69125098227E+01  0.10042378119E+03 -0.31760462521E+02  0.10555304638E+03  0.00000000000E+00 0. -1.
         22    1    3    3    0    0 -0.19989815871E+02 -0.17087343029E+02  0.36929360278E+02  0.45335942484E+02  0.00000000000E+00 0. -1.
</event>
<event>
 7    1  0.5622879E-006  0.6784645E+02  0.7818608E-02  0.1406749E+00
          2   -1    0    0  502    0  0.00000000000E+00  0.00000000000E+00  0.49826408797E+03  0.49826408797E+03  0.00000000000E+00 0. -1.
          1   -1    0    0  501    0 -0.00000000000E+00 -0.00000000000E+00 -0.48140463075E+03  0.48140463075E+03  0.00000000000E+00 0. -1.
         25    2    1    2    0    0 -0.82942561907E+01 -0.18111226891E+02  0.12298068549E+03  0.17648850065E+03  0.12500852224E+03 0.  0.
          2    1    1    2  501    0  0.41676918338E+02  0.54599962702E+02 -0.45027863008E+03  0.45548761361E+03  0.00000000000E+00 0. -1.
          1    1    1    2  502    0 -0.33382662148E+02 -0.36488735811E+02  0.34415740181E+03  0.34769260446E+03  0.00000000000E+00 0. -1.
         22    1    3    3    0    0  0.55632849418E+01 -0.67723055441E+02  0.97965127228E+02  0.11922469765E+03  0.00000000000E+00 0.  1.
         22    1    3    3    0    0 -0.13857541133E+02  0.49611828550E+02  0.25015558261E+02  0.57263802995E+02  0.00000000000E+00 0.  1.
</event>
<event>
 7    1  0.5622879E-006  0.6478795E+02  0.7818608E-02  0.1394280E+00
          2   -1    0    0  502    0  0.00000000000E+00  0.00000000000E+00  0.62952418145E+02  0.62952418145E+02  0.00000000000E+00 0. -1.
          1   -1    0    0  501    0 -0.00000000000E+00 -0.00000000000E+00 -0.18406340691E+04  0.18406340691E+04  0.00000000000E+00 0. -1.
         25    2    1    2    0    0  0.45330200705E+02 -0.49490518483E+02 -0.33134095288E+03  0.36043816464E+03  0.12499881984E+03 0.  0.
          2    1    1    2  501    0  0.20743287110E+02  0.53263446887E+02 -0.14713053022E+04  0.14724152169E+04  0.00000000000E+00 0. -1.
          1    1    1    2  502    0 -0.66073487816E+02 -0.37729284045E+01  0.24964604121E+02  0.70733105685E+02  0.00000000000E+00 0. -1.
         22    1    3    3    0    0  0.46735123409E+02  0.31264461669E+02 -0.91845668595E+02  0.10769059923E+03  0.00000000000E+00 0. -1.
         22    1    3    3    0    0 -0.14049227035E+01 -0.80754980152E+02 -0.23949528428E+03  0.25274756541E+03  0.00000000000E+00 0. -1.
</event>
<event>
 7    1  0.5622879E-006  0.9031731E+02  0.7818608E-02  0.1329471E+00
          2   -1    0    0  502    0  0.00000000000E+00  0.00000000000E+00  0.17169208682E+04  0.17169208682E+04  0.00000000000E+00 0. -1.
          1   -1    0    0  501    0 -0.00000000000E+00 -0.00000000000E+00 -0.33050454663E+03  0.33050454663E+03  0.00000000000E+00 0. -1.
         25    2    1    2    0    0 -0.82385203340E+02 -0.79360121861E+02 -0.17683106427E+03  0.24490680758E+03  0.12499907374E+03 0.  0.
          2    1    1    2  501    0 -0.74676464846E+01  0.70203690724E+02 -0.10789327467E+03  0.12893906566E+03  0.00000000000E+00 0. -1.
          1    1    1    2  502    0  0.89852849825E+02  0.91564311365E+01  0.16711406605E+04  0.16735795416E+04  0.00000000000E+00 0. -1.
         22    1    3    3    0    0 -0.19740772839E+02 -0.86815214285E+02 -0.47268076194E+02  0.10080104449E+03  0.00000000000E+00 0. -1.
         22    1    3    3    0    0 -0.62644430501E+02  0.74550924247E+01 -0.12956298807E+03  0.14410576308E+03  0.00000000000E+00 0. -1.
</event>
<event>
 7    1  0.5622879E-006  0.3319827E+02  0.7818608E-02  0.1585469E+00
          2   -1    0    0  502    0  0.00000000000E+00  0.00000000000E+00  0.32755741480E+03  0.32755741480E+03  0.00000000000E+00 0. -1.
          1   -1    0    0  501    0 -0.00000000000E+00 -0.00000000000E+00 -0.26722166879E+03  0.26722166879E+03  0.00000000000E+00 0. -1.
         25    2    1    2    0    0 -0.74743405195E+01 -0.39589387074E+01 -0.85524186710E+01  0.12557677132E+03  0.12499937067E+03 0.  0.
          2    1    1    2  501    0 -0.23110895982E+02  0.17965065703E+02 -0.19802542378E+03  0.20017723538E+03  0.00000000000E+00 0. -1.
          1    1    1    2  502    0  0.30585236501E+02 -0.14006126996E+02  0.26691358847E+03  0.26902507689E+03  0.00000000000E+00 0. -1.
         22    1    3    3    0    0 -0.45463815725E+02 -0.11418428505E+02  0.41288112997E+02  0.62466369549E+02  0.00000000000E+00 0. -1.
         22    1    3    3    0    0  0.37989475205E+02  0.74594897973E+01 -0.49840531669E+02  0.63110401769E+02  0.00000000000E+00 0. -1.
</event>
<event>
 7    1  0.5622879E-006  0.7292081E+02  0.7818608E-02  0.1357404E+00
          2   -1    0    0  502    0  0.00000000000E+00  0.00000000000E+00  0.71626455183E+03  0.71626455183E+03  0.00000000000E+00 0. -1.
          1   -1    0    0  501    0 -0.00000000000E+00 -0.00000000000E+00 -0.41539778390E+03  0.41539778390E+03  0.00000000000E+00 0. -1.
         25    2    1    2    0    0 -0.98818631737E+02  0.82846441998E+02  0.48409069071E+03  0.51633053849E+03  0.12499909285E+03 0.  0.
          2    1    1    2  501    0  0.32451187080E+02 -0.64962025853E+02 -0.39037677084E+03  0.39707325214E+03  0.00000000000E+00 0. -1.
          1    1    1    2  502    0  0.66367444657E+02 -0.17884416145E+02  0.20715284806E+03  0.21825854511E+03  0.00000000000E+00 0. -1.
         22    1    3    3    0    0 -0.68285333231E+02  0.87689451811E+02  0.46888757403E+03  0.48187953243E+03  0.00000000000E+00 0.  1.
         22    1    3    3    0    0 -0.30533298506E+02 -0.48430098127E+01  0.15203116679E+02  0.34451006059E+02  0.00000000000E+00 0.  1.
</event>
<event>
 7    1  0.5622879E-006  0.3912655E+02  0.7818608E-02  0.1554122E+00
          2   -1    0    0  502    0  0.00000000000E+00  0.00000000000E+00  0.10263852208E+03  0.10263852208E+03  0.00000000000E+00 0. -1.
          1   -1    0    0  501    0 -0.00000000000E+00 -0.00000000000E+00 -0.16002657216E+04  0.16002657216E+04  0.00000000000E+00 0. -1.
         25    2    1    2    0    0 -0.18081036493E+02 -0.29994166433E+02 -0.54544014254E+03  0.56067448386E+03  0.12499741540E+03 0.  0.
          2    1    1    2  501    0 -0.20396831121E+02  0.22298019752E+02 -0.10429290571E+04  0.10433667862E+04  0.00000000000E+00 0. -1.
          1    1    1    2  502    0  0.38477867614E+02  0.76961466808E+01  0.90742000116E+02  0.98862973630E+02  0.00000000000E+00 0. -1.
         22    1    3    3    0    0 -0.18237790963E+02 -0.62963667249E+02 -0.14797794475E+03  0.16184718887E+03  0.00000000000E+00 0. -1.
         22    1    3    3    0    0  0.15675446937E+00  0.32969500816E+02 -0.39746219779E+03  0.39882729499E+03  0.00000000000E+00 0. -1.
</event>
<event>
 7    1  0.5622879E-006  0.7127183E+02  0.7818608E-02  0.1434312E+00
          2   -1    0    0  502    0  0.00000000000E+00  0.00000000000E+00  0.85522333885E+03  0.85522333885E+03  0.00000000000E+00 0. -1.
          1   -1    0    0  501    0 -0.00000000000E+00 -0.00000000000E+00 -0.13109535827E+04  0.13109535827E+04  0.00000000000E+00 0. -1.
         25    2    1    2    0    0  0.28660321466E+02  0.66820542599E+02  0.25755909017E+03  0.29537875435E+03  0.12500209859E+03 0.  0.
          2    1    1    2  501    0 -0.37790699750E+02  0.47760076374E+01 -0.12895111436E+04  0.12900736167E+04  0.00000000000E+00 0. -1.
          1    1    1    2  502    0  0.91303782838E+01 -0.71596550237E+02  0.57622180950E+03  0.58072455051E+03  0.00000000000E+00 0. -1.
         22    1    3    3    0    0 -0.61893368901E+00  0.97841704019E+02  0.20884068613E+03  0.23062483454E+03  0.00000000000E+00 0.  1.
         22    1    3    3    0    0  0.29279255155E+02 -0.31021161420E+02  0.48718404039E+02  0.64753919807E+02  0.00000000000E+00 0.  1.
</event>
<event>
 7    1  0.5622879E-006  0.1071400E+03  0.7818608E-02  0.1374447E+00
          2   -1    0    0  502    0  0.00000000000E+00  0.00000000000E+00  0.10156714097E+04  0.10156714097E+04  0.00000000000E+00 0. -1.
          1   -1    0    0  501    0 -0.00000000000E+00 -0.00000000000E+00 -0.72610790285E+03  0.72610790285E+03  0.00000000000E+00 0. -1.
         25    2    1    2    0    0  0.35904108721E+01  0.14064142848E+03  0.39968752927E+03  0.44177884724E+03  0.12500210541E+03 0.  0.
          2    1    1    2  501    0  0.31572373318E+01 -0.40467926199E+02 -0.70023446559E+03  0.70140995716E+03  0.00000000000E+00 0. -1.
          1    1    1    2  502    0 -0.67476482039E+01 -0.10017350228E+03  0.59011044316E+03  0.59859050815E+03  0.00000000000E+00 0. -1.
         22    1    3    3    0    0 -0.92431183364E+01 -0.66212555523E+01  0.15842549801E+03  0.15883297731E+03  0.00000000000E+00 0.  1.
         22    1    3    3    0    0  0.12833529209E+02  0.14726268403E+03  0.24126203126E+03  0.28294586992E+03  0.00000000000E+00 0.  1.
</event>
<event>
 7    1  0.5622879E-006  0.1374302E+03  0.7818608E-02  0.1309027E+00
          2   -1    0    0  502    0  0.00000000000E+00  0.00000000000E+00  0.18893043502E+04  0.18893043502E+04  0.00000000000E+00 0. -1.
          1   -1    0    0  501    0 -0.00000000000E+00 -0.00000000000E+00 -0.97715250380E+03  0.97715250380E+03  0.00000000000E+00 0. -1.
         25    2    1    2    0    0 -0.82787645045E+02 -0.83687480874E+01  0.27456919448E+03  0.31294865545E+03  0.12499915308E+03 0.  0.
          2    1    1    2  501    0  0.13626273275E+03  0.23979324684E+02 -0.95247682207E+03  0.96247318764E+03  0.00000000000E+00 0. -1.
          1    1    1    2  502    0 -0.53475087710E+02 -0.15610576596E+02  0.15900594740E+04  0.15910350109E+04  0.00000000000E+00 0. -1.
         22    1    3    3    0    0  0.31012410546E+02 -0.10584702132E+02  0.36388046001E+02  0.48968310353E+02  0.00000000000E+00 0. -1.
         22    1    3    3    0    0 -0.11380005559E+03  0.22159540444E+01  0.23818114848E+03  0.26398034509E+03  0.00000000000E+00 0. -1.
</event>
<event>
 7    1  0.5622879E-006  0.1376491E+03  0.7818608E-02  0.1422249E+00
          2   -1    0    0  502    0  0.00000000000E+00  0.00000000000E+00  0.93694288560E+03  0.93694288560E+03  0.00000000000E+00 0. -1.
          1   -1    0    0  501    0 -0.00000000000E+00 -0.00000000000E+00 -0.10245250533E+03  0.10245250533E+03  0.00000000000E+00 0. -1.
         25    2    1    2    0    0 -0.70444407180E+02  0.10110625483E+03  0.17260910757E+03  0.24617932768E+03  0.12500187235E+03 0.  0.
          2    1    1    2  501    0  0.89146286066E+02 -0.11194622250E+03  0.12691599390E+02  0.14366660623E+03  0.00000000000E+00 0. -1.
          1    1    1    2  502    0 -0.18701878886E+02  0.10839967668E+02  0.64918967331E+03  0.64954945701E+03  0.00000000000E+00 0. -1.
         22    1    3    3    0    0  0.17766670106E+02  0.58315351927E+02  0.12075146649E+03  0.13526733345E+03  0.00000000000E+00 0. -1.
         22    1    3    3    0    0 -0.88211077286E+02  0.42790902906E+02  0.51857641077E+02  0.11091199424E+03  0.00000000000E+00 0. -1.
</event>
<event>
 7    1  0.5622879E-006  0.1849202E+03  0.7818608E-02  0.1232889E+00
          2   -1    0    0  502    0  0.00000000000E+00  0.00000000000E+00  0.18713366121E+03  0.18713366121E+03  0.00000000000E+00 0. -1.
          1   -1    0    0  501    0 -0.00000000000E+00 -0.00000000000E+00 -0.99837469544E+03  0.99837469544E+03  0.00000000000E+00 0. -1.
         25    2    1    2    0    0  0.40820621775E+02 -0.20672493758E+03 -0.24014557157E+03  0.34306904466E+03  0.12499980352E+03 0.  0.
          2    1    1    2  501    0 -0.10507216678E+03  0.14895054683E+03 -0.67966416947E+03  0.70368303155E+03  0.00000000000E+00 0. -1.
          1    1    1    2  502    0  0.64251545003E+02  0.57774390754E+02  0.10856870682E+03  0.13875628044E+03  0.00000000000E+00 0. -1.
         22    1    3    3    0    0  0.78941743464E+02 -0.14551580291E+03 -0.12596061711E+03  0.20802097207E+03  0.00000000000E+00 0. -1.
         22    1    3    3    0    0 -0.38121121689E+02 -0.61209134677E+02 -0.11418495446E+03  0.13504807260E+03  0.00000000000E+00 0. -1.
</event>
<event>
 7    1  0.5622879E-006  0.4492636E+02  0.7818608E-02  0.1504495E+00
          2   -1    0    0  502    0  0.00000000000E+00  0.00000000000E+00  0.66347289317E+03  0.66347289317E+03  0.00000000000E+00 0. -1.
          1   -1    0    0  501    0 -0.00000000000E+00 -0.00000000000E+00 -0.20125342028E+03  0.20125342028E+03  0.00000000000E+00 0. -1.
         25    2    1    2    0    0 -0.45757499977E+02  0.63245221460E+02  0.78017895541E+00  0.14737356927E+03  0.12499861359E+03 0.  0.
          2    1    1    2  501    0  0.29286323019E+02 -0.21829655352E+02 -0.12448619368E+03  0.12973447878E+03  0.00000000000E+00 0. -1.
          1    1    1    2  502    0  0.16471176958E+02 -0.41415566108E+02  0.58592548761E+03  0.58761826539E+03  0.00000000000E+00 0. -1.
         22    1    3    3    0    0 -0.72741646516E+02  0.77930912304E+02  0.23499214211E+02  0.10916403849E+03  0.00000000000E+00 0. -1.
         22    1    3    3    0    0  0.26984146539E+02 -0.14685690844E+02 -0.22719035256E+02  0.38209530787E+02  0.00000000000E+00 0. -1.
</event>
<event>
 7    1  0.5622879E-006  0.7104390E+02  0.7818608E-02  0.1506981E+00
          2   -1    0    0  502    0  0.00000000000E+00  0.00000000000E+00  0.15807419866E+04  0.15807419866E+04  0.00000000000E+00 0. -1.
          1   -1    0    0  501    0 -0.00000000000E+00 -0.00000000000E+00 -0.60947040670E+02  0.60947040670E+02  0.00000000000E+00 0. -1.
         25    2    1    2    0    0 -0.79142246788E+02  0.21094625163E+02  0.23049560257E+03  0.27469994413E+03  0.12499343208E+03 0.  0.
          2    1    1    2  501    0  0.17820612886E+02  0.14078018500E+02 -0.34499785947E+02  0.41303753812E+02  0.00000000000E+00 0. -1.
          1    1    1    2  502    0  0.61321633901E+02 -0.35172643663E+02  0.13237991293E+04  0.13256853293E+04  0.00000000000E+00 0. -1.
         22    1    3    3    0    0 -0.96152768396E+02  0.55187220118E+02  0.18072376411E+03  0.21201901577E+03  0.00000000000E+00 0.  1.
         22    1    3    3    0    0  0.17010521608E+02 -0.34092594955E+02  0.49771838463E+02  0.62680928360E+02  0.00000000000E+00 0.  1.
</event>
<event>
 7    1  0.5622879E-006  0.7977907E+02  0.7818608E-02  0.1360336E+00
          2   -1    0    0  502    0  0.00000000000E+00  0.00000000000E+00  0.22890467837E+04  0.22890467837E+04  0.00000000000E+00 0. -1.
          1   -1    0    0  501    0 -0.00000000000E+00 -0.00000000000E+00 -0.19555137643E+02  0.19555137643E+02  0.00000000000E+00 0. -1.
         25    2    1    2    0    0 -0.66107307459E+02 -0.31198191268E+02  0.17758934890E+04  0.17817875474E+04  0.12500270670E+03 0.  0.
          2    1    1    2  501    0 -0.67769908708E+01 -0.60918451341E+02  0.23370291321E+03  0.24160719559E+03  0.00000000000E+00 0. -1.
          1    1    1    2  502    0  0.72884298329E+02  0.92116642609E+02  0.25989524384E+03  0.28520717831E+03  0.00000000000E+00 0. -1.
         22    1    3    3    0    0 -0.22602498265E+02  0.30333800727E+01  0.49433553665E+02  0.54440339367E+02  0.00000000000E+00 0.  1.
         22    1    3    3    0    0 -0.43504809194E+02 -0.34231571341E+02  0.17264599353E+04  0.17273472080E+04  0.00000000000E+00 0.  1.
</event>
<event>
 7    1  0.5622879E-006  0.3906077E+02  0.7818608E-02  0.1583938E+00
          2   -1    0    0  502    0  0.00000000000E+00  0.00000000000E+00  0.23906524925E+03  0.23906524925E+03  0.00000000000E+00 0. -1.
          1   -1    0    0  501    0 -0.00000000000E+00 -0.00000000000E+00 -0.57153427995E+03  0.57153427995E+03  0.00000000000E+00 0. -1.
         25    2    1    2    0    0 -0.11244089722E+02  0.10706650605E+02 -0.47110177470E+03  0.48764989029E+03  0.12499788577E+03 0.  0.
          2    1    1    2  501    0 -0.24609061145E+02  0.50086514385E+01 -0.88743339555E+02  0.92228373048E+02  0.00000000000E+00 0. -1.
          1    1    1    2  502    0  0.35853150868E+02 -0.15715302043E+02  0.22737608356E+03  0.23072126586E+03  0.00000000000E+00 0. -1.
         22    1    3    3    0    0  0.34591771594E+02  0.43892355691E+02 -0.12461341123E+03  0.13657097719E+03  0.00000000000E+00 0. -1.
         22    1    3    3    0    0 -0.45835861316E+02 -0.33185705086E+02 -0.34648836347E+03  0.35107891310E+03  0.00000000000E+00 0. -1.
</event>
<event>
 7    1  0.5622879E-006  0.8835375E+02  0.7818608E-02  0.1333470E+00
          2   -1    0    0  502    0  0.00000000000E+00  0.00000000000E+00  0.62267663670E+03  0.62267663670E+03  0.00000000000E+00 0. -1.
          1   -1    0    0  501    0 -0.00000000000E+00 -0.00000000000E+00 -0.76995074782E+03  0.76995074782E+03  0.00000000000E+00 0. -1.
         25    2    1    2    0    0  0.86326191909E+02 -0.37050767960E+02  0.18850932709E+03  0.24492087785E+03  0.12500199674E+03 0.  0.
          2    1    1    2  501    0 -0.51082625753E+02 -0.47390133866E+02 -0.73492013288E+03  0.73821599899E+03  0.00000000000E+00 0. -1.
          1    1    1    2  502    0 -0.35243566156E+02  0.84440901826E+02  0.39913669467E+03  0.40949050769E+03  0.00000000000E+00 0. -1.
         22    1    3    3    0    0 -0.14075144521E+02  0.31396265652E+02  0.34218739644E+02  0.48525841909E+02  0.00000000000E+00 0. -1.
         22    1    3    3    0    0  0.10040133643E+03 -0.68447033612E+02  0.15429058745E+03  0.19639503594E+03  0.00000000000E+00 0. -1.
</event>
<event>
 7    1  0.6256952E-006  0.6644965E+02  0.7818608E-02  0.1409500E+00
          2   -1    0    0  502    0  0.00000000000E+00  0.00000000000E+00  0.64851486286E+03  0.64851486286E+03  0.00000000000E+00 0. -1.
          1   -1    0    0  501    0 -0.00000000000E+00 -0.00000000000E+00 -0.13562359829E+04  0.13562359829E+04  0.00000000000E+00 0. -1.
         25    2    1    2    0    0  0.19804079718E+02  0.13565416262E+02 -0.95766769017E+02  0.15928986454E+03  0.12500305918E+03 0.  0.
          2    1    1    2  501    0 -0.67791062406E+02 -0.17516900608E+01 -0.12267797391E+04  0.12286526054E+04  0.00000000000E+00 0. -1.
          1    1    1    2  502    0  0.47986982688E+02 -0.11813726201E+02  0.61482538808E+03  0.61680837580E+03  0.00000000000E+00 0. -1.
         22    1    3    3    0    0  0.63538569414E+02  0.27049495309E+02 -0.89579506097E+02  0.11310752810E+03  0.00000000000E+00 0.  1.
         22    1    3    3    0    0 -0.43734489696E+02 -0.13484079047E+02 -0.61872629200E+01  0.46182336441E+02  0.00000000000E+00 0.  1.
</event>
<event>
 7    1  0.5622879E-006  0.8538010E+02  0.7818608E-02  0.1390646E+00
          2   -1    0    0  502    0  0.00000000000E+00  0.00000000000E+00  0.76535056392E+03  0.76535056392E+03  0.00000000000E+00 0. -1.
          1   -1    0    0  501    0 -0.00000000000E+00 -0.00000000000E+00 -0.14659537631E+03  0.14659537631E+03  0.00000000000E+00 0. -1.
         25    2    1    2    0    0  0.18383395960E+02  0.10959120798E+03  0.73093855991E+02  0.18252533459E+03  0.12499841547E+03 0.  0.
          2    1    1    2  501    0  0.24865678693E+02 -0.37090588202E+02 -0.83462856906E+02  0.94657605046E+02  0.00000000000E+00 0. -1.
          1    1    1    2  502    0 -0.43249074653E+02 -0.72500619782E+02  0.62912418853E+03  0.63476300059E+03  0.00000000000E+00 0. -1.
         22    1    3    3    0    0  0.65049278759E+00 -0.25401855773E+02  0.30854526555E+02  0.39970979804E+02  0.00000000000E+00 0. -1.
         22    1    3    3    0    0  0.17732903173E+02  0.13499306376E+03  0.42239329436E+02  0.14255435479E+03  0.00000000000E+00 0. -1.
</event>
<event>
 7    1  0.5622879E-006  0.1652985E+03  0.7818608E-02  0.1255734E+00
          2   -1    0    0  502    0  0.00000000000E+00  0.00000000000E+00  0.19193687808E+04  0.19193687808E+04  0.00000000000E+00 0. -1.
          1   -1    0    0  501    0 -0.00000000000E+00 -0.00000000000E+00 -0.40997197252E+03  0.40997197252E+03  0.00000000000E+00 0. -1.
         25    2    1    2    0    0  0.24006736554E+02  0.14582624517E+03 -0.17337762270E+03  0.25985599869E+03  0.12499489117E+03 0.  0.
          2    1    1    2  501    0 -0.98791287001E+02 -0.16319359429E+03 -0.14529939576E+03  0.23979946208E+03  0.00000000000E+00 0. -1.
          1    1    1    2  502    0  0.74784550447E+02  0.17367349119E+02  0.18280738267E+04  0.18296852925E+04  0.00000000000E+00 0. -1.
         22    1    3    3    0    0  0.91963828158E+01 -0.39618160478E+01  0.15429450937E+02  0.18393950079E+02  0.00000000000E+00 0.  1.
         22    1    3    3    0    0  0.14810353738E+02  0.14978806122E+03 -0.18880707364E+03  0.24146204861E+03  0.00000000000E+00 0.  1.
</event>
<event>
 7    1  0.5622879E-006  0.5752501E+02  0.7818608E-02  0.1452960E+00
          2   -1    0    0  502    0  0.00000000000E+00  0.00000000000E+00  0.51239454241E+03  0.51239454241E+03  0.00000000000E+00 0. -1.
          1   -1    0    0  501    0 -0.00000000000E+00 -0.00000000000E+00 -0.12177878728E+04  0.12177878728E+04  0.00000000000E+00 0. -1.
         25    2    1    2    0    0 -0.18633140377E+02  0.23847152228E+02 -0.40636871100E+03  0.42623608184E+03  0.12500315034E+03 0.  0.
          2    1    1    2  501    0  0.59094946519E+02 -0.16720257840E+02 -0.79946592787E+03  0.80182139504E+03  0.00000000000E+00 0. -1.
          1    1    1    2  502    0 -0.40461806142E+02 -0.71268943882E+01  0.50044130851E+03  0.50212493828E+03  0.00000000000E+00 0. -1.
         22    1    3    3    0    0 -0.14072459060E+02 -0.50162914082E+02 -0.12891334949E+03  0.13904317218E+03  0.00000000000E+00 0. -1.
         22    1    3    3    0    0 -0.45606813173E+01  0.74010066310E+02 -0.27745536151E+03  0.28719290966E+03  0.00000000000E+00 0. -1.
</event>
<event>
 7    1  0.5622879E-006  0.9491975E+02  0.7818608E-02  0.1466132E+00
          2   -1    0    0  502    0  0.00000000000E+00  0.00000000000E+00  0.26115525519E+02  0.26115525519E+02  0.00000000000E+00 0. -1.
          1   -1    0    0  501    0 -0.00000000000E+00 -0.00000000000E+00 -0.15166592867E+04  0.15166592867E+04  0.00000000000E+00 0. -1.
         25    2    1    2    0    0 -0.94679371124E+02  0.13282828146E+01 -0.11023290157E+04  0.11134272253E+04  0.12499991832E+03 0.  0.
          2    1    1    2  501    0  0.94151568436E+02  0.21291092781E+02 -0.39427909391E+03  0.40592343165E+03  0.00000000000E+00 0. -1.
          1    1    1    2  502    0  0.52780268849E+00 -0.22619375596E+02  0.60643484130E+01  0.23424155261E+02  0.00000000000E+00 0. -1.
         22    1    3    3    0    0 -0.42882627135E+02  0.24088602706E+02 -0.12306051937E+03  0.13252574059E+03  0.00000000000E+00 0. -1.
         22    1    3    3    0    0 -0.51796743989E+02 -0.22760319892E+02 -0.97926849636E+03  0.98090148476E+03  0.00000000000E+00 0. -1.
</event>
<event>
 7    1  0.5622879E-006  0.8601822E+02  0.7818608E-02  0.1325185E+00
          2   -1    0    0  502    0  0.00000000000E+00  0.00000000000E+00  0.26358819113E+04  0.26358819113E+04  0.00000000000E+00 0. -1.
          1   -1    0    0  501    0 -0.00000000000E+00 -0.00000000000E+00 -0.38604281586E+02  0.38604281586E+02  0.00000000000E+00 0. -1.
         25    2    1    2    0    0 -0.58835064189E+02  0.46719473165E+02  0.56406386894E+03  0.58261237599E+03  0.12499943381E+03 0.  0.
          2    1    1    2  501    0 -0.28078529479E+02 -0.71685822979E+02  0.24023759878E+02  0.80649873358E+02  0.00000000000E+00 0. -1.
          1    1    1    2  502    0  0.86913593669E+02  0.24966349815E+02  0.20091900009E+04  0.20112239436E+04  0.00000000000E+00 0. -1.
         22    1    3    3    0    0  0.36122525516E+02  0.22994663277E+02  0.25031661876E+03  0.25395275351E+03  0.00000000000E+00 0.  1.
         22    1    3    3    0    0 -0.94957589706E+02  0.23724809887E+02  0.31374725019E+03  0.32865962248E+03  0.00000000000E+00 0.  1.
</event>
<event>
 7    1  0.5622879E-006  0.3752650E+03  0.7818608E-02  0.1181054E+00
          2   -1    0    0  502    0  0.00000000000E+00  0.00000000000E+00  0.15330258316E+04  0.15330258316E+04  0.00000000000E+00 0. -1.
          1   -1    0    0  501    0 -0.00000000000E+00 -0.00000000000E+00 -0.22275111299E+03  0.22275111299E+03  0.00000000000E+00 0. -1.
         25    2    1    2    0    0 -0.79688783363E+02 -0.40154880540E+03  0.17260324258E+03  0.46152837552E+03  0.12499926699E+03 0.  0.
          2    1    1    2  501    0  0.56420360202E+02  0.33100330263E+03  0.29101006688E+03  0.44433467390E+03  0.00000000000E+00 0. -1.
          1    1    1    2  502    0  0.23268423161E+02  0.70545502774E+02  0.84666140917E+03  0.84991389520E+03  0.00000000000E+00 0. -1.
         22    1    3    3    0    0 -0.11095103540E+03 -0.27113764730E+03  0.13268852174E+03  0.32160845736E+03  0.00000000000E+00 0.  1.
         22    1    3    3    0    0  0.31262252039E+02 -0.13041115810E+03  0.39914720836E+02  0.13991991816E+03  0.00000000000E+00 0.  1.
</event>
<event>
 7    1  0.5622879E-006  0.5619266E+02  0.7818608E-02  0.1480313E+00
          2   -1    0    0  502    0  0.00000000000E+00  0.00000000000E+00  0.11331414118E+04  0.11331414118E+04  0.00000000000E+00 0. -1.
          1   -1    0    0  501    0 -0.00000000000E+00 -0.00000000000E+00 -0.25384640494E+03  0.25384640494E+03  0.00000000000E+00 0. -1.
         25    2    1    2    0    0  0.76766430802E+02 -0.15554640946E+02  0.27952933926E+03  0.31608456895E+03  0.12505107544E+03 0.  0.
          2    1    1    2  501    0 -0.30897063883E+02 -0.15446385987E+02 -0.23337880066E+03  0.23592135129E+03  0.00000000000E+00 0. -1.
          1    1    1    2  502    0 -0.45869366919E+02  0.31001026933E+02  0.83314446830E+03  0.83498189654E+03  0.00000000000E+00 0. -1.
         22    1    3    3    0    0  0.82309793278E+02 -0.53719914579E+02  0.24626451232E+03  0.26515456119E+03  0.00000000000E+00 0.  1.
         22    1    3    3    0    0 -0.55433624769E+01  0.38165273633E+02  0.33264826939E+02  0.50930007759E+02  0.00000000000E+00 0.  1.
</event>
<event>
 7    1  0.5622879E-006  0.7176708E+02  0.7818608E-02  0.1476106E+00
          2   -1    0    0  502    0  0.00000000000E+00  0.00000000000E+00  0.46383481588E+03  0.46383481588E+03  0.00000000000E+00 0. -1.
          1   -1    0    0  501    0 -0.00000000000E+00 -0.00000000000E+00 -0.27555134452E+03  0.27555134452E+03  0.00000000000E+00 0. -1.
         25    2    1    2    0    0 -0.90117472889E+02  0.90419384613E+01 -0.11523063806E+03  0.19262838388E+03  0.12499871503E+03 0.  0.
          2    1    1    2  501    0  0.67186920836E+02  0.67891794004E+01 -0.11174511670E+03  0.13056472109E+03  0.00000000000E+00 0. -1.
          1    1    1    2  502    0  0.22930552053E+02 -0.15831117862E+02  0.41525922611E+03  0.41619305542E+03  0.00000000000E+00 0. -1.
         22    1    3    3    0    0 -0.80058860057E+02 -0.29069210896E+02 -0.12570646139E+03  0.15184384917E+03  0.00000000000E+00 0.  1.
         22    1    3    3    0    0 -0.10058612832E+02  0.38111149357E+02  0.10475823328E+02  0.40784534714E+02  0.00000000000E+00 0.  1.
</event>
<event>
 7    1  0.5622879E-006  0.8023577E+02  0.7818608E-02  0.1450057E+00
          2   -1    0    0  502    0  0.00000000000E+00  0.00000000000E+00  0.20355735381E+04  0.20355735381E+04  0.00000000000E+00 0. -1.
          1   -1    0    0  501    0 -0.00000000000E+00 -0.00000000000E+00 -0.18296739307E+04  0.18296739307E+04  0.00000000000E+00 0. -1.
         25    2    1    2    0    0  0.55441533607E+02 -0.36857098424E+02 -0.87321592242E+02  0.16637607559E+03  0.12499491471E+03 0.  0.
          2    1    1    2  501    0 -0.46825954968E+02  0.65688347518E+02 -0.17017561544E+04  0.17036671149E+04  0.00000000000E+00 0. -1.
          1    1    1    2  502    0 -0.86155786388E+01 -0.28831249094E+02  0.19949773541E+04  0.19952042784E+04  0.00000000000E+00 0. -1.
         22    1    3    3    0    0  0.88294421848E+02 -0.21992809736E+02 -0.24982888188E+02  0.94359595759E+02  0.00000000000E+00 0. -1.
         22    1    3    3    0    0 -0.32852888241E+02 -0.14864288689E+02 -0.62338704055E+02  0.72016479831E+02  0.00000000000E+00 0. -1.
</event>
<event>
 7    1  0.5622879E-006  0.1119395E+03  0.7818608E-02  0.1269685E+00
          2   -1    0    0  502    0  0.00000000000E+00  0.00000000000E+00  0.69548128963E+03  0.69548128963E+03  0.00000000000E+00 0. -1.
          1   -1    0    0  501    0 -0.00000000000E+00 -0.00000000000E+00 -0.27579125426E+03  0.27579125426E+03  0.00000000000E+00 0. -1.
         25    2    1    2    0    0  0.63104267168E+02  0.59721483447E+02 -0.38700950431E+02  0.15707479903E+03  0.12500369917E+03 0.  0.
          2    1    1    2  501    0  0.38062411797E+01 -0.13255872070E+03 -0.14861881513E+03  0.19918296643E+03  0.00000000000E+00 0. -1.
          1    1    1    2  502    0 -0.66910508347E+02  0.72837237254E+02  0.60700980093E+03  0.61501477842E+03  0.00000000000E+00 0. -1.
         22    1    3    3    0    0  0.61350229311E+01  0.24881232180E+02 -0.76265649783E+02  0.80455972792E+02  0.00000000000E+00 0. -1.
         22    1    3    3    0    0  0.56969244237E+02  0.34840251267E+02  0.37564699352E+02  0.76618826241E+02  0.00000000000E+00 0. -1.
</event>
<event>
 7    1  0.5622879E-006  0.2444402E+03  0.7818608E-02  0.1222969E+00
          2   -1    0    0  502    0  0.00000000000E+00  0.00000000000E+00  0.32734405010E+04  0.32734405010E+04  0.00000000000E+00 0. -1.
          1   -1    0    0  501    0 -0.00000000000E+00 -0.00000000000E+00 -0.11914604769E+04  0.11914604769E+04  0.00000000000E+00 0. -1.
         25    2    1    2    0    0  0.22743691241E+03  0.49966425194E+02  0.23707504626E+04  0.23854365054E+04  0.12500149189E+03 0.  0.
          2    1    1    2  501    0 -0.24368539953E+03  0.20629976856E+02 -0.11699881205E+04  0.11952741828E+04  0.00000000000E+00 0. -1.
          1    1    1    2  502    0  0.16248487118E+02 -0.70596402050E+02  0.88121768204E+03  0.88419028973E+03  0.00000000000E+00 0. -1.
         22    1    3    3    0    0 -0.15955130096E+02  0.75242381157E+00  0.14285669973E+03  0.14374689206E+03  0.00000000000E+00 0.  1.
         22    1    3    3    0    0  0.24339204251E+03  0.49214001383E+02  0.22278937628E+04  0.22416896134E+04  0.00000000000E+00 0.  1.
</event>
<event>
 7    1  0.5622879E-006  0.1786496E+03  0.7818608E-02  0.1237716E+00
          2   -1    0    0  502    0  0.00000000000E+00  0.00000000000E+00  0.16832830478E+04  0.16832830478E+04  0.00000000000E+00 0. -1.
          1   -1    0    0  501    0 -0.00000000000E+00 -0.00000000000E+00 -0.86375056966E+03  0.86375056966E+03  0.00000000000E+00 0. -1.
         25    2    1    2    0    0  0.12684067538E+03  0.11746033986E+03  0.32190314445E+03  0.38617651514E+03  0.12500071229E+03 0.  0.
          2    1    1    2  501    0  0.49700193295E+02 -0.69113804819E+02 -0.82310691403E+03  0.82749732274E+03  0.00000000000E+00 0. -1.
          1    1    1    2  502    0 -0.17654086868E+03 -0.48346535041E+02  0.13207362477E+04  0.13333597796E+04  0.00000000000E+00 0. -1.
         22    1    3    3    0    0  0.60159633170E+02  0.26164234726E+02  0.23384857290E+03  0.24287631356E+03  0.00000000000E+00 0.  1.
         22    1    3    3    0    0  0.66681042212E+02  0.91296105134E+02  0.88054571543E+02  0.14330020158E+03  0.00000000000E+00 0.  1.
</event>
<event>
 7    1  0.5622879E-006  0.6128053E+02  0.7818608E-02  0.1523100E+00
          2   -1    0    0  502    0  0.00000000000E+00  0.00000000000E+00  0.20885714298E+04  0.20885714298E+04  0.00000000000E+00 0. -1.
          1   -1    0    0  501    0 -0.00000000000E+00 -0.00000000000E+00 -0.13010850541E+03  0.13010850541E+03  0.00000000000E+00 0. -1.
         25    2    1    2    0    0  0.33867570905E+02  0.50245259725E+02  0.10712962675E+04  0.10802646193E+04  0.12499742571E+03 0.  0.
          2    1    1    2  501    0 -0.51022296526E+02 -0.34006904041E+02 -0.11799518132E+03  0.13297596430E+03  0.00000000000E+00 0. -1.
          1    1    1    2  502    0  0.17154725621E+02 -0.16238355684E+02  0.10051618382E+04  0.10054393517E+04  0.00000000000E+00 0. -1.
         22    1    3    3    0    0  0.36678084991E+02 -0.36171029345E+02  0.34125325494E+03  0.34511941309E+03  0.00000000000E+00 0.  1.
         22    1    3    3    0    0 -0.28105140862E+01  0.86416289071E+02  0.73004301253E+03  0.73514520617E+03  0.00000000000E+00 0.  1.
</event>
<event>
 7    1  0.5622879E-006  0.1239899E+03  0.7818608E-02  0.1300940E+00
          2   -1    0    0  502    0  0.00000000000E+00  0.00000000000E+00  0.11558392703E+04  0.11558392703E+04  0.00000000000E+00 0. -1.
          1   -1    0    0  501    0 -0.00000000000E+00 -0.00000000000E+00 -0.16120517827E+03  0.16120517827E+03  0.00000000000E+00 0. -1.
         25    2    1    2    0    0  0.34224808950E+02 -0.68968033108E+02  0.68859151948E+02  0.16215098347E+03  0.12499372582E+03 0.  0.
          2    1    1    2  501    0 -0.47818248556E+02  0.13404907720E+03 -0.68813343078E+02  0.15808547111E+03  0.00000000000E+00 0. -1.
          1    1    1    2  502    0  0.13593439607E+02 -0.65081044088E+02  0.99458828311E+03  0.99680799395E+03  0.00000000000E+00 0. -1.
         22    1    3    3    0    0 -0.30254184999E+02 -0.74341809458E+02  0.25312122770E+02  0.84158920517E+02  0.00000000000E+00 0.  1.
         22    1    3    3    0    0  0.64478993949E+02  0.53737763507E+01  0.43547029179E+02  0.77992062950E+02  0.00000000000E+00 0.  1.
</event>
<event>
 7    1  0.5622879E-006  0.4403225E+02  0.7818608E-02  0.1580783E+00
          2   -1    0    0  502    0  0.00000000000E+00  0.00000000000E+00  0.10451096829E+03  0.10451096829E+03  0.00000000000E+00 0. -1.
          1   -1    0    0  501    0 -0.00000000000E+00 -0.00000000000E+00 -0.16327265478E+04  0.16327265478E+04  0.00000000000E+00 0. -1.
         25    2    1    2    0    0 -0.28786308167E+02  0.48840760493E+01 -0.31277011306E+02  0.13212089526E+03  0.12500069517E+03 0.  0.
          2    1    1    2  501    0 -0.15895185778E+02 -0.16226950529E+02 -0.15411064579E+04  0.15412738515E+04  0.00000000000E+00 0. -1.
          1    1    1    2  502    0  0.44681493944E+02  0.11342874480E+02  0.44167889729E+02  0.63842769252E+02  0.00000000000E+00 0. -1.
         22    1    3    3    0    0 -0.65180078696E+02 -0.14436043263E+02 -0.53276110476E+02  0.85411860719E+02  0.00000000000E+00 0. -1.
         22    1    3    3    0    0  0.36393770529E+02  0.19320119312E+02  0.21999099171E+02  0.46709034543E+02  0.00000000000E+00 0. -1.
</event>
<event>
 7    1  0.5622879E-006  0.1942158E+03  0.7818608E-02  0.1324574E+00
          2   -1    0    0  502    0  0.00000000000E+00  0.00000000000E+00  0.82931557312E+03  0.82931557312E+03  0.00000000000E+00 0. -1.
          1   -1    0    0  501    0 -0.00000000000E+00 -0.00000000000E+00 -0.72535296046E+03  0.72535296046E+03  0.00000000000E+00 0. -1.
         25    2    1    2    0    0 -0.15772794047E+02  0.16331822451E+03 -0.10689586602E+03  0.23232205370E+03  0.12500074789E+03 0.  0.
          2    1    1    2  501    0 -0.15282582034E+02  0.30688647678E+02 -0.54260509610E+03  0.54368707978E+03  0.00000000000E+00 0. -1.
          1    1    1    2  502    0  0.31055376081E+02 -0.19400687219E+03  0.75346357478E+03  0.77865940010E+03  0.00000000000E+00 0. -1.
         22    1    3    3    0    0  0.50268306713E+02  0.39258084946E+02 -0.48513128185E+02  0.80135032912E+02  0.00000000000E+00 0. -1.
         22    1    3    3    0    0 -0.66041100760E+02  0.12406013957E+03 -0.58382737831E+02  0.15218702079E+03  0.00000000000E+00 0. -1.
</event>
<event>
 7    1  0.5622879E-006  0.5865334E+02  0.7818608E-02  0.1494610E+00
          2   -1    0    0  502    0  0.00000000000E+00  0.00000000000E+00  0.30848772403E+04  0.30848772403E+04  0.00000000000E+00 0. -1.
          1   -1    0    0  501    0 -0.00000000000E+00 -0.00000000000E+00 -0.65142947470E+03  0.65142947470E+03  0.00000000000E+00 0. -1.
         25    2    1    2    0    0 -0.23742349180E+02 -0.16190479329E+02  0.17863527817E+04  0.17909514699E+04  0.12500030475E+03 0.  0.
          2    1    1    2  501    0  0.49013964388E+02  0.32255984325E+02 -0.64763070967E+03  0.65028328699E+03  0.00000000000E+00 0. -1.
          1    1    1    2  502    0 -0.25271615208E+02 -0.16065504996E+02  0.12947256936E+04  0.12950719581E+04  0.00000000000E+00 0. -1.
         22    1    3    3    0    0  0.31205005181E+02 -0.13034088275E+01  0.14074000956E+04  0.14077465966E+04  0.00000000000E+00 0.  1.
         22    1    3    3    0    0 -0.54947354361E+02 -0.14887070501E+02  0.37895268611E+03  0.38320487331E+03  0.00000000000E+00 0.  1.
</event>
<event>
 7    1  0.5622879E-006  0.1154271E+03  0.7818608E-02  0.1298446E+00
          2   -1    0    0  502    0  0.00000000000E+00  0.00000000000E+00  0.19871627819E+04  0.19871627819E+04  0.00000000000E+00 0. -1.
          1   -1    0    0  501    0 -0.00000000000E+00 -0.00000000000E+00 -0.11183037403E+03  0.11183037403E+03  0.00000000000E+00 0. -1.
         25    2    1    2    0    0 -0.15911835121E+03 -0.61648354520E+02  0.10217992049E+04  0.10434640996E+04  0.12499817060E+03 0.  0.
          2    1    1    2  501    0  0.87021114685E+02  0.73588909808E+02 -0.66932812043E+02  0.13216657435E+03  0.00000000000E+00 0. -1.
          1    1    1    2  502    0  0.72097236524E+02 -0.11940555288E+02  0.92046601502E+03  0.92336248201E+03  0.00000000000E+00 0. -1.
         22    1    3    3    0    0 -0.11607403539E+03 -0.52318848850E+02  0.39268026588E+03  0.41280532318E+03  0.00000000000E+00 0.  1.
         22    1    3    3    0    0 -0.43044315815E+02 -0.93295056701E+01  0.62911893903E+03  0.63065877640E+03  0.00000000000E+00 0.  1.
</event>
<event>
 7    1  0.5622879E-006  0.6200756E+02  0.7818608E-02  0.1477244E+00
          2   -1    0    0  502    0  0.00000000000E+00  0.00000000000E+00  0.93328614675E+03  0.93328614675E+03  0.00000000000E+00 0. -1.
          1   -1    0    0  501    0 -0.00000000000E+00 -0.00000000000E+00 -0.10774011519E+03  0.10774011519E+03  0.00000000000E+00 0. -1.
         25    2    1    2    0    0  0.41400348938E+02 -0.45860257277E+02 -0.31541994071E+02  0.14296044382E+03  0.12500255604E+03 0.  0.
          2    1    1    2  501    0 -0.28328244984E+02 -0.14863185127E+02 -0.61664146569E+01  0.32579570374E+02  0.00000000000E+00 0. -1.
          1    1    1    2  502    0 -0.13072103954E+02  0.60723442404E+02  0.86325444029E+03  0.86548624775E+03  0.00000000000E+00 0. -1.
         22    1    3    3    0    0  0.21705766660E+01  0.22491874600E+02  0.33751179269E+02  0.40616966014E+02  0.00000000000E+00 0.  1.
         22    1    3    3    0    0  0.39229772272E+02 -0.68352131877E+02 -0.65293173340E+02  0.10234347781E+03  0.00000000000E+00 0.  1.
</event>
<event>
 7    1  0.5622879E-006  0.2292377E+03  0.7818608E-02  0.1287150E+00
          2   -1    0    0  502    0  0.00000000000E+00  0.00000000000E+00  0.22608763505E+04  0.22608763505E+04  0.00000000000E+00 0. -1.
          1   -1    0    0  501    0 -0.00000000000E+00 -0.00000000000E+00 -0.10480924529E+03  0.10480924529E+03  0.00000000000E+00 0. -1.
         25    2    1    2    0    0 -0.21810339356E+03  0.29271970546E+02  0.57682724857E+03  0.62990492184E+03  0.12499838929E+03 0.  0.
          2    1    1    2  501    0  0.23243792795E+03  0.90170453017E+01  0.95461326208E+02  0.25143898317E+03  0.00000000000E+00 0. -1.
          1    1    1    2  502    0 -0.14334534388E+02 -0.38289015848E+02  0.14837785305E+04  0.14843416908E+04  0.00000000000E+00 0. -1.
         22    1    3    3    0    0 -0.98845075358E+01 -0.20206450763E+01  0.18339777562E+03  0.18367506798E+03  0.00000000000E+00 0. -1.
         22    1    3    3    0    0 -0.20821888602E+03  0.31292615622E+02  0.39342947295E+03  0.44622985386E+03  0.00000000000E+00 0. -1.
</event>
<event>
 7    1  0.5622879E-006  0.7901943E+02  0.7818608E-02  0.1415385E+00
          2   -1    0    0  502    0  0.00000000000E+00  0.00000000000E+00  0.25741847218E+02  0.25741847218E+02  0.00000000000E+00 0. -1.
          1   -1    0    0  501    0 -0.00000000000E+00 -0.00000000000E+00 -0.18410388689E+04  0.18410388689E+04  0.00000000000E+00 0. -1.
         25    2    1    2    0    0 -0.61018125863E+02  0.61038838678E+02 -0.79866821245E+03  0.81298515500E+03  0.12499998867E+03 0.  0.
          2    1    1    2  501    0  0.24012302679E+02 -0.75413282582E+02 -0.10105368157E+04  0.10136312987E+04  0.00000000000E+00 0. -1.
          1    1    1    2  502    0  0.37005823184E+02  0.14374443904E+02 -0.60919935161E+01  0.40164262375E+02  0.00000000000E+00 0. -1.
         22    1    3    3    0    0  0.49486569018E+01 -0.85485829137E+01 -0.14054653465E+01  0.99771142022E+01  0.00000000000E+00 0. -1.
         22    1    3    3    0    0 -0.65966782765E+02  0.69587421592E+02 -0.79726274710E+03  0.80300804080E+03  0.00000000000E+00 0. -1.
</event>
<event>
 7    1  0.5622879E-006  0.4188052E+02  0.7818608E-02  0.1524675E+00
          2   -1    0    0  502    0  0.00000000000E+00  0.00000000000E+00  0.18514612823E+04  0.18514612823E+04  0.00000000000E+00 0. -1.
          1   -1    0    0  501    0 -0.00000000000E+00 -0.00000000000E+00 -0.43501002664E+03  0.43501002664E+03  0.00000000000E+00 0. -1.
         25    2    1    2    0    0  0.68519724939E+02  0.68827220865E+01  0.37550455760E+03  0.40171222856E+03  0.12500686870E+03 0.  0.
          2    1    1    2  501    0 -0.36844787689E+02 -0.19788363895E+02 -0.42066919269E+03  0.42274305128E+03  0.00000000000E+00 0. -1.
          1    1    1    2  502    0 -0.31674937250E+02  0.12905641809E+02  0.14616158908E+04  0.14620160291E+04  0.00000000000E+00 0. -1.
         22    1    3    3    0    0  0.19278626358E+02  0.63489022988E+02  0.20387901637E+03  0.21440423221E+03  0.00000000000E+00 0.  1.
         22    1    3    3    0    0  0.49241098580E+02 -0.56606300902E+02  0.17162554124E+03  0.18730799635E+03  0.00000000000E+00 0.  1.
</event>
<event>
 7    1  0.5622879E-006  0.9439393E+02  0.7818608E-02  0.1460438E+00
          2   -1    0    0  502    0  0.00000000000E+00  0.00000000000E+00  0.52424237645E+03  0.52424237645E+03  0.00000000000E+00 0. -1.
          1   -1    0    0  501    0 -0.00000000000E+00 -0.00000000000E+00 -0.12544831573E+04  0.12544831573E+04  0.00000000000E+00 0. -1.
         25    2    1    2    0    0 -0.91297453887E+02 -0.26759131583E+02 -0.14141624163E+03  0.21136416869E+03  0.12499992881E+03 0.  0.
          2    1    1    2  501    0  0.94459751877E+02  0.32632658725E+01 -0.10757324344E+04  0.10798766430E+04  0.00000000000E+00 0. -1.
          1    1    1    2  502    0 -0.31622979893E+01  0.23495865711E+02  0.48690789520E+03  0.48748472206E+03  0.00000000000E+00 0. -1.
         22    1    3    3    0    0  0.19274836179E+01 -0.41046103806E+02 -0.10046553215E+03  0.10854409694E+03  0.00000000000E+00 0.  1.
         22    1    3    3    0    0 -0.93224937505E+02  0.14286972222E+02 -0.40950709476E+02  0.10282007175E+03  0.00000000000E+00 0.  1.
</event>
<event>
 7    1  0.5622879E-006  0.7846098E+02  0.7818608E-02  0.1364135E+00
          2   -1    0    0  502    0  0.00000000000E+00  0.00000000000E+00  0.12532092050E+04  0.12532092050E+04  0.00000000000E+00 0. -1.
          1   -1    0    0  501    0 -0.00000000000E+00 -0.00000000000E+00 -0.17108599028E+04  0.17108599028E+04  0.00000000000E+00 0. -1.
         25    2    1    2    0    0 -0.32075730891E+02 -0.34475311473E+02 -0.42684652637E+02  0.14021122393E+03  0.12497923080E+03 0.  0.
          2    1    1    2  501    0  0.79351960798E+02 -0.30720756752E+01 -0.16176808284E+04  0.16196287951E+04  0.00000000000E+00 0. -1.
          1    1    1    2  502    0 -0.47276229908E+02  0.37547387148E+02  0.12027147833E+04  0.12042290887E+04  0.00000000000E+00 0. -1.
         22    1    3    3    0    0 -0.32773162651E+02 -0.40987907606E+02  0.34464538059E+02  0.62784497639E+02  0.00000000000E+00 0. -1.
         22    1    3    3    0    0  0.69743176036E+00  0.65125961331E+01 -0.77149190696E+02  0.77426726294E+02  0.00000000000E+00 0. -1.
</event>
<event>
 7    1  0.5852543E-006  0.8703894E+02  0.7818608E-02  0.1362382E+00
          2   -1    0    0  502    0  0.00000000000E+00  0.00000000000E+00  0.88343971504E+03  0.88343971504E+03  0.00000000000E+00 0. -1.
          1   -1    0    0  501    0 -0.00000000000E+00 -0.00000000000E+00 -0.94772004762E+03  0.94772004762E+03  0.00000000000E+00 0. -1.
         25    2    1    2    0    0 -0.31344420651E+02 -0.42729960932E+02 -0.29413927416E+02  0.13891847341E+03  0.12499936345E+03 0.  0.
          2    1    1    2  501    0  0.31238393019E+02 -0.45542430738E+02 -0.86031524231E+03  0.86208599708E+03  0.00000000000E+00 0. -1.
          1    1    1    2  502    0  0.10602763193E+00  0.88272391670E+02  0.82544883715E+03  0.83015529217E+03  0.00000000000E+00 0. -1.
         22    1    3    3    0    0 -0.33062427686E+02 -0.66529662498E+02  0.25899876453E+02  0.78677339285E+02  0.00000000000E+00 0. -1.
         22    1    3    3    0    0  0.17180070352E+01  0.23799701566E+02 -0.55313803869E+02  0.60241134130E+02  0.00000000000E+00 0. -1.
</event>
<event>
 7    1  0.5622879E-006  0.1720850E+03  0.7818608E-02  0.1216557E+00
          2   -1    0    0  502    0  0.00000000000E+00  0.00000000000E+00  0.98415670102E+03  0.98415670102E+03  0.00000000000E+00 0. -1.
          1   -1    0    0  501    0 -0.00000000000E+00 -0.00000000000E+00 -0.73403128354E+03  0.73403128354E+03  0.00000000000E+00 0. -1.
         25    2    1    2    0    0  0.18052337787E+03  0.15154736134E+03 -0.15767745013E+03  0.30990751613E+03  0.12500079034E+03 0.  0.
          2    1    1    2  501    0 -0.70514277814E+02 -0.14786561505E+03 -0.48334957424E+03  0.51035606630E+03  0.00000000000E+00 0. -1.
          1    1    1    2  502    0 -0.11000910006E+03 -0.36817462966E+01  0.89115244185E+03  0.89792440214E+03  0.00000000000E+00 0. -1.
         22    1    3    3    0    0  0.97640011136E+02  0.15370004735E+03 -0.12460324621E+03  0.22064280024E+03  0.00000000000E+00 0. -1.
         22    1    3    3    0    0  0.82883366735E+02 -0.21526860064E+01 -0.33074203913E+02  0.89264715890E+02  0.00000000000E+00 0. -1.
</event>
<event>
 7    1  0.5622879E-006  0.1268824E+03  0.7818608E-02  0.1282090E+00
          2   -1    0    0  502    0  0.00000000000E+00  0.00000000000E+00  0.10120476904E+04  0.10120476904E+04  0.00000000000E+00 0. -1.
          1   -1    0    0  501    0 -0.00000000000E+00 -0.00000000000E+00 -0.11469760182E+04  0.11469760182E+04  0.00000000000E+00 0. -1.
         25    2    1    2    0    0  0.20498355375E+02 -0.15148318673E+03 -0.15105622024E+02  0.19804131459E+03  0.12499937614E+03 0.  0.
          2    1    1    2  501    0  0.57616286320E+02  0.51804590478E+02 -0.10345917256E+04  0.10374889834E+04  0.00000000000E+00 0. -1.
          1    1    1    2  502    0 -0.78114641695E+02  0.99678596251E+02  0.91476901980E+03  0.92349341058E+03  0.00000000000E+00 0. -1.
         22    1    3    3    0    0  0.56890286781E+02 -0.87871743204E+02 -0.50993767588E+02  0.11644016625E+03  0.00000000000E+00 0. -1.
         22    1    3    3    0    0 -0.36391931407E+02 -0.63611443525E+02  0.35888145564E+02  0.81601148343E+02  0.00000000000E+00 0. -1.
</event>
<event>
 7    1  0.5622879E-006  0.4408743E+02  0.7818608E-02  0.1524784E+00
          2   -1    0    0  502    0  0.00000000000E+00  0.00000000000E+00  0.32623602654E+04  0.32623602654E+04  0.00000000000E+00 0. -1.
          1   -1    0    0  501    0 -0.00000000000E+00 -0.00000000000E+00 -0.26167469160E+03  0.26167469160E+03  0.00000000000E+00 0. -1.
         25    2    1    2    0    0 -0.14283545072E+02 -0.55687363573E+02  0.25281901061E+04  0.25319312846E+04  0.12500286059E+03 0.  0.
          2    1    1    2  501    0  0.33040265042E+02  0.29185856071E+02 -0.25757057084E+03  0.26131603906E+03  0.00000000000E+00 0. -1.
          1    1    1    2  502    0 -0.18756719970E+02  0.26501507501E+02  0.73006603857E+03  0.73078763339E+03  0.00000000000E+00 0. -1.
         22    1    3    3    0    0 -0.30194302100E+02  0.20035978356E+02  0.27060041846E+03  0.27301597531E+03  0.00000000000E+00 0.  1.
         22    1    3    3    0    0  0.15910757028E+02 -0.75723341928E+02  0.22575896876E+04  0.22589153093E+04  0.00000000000E+00 0.  1.
</event>
<event>
 7    1  0.5622879E-006  0.4928077E+02  0.7818608E-02  0.1553726E+00
          2   -1    0    0  502    0  0.00000000000E+00  0.00000000000E+00  0.57153707426E+03  0.57153707426E+03  0.00000000000E+00 0. -1.
          1   -1    0    0  501    0 -0.00000000000E+00 -0.00000000000E+00 -0.99200763522E+03  0.99200763522E+03  0.00000000000E+00 0. -1.
         25    2    1    2    0    0  0.22283313883E+02 -0.57499469257E+02  0.89550171744E+01  0.13967687446E+03  0.12500680735E+03 0.  0.
          2    1    1    2  501    0  0.11019691859E+02  0.21381157911E+02 -0.92527646716E+03  0.92558907092E+03  0.00000000000E+00 0. -1.
          1    1    1    2  502    0 -0.33303005743E+02  0.36118311347E+02  0.49585088903E+03  0.49827876410E+03  0.00000000000E+00 0. -1.
         22    1    3    3    0    0 -0.24485332765E+02 -0.20428882614E+02 -0.47707536881E+02  0.57383619969E+02  0.00000000000E+00 0.  1.
         22    1    3    3    0    0  0.46768646649E+02 -0.37070586643E+02  0.56662554055E+02  0.82293254496E+02  0.00000000000E+00 0.  1.
</event>
<event>
 7    1  0.5622879E-006  0.9599379E+02  0.7818608E-02  0.1318387E+00
          2   -1    0    0  502    0  0.00000000000E+00  0.00000000000E+00  0.63356345252E+03  0.63356345252E+03  0.00000000000E+00 0. -1.
          1   -1    0    0  501    0 -0.00000000000E+00 -0.00000000000E+00 -0.18497569082E+03  0.18497569082E+03  0.00000000000E+00 0. -1.
         25    2    1    2    0    0  0.81117330560E+00 -0.52363704734E+02  0.11860183809E+02  0.13604398512E+03  0.12499874540E+03 0.  0.
          2    1    1    2  501    0 -0.57910317196E+02  0.98318591456E+02 -0.93318229434E+02  0.14740570616E+03  0.00000000000E+00 0. -1.
          1    1    1    2  502    0  0.57099143890E+02 -0.45954886722E+02  0.53004580732E+03  0.53508945206E+03  0.00000000000E+00 0. -1.
         22    1    3    3    0    0  0.59525943116E+02 -0.17410772189E+02  0.24261890169E+02  0.66596638103E+02  0.00000000000E+00 0.  1.
         22    1    3    3    0    0 -0.58714769810E+02 -0.34952932545E+02 -0.12401706360E+02  0.69447347019E+02  0.00000000000E+00 0.  1.
</event>
<event>
 7    1  0.5622879E-006  0.4731278E+02  0.7818608E-02  0.1512320E+00
          2   -1    0    0  502    0  0.00000000000E+00  0.00000000000E+00  0.21432720202E+04  0.21432720202E+04  0.00000000000E+00 0. -1.
          1   -1    0    0  501    0 -0.00000000000E+00 -0.00000000000E+00 -0.10609195617E+04  0.10609195617E+04  0.00000000000E+00 0. -1.
         25    2    1    2    0    0 -0.79896267139E+02 -0.23440820686E+01  0.31073812421E+03  0.34434282184E+03  0.12499955557E+03 0.  0.
          2    1    1    2  501    0  0.47235230651E+02 -0.15225126840E+01 -0.10434333807E+04  0.10445030900E+04  0.00000000000E+00 0. -1.
          1    1    1    2  502    0  0.32661036487E+02  0.38665947526E+01  0.18150477150E+04  0.18153456700E+04  0.00000000000E+00 0. -1.
         22    1    3    3    0    0 -0.95098256359E+02 -0.43441027481E+02  0.21825453306E+03  0.24200380665E+03  0.00000000000E+00 0. -1.
         22    1    3    3    0    0  0.15201989221E+02  0.41096945413E+02  0.92483591148E+02  0.10233901519E+03  0.00000000000E+00 0. -1.
</event>
<event>
 7    1  0.5622879E-006  0.5517313E+02  0.7818608E-02  0.1504989E+00
          2   -1    0    0  502    0  0.00000000000E+00  0.00000000000E+00  0.17590570533E+03  0.17590570533E+03  0.00000000000E+00 0. -1.
          1   -1    0    0  501    0 -0.00000000000E+00 -0.00000000000E+00 -0.17406196377E+03  0.17406196377E+03  0.00000000000E+00 0. -1.
         25    2    1    2    0    0  0.41105268476E+00 -0.28437006930E+02 -0.14885002111E+02  0.12905250321E+03  0.12499661183E+03 0.  0.
          2    1    1    2  501    0 -0.48398993061E+01 -0.29245212726E+02 -0.92597038498E+02  0.97226121137E+02  0.00000000000E+00 0. -1.
          1    1    1    2  502    0  0.44288466213E+01  0.57682219656E+02  0.10932578217E+03  0.12368904476E+03  0.00000000000E+00 0. -1.
         22    1    3    3    0    0 -0.55200093346E+02  0.15478218843E+02 -0.62933713669E+01  0.57673495534E+02  0.00000000000E+00 0. -1.
         22    1    3    3    0    0  0.55611146030E+02 -0.43915225773E+02 -0.85916307442E+01  0.71379007673E+02  0.00000000000E+00 0. -1.
</event>
<event>
 7    1  0.5622879E-006  0.9173023E+02  0.7818608E-02  0.1407089E+00
          2   -1    0    0  502    0  0.00000000000E+00  0.00000000000E+00  0.78788832770E+03  0.78788832770E+03  0.00000000000E+00 0. -1.
          1   -1    0    0  501    0 -0.00000000000E+00 -0.00000000000E+00 -0.47124197789E+03  0.47124197789E+03  0.00000000000E+00 0. -1.
         25    2    1    2    0    0  0.62708843979E+02 -0.57992404838E+01 -0.15168404293E+03  0.20639588449E+03  0.12500072781E+03 0.  0.
          2    1    1    2  501    0  0.27763705673E+02  0.23665632887E+02 -0.28825252546E+03  0.29055189548E+03  0.00000000000E+00 0. -1.
          1    1    1    2  502    0 -0.90472549652E+02 -0.17866392403E+02  0.75658291821E+03  0.76218252561E+03  0.00000000000E+00 0. -1.
         22    1    3    3    0    0  0.74517624933E+02 -0.50268331667E+02 -0.75463595213E+02  0.11736496835E+03  0.00000000000E+00 0.  1.
         22    1    3    3    0    0 -0.11808780954E+02  0.44469091183E+02 -0.76220447720E+02  0.89030916141E+02  0.00000000000E+00 0.  1.
</event>
<event>
 7    1  0.5622879E-006  0.6865659E+02  0.7818608E-02  0.1381689E+00
          2   -1    0    0  502    0  0.00000000000E+00  0.00000000000E+00  0.93612401806E+03  0.93612401806E+03  0.00000000000E+00 0. -1.
          1   -1    0    0  501    0 -0.00000000000E+00 -0.00000000000E+00 -0.22781616935E+03  0.22781616935E+03  0.00000000000E+00 0. -1.
         25    2    1    2    0    0 -0.69304864647E+02  0.26988649993E+02  0.22638858274E+02  0.14720433201E+03  0.12500018386E+03 0.  0.
          2    1    1    2  501    0  0.45997499654E+02  0.38056948534E+02 -0.15869321545E+03  0.16955128408E+03  0.00000000000E+00 0. -1.
          1    1    1    2  502    0  0.23307364993E+02 -0.65045598527E+02  0.84436220588E+03  0.84718457131E+03  0.00000000000E+00 0. -1.
         22    1    3    3    0    0  0.90937905907E+01 -0.28900227518E+02  0.39165076374E+02  0.49515890230E+02  0.00000000000E+00 0. -1.
         22    1    3    3    0    0 -0.78398655237E+02  0.55888877511E+02 -0.16526218100E+02  0.97688441779E+02  0.00000000000E+00 0. -1.
</event>
<event>
 7    1  0.5622879E-006  0.7444545E+02  0.7818608E-02  0.1437319E+00
          2   -1    0    0  502    0  0.00000000000E+00  0.00000000000E+00  0.94308767966E+02  0.94308767966E+02  0.00000000000E+00 0. -1.
          1   -1    0    0  501    0 -0.00000000000E+00 -0.00000000000E+00 -0.59284245041E+03  0.59284245041E+03  0.00000000000E+00 0. -1.
         25    2    1    2    0    0  0.44436384428E+02  0.39962746992E+02 -0.22786192698E+03  0.26667311041E+03  0.12498750593E+03 0.  0.
          2    1    1    2  501    0 -0.17339827287E+02  0.31151692917E+02 -0.32501534454E+03  0.32696493966E+03  0.00000000000E+00 0. -1.
          1    1    1    2  502    0 -0.27096557140E+02 -0.71114439909E+02  0.54343589079E+02  0.93513168305E+02  0.00000000000E+00 0. -1.
         22    1    3    3    0    0  0.58675869699E+02  0.59954709819E+02 -0.22711960586E+03  0.24211720360E+03  0.00000000000E+00 0. -1.
         22    1    3    3    0    0 -0.14239485271E+02 -0.19991962828E+02 -0.74232112520E+00  0.24555906807E+02  0.00000000000E+00 0. -1.
</event>
<event>
 7    1  0.5622879E-006  0.5668146E+02  0.7818608E-02  0.1417763E+00
          2   -1    0    0  502    0  0.00000000000E+00  0.00000000000E+00  0.69077130695E+03  0.69077130695E+03  0.00000000000E+00 0. -1.
          1   -1    0    0  501    0 -0.00000000000E+00 -0.00000000000E+00 -0.36346326999E+03  0.36346326999E+03  0.00000000000E+00 0. -1.
         25    2    1    2    0    0  0.30381088595E+02  0.49599873273E+02 -0.13993686427E+03  0.19644368294E+03  0.12499854644E+03 0.  0.
          2    1    1    2  501    0 -0.59877838911E+02 -0.39657143170E+01 -0.18951404885E+03  0.19878797045E+03  0.00000000000E+00 0. -1.
          1    1    1    2  502    0  0.29496750316E+02 -0.45634158956E+02  0.65675895008E+03  0.65900292355E+03  0.00000000000E+00 0. -1.
         22    1    3    3    0    0  0.26775455743E+01 -0.36028876145E+02 -0.84457624867E+01  0.37102291985E+02  0.00000000000E+00 0. -1.
         22    1    3    3    0    0  0.27703543021E+02  0.85628749418E+02 -0.13149110179E+03  0.15934139096E+03  0.00000000000E+00 0. -1.
</event>
<event>
 7    1  0.5622879E-006  0.8046113E+02  0.7818608E-02  0.1426148E+00
          2   -1    0    0  502    0  0.00000000000E+00  0.00000000000E+00  0.62772215407E+03  0.62772215407E+03  0.00000000000E+00 0. -1.
          1   -1    0    0  501    0 -0.00000000000E+00 -0.00000000000E+00 -0.11353962609E+03  0.11353962609E+03  0.00000000000E+00 0. -1.
         25    2    1    2    0    0 -0.13688343201E+02 -0.60251955622E+02  0.12890778521E+03  0.18989594423E+03  0.12500233458E+03 0.  0.
          2    1    1    2  501    0 -0.14686885046E+02  0.82235116309E+02 -0.61133835691E+02  0.10351649537E+03  0.00000000000E+00 0. -1.
          1    1    1    2  502    0  0.28375228247E+02 -0.21983160688E+02  0.44640857845E+03  0.44784934057E+03  0.00000000000E+00 0. -1.
         22    1    3    3    0    0 -0.26166816227E+02 -0.83831772085E+02  0.13636335605E+03  0.16219566318E+03  0.00000000000E+00 0.  1.
         22    1    3    3    0    0  0.12478473026E+02  0.23579816464E+02 -0.74555708347E+01  0.27700281045E+02  0.00000000000E+00 0.  1.
</event>
<event>
 7    1  0.5622879E-006  0.5421063E+02  0.7818608E-02  0.1450410E+00
          2   -1    0    0  502    0  0.00000000000E+00  0.00000000000E+00  0.53099093682E+02  0.53099093682E+02  0.00000000000E+00 0. -1.
          1   -1    0    0  501    0 -0.00000000000E+00 -0.00000000000E+00 -0.14222399349E+04  0.14222399349E+04  0.00000000000E+00 0. -1.
         25    2    1    2    0    0 -0.25047597555E+01  0.89320940094E+02 -0.18804194666E+03  0.24283613647E+03  0.12500044526E+03 0.  0.
          2    1    1    2  501    0  0.21393715375E+02 -0.49115980068E+02 -0.11865409026E+04  0.11877497144E+04  0.00000000000E+00 0. -1.
          1    1    1    2  502    0 -0.18888955620E+02 -0.40204960026E+02  0.54420081062E+01  0.44753177623E+02  0.00000000000E+00 0. -1.
         22    1    3    3    0    0  0.59438013833E+02  0.60351503625E+02 -0.11432138121E+03  0.14228337809E+03  0.00000000000E+00 0. -1.
         22    1    3    3    0    0 -0.61942773589E+02  0.28969436469E+02 -0.73720565449E+02  0.10055275839E+03  0.00000000000E+00 0. -1.
</event>
<event>
 7    1  0.5622879E-006  0.7033394E+02  0.7818608E-02  0.1383150E+00
          2   -1    0    0  502    0  0.00000000000E+00  0.00000000000E+00  0.11625244747E+03  0.11625244747E+03  0.00000000000E+00 0. -1.
          1   -1    0    0  501    0 -0.00000000000E+00 -0.00000000000E+00 -0.23012535257E+04  0.23012535257E+04  0.00000000000E+00 0. -1.
         25    2    1    2    0    0 -0.43011055774E+02 -0.74681296660E+02 -0.16136801545E+03  0.22156772398E+03  0.12500149164E+03 0.  0.
          2    1    1    2  501    0 -0.24022073181E+02  0.52339252171E+02 -0.20948354020E+04  0.20956268319E+04  0.00000000000E+00 0. -1.
          1    1    1    2  502    0  0.67033128956E+02  0.22342044490E+02  0.71202339180E+02  0.10031141727E+03  0.00000000000E+00 0. -1.
         22    1    3    3    0    0  0.34836291949E+02 -0.33969305238E+02 -0.15101160507E+02  0.50946304909E+02  0.00000000000E+00 0. -1.
         22    1    3    3    0    0 -0.77847347724E+02 -0.40711991422E+02 -0.14626685494E+03  0.17062141907E+03  0.00000000000E+00 0. -1.
</event>
<event>
 7    1  0.5622879E-006  0.1101845E+03  0.7818608E-02  0.1407460E+00
          2   -1    0    0  502    0  0.00000000000E+00  0.00000000000E+00  0.68021792994E+03  0.68021792994E+03  0.00000000000E+00 0. -1.
          1   -1    0    0  501    0 -0.00000000000E+00 -0.00000000000E+00 -0.78469474927E+03  0.78469474927E+03  0.00000000000E+00 0. -1.
         25    2    1    2    0    0 -0.37996749573E+02 -0.72352556489E+02  0.30033091590E+03  0.33541189896E+03  0.12499534994E+03 0.  0.
          2    1    1    2  501    0  0.60706088972E+02  0.92386299135E+02 -0.76252877113E+03  0.77050021694E+03  0.00000000000E+00 0. -1.
          1    1    1    2  502    0 -0.22709339400E+02 -0.20033742646E+02  0.35772103590E+03  0.35900056332E+03  0.00000000000E+00 0. -1.
         22    1    3    3    0    0 -0.78059119884E+02 -0.49117817444E+02  0.25258052353E+03  0.26889162697E+03  0.00000000000E+00 0.  1.
         22    1    3    3    0    0  0.40062370312E+02 -0.23234739045E+02  0.47750392375E+02  0.66520271989E+02  0.00000000000E+00 0.  1.
</event>
<event>
 7    1  0.5622879E-006  0.2018131E+03  0.7818608E-02  0.1359015E+00
          2   -1    0    0  502    0  0.00000000000E+00  0.00000000000E+00  0.92853105555E+03  0.92853105555E+03  0.00000000000E+00 0. -1.
          1   -1    0    0  501    0 -0.00000000000E+00 -0.00000000000E+00 -0.21868285030E+03  0.21868285030E+03  0.00000000000E+00 0. -1.
         25    2    1    2    0    0  0.85469638856E+02  0.19281309998E+03  0.15215666168E+03  0.28854550476E+03  0.12499963174E+03 0.  0.
          2    1    1    2  501    0 -0.24399520810E+02 -0.22277390797E+01 -0.13522639185E+03  0.13742807752E+03  0.00000000000E+00 0. -1.
          1    1    1    2  502    0 -0.61070118045E+02 -0.19058536090E+03  0.69291793542E+03  0.72124032357E+03  0.00000000000E+00 0. -1.
         22    1    3    3    0    0  0.19649490956E+02  0.11138682775E+03  0.14458495925E+03  0.18356998211E+03  0.00000000000E+00 0.  1.
         22    1    3    3    0    0  0.65820147899E+02  0.81426272234E+02  0.75717024334E+01  0.10497552266E+03  0.00000000000E+00 0.  1.
</event>
<event>
 7    1  0.5622879E-006  0.5694868E+02  0.7818608E-02  0.1506599E+00
          2   -1    0    0  502    0  0.00000000000E+00  0.00000000000E+00  0.39585085201E+03  0.39585085201E+03  0.00000000000E+00 0. -1.
          1   -1    0    0  501    0 -0.00000000000E+00 -0.00000000000E+00 -0.11671089053E+03  0.11671089053E+03  0.00000000000E+00 0. -1.
         25    2    1    2    0    0  0.41634052164E+02 -0.12067966863E+02  0.16423891843E+03  0.21090624563E+03  0.12501196740E+03 0.  0.
          2    1    1    2  501    0  0.31392458888E+01 -0.28231356158E+02 -0.86706580266E+02  0.91240864730E+02  0.00000000000E+00 0. -1.
          1    1    1    2  502    0 -0.44773298053E+02  0.40299323021E+02  0.20160762333E+03  0.21041463219E+03  0.00000000000E+00 0. -1.
         22    1    3    3    0    0  0.50757880724E+02  0.26914007844E+02  0.16076268588E+03  0.17072014365E+03  0.00000000000E+00 0.  1.
         22    1    3    3    0    0 -0.91238285602E+01 -0.38981974707E+02  0.34762325439E+01  0.40186101980E+02  0.00000000000E+00 0.  1.
</event>
<event>
 7    1  0.5622879E-006  0.1565174E+03  0.7818608E-02  0.1269081E+00
          2   -1    0    0  502    0  0.00000000000E+00  0.00000000000E+00  0.11998357254E+03  0.11998357254E+03  0.00000000000E+00 0. -1.
          1   -1    0    0  501    0 -0.00000000000E+00 -0.00000000000E+00 -0.10615003547E+04  0.10615003547E+04  0.00000000000E+00 0. -1.
         25    2    1    2    0    0  0.11825358532E+03  0.15085300214E+03 -0.31301992038E+03  0.38774684241E+03  0.12500241818E+03 0.  0.
          2    1    1    2  501    0 -0.12757305614E+03 -0.80315357327E+02 -0.68592914172E+03  0.70229924444E+03  0.00000000000E+00 0. -1.
          1    1    1    2  502    0  0.93194708204E+01 -0.70537644814E+02  0.57432279948E+02  0.91437840375E+02  0.00000000000E+00 0. -1.
         22    1    3    3    0    0 -0.24414369735E+02  0.94005414222E+01 -0.53457398408E+02  0.59515754831E+02  0.00000000000E+00 0.  1.
         22    1    3    3    0    0  0.14266795505E+03  0.14145246072E+03 -0.25956252197E+03  0.32823108758E+03  0.00000000000E+00 0.  1.
</event>
<event>
 7    1  0.5622879E-006  0.1261645E+03  0.7818608E-02  0.1326763E+00
          2   -1    0    0  502    0  0.00000000000E+00  0.00000000000E+00  0.23019654047E+04  0.23019654047E+04  0.00000000000E+00 0. -1.
          1   -1    0    0  501    0 -0.00000000000E+00 -0.00000000000E+00 -0.88792401713E+02  0.88792401713E+02  0.00000000000E+00 0. -1.
         25    2    1    2    0    0 -0.75904620655E+01 -0.17041233802E+03  0.49125683768E+03  0.53484331410E+03  0.12500443995E+03 0.  0.
          2    1    1    2  501    0 -0.84024657790E+01  0.12118254991E+03 -0.11233694594E+02  0.12199183468E+03  0.00000000000E+00 0. -1.
          1    1    1    2  502    0  0.15992927844E+02  0.49229788114E+02  0.17331498599E+04  0.17339226576E+04  0.00000000000E+00 0. -1.
         22    1    3    3    0    0  0.57670808447E+02 -0.78799639614E+02  0.19840598423E+03  0.22113398637E+03  0.00000000000E+00 0. -1.
         22    1    3    3    0    0 -0.65261270512E+02 -0.91612698409E+02  0.29285085345E+03  0.31370932773E+03  0.00000000000E+00 0. -1.
</event>
<event>
 7    1  0.5622879E-006  0.6032235E+02  0.7818608E-02  0.1397457E+00
          2   -1    0    0  502    0  0.00000000000E+00  0.00000000000E+00  0.70395478575E+03  0.70395478575E+03  0.00000000000E+00 0. -1.
          1   -1    0    0  501    0 -0.00000000000E+00 -0.00000000000E+00 -0.47112101525E+02  0.47112101525E+02  0.00000000000E+00 0. -1.
         25    2    1    2    0    0 -0.37135415031E+01  0.57652910827E+01  0.25525812789E+03  0.28430492862E+03  0.12500220643E+03 0.  0.
          2    1    1    2  501    0  0.33912362357E+02 -0.57984225770E+02  0.69363754755E+01  0.67530230738E+02  0.00000000000E+00 0. -1.
          1    1    1    2  502    0 -0.30198820854E+02  0.52218934687E+02  0.39464818085E+03  0.39923172791E+03  0.00000000000E+00 0. -1.
         22    1    3    3    0    0  0.37413424790E+01 -0.40112949766E+02  0.22559966720E+03  0.22916861963E+03  0.00000000000E+00 0. -1.
         22    1    3    3    0    0 -0.74548839821E+01  0.45878240849E+02  0.29658460695E+02  0.55136308993E+02  0.00000000000E+00 0. -1.
</event>
<event>
 7    1  0.5622879E-006  0.1149202E+03  0.7818608E-02  0.1256814E+00
          2   -1    0    0  502    0  0.00000000000E+00  0.00000000000E+00  0.11921028120E+04  0.11921028120E+04  0.00000000000E+00 0. -1.
          1   -1    0    0  501    0 -0.00000000000E+00 -0.00000000000E+00 -0.55495371367E+03  0.55495371367E+03  0.00000000000E+00 0. -1.
         25    2    1    2    0    0 -0.30383068122E+02 -0.10410725136E+03  0.67766938454E+03  0.69758314434E+03  0.12499999165E+03 0.  0.
          2    1    1    2  501    0  0.10781595514E+03 -0.17694680369E+02 -0.52897512717E+03  0.54014078448E+03  0.00000000000E+00 0. -1.
          1    1    1    2  502    0 -0.77432887017E+02  0.12180193173E+03  0.48845484091E+03  0.50933259681E+03  0.00000000000E+00 0. -1.
         22    1    3    3    0    0 -0.74853619453E+02 -0.34330847089E+02  0.31395657172E+03  0.32457726404E+03  0.00000000000E+00 0. -1.
         22    1    3    3    0    0  0.44470551331E+02 -0.69776404267E+02  0.36371281282E+03  0.37300588030E+03  0.00000000000E+00 0. -1.
</event>
<event>
 7    1  0.5622879E-006  0.1623571E+03  0.7818608E-02  0.1262474E+00
          2   -1    0    0  502    0  0.00000000000E+00  0.00000000000E+00  0.16400835803E+04  0.16400835803E+04  0.00000000000E+00 0. -1.
          1   -1    0    0  501    0 -0.00000000000E+00 -0.00000000000E+00 -0.62805203977E+03  0.62805203977E+03  0.00000000000E+00 0. -1.
         25    2    1    2    0    0  0.13007868256E+03 -0.15872234725E+01  0.43653610985E+02  0.18561762060E+03  0.12500112155E+03 0.  0.
          2    1    1    2  501    0  0.20072575835E+02  0.70340569921E+02 -0.55017263081E+03  0.55501407889E+03  0.00000000000E+00 0. -1.
          1    1    1    2  502    0 -0.15015125840E+03 -0.68753346448E+02  0.15185505604E+04  0.15275039206E+04  0.00000000000E+00 0. -1.
         22    1    3    3    0    0 -0.17220180215E+01 -0.10304197191E+02 -0.31817272788E+02  0.33488515546E+02  0.00000000000E+00 0. -1.
         22    1    3    3    0    0  0.13180070059E+03  0.87169737186E+01  0.75470883773E+02  0.15212910505E+03  0.00000000000E+00 0. -1.
</event>
<event>
 7    1  0.5622879E-006  0.7296842E+02  0.7818608E-02  0.1378262E+00
          2   -1    0    0  502    0  0.00000000000E+00  0.00000000000E+00  0.36880300116E+03  0.36880300116E+03  0.00000000000E+00 0. -1.
          1   -1    0    0  501    0 -0.00000000000E+00 -0.00000000000E+00 -0.23402964539E+03  0.23402964539E+03  0.00000000000E+00 0. -1.
         25    2    1    2    0    0  0.43579063094E+01  0.12218493055E+03  0.11622076929E+03  0.20995327390E+03  0.12499984562E+03 0.  0.
          2    1    1    2  501    0 -0.15072712183E+02 -0.55763376642E+02 -0.17694150521E+03  0.18613177346E+03  0.00000000000E+00 0. -1.
          1    1    1    2  502    0  0.10714805874E+02 -0.66421553904E+02  0.19549409169E+03  0.20674759919E+03  0.00000000000E+00 0. -1.
         22    1    3    3    0    0 -0.25058722647E+02  0.10856655018E+03  0.13295760571E+03  0.17347149713E+03  0.00000000000E+00 0.  1.
         22    1    3    3    0    0  0.29416628957E+02  0.13618380362E+02 -0.16736836419E+02  0.36481776768E+02  0.00000000000E+00 0.  1.
</event>
<event>
 7    1  0.5622879E-006  0.2171467E+03  0.7818608E-02  0.1343301E+00
          2   -1    0    0  502    0  0.00000000000E+00  0.00000000000E+00  0.26596960240E+04  0.26596960240E+04  0.00000000000E+00 0. -1.
          1   -1    0    0  501    0 -0.00000000000E+00 -0.00000000000E+00 -0.41418308986E+02  0.41418308986E+02  0.00000000000E+00 0. -1.
         25    2    1    2    0    0  0.15649101959E+03  0.13780995444E+03  0.77782660932E+03  0.81493501963E+03  0.12499531707E+03 0.  0.
          2    1    1    2  501    0 -0.15239539896E+03 -0.16351739609E+03  0.52665924141E+03  0.57212957711E+03  0.00000000000E+00 0. -1.
          1    1    1    2  502    0 -0.40956206271E+01  0.25707441654E+02  0.13137918643E+04  0.13140497363E+04  0.00000000000E+00 0. -1.
         22    1    3    3    0    0  0.22427538200E+02  0.98892802490E+02  0.27540597686E+03  0.29348123100E+03  0.00000000000E+00 0.  1.
         22    1    3    3    0    0  0.13406348139E+03  0.38917151947E+02  0.50242063246E+03  0.52145378863E+03  0.00000000000E+00 0.  1.
</event>
<event>
 7    1  0.5622879E-006  0.7637201E+02  0.7818608E-02  0.1452819E+00
          2   -1    0    0  502    0  0.00000000000E+00  0.00000000000E+00  0.18073116481E+02  0.18073116481E+02  0.00000000000E+00 0. -1.
          1   -1    0    0  501    0 -0.00000000000E+00 -0.00000000000E+00 -0.15653171514E+04  0.15653171514E+04  0.00000000000E+00 0. -1.
         25    2    1    2    0    0  0.39017078135E+02  0.40934503948E+02 -0.74565834838E+03  0.75817493599E+03  0.12499958019E+03 0.  0.
          2    1    1    2  501    0 -0.26220846861E+01  0.30866589252E+02 -0.67165561407E+03  0.67236960489E+03  0.00000000000E+00 0. -1.
          1    1    1    2  502    0 -0.36394993449E+02 -0.71801093200E+02 -0.12993007244E+03  0.15284572698E+03  0.00000000000E+00 0. -1.
         22    1    3    3    0    0  0.69799509000E+02  0.66901626000E+02 -0.50541886111E+03  0.51458335008E+03  0.00000000000E+00 0.  1.
         22    1    3    3    0    0 -0.30782430865E+02 -0.25967122052E+02 -0.24023948728E+03  0.24359158591E+03  0.00000000000E+00 0.  1.
</event>
<event>
 7    1  0.5622879E-006  0.9547364E+02  0.7818608E-02  0.1415913E+00
          2   -1    0    0  502    0  0.00000000000E+00  0.00000000000E+00  0.19644319729E+04  0.19644319729E+04  0.00000000000E+00 0. -1.
          1   -1    0    0  501    0 -0.00000000000E+00 -0.00000000000E+00 -0.13466593775E+03  0.13466593775E+03  0.00000000000E+00 0. -1.
         25    2    1    2    0    0  0.72800596435E+02 -0.32005181249E+02  0.45405036470E+02  0.15495324238E+03  0.12499852607E+03 0.  0.
          2    1    1    2  501    0  0.22749813668E+02  0.23522181346E+02 -0.75251997774E+02  0.82059187214E+02  0.00000000000E+00 0. -1.
          1    1    1    2  502    0 -0.95550410103E+02  0.84829999030E+01  0.18596129964E+04  0.18620854810E+04  0.00000000000E+00 0. -1.
         22    1    3    3    0    0 -0.13371215418E+02 -0.49731366856E+02 -0.78823390183E+01  0.52097308179E+02  0.00000000000E+00 0.  1.
         22    1    3    3    0    0  0.86171811854E+02  0.17726185607E+02  0.53287375488E+02  0.10285593420E+03  0.00000000000E+00 0.  1.
</event>
<event>
 7    1  0.5622879E-006  0.6469335E+02  0.7818608E-02  0.1384786E+00
          2   -1    0    0  502    0  0.00000000000E+00  0.00000000000E+00  0.37331279513E+03  0.37331279513E+03  0.00000000000E+00 0. -1.
          1   -1    0    0  501    0 -0.00000000000E+00 -0.00000000000E+00 -0.74934083803E+03  0.74934083803E+03  0.00000000000E+00 0. -1.
         25    2    1    2    0    0 -0.33528723387E+02 -0.10015957665E+03 -0.33150465175E+03  0.36969825689E+03  0.12500140371E+03 0.  0.
          2    1    1    2  501    0 -0.16545939708E+02  0.59528193535E+02 -0.39337307721E+03  0.39819562004E+03  0.00000000000E+00 0. -1.
          1    1    1    2  502    0  0.50074663095E+02  0.40631383118E+02  0.34884968605E+03  0.35475975623E+03  0.00000000000E+00 0. -1.
         22    1    3    3    0    0  0.44530541427E+02 -0.13601914522E+02 -0.10855174436E+03  0.11811630879E+03  0.00000000000E+00 0. -1.
         22    1    3    3    0    0 -0.78059264814E+02 -0.86557662131E+02 -0.22295290739E+03  0.25158194810E+03  0.00000000000E+00 0. -1.
</event>
<event>
 7    1  0.5622879E-006  0.4598038E+02  0.7818608E-02  0.1546336E+00
          2   -1    0    0  502    0  0.00000000000E+00  0.00000000000E+00  0.13669233084E+04  0.13669233084E+04  0.00000000000E+00 0. -1.
          1   -1    0    0  501    0 -0.00000000000E+00 -0.00000000000E+00 -0.14410328882E+04  0.14410328882E+04  0.00000000000E+00 0. -1.
         25    2    1    2    0    0 -0.26642188971E+02  0.11083709261E+02 -0.13470748273E+03  0.18602317854E+03  0.12500344878E+03 0.  0.
          2    1    1    2  501    0  0.81277799540E+00  0.27021274652E+02 -0.12801298192E+04  0.12804152310E+04  0.00000000000E+00 0. -1.
          1    1    1    2  502    0  0.25829410975E+02 -0.38104983913E+02  0.13407277220E+04  0.13415177870E+04  0.00000000000E+00 0. -1.
         22    1    3    3    0    0  0.50925420374E+01 -0.51898449643E+02 -0.85069028940E+02  0.99780372542E+02  0.00000000000E+00 0.  1.
         22    1    3    3    0    0 -0.31734731008E+02  0.62982158904E+02 -0.49638453789E+02  0.86242806001E+02  0.00000000000E+00 0.  1.
</event>
<event>
 7    1  0.5622879E-006  0.5844066E+02  0.7818608E-02  0.1462053E+00
          2   -1    0    0  502    0  0.00000000000E+00  0.00000000000E+00  0.96656078959E+02  0.96656078959E+02  0.00000000000E+00 0. -1.
          1   -1    0    0  501    0 -0.00000000000E+00 -0.00000000000E+00 -0.82621664235E+03  0.82621664235E+03  0.00000000000E+00 0. -1.
         25    2    1    2    0    0 -0.11969021429E+02  0.52243548530E+02 -0.10782875638E+03  0.17356283960E+03  0.12499749098E+03 0.  0.
          2    1    1    2  501    0 -0.34867888932E+02 -0.14718490217E+02 -0.67075217823E+03  0.67181908892E+03  0.00000000000E+00 0. -1.
          1    1    1    2  502    0  0.46836910361E+02 -0.37525058313E+02  0.49020371216E+02  0.77490792793E+02  0.00000000000E+00 0. -1.
         22    1    3    3    0    0 -0.30641747972E+01  0.69164716510E+02 -0.12815262754E+03  0.14565796622E+03  0.00000000000E+00 0.  1.
         22    1    3    3    0    0 -0.89048466317E+01 -0.16921167980E+02  0.20323871164E+02  0.27904873382E+02  0.00000000000E+00 0.  1.
</event>
<event>
 7    1  0.8079130E-006  0.5819970E+02  0.7818608E-02  0.1421221E+00
          2   -1    0    0  502    0  0.00000000000E+00  0.00000000000E+00  0.86279685924E+03  0.86279685924E+03  0.00000000000E+00 0. -1.
          1   -1    0    0  501    0 -0.00000000000E+00 -0.00000000000E+00 -0.77996616872E+03  0.77996616872E+03  0.00000000000E+00 0. -1.
         25    2    1    2    0    0 -0.33643757260E+02  0.92431298075E+02 -0.37987468116E+03  0.41183160625E+03  0.12500020501E+03 0.  0.
          2    1    1    2  501    0 -0.72437444557E+00 -0.54036277048E+02 -0.38142267229E+03  0.38523200658E+03  0.00000000000E+00 0. -1.
          1    1    1    2  502    0  0.34368131706E+02 -0.38395021027E+02  0.84412804398E+03  0.84569941513E+03  0.00000000000E+00 0. -1.
         22    1    3    3    0    0  0.37199164209E+02 -0.49688423942E+01 -0.71049371028E+02  0.80352226702E+02  0.00000000000E+00 0.  1.
         22    1    3    3    0    0 -0.70842921469E+02  0.97400140469E+02 -0.30882531014E+03  0.33147937955E+03  0.00000000000E+00 0.  1.
</event>
<event>
 7    1  0.5622879E-006  0.1129143E+03  0.7818608E-02  0.1349313E+00
          2   -1    0    0  502    0  0.00000000000E+00  0.00000000000E+00  0.21045336777E+04  0.21045336777E+04  0.00000000000E+00 0. -1.
          1   -1    0    0  501    0 -0.00000000000E+00 -0.00000000000E+00 -0.25885541158E+03  0.25885541158E+03  0.00000000000E+00 0. -1.
         25    2    1    2    0    0  0.14120377012E+03 -0.74013473165E+02  0.60839499362E+02  0.21152518157E+03  0.12499983539E+03 0.  0.
          2    1    1    2  501    0 -0.42929817842E+02  0.20434026071E+02 -0.17881231501E+03  0.18502530281E+03  0.00000000000E+00 0. -1.
          1    1    1    2  502    0 -0.98273952276E+02  0.53579447094E+02  0.19636510817E+04  0.19668386049E+04  0.00000000000E+00 0. -1.
         22    1    3    3    0    0 -0.23478712594E+02 -0.85540812181E+01  0.11895370946E+02  0.27675297659E+02  0.00000000000E+00 0. -1.
         22    1    3    3    0    0  0.16468248271E+03 -0.65459391947E+02  0.48944128416E+02  0.18384988391E+03  0.00000000000E+00 0. -1.
</event>
<event>
 7    1  0.5622879E-006  0.1129056E+03  0.7818608E-02  0.1309660E+00
          2   -1    0    0  502    0  0.00000000000E+00  0.00000000000E+00  0.18291720182E+04  0.18291720182E+04  0.00000000000E+00 0. -1.
          1   -1    0    0  501    0 -0.00000000000E+00 -0.00000000000E+00 -0.21326545359E+04  0.21326545359E+04  0.00000000000E+00 0. -1.
         25    2    1    2    0    0  0.13928325391E+03  0.10381897667E+03  0.22303801624E+03  0.30911031143E+03  0.12500009282E+03 0.  0.
          2    1    1    2  501    0 -0.74802033456E+02 -0.84135145076E+02 -0.20873738735E+04  0.20904075571E+04  0.00000000000E+00 0. -1.
          1    1    1    2  502    0 -0.64481220458E+02 -0.19683831596E+02  0.15608533397E+04  0.15623086855E+04  0.00000000000E+00 0. -1.
         22    1    3    3    0    0  0.10312036301E+02 -0.38364239285E+01  0.10067370694E+03  0.10127315296E+03  0.00000000000E+00 0.  1.
         22    1    3    3    0    0  0.12897121761E+03  0.10765540060E+03  0.12236430930E+03  0.20783715847E+03  0.00000000000E+00 0.  1.
</event>
<event>
 7    1  0.5622879E-006  0.8415359E+02  0.7818608E-02  0.1332205E+00
          2   -1    0    0  502    0  0.00000000000E+00  0.00000000000E+00  0.18798964594E+04  0.18798964594E+04  0.00000000000E+00 0. -1.
          1   -1    0    0  501    0 -0.00000000000E+00 -0.00000000000E+00 -0.31575300289E+03  0.31575300289E+03  0.00000000000E+00 0. -1.
         25    2    1    2    0    0  0.33233242210E+02 -0.50332137445E+02 -0.72152607875E+02  0.15642384886E+03  0.12499859688E+03 0.  0.
          2    1    1    2  501    0  0.28149208825E+02  0.91613888397E+02 -0.18927481865E+03  0.21215663902E+03  0.00000000000E+00 0. -1.
          1    1    1    2  502    0 -0.61382451035E+02 -0.41281750952E+02  0.18255708830E+04  0.18270689744E+04  0.00000000000E+00 0. -1.
         22    1    3    3    0    0  0.49291181760E+02  0.24660647945E+02 -0.54943844503E+02  0.77824123542E+02  0.00000000000E+00 0. -1.
         22    1    3    3    0    0 -0.16057939550E+02 -0.74992785390E+02 -0.17208763373E+02  0.78599725318E+02  0.00000000000E+00 0. -1.
</event>
<event>
 7    1  0.5622879E-006  0.7386043E+02  0.7818608E-02  0.1501529E+00
          2   -1    0    0  502    0  0.00000000000E+00  0.00000000000E+00  0.27774547640E+02  0.27774547640E+02  0.00000000000E+00 0. -1.
          1   -1    0    0  501    0 -0.00000000000E+00 -0.00000000000E+00 -0.17380449309E+04  0.17380449309E+04  0.00000000000E+00 0. -1.
         25    2    1    2    0    0 -0.35583965478E+02 -0.83111352570E+02 -0.53036642295E+03  0.55234725423E+03  0.12500092457E+03 0.  0.
          2    1    1    2  501    0  0.39255829201E+02  0.60737245479E+02 -0.11873935596E+04  0.11895938376E+04  0.00000000000E+00 0. -1.
          1    1    1    2  502    0 -0.36718637225E+01  0.22374107091E+02  0.74895993221E+01  0.23878386656E+02  0.00000000000E+00 0. -1.
         22    1    3    3    0    0 -0.69833630488E+02 -0.19855005867E+02 -0.16971036883E+03  0.18458755780E+03  0.00000000000E+00 0. -1.
         22    1    3    3    0    0  0.34249665010E+02 -0.63256346702E+02 -0.36065605412E+03  0.36775969644E+03  0.00000000000E+00 0. -1.
</event>
<event>
 7    1  0.5622879E-006  0.2560203E+03  0.7818608E-02  0.1278471E+00
          2   -1    0    0  502    0  0.00000000000E+00  0.00000000000E+00  0.94544516675E+03  0.94544516675E+03  0.00000000000E+00 0. -1.
          1   -1    0    0  501    0 -0.00000000000E+00 -0.00000000000E+00 -0.79957548037E+03  0.79957548037E+03  0.00000000000E+00 0. -1.
         25    2    1    2    0    0  0.50216091076E+02 -0.23517208068E+03 -0.94783291547E+02  0.28711798845E+03  0.12500121439E+03 0.  0.
          2    1    1    2  501    0 -0.19450050755E+02  0.26033283224E+03 -0.58012781018E+03  0.63616017178E+03  0.00000000000E+00 0. -1.
          1    1    1    2  502    0 -0.30766040321E+02 -0.25160751561E+02  0.82078078810E+03  0.82174248690E+03  0.00000000000E+00 0. -1.
         22    1    3    3    0    0  0.17163652258E+02 -0.23212163177E+03 -0.10034149941E+03  0.25346293496E+03  0.00000000000E+00 0. -1.
         22    1    3    3    0    0  0.33052438818E+02 -0.30504489059E+01  0.55582078664E+01  0.33655053484E+02  0.00000000000E+00 0. -1.
</event>
<event>
 7    1  0.5622879E-006  0.8129036E+02  0.7818608E-02  0.1348937E+00
          2   -1    0    0  502    0  0.00000000000E+00  0.00000000000E+00  0.22866365614E+04  0.22866365614E+04  0.00000000000E+00 0. -1.
          1   -1    0    0  501    0 -0.00000000000E+00 -0.00000000000E+00 -0.76731105374E+03  0.76731105374E+03  0.00000000000E+00 0. -1.
         25    2    1    2    0    0  0.14408348991E+03 -0.28510297998E+02  0.96455999747E+03  0.98365351209E+03  0.12500141589E+03 0.  0.
          2    1    1    2  501    0 -0.78175450356E+02  0.21750637957E+02 -0.75475207561E+03  0.75910156562E+03  0.00000000000E+00 0. -1.
          1    1    1    2  502    0 -0.65908039558E+02  0.67596600410E+01  0.13095175858E+04  0.13111925375E+04  0.00000000000E+00 0. -1.
         22    1    3    3    0    0 -0.45732965186E+01 -0.69321260468E+01  0.89694551119E+00  0.83530787034E+01  0.00000000000E+00 0. -1.
         22    1    3    3    0    0  0.14865678643E+03 -0.21578171951E+02  0.96366305196E+03  0.97530043339E+03  0.00000000000E+00 0. -1.
</event>
<event>
 7    1  0.5622879E-006  0.4441197E+02  0.7818608E-02  0.1500940E+00
          2   -1    0    0  502    0  0.00000000000E+00  0.00000000000E+00  0.46134264486E+03  0.46134264486E+03  0.00000000000E+00 0. -1.
          1   -1    0    0  501    0 -0.00000000000E+00 -0.00000000000E+00 -0.26393444980E+03  0.26393444980E+03  0.00000000000E+00 0. -1.
         25    2    1    2    0    0  0.25535447020E+02  0.64584810342E+02 -0.12551146491E+02  0.14354721690E+03  0.12500006168E+03 0.  0.
          2    1    1    2  501    0  0.58184749095E+01 -0.43363893286E+02 -0.18238680499E+03  0.18756126606E+03  0.00000000000E+00 0. -1.
          1    1    1    2  502    0 -0.31353921929E+02 -0.21220917055E+02  0.39234614655E+03  0.39416861170E+03  0.00000000000E+00 0. -1.
         22    1    3    3    0    0  0.62019646372E+02  0.41492400429E+02 -0.47106268802E+02  0.88244299475E+02  0.00000000000E+00 0. -1.
         22    1    3    3    0    0 -0.36484199352E+02  0.23092409913E+02  0.34555122311E+02  0.55302917426E+02  0.00000000000E+00 0. -1.
</event>
<event>
 7    1  0.5622879E-006  0.8413372E+02  0.7818608E-02  0.1358452E+00
          2   -1    0    0  502    0  0.00000000000E+00  0.00000000000E+00  0.13918219444E+03  0.13918219444E+03  0.00000000000E+00 0. -1.
          1   -1    0    0  501    0 -0.00000000000E+00 -0.00000000000E+00 -0.13908032531E+04  0.13908032531E+04  0.00000000000E+00 0. -1.
         25    2    1    2    0    0 -0.99071488128E+02 -0.16536500160E+02 -0.47802875469E+03  0.50420569267E+03  0.12499309825E+03 0.  0.
          2    1    1    2  501    0  0.23707546096E+02  0.54082370564E+02 -0.88453514674E+03  0.88650401938E+03  0.00000000000E+00 0. -1.
          1    1    1    2  502    0  0.75363942033E+02 -0.37545870404E+02  0.11094284276E+03  0.13927573552E+03  0.00000000000E+00 0. -1.
         22    1    3    3    0    0 -0.12312536531E+03  0.59072267798E+01 -0.41746339060E+03  0.43528201594E+03  0.00000000000E+00 0. -1.
         22    1    3    3    0    0  0.24053877178E+02 -0.22443726939E+02 -0.60565364091E+02  0.68923676727E+02  0.00000000000E+00 0. -1.
</event>
<event>
 7    1  0.5622879E-006  0.9356964E+02  0.7818608E-02  0.1355547E+00
          2   -1    0    0  502    0  0.00000000000E+00  0.00000000000E+00  0.26671877601E+04  0.26671877601E+04  0.00000000000E+00 0. -1.
          1   -1    0    0  501    0 -0.00000000000E+00 -0.00000000000E+00 -0.18716668220E+04  0.18716668220E+04  0.00000000000E+00 0. -1.
         25    2    1    2    0    0 -0.81917024503E+01 -0.40610835502E+02  0.36628855204E+03  0.38923524532E+03  0.12498171425E+03 0.  0.
          2    1    1    2  501    0  0.39942749166E+02  0.84800293193E+02 -0.18586889264E+04  0.18610510574E+04  0.00000000000E+00 0. -1.
          1    1    1    2  502    0 -0.31751046715E+02 -0.44189457691E+02  0.22879213125E+04  0.22885682794E+04  0.00000000000E+00 0. -1.
         22    1    3    3    0    0  0.47243730879E+02 -0.44598249727E+02  0.27318604669E+03  0.28080525296E+03  0.00000000000E+00 0.  1.
         22    1    3    3    0    0 -0.55435433329E+02  0.39874142252E+01  0.93102505346E+02  0.10842999236E+03  0.00000000000E+00 0.  1.
</event>
<event>
 7    1  0.5622879E-006  0.8003269E+02  0.7818608E-02  0.1468192E+00
          2   -1    0    0  502    0  0.00000000000E+00  0.00000000000E+00  0.34980073636E+03  0.34980073636E+03  0.00000000000E+00 0. -1.
          1   -1    0    0  501    0 -0.00000000000E+00 -0.00000000000E+00 -0.40947301317E+03  0.40947301317E+03  0.00000000000E+00 0. -1.
         25    2    1    2    0    0  0.52757697200E+02  0.16051734375E+02 -0.41008610772E+02  0.14264578597E+03  0.12500032523E+03 0.  0.
          2    1    1    2  501    0  0.24709051324E+02  0.94078715122E+01 -0.31151544657E+03  0.31263544059E+03  0.00000000000E+00 0. -1.
          1    1    1    2  502    0 -0.77466748524E+02 -0.25459605887E+02  0.29285178054E+03  0.30399252297E+03  0.00000000000E+00 0. -1.
         22    1    3    3    0    0  0.27840706667E+02  0.70518113301E+02 -0.31056516163E+02  0.81929338136E+02  0.00000000000E+00 0. -1.
         22    1    3    3    0    0  0.24916990533E+02 -0.54466378926E+02 -0.99520946089E+01  0.60716447834E+02  0.00000000000E+00 0. -1.
</event>
<event>
 7    1  0.5622879E-006  0.1160750E+03  0.7818608E-02  0.1436155E+00
          2   -1    0    0  502    0  0.00000000000E+00  0.00000000000E+00  0.12501968549E+04  0.12501968549E+04  0.00000000000E+00 0. -1.
          1   -1    0    0  501    0 -0.00000000000E+00 -0.00000000000E+00 -0.63668023584E+02  0.63668023584E+02  0.00000000000E+00 0. -1.
         25    2    1    2    0    0 -0.89578023977E+01  0.11625616266E+03  0.37469946634E+03  0.41184994397E+03  0.12499979479E+03 0.  0.
          2    1    1    2  501    0 -0.22667741196E+02 -0.42707893244E+01 -0.37893114163E+02  0.44361630193E+02  0.00000000000E+00 0. -1.
          1    1    1    2  502    0  0.31625543594E+02 -0.11198537333E+03  0.84972247915E+03  0.85765330433E+03  0.00000000000E+00 0. -1.
         22    1    3    3    0    0 -0.17269135907E+02 -0.24140218487E+02  0.79475854669E+02  0.84837401416E+02  0.00000000000E+00 0. -1.
         22    1    3    3    0    0  0.83113335095E+01  0.14039638115E+03  0.29522361167E+03  0.32701254256E+03  0.00000000000E+00 0. -1.
</event>
<event>
 7    1  0.5622879E-006  0.8589450E+02  0.7818608E-02  0.1317474E+00
          2   -1    0    0  502    0  0.00000000000E+00  0.00000000000E+00  0.62156622122E+03  0.62156622122E+03  0.00000000000E+00 0. -1.
          1   -1    0    0  501    0 -0.00000000000E+00 -0.00000000000E+00 -0.18875859945E+03  0.18875859945E+03  0.00000000000E+00 0. -1.
         25    2    1    2    0    0  0.20126501243E+01 -0.17912545567E+02  0.10024474870E+03  0.16124318186E+03  0.12500177601E+03 0.  0.
          2    1    1    2  501    0 -0.44120600229E+02 -0.69813381638E+02 -0.14220350960E+03  0.16444565596E+03  0.00000000000E+00 0. -1.
          1    1    1    2  502    0  0.42107950105E+02  0.87725927205E+02  0.47476638267E+03  0.48463598285E+03  0.00000000000E+00 0. -1.
         22    1    3    3    0    0 -0.29800126533E+02 -0.46299361527E+02  0.30931611707E+01  0.55147493735E+02  0.00000000000E+00 0. -1.
         22    1    3    3    0    0  0.31812776657E+02  0.28386815960E+02  0.97151587529E+02  0.10609568812E+03  0.00000000000E+00 0. -1.
</event>
<event>
 7    1  0.5622879E-006  0.1733472E+03  0.7818608E-02  0.1232078E+00
          2   -1    0    0  502    0  0.00000000000E+00  0.00000000000E+00  0.25405077661E+04  0.25405077661E+04  0.00000000000E+00 0. -1.
          1   -1    0    0  501    0 -0.00000000000E+00 -0.00000000000E+00 -0.58117217470E+02  0.58117217470E+02  0.00000000000E+00 0. -1.
         25    2    1    2    0    0 -0.98068861524E+01 -0.24589510824E+03  0.83618861060E+03  0.88056643571E+03  0.12500110374E+03 0.  0.
          2    1    1    2  501    0 -0.26239323606E+02  0.89166689731E+02  0.35732237248E+02  0.99579081336E+02  0.00000000000E+00 0. -1.
          1    1    1    2  502    0  0.36046209759E+02  0.15672841851E+03  0.16104697008E+04  0.16184794665E+04  0.00000000000E+00 0. -1.
         22    1    3    3    0    0  0.13312957310E+01 -0.24291299960E+03  0.83422146738E+03  0.86886935402E+03  0.00000000000E+00 0. -1.
         22    1    3    3    0    0 -0.11138181883E+02 -0.29821086437E+01  0.19671432190E+01  0.11697081691E+02  0.00000000000E+00 0. -1.
</event>
<event>
 7    1  0.5622879E-006  0.8532101E+02  0.7818608E-02  0.1341112E+00
          2   -1    0    0  502    0  0.00000000000E+00  0.00000000000E+00  0.73309887600E+03  0.73309887600E+03  0.00000000000E+00 0. -1.
          1   -1    0    0  501    0 -0.00000000000E+00 -0.00000000000E+00 -0.14562049173E+04  0.14562049173E+04  0.00000000000E+00 0. -1.
         25    2    1    2    0    0 -0.77217525208E+02  0.32619044030E+02 -0.11082233657E+03  0.18690265936E+03  0.12499786223E+03 0.  0.
          2    1    1    2  501    0  0.47570489273E+02  0.47910603737E+02 -0.13038169404E+04  0.13055638596E+04  0.00000000000E+00 0. -1.
          1    1    1    2  502    0  0.29647035936E+02 -0.80529647768E+02  0.69153323566E+03  0.69683727435E+03  0.00000000000E+00 0. -1.
         22    1    3    3    0    0  0.14234820011E+01 -0.10307758364E+02 -0.95430303318E+02  0.95995932075E+02  0.00000000000E+00 0. -1.
         22    1    3    3    0    0 -0.78641007209E+02  0.42926802394E+02 -0.15392033251E+02  0.90906727288E+02  0.00000000000E+00 0. -1.
</event>
<event>
 7    1  0.5622879E-006  0.1385527E+03  0.7818608E-02  0.1241245E+00
          2   -1    0    0  502    0  0.00000000000E+00  0.00000000000E+00  0.23327504275E+04  0.23327504275E+04  0.00000000000E+00 0. -1.
          1   -1    0    0  501    0 -0.00000000000E+00 -0.00000000000E+00 -0.95583095077E+03  0.95583095077E+03  0.00000000000E+00 0. -1.
         25    2    1    2    0    0 -0.11587821962E+03 -0.15878809091E+03  0.21145227163E+03  0.31460882570E+03  0.12500092172E+03 0.  0.
          2    1    1    2  501    0  0.12162700805E+02  0.13740328010E+03 -0.89762616191E+03  0.90816315672E+03  0.00000000000E+00 0. -1.
          1    1    1    2  502    0  0.10371551882E+03  0.21384810815E+02  0.20630933670E+04  0.20658093958E+04  0.00000000000E+00 0. -1.
         22    1    3    3    0    0 -0.13666368299E+03 -0.10229511767E+03  0.17376556953E+03  0.24358925777E+03  0.00000000000E+00 0. -1.
         22    1    3    3    0    0  0.20785463367E+02 -0.56492973240E+02  0.37686702101E+02  0.71019567924E+02  0.00000000000E+00 0. -1.
</event>
<event>
 7    1  0.5622879E-006  0.4191235E+02  0.7818608E-02  0.1565285E+00
          2   -1    0    0  502    0  0.00000000000E+00  0.00000000000E+00  0.25633097473E+03  0.25633097473E+03  0.00000000000E+00 0. -1.
          1   -1    0    0  501    0 -0.00000000000E+00 -0.00000000000E+00 -0.21998222930E+03  0.21998222930E+03  0.00000000000E+00 0. -1.
         25    2    1    2    0    0  0.42353691569E+02 -0.49574681724E+02 -0.66456335422E+02  0.15585870033E+03  0.12499602270E+03 0.  0.
          2    1    1    2  501    0 -0.21225095441E+02  0.33941571099E+02 -0.10428431487E+03  0.11170386409E+03  0.00000000000E+00 0. -1.
          1    1    1    2  502    0 -0.21128596129E+02  0.15633110625E+02  0.20708939572E+03  0.20875063962E+03  0.00000000000E+00 0. -1.
         22    1    3    3    0    0 -0.65891337696E+01 -0.77102229633E+02 -0.62670937566E+02  0.99578194971E+02  0.00000000000E+00 0.  1.
         22    1    3    3    0    0  0.48942825339E+02  0.27527547910E+02 -0.37853978562E+01  0.56280505355E+02  0.00000000000E+00 0.  1.
</event>
<event>
 7    1  0.5622879E-006  0.8427813E+02  0.7818608E-02  0.1384149E+00
          2   -1    0    0  502    0  0.00000000000E+00  0.00000000000E+00  0.12204254272E+03  0.12204254272E+03  0.00000000000E+00 0. -1.
          1   -1    0    0  501    0 -0.00000000000E+00 -0.00000000000E+00 -0.31298823079E+03  0.31298823079E+03  0.00000000000E+00 0. -1.
         25    2    1    2    0    0  0.51241790561E+02 -0.27981652356E+02 -0.21491380411E+03  0.25538576942E+03  0.12500101622E+03 0.  0.
          2    1    1    2  501    0 -0.69157963895E+01 -0.47168055255E+02 -0.47174790146E+02  0.67067984177E+02  0.00000000000E+00 0. -1.
          1    1    1    2  502    0 -0.44325994171E+02  0.75149707611E+02  0.71142906184E+02  0.11257701992E+03  0.00000000000E+00 0. -1.
         22    1    3    3    0    0  0.65350242444E+02 -0.54247117371E+02 -0.78170160910E+02  0.11542953689E+03  0.00000000000E+00 0. -1.
         22    1    3    3    0    0 -0.14108451884E+02  0.26265465015E+02 -0.13674364320E+03  0.13995623253E+03  0.00000000000E+00 0. -1.
</event>
<event>
 7    1  0.5622879E-006  0.5410722E+02  0.7818608E-02  0.1435355E+00
          2   -1    0    0  502    0  0.00000000000E+00  0.00000000000E+00  0.12537117151E+04  0.12537117151E+04  0.00000000000E+00 0. -1.
          1   -1    0    0  501    0 -0.00000000000E+00 -0.00000000000E+00 -0.41557397501E+03  0.41557397501E+03  0.00000000000E+00 0. -1.
         25    2    1    2    0    0 -0.12956386283E+02 -0.28329903379E+02 -0.16372024724E+03  0.20833129851E+03  0.12500863655E+03 0.  0.
          2    1    1    2  501    0 -0.40204654822E+02  0.38404368149E+02 -0.22557671230E+03  0.23232770583E+03  0.00000000000E+00 0. -1.
          1    1    1    2  502    0  0.53161041104E+02 -0.10074464770E+02  0.12274346996E+04  0.12286266857E+04  0.00000000000E+00 0. -1.
         22    1    3    3    0    0 -0.11026955773E+01  0.44111750733E+02 -0.10643419779E+03  0.11521849222E+03  0.00000000000E+00 0.  1.
         22    1    3    3    0    0 -0.11853690706E+02 -0.72441654112E+02 -0.57286049442E+02  0.93112806287E+02  0.00000000000E+00 0.  1.
</event>
<event>
 7    1  0.5622879E-006  0.5870151E+02  0.7818608E-02  0.1480879E+00
          2   -1    0    0  502    0  0.00000000000E+00  0.00000000000E+00  0.19496938621E+04  0.19496938621E+04  0.00000000000E+00 0. -1.
          1   -1    0    0  501    0 -0.00000000000E+00 -0.00000000000E+00 -0.92323404966E+02  0.92323404966E+02  0.00000000000E+00 0. -1.
         25    2    1    2    0    0 -0.43604389485E+01 -0.55579151665E+02  0.13394326914E+04  0.13464080118E+04  0.12500617609E+03 0.  0.
          2    1    1    2  501    0  0.36010274874E+02  0.46469620003E+02 -0.78605247045E+02  0.98157782894E+02  0.00000000000E+00 0. -1.
          1    1    1    2  502    0 -0.31649835926E+02  0.91095316615E+01  0.59654301280E+03  0.59745147234E+03  0.00000000000E+00 0. -1.
         22    1    3    3    0    0 -0.13852917637E+02 -0.69513420124E+02  0.13139019333E+04  0.13158124142E+04  0.00000000000E+00 0.  1.
         22    1    3    3    0    0  0.94924786885E+01  0.13934268459E+02  0.25530758062E+02  0.30595597663E+02  0.00000000000E+00 0.  1.
</event>
<event>
 7    1  0.5622879E-006  0.1248062E+03  0.7818608E-02  0.1393031E+00
          2   -1    0    0  502    0  0.00000000000E+00  0.00000000000E+00  0.23775118146E+03  0.23775118146E+03  0.00000000000E+00 0. -1.
          1   -1    0    0  501    0 -0.00000000000E+00 -0.00000000000E+00 -0.37401360926E+03  0.37401360926E+03  0.00000000000E+00 0. -1.
         25    2    1    2    0    0 -0.36762901509E+02 -0.14774604930E+03  0.99592327493E+02  0.22072900785E+03  0.12498902831E+03 0.  0.
          2    1    1    2  501    0  0.34126028870E+02  0.11789239129E+03 -0.29786688698E+03  0.32216127038E+03  0.00000000000E+00 0. -1.
          1    1    1    2  502    0  0.26368726381E+01  0.29853658015E+02  0.62012131693E+02  0.68874512495E+02  0.00000000000E+00 0. -1.
         22    1    3    3    0    0 -0.51455591465E+02 -0.10367488857E+03  0.12284301536E+03  0.16877963987E+03  0.00000000000E+00 0.  1.
         22    1    3    3    0    0  0.14692689956E+02 -0.44071160738E+02 -0.23250687868E+02  0.51949367977E+02  0.00000000000E+00 0.  1.
</event>
<event>
 7    1  0.5622879E-006  0.1304507E+03  0.7818608E-02  0.1245932E+00
          2   -1    0    0  502    0  0.00000000000E+00  0.00000000000E+00  0.41973841519E+03  0.41973841519E+03  0.00000000000E+00 0. -1.
          1   -1    0    0  501    0 -0.00000000000E+00 -0.00000000000E+00 -0.10133367440E+04  0.10133367440E+04  0.00000000000E+00 0. -1.
         25    2    1    2    0    0  0.38728851035E+02 -0.56502031110E+02  0.45521564328E+02  0.14962617851E+03  0.12499350804E+03 0.  0.
          2    1    1    2  501    0 -0.13449512029E+03  0.81579341818E+01 -0.94745322310E+03  0.95698646764E+03  0.00000000000E+00 0. -1.
          1    1    1    2  502    0  0.95766269255E+02  0.48344096929E+02  0.30833332998E+03  0.32646251303E+03  0.00000000000E+00 0. -1.
         22    1    3    3    0    0 -0.23746634815E+02  0.28458765980E+02  0.11064742597E+02  0.38681165376E+02  0.00000000000E+00 0.  1.
         22    1    3    3    0    0  0.62475485849E+02 -0.84960797091E+02  0.34456821731E+02  0.11094501313E+03  0.00000000000E+00 0.  1.
</event>
<event>
 7    1  0.5622879E-006  0.7648872E+02  0.7818608E-02  0.1445117E+00
          2   -1    0    0  502    0  0.00000000000E+00  0.00000000000E+00  0.29985943224E+03  0.29985943224E+03  0.00000000000E+00 0. -1.
          1   -1    0    0  501    0 -0.00000000000E+00 -0.00000000000E+00 -0.48901166525E+03  0.48901166525E+03  0.00000000000E+00 0. -1.
         25    2    1    2    0    0 -0.23449535311E+02  0.48373676646E+02 -0.24046632122E+03  0.27629327414E+03  0.12499611351E+03 0.  0.
          2    1    1    2  501    0  0.16413867331E+02  0.28327232636E+02 -0.22416014944E+03  0.22653834057E+03  0.00000000000E+00 0. -1.
          1    1    1    2  502    0  0.70356679795E+01 -0.76700909282E+02  0.27547423764E+03  0.28603948279E+03  0.00000000000E+00 0. -1.
         22    1    3    3    0    0 -0.11130878043E+01  0.49108254316E+02 -0.24791628373E+03  0.25273571838E+03  0.00000000000E+00 0. -1.
         22    1    3    3    0    0 -0.22336447507E+02 -0.73457767023E+00  0.74499625137E+01  0.23557555752E+02  0.00000000000E+00 0. -1.
</event>
<event>
 7    1  0.5622879E-006  0.5663630E+02  0.7818608E-02  0.1417188E+00
          2   -1    0    0  502    0  0.00000000000E+00  0.00000000000E+00  0.19800729425E+04  0.19800729425E+04  0.00000000000E+00 0. -1.
          1   -1    0    0  501    0 -0.00000000000E+00 -0.00000000000E+00 -0.17066070700E+02  0.17066070700E+02  0.00000000000E+00 0. -1.
         25    2    1    2    0    0  0.44076812277E+01 -0.22165704143E+01  0.63010501409E+03  0.64240328906E+03  0.12500126472E+03 0.  0.
          2    1    1    2  501    0  0.24035843058E+02 -0.51283026484E+02  0.68493725017E+02  0.88876661299E+02  0.00000000000E+00 0. -1.
          1    1    1    2  502    0 -0.28443524286E+02  0.53499596899E+02  0.12644081327E+04  0.12658590629E+04  0.00000000000E+00 0. -1.
         22    1    3    3    0    0  0.14324787395E+00 -0.57831724643E+02  0.18530913093E+03  0.19412367939E+03  0.00000000000E+00 0.  1.
         22    1    3    3    0    0  0.42644333537E+01  0.55615154228E+02  0.44479588316E+03  0.44827960967E+03  0.00000000000E+00 0.  1.
</event>
<event>
 7    1  0.5622879E-006  0.1398743E+03  0.7818608E-02  0.1230113E+00
          2   -1    0    0  502    0  0.00000000000E+00  0.00000000000E+00  0.12057135120E+04  0.12057135120E+04  0.00000000000E+00 0. -1.
          1   -1    0    0  501    0 -0.00000000000E+00 -0.00000000000E+00 -0.50033347806E+02  0.50033347806E+02  0.00000000000E+00 0. -1.
         25    2    1    2    0    0  0.12399892379E+03  0.25546477060E+02  0.63812452999E+03  0.66246243904E+03  0.12500084711E+03 0.  0.
          2    1    1    2  501    0 -0.25647194369E+02 -0.13750291300E+03  0.22434773532E+03  0.26437990848E+03  0.00000000000E+00 0. -1.
          1    1    1    2  502    0 -0.98351729421E+02  0.11195643594E+03  0.29320789884E+03  0.32890451224E+03  0.00000000000E+00 0. -1.
         22    1    3    3    0    0  0.54004304570E+02 -0.40918652474E+02  0.39692134276E+03  0.40266282839E+03  0.00000000000E+00 0. -1.
         22    1    3    3    0    0  0.69994619220E+02  0.66465129534E+02  0.24120318723E+03  0.25979961065E+03  0.00000000000E+00 0. -1.
</event>
<event>
 7    1  0.5622879E-006  0.7887486E+02  0.7818608E-02  0.1434476E+00
          2   -1    0    0  502    0  0.00000000000E+00  0.00000000000E+00  0.14734989448E+03  0.14734989448E+03  0.00000000000E+00 0. -1.
          1   -1    0    0  501    0 -0.00000000000E+00 -0.00000000000E+00 -0.14632744385E+04  0.14632744385E+04  0.00000000000E+00 0. -1.
         25    2    1    2    0    0 -0.66651063453E+02  0.22897707760E+02 -0.66226213975E+03  0.67762973745E+03  0.12499700016E+03 0.  0.
          2    1    1    2  501    0 -0.11926781609E+02 -0.32241749290E+02 -0.78171183980E+03  0.78246736609E+03  0.00000000000E+00 0. -1.
          1    1    1    2  502    0  0.78577845062E+02  0.93440415297E+01  0.12804943556E+03  0.15052722941E+03  0.00000000000E+00 0. -1.
         22    1    3    3    0    0 -0.79988507427E+02  0.39729964625E+02 -0.26223933725E+03  0.27703086725E+03  0.00000000000E+00 0. -1.
         22    1    3    3    0    0  0.13337443974E+02 -0.16832256865E+02 -0.40002280250E+03  0.40059887020E+03  0.00000000000E+00 0. -1.
</event>
<event>
 7    1  0.5622879E-006  0.1318601E+03  0.7818608E-02  0.1431777E+00
          2   -1    0    0  502    0  0.00000000000E+00  0.00000000000E+00  0.17491749572E+03  0.17491749572E+03  0.00000000000E+00 0. -1.
          1   -1    0    0  501    0 -0.00000000000E+00 -0.00000000000E+00 -0.23976482174E+03  0.23976482174E+03  0.00000000000E+00 0. -1.
         25    2    1    2    0    0  0.16122797656E+01 -0.11597999183E+03  0.79389275444E+02  0.18810018890E+03  0.12500026423E+03 0.  0.
          2    1    1    2  501    0 -0.63823642812E+01  0.13641725407E+03 -0.78375792479E+02  0.15745846001E+03  0.00000000000E+00 0. -1.
          1    1    1    2  502    0  0.47700845156E+01 -0.20437262236E+02 -0.65860808987E+02  0.69123668554E+02  0.00000000000E+00 0. -1.
         22    1    3    3    0    0  0.49954457397E+02 -0.80053946661E+02  0.85790865331E+02  0.12753099531E+03  0.00000000000E+00 0.  1.
         22    1    3    3    0    0 -0.48342177631E+02 -0.35926045170E+02 -0.64015898867E+01  0.60569193595E+02  0.00000000000E+00 0.  1.
</event>
<event>
 7    1  0.5622879E-006  0.2064492E+03  0.7818608E-02  0.1238172E+00
          2   -1    0    0  502    0  0.00000000000E+00  0.00000000000E+00  0.24542842748E+03  0.24542842748E+03  0.00000000000E+00 0. -1.
          1   -1    0    0  501    0 -0.00000000000E+00 -0.00000000000E+00 -0.15350828856E+04  0.15350828856E+04  0.00000000000E+00 0. -1.
         25    2    1    2    0    0  0.86668745031E+02  0.23399062381E+03  0.27095572991E+02  0.28039578277E+03  0.12499816609E+03 0.  0.
          2    1    1    2  501    0 -0.19868893122E+02 -0.20375491750E+03 -0.13849370114E+04  0.13999862017E+04  0.00000000000E+00 0. -1.
          1    1    1    2  502    0 -0.66799851909E+02 -0.30235706315E+02  0.68186980351E+02  0.10012932857E+03  0.00000000000E+00 0. -1.
         22    1    3    3    0    0 -0.31118481736E+02  0.28795673718E+02  0.66463836882E+01  0.42915325311E+02  0.00000000000E+00 0.  1.
         22    1    3    3    0    0  0.11778722677E+03  0.20519495009E+03  0.20449189303E+02  0.23748045746E+03  0.00000000000E+00 0.  1.
</event>
<event>
 7    1  0.5622879E-006  0.9890377E+02  0.7818608E-02  0.1376895E+00
          2   -1    0    0  502    0  0.00000000000E+00  0.00000000000E+00  0.14672280923E+04  0.14672280923E+04  0.00000000000E+00 0. -1.
          1   -1    0    0  501    0 -0.00000000000E+00 -0.00000000000E+00 -0.20440201650E+03  0.20440201650E+03  0.00000000000E+00 0. -1.
         25    2    1    2    0    0 -0.10932464740E+03 -0.55189909621E+02  0.60213925836E+03  0.62705516465E+03  0.12501475273E+03 0.  0.
          2    1    1    2  501    0  0.41604081580E+02 -0.11243006223E+02 -0.18684484467E+03  0.19175062131E+03  0.00000000000E+00 0. -1.
          1    1    1    2  502    0  0.67720565817E+02  0.66432915844E+02  0.84753166209E+03  0.85282432282E+03  0.00000000000E+00 0. -1.
         22    1    3    3    0    0 -0.10954273442E+03 -0.84427875756E+02  0.55153636708E+03  0.56861238210E+03  0.00000000000E+00 0. -1.
         22    1    3    3    0    0  0.21808702096E+00  0.29237966135E+02  0.50602891284E+02  0.58442782548E+02  0.00000000000E+00 0. -1.
</event>
<event>
 7    1  0.5622879E-006  0.7561042E+02  0.7818608E-02  0.1403693E+00
          2   -1    0    0  502    0  0.00000000000E+00  0.00000000000E+00  0.93589992694E+03  0.93589992694E+03  0.00000000000E+00 0. -1.
          1   -1    0    0  501    0 -0.00000000000E+00 -0.00000000000E+00 -0.17393788027E+03  0.17393788027E+03  0.00000000000E+00 0. -1.
         25    2    1    2    0    0  0.51189009268E+02 -0.10609649218E+03  0.18601801192E+03  0.25318918875E+03  0.12500113687E+03 0.  0.
          2    1    1    2  501    0 -0.25991750970E+02  0.37291614800E+02 -0.13473808869E+03  0.14219911461E+03  0.00000000000E+00 0. -1.
          1    1    1    2  502    0 -0.25197258298E+02  0.68804877382E+02  0.71068212344E+03  0.71444950385E+03  0.00000000000E+00 0. -1.
         22    1    3    3    0    0 -0.76226552082E+00 -0.18011238588E+02  0.13981454359E+03  0.14097195594E+03  0.00000000000E+00 0.  1.
         22    1    3    3    0    0  0.51951274789E+02 -0.88085253594E+02  0.46203468332E+02  0.11221723281E+03  0.00000000000E+00 0.  1.
</event>
<event>
 7    1  0.5622879E-006  0.9567326E+02  0.7818608E-02  0.1421298E+00
          2   -1    0    0  502    0  0.00000000000E+00  0.00000000000E+00  0.70635046673E+03  0.70635046673E+03  0.00000000000E+00 0. -1.
          1   -1    0    0  501    0 -0.00000000000E+00 -0.00000000000E+00 -0.12843552718E+03  0.12843552718E+03  0.00000000000E+00 0. -1.
         25    2    1    2    0    0 -0.32083601891E+02  0.10076760117E+03  0.29272696713E+03  0.33540737355E+03  0.12500224793E+03 0.  0.
          2    1    1    2  501    0 -0.20974377734E+02 -0.23270724109E+02 -0.99020102812E+02  0.10385774830E+03  0.00000000000E+00 0. -1.
          1    1    1    2  502    0  0.53057979625E+02 -0.77496877062E+02  0.38420807523E+03  0.39552087205E+03  0.00000000000E+00 0. -1.
         22    1    3    3    0    0 -0.48644906592E+02  0.53590701011E+02  0.27168596035E+03  0.28116107701E+03  0.00000000000E+00 0.  1.
         22    1    3    3    0    0  0.16561304700E+02  0.47176900159E+02  0.21041006781E+02  0.54246296541E+02  0.00000000000E+00 0.  1.
</event>
<event>
 7    1  0.5622879E-006  0.7968140E+02  0.7818608E-02  0.1484740E+00
          2   -1    0    0  502    0  0.00000000000E+00  0.00000000000E+00  0.31238448139E+03  0.31238448139E+03  0.00000000000E+00 0. -1.
          1   -1    0    0  501    0 -0.00000000000E+00 -0.00000000000E+00 -0.38285793499E+03  0.38285793499E+03  0.00000000000E+00 0. -1.
         25    2    1    2    0    0  0.43610063321E+01 -0.10110973501E+03  0.90931696623E+00  0.16083216920E+03  0.12499585154E+03 0.  0.
          2    1    1    2  501    0 -0.44524086872E+01  0.23189330334E+02 -0.29585634763E+03  0.29679714860E+03  0.00000000000E+00 0. -1.
          1    1    1    2  502    0  0.91402355069E-01  0.77920404678E+02  0.22447357706E+03  0.23761309859E+03  0.00000000000E+00 0. -1.
         22    1    3    3    0    0 -0.18418945218E+02 -0.32427714003E+02 -0.57024424462E+02  0.68136621310E+02  0.00000000000E+00 0. -1.
         22    1    3    3    0    0  0.22779951550E+02 -0.68682021009E+02  0.57933741428E+02  0.92695547889E+02  0.00000000000E+00 0. -1.
</event>
<event>
 7    1  0.5622879E-006  0.1131180E+03  0.7818608E-02  0.1404557E+00
          2   -1    0    0  502    0  0.00000000000E+00  0.00000000000E+00  0.16056519657E+04  0.16056519657E+04  0.00000000000E+00 0. -1.
          1   -1    0    0  501    0 -0.00000000000E+00 -0.00000000000E+00 -0.46622725256E+02  0.46622725256E+02  0.00000000000E+00 0. -1.
         25    2    1    2    0    0 -0.67348662256E+02 -0.11444645770E+03  0.46453306517E+03  0.49904943537E+03  0.12500214528E+03 0.  0.
          2    1    1    2  501    0  0.27904953504E+02  0.11489300843E+02 -0.18093402829E+02  0.35186100805E+02  0.00000000000E+00 0. -1.
          1    1    1    2  502    0  0.39443708752E+02  0.10295715685E+03  0.11125895782E+04  0.11180391548E+04  0.00000000000E+00 0. -1.
         22    1    3    3    0    0 -0.10222216338E+03 -0.89086956113E+02  0.39053806382E+03  0.41340759031E+03  0.00000000000E+00 0.  1.
         22    1    3    3    0    0  0.34873501122E+02 -0.25359501586E+02  0.73995001349E+02  0.85641845064E+02  0.00000000000E+00 0.  1.
</event>
<event>
 7    1  0.5622879E-006  0.4621032E+02  0.7818608E-02  0.1491105E+00
          2   -1    0    0  502    0  0.00000000000E+00  0.00000000000E+00  0.22139484641E+04  0.22139484641E+04  0.00000000000E+00 0. -1.
          1   -1    0    0  501    0 -0.00000000000E+00 -0.00000000000E+00 -0.51639794544E+02  0.51639794544E+02  0.00000000000E+00 0. -1.
         25    2    1    2    0    0 -0.19803934733E+02  0.19125108914E+02  0.65577551643E+03  0.66814960085E+03  0.12499758216E+03 0.  0.
          2    1    1    2  501    0 -0.27444769204E+02 -0.27631799338E+02 -0.36668028291E+02  0.53490896329E+02  0.00000000000E+00 0. -1.
          1    1    1    2  502    0  0.47248703937E+02  0.85066904246E+01  0.15432011814E+04  0.15439477615E+04  0.00000000000E+00 0. -1.
         22    1    3    3    0    0 -0.13579503027E+02  0.40933449343E+02  0.71961315872E+02  0.83895060400E+02  0.00000000000E+00 0.  1.
         22    1    3    3    0    0 -0.62244317064E+01 -0.21808340429E+02  0.58381420056E+03  0.58425454045E+03  0.00000000000E+00 0.  1.
</event>
<event>
 7    1  0.5622879E-006  0.6055407E+02  0.7818608E-02  0.1504447E+00
          2   -1    0    0  502    0  0.00000000000E+00  0.00000000000E+00  0.15593329117E+04  0.15593329117E+04  0.00000000000E+00 0. -1.
          1   -1    0    0  501    0 -0.00000000000E+00 -0.00000000000E+00 -0.81416354890E+03  0.81416354890E+03  0.00000000000E+00 0. -1.
         25    2    1    2    0    0 -0.22180327158E+02  0.34199208430E+02 -0.29494035959E+03  0.32291933714E+03  0.12500211925E+03 0.  0.
          2    1    1    2  501    0  0.48327727649E+02 -0.41355471845E+02 -0.50311221849E+03  0.50711709565E+03  0.00000000000E+00 0. -1.
          1    1    1    2  502    0 -0.26147400491E+02  0.71562634145E+01  0.15432219408E+04  0.15434600278E+04  0.00000000000E+00 0. -1.
         22    1    3    3    0    0 -0.27381145859E+02 -0.40959755142E+02 -0.69262927059E+02  0.84998716194E+02  0.00000000000E+00 0.  1.
         22    1    3    3    0    0  0.52008187010E+01  0.75158963572E+02 -0.22567743253E+03  0.23792062095E+03  0.00000000000E+00 0.  1.
</event>
<event>
 7    1  0.5622879E-006  0.7158549E+02  0.7818608E-02  0.1377509E+00
          2   -1    0    0  502    0  0.00000000000E+00  0.00000000000E+00  0.20006634470E+04  0.20006634470E+04  0.00000000000E+00 0. -1.
          1   -1    0    0  501    0 -0.00000000000E+00 -0.00000000000E+00 -0.55408143889E+02  0.55408143889E+02  0.00000000000E+00 0. -1.
         25    2    1    2    0    0 -0.90774030391E+02  0.47526384065E+02  0.17725580365E+03  0.23988209637E+03  0.12500047382E+03 0.  0.
          2    1    1    2  501    0  0.67056647941E+02  0.67631749358E+01  0.24542721037E+02  0.71726422776E+02  0.00000000000E+00 0. -1.
          1    1    1    2  502    0  0.23717382450E+02 -0.54289559001E+02  0.17434567784E+04  0.17444630717E+04  0.00000000000E+00 0. -1.
         22    1    3    3    0    0 -0.46003257002E+02  0.75928340809E+02  0.49691532495E+02  0.10173819831E+03  0.00000000000E+00 0.  1.
         22    1    3    3    0    0 -0.44770773389E+02 -0.28401956743E+02  0.12756427115E+03  0.13814389806E+03  0.00000000000E+00 0.  1.
</event>
<event>
 7    1  0.5622879E-006  0.7557363E+02  0.7818608E-02  0.1351162E+00
          2   -1    0    0  502    0  0.00000000000E+00  0.00000000000E+00  0.20804588053E+04  0.20804588053E+04  0.00000000000E+00 0. -1.
          1   -1    0    0  501    0 -0.00000000000E+00 -0.00000000000E+00 -0.14849334717E+03  0.14849334717E+03  0.00000000000E+00 0. -1.
         25    2    1    2    0    0 -0.13082206829E+03 -0.16530425127E+01  0.65525946661E+03  0.67978510924E+03  0.12500272024E+03 0.  0.
          2    1    1    2  501    0  0.67768399161E+02  0.31883058997E+02 -0.12499933637E+03  0.14571863116E+03  0.00000000000E+00 0. -1.
          1    1    1    2  502    0  0.63053669131E+02 -0.30230016485E+02  0.14017053278E+04  0.14034484120E+04  0.00000000000E+00 0. -1.
         22    1    3    3    0    0 -0.15283501067E+02 -0.15602077300E+02  0.98356417092E+01  0.23953080569E+02  0.00000000000E+00 0.  1.
         22    1    3    3    0    0 -0.11553856723E+03  0.13949034787E+02  0.64542382490E+03  0.65583202867E+03  0.00000000000E+00 0.  1.
</event>
<event>
 7    1  0.5622879E-006  0.1325298E+03  0.7818608E-02  0.1376457E+00
          2   -1    0    0  502    0  0.00000000000E+00  0.00000000000E+00  0.12187317498E+04  0.12187317498E+04  0.00000000000E+00 0. -1.
          1   -1    0    0  501    0 -0.00000000000E+00 -0.00000000000E+00 -0.22929782960E+03  0.22929782960E+03  0.00000000000E+00 0. -1.
         25    2    1    2    0    0  0.38914720667E+02  0.12810380036E+03  0.84273409884E+03  0.86240999742E+03  0.12500121262E+03 0.  0.
          2    1    1    2  501    0 -0.67892504975E+02 -0.11388699902E+03 -0.19861230948E+03  0.23880219902E+03  0.00000000000E+00 0. -1.
          1    1    1    2  502    0  0.28977784308E+02 -0.14216801341E+02  0.34531213083E+03  0.34681738295E+03  0.00000000000E+00 0. -1.
         22    1    3    3    0    0  0.11934184883E+02  0.14089242918E+03  0.53993521998E+03  0.55814258317E+03  0.00000000000E+00 0.  1.
         22    1    3    3    0    0  0.26980535783E+02 -0.12788628826E+02  0.30279887886E+03  0.30426741425E+03  0.00000000000E+00 0.  1.
</event>
<event>
 7    1  0.5622879E-006  0.1758650E+03  0.7818608E-02  0.1209454E+00
          2   -1    0    0  502    0  0.00000000000E+00  0.00000000000E+00  0.34672787137E+03  0.34672787137E+03  0.00000000000E+00 0. -1.
          1   -1    0    0  501    0 -0.00000000000E+00 -0.00000000000E+00 -0.44281133408E+03  0.44281133408E+03  0.00000000000E+00 0. -1.
         25    2    1    2    0    0 -0.14055090651E+03  0.44360387480E+02  0.12322880404E+02  0.19365382656E+03  0.12501019903E+03 0.  0.
          2    1    1    2  501    0  0.17841239954E+03  0.65440922095E+02 -0.30977628448E+03  0.36342102996E+03  0.00000000000E+00 0. -1.
          1    1    1    2  502    0 -0.37861493027E+02 -0.10980130957E+03  0.20136994136E+03  0.23246434893E+03  0.00000000000E+00 0. -1.
         22    1    3    3    0    0 -0.23198987080E+02 -0.37796864496E+02  0.23085879927E+02  0.49997538132E+02  0.00000000000E+00 0. -1.
         22    1    3    3    0    0 -0.11735191943E+03  0.82157251975E+02 -0.10762999523E+02  0.14365628843E+03  0.00000000000E+00 0. -1.
</event>
<event>
 7    1  0.5622879E-006  0.7908008E+02  0.7818608E-02  0.1424259E+00
          2   -1    0    0  502    0  0.00000000000E+00  0.00000000000E+00  0.53222011836E+03  0.53222011836E+03  0.00000000000E+00 0. -1.
          1   -1    0    0  501    0 -0.00000000000E+00 -0.00000000000E+00 -0.21253248140E+03  0.21253248140E+03  0.00000000000E+00 0. -1.
         25    2    1    2    0    0  0.39028246853E+02  0.19998795196E+02 -0.36955177973E+02  0.13752706288E+03  0.12499940793E+03 0.  0.
          2    1    1    2  501    0  0.35798455021E+02  0.95550570309E+01 -0.11909893103E+03  0.12472924224E+03  0.00000000000E+00 0. -1.
          1    1    1    2  502    0 -0.74826701875E+02 -0.29553852227E+02  0.47574174596E+03  0.48249629464E+03  0.00000000000E+00 0. -1.
         22    1    3    3    0    0  0.55949824583E+02  0.63997896547E+02 -0.19158528788E+02  0.87138756352E+02  0.00000000000E+00 0. -1.
         22    1    3    3    0    0 -0.16921577730E+02 -0.43999101350E+02 -0.17796649185E+02  0.50388306528E+02  0.00000000000E+00 0. -1.
</event>
<event>
 7    1  0.5622879E-006  0.8890828E+02  0.7818608E-02  0.1384411E+00
          2   -1    0    0  502    0  0.00000000000E+00  0.00000000000E+00  0.23079766319E+03  0.23079766319E+03  0.00000000000E+00 0. -1.
          1   -1    0    0  501    0 -0.00000000000E+00 -0.00000000000E+00 -0.17381967156E+03  0.17381967156E+03  0.00000000000E+00 0. -1.
         25    2    1    2    0    0  0.51852790304E+02 -0.19841619590E+02  0.12280297045E+02  0.13732644480E+03  0.12500138005E+03 0.  0.
          2    1    1    2  501    0  0.29602050729E+02 -0.34017373237E+02 -0.90149803534E+02  0.10079905836E+03  0.00000000000E+00 0. -1.
          1    1    1    2  502    0 -0.81454841032E+02  0.53858992827E+02  0.13484749812E+03  0.16649183159E+03  0.00000000000E+00 0. -1.
         22    1    3    3    0    0 -0.18505578759E+01  0.28243731538E+02  0.48879017596E+02  0.56482663684E+02  0.00000000000E+00 0.  1.
         22    1    3    3    0    0  0.53703348179E+02 -0.48085351128E+02 -0.36598720551E+02  0.80843781114E+02  0.00000000000E+00 0.  1.
</event>
<event>
 7    1  0.5622879E-006  0.8947593E+02  0.7818608E-02  0.1354023E+00
          2   -1    0    0  502    0  0.00000000000E+00  0.00000000000E+00  0.34540423543E+03  0.34540423543E+03  0.00000000000E+00 0. -1.
          1   -1    0    0  501    0 -0.00000000000E+00 -0.00000000000E+00 -0.20869662912E+04  0.20869662912E+04  0.00000000000E+00 0. -1.
         25    2    1    2    0    0 -0.26009894930E+02  0.73575402790E+02  0.59301753789E+01  0.14750961819E+03  0.12503625854E+03 0.  0.
          2    1    1    2  501    0  0.55924768447E+02  0.13965138541E+02 -0.20077875578E+04  0.20086148168E+04  0.00000000000E+00 0. -1.
          1    1    1    2  502    0 -0.29914873517E+02 -0.87540541331E+02  0.26029532671E+03  0.27624609163E+03  0.00000000000E+00 0. -1.
         22    1    3    3    0    0  0.45504062258E+02  0.24911412475E+02 -0.22373446358E+02  0.56495745463E+02  0.00000000000E+00 0. -1.
         22    1    3    3    0    0 -0.71513957188E+02  0.48663990315E+02  0.28303621737E+02  0.91013872731E+02  0.00000000000E+00 0. -1.
</event>
<event>
 7    1  0.5622879E-006  0.6644270E+02  0.7818608E-02  0.1408521E+00
          2   -1    0    0  502    0  0.00000000000E+00  0.00000000000E+00  0.16980614419E+03  0.16980614419E+03  0.00000000000E+00 0. -1.
          1   -1    0    0  501    0 -0.00000000000E+00 -0.00000000000E+00 -0.15110218627E+04  0.15110218627E+04  0.00000000000E+00 0. -1.
         25    2    1    2    0    0  0.22915082146E+02 -0.16008032171E+02 -0.95015665323E+03  0.95875119336E+03  0.12499930799E+03 0.  0.
          2    1    1    2  501    0  0.43295322554E+02  0.24617269975E+02 -0.54866012027E+03  0.55091598499E+03  0.00000000000E+00 0. -1.
          1    1    1    2  502    0 -0.66210404701E+02 -0.86092378039E+01  0.15760105504E+03  0.17116082851E+03  0.00000000000E+00 0. -1.
         22    1    3    3    0    0  0.93575081699E+01 -0.70907779122E+02 -0.53791193919E+03  0.54264604525E+03  0.00000000000E+00 0.  1.
         22    1    3    3    0    0  0.13557573976E+02  0.54899746951E+02 -0.41224471404E+03  0.41610514811E+03  0.00000000000E+00 0.  1.
</event>
<event>
 7    1  0.5622879E-006  0.9774590E+02  0.7818608E-02  0.1376426E+00
          2   -1    0    0  502    0  0.00000000000E+00  0.00000000000E+00  0.16661326128E+04  0.16661326128E+04  0.00000000000E+00 0. -1.
          1   -1    0    0  501    0 -0.00000000000E+00 -0.00000000000E+00 -0.17287275369E+04  0.17287275369E+04  0.00000000000E+00 0. -1.
         25    2    1    2    0    0  0.59310660696E+02 -0.11252500956E+03 -0.74369383877E+01  0.17849290215E+03  0.12499910327E+03 0.  0.
          2    1    1    2  501    0 -0.68017354609E+02  0.69624870425E+02 -0.16340110395E+04  0.16369074684E+04  0.00000000000E+00 0. -1.
          1    1    1    2  502    0  0.87066939131E+01  0.42900139137E+02  0.15788530538E+04  0.15794597791E+04  0.00000000000E+00 0. -1.
         22    1    3    3    0    0 -0.41226280398E+00  0.15982766224E+02 -0.30961482063E+02  0.34845834017E+02  0.00000000000E+00 0.  1.
         22    1    3    3    0    0  0.59722923500E+02 -0.12850777579E+03  0.23524543675E+02  0.14364706814E+03  0.00000000000E+00 0.  1.
</event>
<event>
 7    1  0.5622879E-006  0.1467585E+03  0.7818608E-02  0.1355826E+00
          2   -1    0    0  502    0  0.00000000000E+00  0.00000000000E+00  0.70959195790E+03  0.70959195790E+03  0.00000000000E+00 0. -1.
          1   -1    0    0  501    0 -0.00000000000E+00 -0.00000000000E+00 -0.10962145515E+04  0.10962145515E+04  0.00000000000E+00 0. -1.
         25    2    1    2    0    0  0.78688462746E+02 -0.10160480457E+03  0.19695937127E+03  0.26633204951E+03  0.12499742470E+03 0.  0.
          2    1    1    2  501    0 -0.11262688554E+03  0.94814653857E+02 -0.10557872146E+04  0.10660024749E+04  0.00000000000E+00 0. -1.
          1    1    1    2  502    0  0.33938422797E+02  0.67901507106E+01  0.47220524975E+03  0.47347198500E+03  0.00000000000E+00 0. -1.
         22    1    3    3    0    0 -0.15106426694E+01 -0.89312124441E+02  0.61556598710E+02  0.10848111568E+03  0.00000000000E+00 0.  1.
         22    1    3    3    0    0  0.80199105415E+02 -0.12292680126E+02  0.13540277256E+03  0.15785093383E+03  0.00000000000E+00 0.  1.
</event>
<event>
 7    1  0.5622879E-006  0.1178784E+03  0.7818608E-02  0.1356670E+00
          2   -1    0    0  502    0  0.00000000000E+00  0.00000000000E+00  0.39240523252E+02  0.39240523252E+02  0.00000000000E+00 0. -1.
          1   -1    0    0  501    0 -0.00000000000E+00 -0.00000000000E+00 -0.16361062161E+04  0.16361062161E+04  0.00000000000E+00 0. -1.
         25    2    1    2    0    0  0.39280026451E+02 -0.14141868629E+03 -0.62816613132E+03  0.65708775893E+03  0.12501787511E+03 0.  0.
          2    1    1    2  501    0 -0.86125128421E+01  0.11158601989E+03 -0.96903198599E+03  0.97547352864E+03  0.00000000000E+00 0. -1.
          1    1    1    2  502    0 -0.30667513609E+02  0.29832666399E+02  0.33242448218E+00  0.42785451750E+02  0.00000000000E+00 0. -1.
         22    1    3    3    0    0  0.64916321490E+02 -0.18889025868E+02 -0.22315858590E+03  0.23317520999E+03  0.00000000000E+00 0. -1.
         22    1    3    3    0    0 -0.25636295039E+02 -0.12252966042E+03 -0.40500754542E+03  0.42391254895E+03  0.00000000000E+00 0. -1.
</event>
<event>
 7    1  0.5622879E-006  0.4974781E+02  0.7818608E-02  0.1481818E+00
          2   -1    0    0  502    0  0.00000000000E+00  0.00000000000E+00  0.33941918345E+04  0.33941918345E+04  0.00000000000E+00 0. -1.
          1   -1    0    0  501    0 -0.00000000000E+00 -0.00000000000E+00 -0.18714893165E+02  0.18714893165E+02  0.00000000000E+00 0. -1.
         25    2    1    2    0    0 -0.78844541983E+01  0.20874473855E+02  0.35131938154E+03  0.37356116006E+03  0.12499889673E+03 0.  0.
          2    1    1    2  501    0  0.29835079584E+02  0.24500705880E+02  0.43100951991E+02  0.57862843215E+02  0.00000000000E+00 0. -1.
          1    1    1    2  502    0 -0.21950625386E+02 -0.45375179735E+02  0.29810566078E+04  0.29814827244E+04  0.00000000000E+00 0. -1.
         22    1    3    3    0    0 -0.32678162443E+02  0.64616437759E+02  0.25261956745E+03  0.26279229857E+03  0.00000000000E+00 0.  1.
         22    1    3    3    0    0  0.24793708245E+02 -0.43741963904E+02  0.98699814091E+02  0.11076886149E+03  0.00000000000E+00 0.  1.
</event>
<event>
 7    1  0.5622879E-006  0.7103533E+02  0.7818608E-02  0.1427452E+00
          2   -1    0    0  502    0  0.00000000000E+00  0.00000000000E+00  0.16633013475E+04  0.16633013475E+04  0.00000000000E+00 0. -1.
          1   -1    0    0  501    0 -0.00000000000E+00 -0.00000000000E+00 -0.13648660106E+03  0.13648660106E+03  0.00000000000E+00 0. -1.
         25    2    1    2    0    0  0.30650507406E+02  0.10511317817E+03  0.28914515681E+03  0.33349445770E+03  0.12500159112E+03 0.  0.
          2    1    1    2  501    0 -0.14664079798E+02 -0.68168185146E+02 -0.10334870192E+03  0.12467113094E+03  0.00000000000E+00 0. -1.
          1    1    1    2  502    0 -0.15986427608E+02 -0.36944993029E+02  0.13410182915E+04  0.13416223599E+04  0.00000000000E+00 0. -1.
         22    1    3    3    0    0  0.55118652513E+02  0.73899366718E+02  0.84552980170E+02  0.12509351986E+03  0.00000000000E+00 0.  1.
         22    1    3    3    0    0 -0.24468145107E+02  0.31213811456E+02  0.20459217664E+03  0.20840093784E+03  0.00000000000E+00 0.  1.
</event>
<event>
 7    1  0.5622879E-006  0.1130302E+03  0.7818608E-02  0.1291844E+00
          2   -1    0    0  502    0  0.00000000000E+00  0.00000000000E+00  0.26855218081E+03  0.26855218081E+03  0.00000000000E+00 0. -1.
          1   -1    0    0  501    0 -0.00000000000E+00 -0.00000000000E+00 -0.11035075129E+04  0.11035075129E+04  0.00000000000E+00 0. -1.
         25    2    1    2    0    0 -0.11654388201E+03 -0.11154482577E+03  0.40467153249E+02  0.20805749440E+03  0.12500242357E+03 0.  0.
          2    1    1    2  501    0  0.10735944926E+03  0.32728918744E+02 -0.10054393439E+04  0.10116844902E+04  0.00000000000E+00 0. -1.
          1    1    1    2  502    0  0.91844327467E+01  0.78815907022E+02  0.13001685855E+03  0.15231770912E+03  0.00000000000E+00 0. -1.
         22    1    3    3    0    0 -0.19693710993E+02 -0.20189089315E+02 -0.42629851919E+02  0.51115025723E+02  0.00000000000E+00 0.  1.
         22    1    3    3    0    0 -0.96850171015E+02 -0.91355736451E+02  0.83097005168E+02  0.15694246868E+03  0.00000000000E+00 0.  1.
</event>
<event>
 7    1  0.8416542E-006  0.1328436E+03  0.7818608E-02  0.1294648E+00
          2   -1    0    0  502    0  0.00000000000E+00  0.00000000000E+00  0.17944629487E+04  0.17944629487E+04  0.00000000000E+00 0. -1.
          1   -1    0    0  501    0 -0.00000000000E+00 -0.00000000000E+00 -0.69817976268E+03  0.69817976268E+03  0.00000000000E+00 0. -1.
         25    2    1    2    0    0 -0.88101398308E+02 -0.30398643219E+02 -0.15706788379E+03  0.22131731587E+03  0.12500040117E+03 0.  0.
          2    1    1    2  501    0 -0.44137565181E+02  0.48764696341E+02 -0.50432008307E+03  0.50859106014E+03  0.00000000000E+00 0. -1.
          1    1    1    2  502    0  0.13223896349E+03 -0.18366053121E+02  0.17576711529E+04  0.17627343354E+04  0.00000000000E+00 0. -1.
         22    1    3    3    0    0 -0.50330594030E+02  0.94202183375E+01  0.37994341488E+01  0.51345349437E+02  0.00000000000E+00 0.  1.
         22    1    3    3    0    0 -0.37770804278E+02 -0.39818861557E+02 -0.16086731794E+03  0.16997196643E+03  0.00000000000E+00 0.  1.
</event>
<event>
 7    1  0.5622879E-006  0.2411188E+03  0.7818608E-02  0.1269430E+00
          2   -1    0    0  502    0  0.00000000000E+00  0.00000000000E+00  0.13663863584E+04  0.13663863584E+04  0.00000000000E+00 0. -1.
          1   -1    0    0  501    0 -0.00000000000E+00 -0.00000000000E+00 -0.15925904205E+04  0.15925904205E+04  0.00000000000E+00 0. -1.
         25    2    1    2    0    0  0.12171987251E+03  0.24368223840E+03 -0.23302726197E+03  0.37963598012E+03  0.12500004761E+03 0.  0.
          2    1    1    2  501    0 -0.12927702208E+03 -0.19827652232E+03 -0.12749528239E+04  0.12967385360E+04  0.00000000000E+00 0. -1.
          1    1    1    2  502    0  0.75571495757E+01 -0.45405716076E+02  0.12817760237E+04  0.12826022628E+04  0.00000000000E+00 0. -1.
         22    1    3    3    0    0  0.11255639235E+03  0.25662330494E+03 -0.20418344182E+03  0.34672083873E+03  0.00000000000E+00 0. -1.
         22    1    3    3    0    0  0.91634801628E+01 -0.12941066537E+02 -0.28843820150E+02  0.32915141389E+02  0.00000000000E+00 0. -1.
</event>
<event>
 7    1  0.5622879E-006  0.4305278E+02  0.7818608E-02  0.1548983E+00
          2   -1    0    0  502    0  0.00000000000E+00  0.00000000000E+00  0.55281932017E+02  0.55281932017E+02  0.00000000000E+00 0. -1.
          1   -1    0    0  501    0 -0.00000000000E+00 -0.00000000000E+00 -0.28854035479E+03  0.28854035479E+03  0.00000000000E+00 0. -1.
         25    2    1    2    0    0 -0.11124839794E+02  0.19822426447E+02 -0.13580549507E+03  0.18597065112E+03  0.12500103974E+03 0.  0.
          2    1    1    2  501    0  0.11646060793E+02  0.25884261686E+02 -0.10738719040E+03  0.11107490444E+03  0.00000000000E+00 0. -1.
          1    1    1    2  502    0 -0.52122099928E+00 -0.45706688133E+02  0.99342626905E+01  0.46776731252E+02  0.00000000000E+00 0. -1.
         22    1    3    3    0    0  0.18899525939E+02 -0.44364004882E+02 -0.24670175199E+02  0.54166175371E+02  0.00000000000E+00 0.  1.
         22    1    3    3    0    0 -0.30024365734E+02  0.64186431329E+02 -0.11113531987E+03  0.13180447575E+03  0.00000000000E+00 0.  1.
</event>
<event>
 7    1  0.5622879E-006  0.1709897E+03  0.7818608E-02  0.1276190E+00
          2   -1    0    0  502    0  0.00000000000E+00  0.00000000000E+00  0.18516212432E+04  0.18516212432E+04  0.00000000000E+00 0. -1.
          1   -1    0    0  501    0 -0.00000000000E+00 -0.00000000000E+00 -0.89722925703E+02  0.89722925703E+02  0.00000000000E+00 0. -1.
         25    2    1    2    0    0 -0.89017420221E+02  0.20512812980E+03  0.84445323371E+03  0.88245475850E+03  0.12499394445E+03 0.  0.
          2    1    1    2  501    0  0.78588833646E+02 -0.14520889252E+03  0.28122342222E+02  0.16748938287E+03  0.00000000000E+00 0. -1.
          1    1    1    2  502    0  0.10428586575E+02 -0.59919237279E+02  0.88932274157E+03  0.89140002753E+03  0.00000000000E+00 0. -1.
         22    1    3    3    0    0  0.24070769698E+02  0.88124494982E+02  0.35968269033E+03  0.37110236632E+03  0.00000000000E+00 0. -1.
         22    1    3    3    0    0 -0.11308818992E+03  0.11700363482E+03  0.48477054338E+03  0.51135239218E+03  0.00000000000E+00 0. -1.
</event>
<event>
 7    1  0.5622879E-006  0.1268451E+03  0.7818608E-02  0.1249484E+00
          2   -1    0    0  502    0  0.00000000000E+00  0.00000000000E+00  0.67911227002E+03  0.67911227002E+03  0.00000000000E+00 0. -1.
          1   -1    0    0  501    0 -0.00000000000E+00 -0.00000000000E+00 -0.86190499876E+03  0.86190499876E+03  0.00000000000E+00 0. -1.
         25    2    1    2    0    0  0.71018235876E+02  0.10993866481E+03 -0.52841116203E+02  0.18851359103E+03  0.12496035609E+03 0.  0.
          2    1    1    2  501    0 -0.12835682573E+03 -0.20231863040E+02 -0.73081690600E+03  0.74227902644E+03  0.00000000000E+00 0. -1.
          1    1    1    2  502    0  0.57338589849E+02 -0.89706801772E+02  0.60086529347E+03  0.61022465131E+03  0.00000000000E+00 0. -1.
         22    1    3    3    0    0  0.41640677289E+02  0.38388100630E+01  0.29380610011E+02  0.51106777558E+02  0.00000000000E+00 0. -1.
         22    1    3    3    0    0  0.29377558588E+02  0.10609985475E+03 -0.82221726214E+02  0.13740681347E+03  0.00000000000E+00 0. -1.
</event>
<event>
 7    1  0.5622879E-006  0.4110629E+02  0.7818608E-02  0.1611718E+00
          2   -1    0    0  502    0  0.00000000000E+00  0.00000000000E+00  0.14845842671E+03  0.14845842671E+03  0.00000000000E+00 0. -1.
          1   -1    0    0  501    0 -0.00000000000E+00 -0.00000000000E+00 -0.16971340913E+03  0.16971340913E+03  0.00000000000E+00 0. -1.
         25    2    1    2    0    0  0.22555707434E+02 -0.82247855765E+01  0.17429221754E+01  0.12729962854E+03  0.12500300241E+03 0.  0.
          2    1    1    2  501    0  0.19853571907E+02  0.36215528273E+01 -0.10044587447E+03  0.10245317789E+03  0.00000000000E+00 0. -1.
          1    1    1    2  502    0 -0.42409279341E+02  0.46032327493E+01  0.77447969867E+02  0.88419029414E+02  0.00000000000E+00 0. -1.
         22    1    3    3    0    0  0.48148486376E+02  0.40736488306E+02  0.24349701135E+02  0.67606554158E+02  0.00000000000E+00 0. -1.
         22    1    3    3    0    0 -0.25592778941E+02 -0.48961273882E+02 -0.22606778959E+02  0.59693074381E+02  0.00000000000E+00 0. -1.
</event>
<event>
 7    1  0.5622879E-006  0.5294220E+02  0.7818608E-02  0.1519228E+00
          2   -1    0    0  502    0  0.00000000000E+00  0.00000000000E+00  0.32537680753E+03  0.32537680753E+03  0.00000000000E+00 0. -1.
          1   -1    0    0  501    0 -0.00000000000E+00 -0.00000000000E+00 -0.23121011227E+03  0.23121011227E+03  0.00000000000E+00 0. -1.
         25    2    1    2    0    0  0.46076227269E+02 -0.29800259491E+02 -0.63378702443E+02  0.15050896000E+03  0.12500005172E+03 0.  0.
          2    1    1    2  501    0  0.69260430291E+01  0.27189513468E+02 -0.12013723698E+03  0.12337015613E+03  0.00000000000E+00 0. -1.
          1    1    1    2  502    0 -0.53002270298E+02  0.26107460231E+01  0.27768263469E+03  0.28270780367E+03  0.00000000000E+00 0. -1.
         22    1    3    3    0    0  0.45596224609E+02 -0.76463099512E+02 -0.49306008126E+02  0.10176789141E+03  0.00000000000E+00 0. -1.
         22    1    3    3    0    0  0.48000266014E+00  0.46662840021E+02 -0.14072694318E+02  0.48741068584E+02  0.00000000000E+00 0. -1.
</event>
<event>
 7    1  0.5622879E-006  0.1097898E+03  0.7818608E-02  0.1397564E+00
          2   -1    0    0  502    0  0.00000000000E+00  0.00000000000E+00  0.18853948790E+04  0.18853948790E+04  0.00000000000E+00 0. -1.
          1   -1    0    0  501    0 -0.00000000000E+00 -0.00000000000E+00 -0.18475454836E+04  0.18475454836E+04  0.00000000000E+00 0. -1.
         25    2    1    2    0    0 -0.11198812391E+03  0.78446034902E+01  0.41669150904E+03  0.44928801471E+03  0.12500011502E+03 0.  0.
          2    1    1    2  501    0  0.92480118414E+01  0.31531523002E+02 -0.18290156563E+04  0.18293108083E+04  0.00000000000E+00 0. -1.
          1    1    1    2  502    0  0.10274011207E+03 -0.39376126492E+02  0.14501735426E+04  0.14543415396E+04  0.00000000000E+00 0. -1.
         22    1    3    3    0    0 -0.96718442211E+02 -0.23330488742E+02  0.39721086081E+03  0.40948166835E+03  0.00000000000E+00 0.  1.
         22    1    3    3    0    0 -0.15269681697E+02  0.31175092233E+02  0.19480648226E+02  0.39806346355E+02  0.00000000000E+00 0.  1.
</event>
<event>
 7    1  0.5622879E-006  0.9086854E+02  0.7818608E-02  0.1371504E+00
          2   -1    0    0  502    0  0.00000000000E+00  0.00000000000E+00  0.86096690599E+02  0.86096690599E+02  0.00000000000E+00 0. -1.
          1   -1    0    0  501    0 -0.00000000000E+00 -0.00000000000E+00 -0.16868443210E+04  0.16868443210E+04  0.00000000000E+00 0. -1.
         25    2    1    2    0    0  0.74850241813E+02 -0.18763021108E+02 -0.28002282568E+03  0.31621277715E+03  0.12499251127E+03 0.  0.
          2    1    1    2  501    0 -0.94980228914E+01 -0.48105578178E+02 -0.13559324544E+04  0.13568187720E+04  0.00000000000E+00 0. -1.
          1    1    1    2  502    0 -0.65352218922E+02  0.66868599286E+02  0.35207649703E+02  0.99909462445E+02  0.00000000000E+00 0. -1.
         22    1    3    3    0    0  0.66595594858E+02  0.42719905299E+02 -0.11219463514E+03  0.13728656058E+03  0.00000000000E+00 0. -1.
         22    1    3    3    0    0  0.82546469548E+01 -0.61482926407E+02 -0.16782819054E+03  0.17892621657E+03  0.00000000000E+00 0. -1.
</event>
<event>
 7    1  0.5622879E-006  0.3416613E+02  0.7818608E-02  0.1600178E+00
          2   -1    0    0  502    0  0.00000000000E+00  0.00000000000E+00  0.10721152328E+04  0.10721152328E+04  0.00000000000E+00 0. -1.
          1   -1    0    0  501    0 -0.00000000000E+00 -0.00000000000E+00 -0.26300850575E+03  0.26300850575E+03  0.00000000000E+00 0. -1.
         25    2    1    2    0    0  0.35061246112E+01 -0.27748514481E+02 -0.76437824651E+02  0.14916534809E+03  0.12500114827E+03 0.  0.
          2    1    1    2  501    0  0.22489597720E+02  0.26816252893E+02 -0.14800237402E+03  0.15208417453E+03  0.00000000000E+00 0. -1.
          1    1    1    2  502    0 -0.25995722331E+02  0.93226158762E+00  0.10335469257E+04  0.10338742160E+04  0.00000000000E+00 0. -1.
         22    1    3    3    0    0  0.24816923748E+02 -0.21899656544E+02 -0.10668734389E+03  0.11170346462E+03  0.00000000000E+00 0.  1.
         22    1    3    3    0    0 -0.21310799137E+02 -0.58488579368E+01  0.30249519242E+02  0.37461883474E+02  0.00000000000E+00 0.  1.
</event>
<event>
 7    1  0.5622879E-006  0.3292504E+02  0.7818608E-02  0.1645064E+00
          2   -1    0    0  502    0  0.00000000000E+00  0.00000000000E+00  0.13317430685E+04  0.13317430685E+04  0.00000000000E+00 0. -1.
          1   -1    0    0  501    0 -0.00000000000E+00 -0.00000000000E+00 -0.71930405161E+02  0.71930405161E+02  0.00000000000E+00 0. -1.
         25    2    1    2    0    0 -0.28909368261E+02 -0.17058201320E+02  0.48627590574E+02  0.13826248774E+03  0.12500055658E+03 0.  0.
          2    1    1    2  501    0 -0.38747518705E+01  0.20398249206E+02 -0.22885432017E+02  0.30900570728E+02  0.00000000000E+00 0. -1.
          1    1    1    2  502    0  0.32784120131E+02 -0.33400478855E+01  0.12340705048E+04  0.12345104152E+04  0.00000000000E+00 0. -1.
         22    1    3    3    0    0 -0.78397951212E+02 -0.87525730948E+01  0.24643695895E+02  0.82644770175E+02  0.00000000000E+00 0. -1.
         22    1    3    3    0    0  0.49488582951E+02 -0.83056282256E+01  0.23983894679E+02  0.55617717561E+02  0.00000000000E+00 0. -1.
</event>
<event>
 7    1  0.5622879E-006  0.2777718E+02  0.7818608E-02  0.1641999E+00
          2   -1    0    0  502    0  0.00000000000E+00  0.00000000000E+00  0.19573492561E+03  0.19573492561E+03  0.00000000000E+00 0. -1.
          1   -1    0    0  501    0 -0.00000000000E+00 -0.00000000000E+00 -0.10990841242E+03  0.10990841242E+03  0.00000000000E+00 0. -1.
         25    2    1    2    0    0  0.15224396567E+02 -0.18781064502E+02  0.17970858318E+02  0.12857991954E+03  0.12500133329E+03 0.  0.
          2    1    1    2  501    0 -0.28389119410E+02 -0.25239545797E+01 -0.49470936857E+02  0.57093660253E+02  0.00000000000E+00 0. -1.
          1    1    1    2  502    0  0.13164722843E+02  0.21305019082E+02  0.11732659173E+03  0.11996975824E+03  0.00000000000E+00 0. -1.
         22    1    3    3    0    0  0.70265245750E+01 -0.68371377480E+02 -0.12417851909E+02  0.69844257832E+02  0.00000000000E+00 0.  1.
         22    1    3    3    0    0  0.81978719923E+01  0.49590312978E+02  0.30388710227E+02  0.58735661703E+02  0.00000000000E+00 0.  1.
</event>
<event>
 7    1  0.5622879E-006  0.1378817E+03  0.7818608E-02  0.1219462E+00
          2   -1    0    0  502    0  0.00000000000E+00  0.00000000000E+00  0.49211945386E+03  0.49211945386E+03  0.00000000000E+00 0. -1.
          1   -1    0    0  501    0 -0.00000000000E+00 -0.00000000000E+00 -0.56043594228E+03  0.56043594228E+03  0.00000000000E+00 0. -1.
         25    2    1    2    0    0  0.20745712848E+03 -0.26995847747E+01 -0.11801363280E+03  0.26943427973E+03  0.12498746199E+03 0.  0.
          2    1    1    2  501    0 -0.10285304236E+03 -0.84692327877E+02 -0.34271884526E+03  0.36770605872E+03  0.00000000000E+00 0. -1.
          1    1    1    2  502    0 -0.10460408613E+03  0.87391912652E+02  0.39241598963E+03  0.41541505768E+03  0.00000000000E+00 0. -1.
         22    1    3    3    0    0  0.15431810758E+02 -0.38121236340E+02 -0.45007857959E+02  0.60967833498E+02  0.00000000000E+00 0.  1.
         22    1    3    3    0    0  0.19202531772E+03  0.35421651565E+02 -0.73005774839E+02  0.20846644624E+03  0.00000000000E+00 0.  1.
</event>
<event>
 7    1  0.5622879E-006  0.1845627E+03  0.7818608E-02  0.1173361E+00
          2   -1    0    0  502    0  0.00000000000E+00  0.00000000000E+00  0.77993384013E+03  0.77993384013E+03  0.00000000000E+00 0. -1.
          1   -1    0    0  501    0 -0.00000000000E+00 -0.00000000000E+00 -0.15114463347E+03  0.15114463347E+03  0.00000000000E+00 0. -1.
         25    2    1    2    0    0  0.13201206050E+02 -0.12002254737E+02  0.36288070089E+03  0.38424061980E+03  0.12506048483E+03 0.  0.
          2    1    1    2  501    0 -0.19519831378E+03  0.42669081116E+02 -0.25984798735E+02  0.20149005422E+03  0.00000000000E+00 0. -1.
          1    1    1    2  502    0  0.18199710773E+03 -0.30666826379E+02  0.29189330450E+03  0.34534779958E+03  0.00000000000E+00 0. -1.
         22    1    3    3    0    0  0.51165919771E+02  0.25618298896E+02  0.27879177805E+03  0.28460341546E+03  0.00000000000E+00 0. -1.
         22    1    3    3    0    0 -0.37964713722E+02 -0.37620553633E+02  0.84088922839E+02  0.99637204336E+02  0.00000000000E+00 0. -1.
</event>
<event>
 7    1  0.5622879E-006  0.2952469E+03  0.7818608E-02  0.1175626E+00
          2   -1    0    0  502    0  0.00000000000E+00  0.00000000000E+00  0.15292165974E+04  0.15292165974E+04  0.00000000000E+00 0. -1.
          1   -1    0    0  501    0 -0.00000000000E+00 -0.00000000000E+00 -0.10045089822E+04  0.10045089822E+04  0.00000000000E+00 0. -1.
         25    2    1    2    0    0 -0.44390511707E+02 -0.22606103987E+03  0.44016575042E+02  0.26577609180E+03  0.12500144324E+03 0.  0.
          2    1    1    2  501    0 -0.86612673907E+02 -0.50726210742E+02 -0.87366190938E+03  0.87940891264E+03  0.00000000000E+00 0. -1.
          1    1    1    2  502    0  0.13100318561E+03  0.27678725062E+03  0.13543529496E+04  0.13885405751E+04  0.00000000000E+00 0. -1.
         22    1    3    3    0    0 -0.37889237030E+01  0.42828392477E+01  0.30996077031E+02  0.31519128258E+02  0.00000000000E+00 0. -1.
         22    1    3    3    0    0 -0.40601588004E+02 -0.23034387912E+03  0.13020498011E+02  0.23425696354E+03  0.00000000000E+00 0. -1.
</event>
<event>
 7    1  0.5622879E-006  0.8461056E+02  0.7818608E-02  0.1471319E+00
          2   -1    0    0  502    0  0.00000000000E+00  0.00000000000E+00  0.31626997076E+03  0.31626997076E+03  0.00000000000E+00 0. -1.
          1   -1    0    0  501    0 -0.00000000000E+00 -0.00000000000E+00 -0.71519182058E+03  0.71519182058E+03  0.00000000000E+00 0. -1.
         25    2    1    2    0    0 -0.55711775011E+02 -0.24945176669E+02  0.30308358861E+02  0.14237051043E+03  0.12499880764E+03 0.  0.
          2    1    1    2  501    0  0.76651957198E+02  0.37576570579E+02 -0.65573587994E+03  0.66126928360E+03  0.00000000000E+00 0. -1.
          1    1    1    2  502    0 -0.20940182187E+02 -0.12631393911E+02  0.22650567125E+03  0.22782199730E+03  0.00000000000E+00 0. -1.
         22    1    3    3    0    0 -0.98870429671E+01  0.43546059887E+02  0.39285489114E+02  0.59475731229E+02  0.00000000000E+00 0. -1.
         22    1    3    3    0    0 -0.45824732044E+02 -0.68491236556E+02 -0.89771302527E+01  0.82894779205E+02  0.00000000000E+00 0. -1.
</event>
<event>
 7    1  0.5622879E-006  0.7274243E+02  0.7818608E-02  0.1401593E+00
          2   -1    0    0  502    0  0.00000000000E+00  0.00000000000E+00  0.15673515823E+04  0.15673515823E+04  0.00000000000E+00 0. -1.
          1   -1    0    0  501    0 -0.00000000000E+00 -0.00000000000E+00 -0.18706326017E+03  0.18706326017E+03  0.00000000000E+00 0. -1.
         25    2    1    2    0    0  0.36656034918E+02  0.69604623385E+02  0.72803801767E+02  0.16469633717E+03  0.12504407796E+03 0.  0.
          2    1    1    2  501    0  0.29155340264E+02 -0.38177317261E+02 -0.13608162014E+03  0.14431129117E+03  0.00000000000E+00 0. -1.
          1    1    1    2  502    0 -0.65811375182E+02 -0.31427306123E+02  0.14435661405E+04  0.14454072142E+04  0.00000000000E+00 0. -1.
         22    1    3    3    0    0  0.69980234921E+02  0.30934803553E+02  0.82735650762E+02  0.11269154031E+03  0.00000000000E+00 0. -1.
         22    1    3    3    0    0 -0.33324200003E+02  0.38669819832E+02 -0.99318489952E+01  0.52004796857E+02  0.00000000000E+00 0. -1.
</event>
<event>
 7    1  0.5622879E-006  0.1017143E+03  0.7818608E-02  0.1347767E+00
          2   -1    0    0  502    0  0.00000000000E+00  0.00000000000E+00  0.45157032625E+03  0.45157032625E+03  0.00000000000E+00 0. -1.
          1   -1    0    0  501    0 -0.00000000000E+00 -0.00000000000E+00 -0.57145629324E+03  0.57145629324E+03  0.00000000000E+00 0. -1.
         25    2    1    2    0    0  0.59422482987E+02 -0.74770728542E+02  0.11155401306E+02  0.15770704782E+03  0.12500150648E+03 0.  0.
          2    1    1    2  501    0 -0.45636888377E+02 -0.27886655557E+02 -0.48938896775E+03  0.49230270454E+03  0.00000000000E+00 0. -1.
          1    1    1    2  502    0 -0.13785594610E+02  0.10265738410E+03  0.35834759945E+03  0.37301686713E+03  0.00000000000E+00 0. -1.
         22    1    3    3    0    0 -0.29014813198E+02 -0.60120128700E+02  0.13168311939E+02  0.68041852555E+02  0.00000000000E+00 0.  1.
         22    1    3    3    0    0  0.88437296185E+02 -0.14650599842E+02 -0.20129106329E+01  0.89665195263E+02  0.00000000000E+00 0.  1.
</event>
<event>
 7    1  0.5622879E-006  0.1689618E+03  0.7818608E-02  0.1350415E+00
          2   -1    0    0  502    0  0.00000000000E+00  0.00000000000E+00  0.65066746623E+02  0.65066746623E+02  0.00000000000E+00 0. -1.
          1   -1    0    0  501    0 -0.00000000000E+00 -0.00000000000E+00 -0.17394036950E+04  0.17394036950E+04  0.00000000000E+00 0. -1.
         25    2    1    2    0    0 -0.19249437958E+02  0.19272695440E+03 -0.67336871554E+03  0.71173319101E+03  0.12499795320E+03 0.  0.
          2    1    1    2  501    0 -0.59340375090E+01 -0.30911621414E+02 -0.89957658124E+03  0.90012708361E+03  0.00000000000E+00 0. -1.
          1    1    1    2  502    0  0.25183475467E+02 -0.16181533299E+03 -0.10139165165E+03  0.19261016705E+03  0.00000000000E+00 0. -1.
         22    1    3    3    0    0  0.48517373345E+02  0.11605252151E+03 -0.31960411062E+03  0.34346602567E+03  0.00000000000E+00 0. -1.
         22    1    3    3    0    0 -0.67766811304E+02  0.76674432888E+02 -0.35376460492E+03  0.36826716534E+03  0.00000000000E+00 0. -1.
</event>
<event>
 7    1  0.5622879E-006  0.7404612E+02  0.7818608E-02  0.1456069E+00
          2   -1    0    0  502    0  0.00000000000E+00  0.00000000000E+00  0.84632587189E+03  0.84632587189E+03  0.00000000000E+00 0. -1.
          1   -1    0    0  501    0 -0.00000000000E+00 -0.00000000000E+00 -0.93945518953E+03  0.93945518953E+03  0.00000000000E+00 0. -1.
         25    2    1    2    0    0 -0.29630072727E+02 -0.67042887086E+02  0.12563442611E+03  0.19179098261E+03  0.12500832799E+03 0.  0.
          2    1    1    2  501    0 -0.75830174589E+00  0.74111489565E+02 -0.90450650177E+03  0.90753793290E+03  0.00000000000E+00 0. -1.
          1    1    1    2  502    0  0.30388374473E+02 -0.70686024789E+01  0.68574275802E+03  0.68645214591E+03  0.00000000000E+00 0. -1.
         22    1    3    3    0    0 -0.67375018310E+02 -0.78155761654E+02  0.74504042302E+02  0.12727359699E+03  0.00000000000E+00 0.  1.
         22    1    3    3    0    0  0.37744945583E+02  0.11112874569E+02  0.51130383807E+02  0.64517385614E+02  0.00000000000E+00 0.  1.
</event>
<event>
 7    1  0.5622879E-006  0.5261133E+03  0.7818608E-02  0.1099993E+00
          2   -1    0    0  502    0  0.00000000000E+00  0.00000000000E+00  0.23412750592E+04  0.23412750592E+04  0.00000000000E+00 0. -1.
          1   -1    0    0  501    0 -0.00000000000E+00 -0.00000000000E+00 -0.15894186143E+04  0.15894186143E+04  0.00000000000E+00 0. -1.
         25    2    1    2    0    0 -0.13364533672E+03 -0.46691014783E+03  0.38915398562E+03  0.63476981392E+03  0.12500291986E+03 0.  0.
          2    1    1    2  501    0  0.83313725273E+01  0.53130958786E+03 -0.14156014850E+04  0.15120472394E+04  0.00000000000E+00 0. -1.
          1    1    1    2  502    0  0.12531396419E+03 -0.64399440037E+02  0.17783039443E+04  0.17838766201E+04  0.00000000000E+00 0. -1.
         22    1    3    3    0    0 -0.80994097194E+00 -0.98414752432E+02  0.13785863570E+03  0.16938454161E+03  0.00000000000E+00 0. -1.
         22    1    3    3    0    0 -0.13283539575E+03 -0.36849539540E+03  0.25129534992E+03  0.46538527231E+03  0.00000000000E+00 0. -1.
</event>
<event>
 7    1  0.5622879E-006  0.9063686E+02  0.7818608E-02  0.1435764E+00
          2   -1    0    0  502    0  0.00000000000E+00  0.00000000000E+00  0.71220852564E+03  0.71220852564E+03  0.00000000000E+00 0. -1.
          1   -1    0    0  501    0 -0.00000000000E+00 -0.00000000000E+00 -0.16999197092E+04  0.16999197092E+04  0.00000000000E+00 0. -1.
         25    2    1    2    0    0 -0.80633912472E+02 -0.62427253122E+02  0.34171593136E+03  0.37788063672E+03  0.12500003235E+03 0.  0.
          2    1    1    2  501    0  0.28391971367E+02 -0.84665742213E+01 -0.16762028925E+04  0.16764647100E+04  0.00000000000E+00 0. -1.
          1    1    1    2  502    0  0.52241941105E+02  0.70893827343E+02  0.34677577757E+03  0.35778288818E+03  0.00000000000E+00 0. -1.
         22    1    3    3    0    0 -0.43099911186E+02 -0.98037118663E+02  0.25963114229E+03  0.28085086617E+03  0.00000000000E+00 0.  1.
         22    1    3    3    0    0 -0.37534001286E+02  0.35609865541E+02  0.82084789066E+02  0.97029770547E+02  0.00000000000E+00 0.  1.
</event>
<event>
 7    1  0.5622879E-006  0.8613861E+02  0.7818608E-02  0.1339555E+00
          2   -1    0    0  502    0  0.00000000000E+00  0.00000000000E+00  0.40022771184E+03  0.40022771184E+03  0.00000000000E+00 0. -1.
          1   -1    0    0  501    0 -0.00000000000E+00 -0.00000000000E+00 -0.28202242032E+04  0.28202242032E+04  0.00000000000E+00 0. -1.
         25    2    1    2    0    0  0.10287832362E+03 -0.11241890029E+03 -0.29137194662E+03  0.35177432163E+03  0.12500241384E+03 0.  0.
          2    1    1    2  501    0 -0.40899787441E+02  0.54052914542E+02 -0.24932874659E+04  0.24942086717E+04  0.00000000000E+00 0. -1.
          1    1    1    2  502    0 -0.61978536180E+02  0.58365985749E+02  0.36466292119E+03  0.37446892172E+03  0.00000000000E+00 0. -1.
         22    1    3    3    0    0  0.49052920693E+01  0.14726800771E+02  0.36206910147E+01  0.15938944591E+02  0.00000000000E+00 0.  1.
         22    1    3    3    0    0  0.97973031552E+02 -0.12714570106E+03 -0.29499263764E+03  0.33583537704E+03  0.00000000000E+00 0.  1.
</event>
<event>
 7    1  0.5622879E-006  0.1348350E+03  0.7818608E-02  0.1302342E+00
          2   -1    0    0  502    0  0.00000000000E+00  0.00000000000E+00  0.21719561196E+04  0.21719561196E+04  0.00000000000E+00 0. -1.
          1   -1    0    0  501    0 -0.00000000000E+00 -0.00000000000E+00 -0.80935056640E+03  0.80935056640E+03  0.00000000000E+00 0. -1.
         25    2    1    2    0    0 -0.17579924702E+03 -0.76503075373E+02  0.28330254255E+03  0.36420059670E+03  0.12499459280E+03 0.  0.
          2    1    1    2  501    0  0.53706830355E+02  0.27537909012E+02 -0.76537134123E+03  0.76774738687E+03  0.00000000000E+00 0. -1.
          1    1    1    2  502    0  0.12209241667E+03  0.48965166361E+02  0.18446743519E+04  0.18493587025E+04  0.00000000000E+00 0. -1.
         22    1    3    3    0    0 -0.11977359881E+03 -0.63921214520E+02  0.90830329576E+02  0.16334560113E+03  0.00000000000E+00 0.  1.
         22    1    3    3    0    0 -0.56025648214E+02 -0.12581860853E+02  0.19247221298E+03  0.20085499558E+03  0.00000000000E+00 0.  1.
</event>
<event>
 7    1  0.5622879E-006  0.2123524E+03  0.7818608E-02  0.1269960E+00
          2   -1    0    0  502    0  0.00000000000E+00  0.00000000000E+00  0.21148629754E+04  0.21148629754E+04  0.00000000000E+00 0. -1.
          1   -1    0    0  501    0 -0.00000000000E+00 -0.00000000000E+00 -0.70436814514E+03  0.70436814514E+03  0.00000000000E+00 0. -1.
         25    2    1    2    0    0  0.25444115276E+03  0.18822404393E+02 -0.35663616887E+02  0.28633904953E+03  0.12499429824E+03 0.  0.
          2    1    1    2  501    0 -0.20578195562E+03 -0.48844153912E+00 -0.52352801442E+03  0.56251936298E+03  0.00000000000E+00 0. -1.
          1    1    1    2  502    0 -0.48659197134E+02 -0.18333962854E+02  0.19696864616E+04  0.19703727081E+04  0.00000000000E+00 0. -1.
         22    1    3    3    0    0 -0.54049991419E+01  0.10992521733E+02 -0.23009734543E+02  0.26067171567E+02  0.00000000000E+00 0.  1.
         22    1    3    3    0    0  0.25984615190E+03  0.78298826602E+01 -0.12653882344E+02  0.26027187796E+03  0.00000000000E+00 0.  1.
</event>
<event>
 7    1  0.5622879E-006  0.2349541E+03  0.7818608E-02  0.1125228E+00
          2   -1    0    0  502    0  0.00000000000E+00  0.00000000000E+00  0.13087601456E+04  0.13087601456E+04  0.00000000000E+00 0. -1.
          1   -1    0    0  501    0 -0.00000000000E+00 -0.00000000000E+00 -0.17540355187E+03  0.17540355187E+03  0.00000000000E+00 0. -1.
         25    2    1    2    0    0  0.30531376440E+02  0.55706228807E+02  0.44566494886E+03  0.46720210525E+03  0.12500084653E+03 0.  0.
          2    1    1    2  501    0 -0.20346643882E+03 -0.20600058024E+03 -0.26890569880E+01  0.28955493747E+03  0.00000000000E+00 0. -1.
          1    1    1    2  502    0  0.17293506238E+03  0.15029435143E+03  0.69038070183E+03  0.72740665473E+03  0.00000000000E+00 0. -1.
         22    1    3    3    0    0 -0.28291668020E+01  0.91319679853E+02  0.28423856558E+03  0.29856130070E+03  0.00000000000E+00 0. -1.
         22    1    3    3    0    0  0.33360543242E+02 -0.35613451045E+02  0.16142638328E+03  0.16864080455E+03  0.00000000000E+00 0. -1.
</event>
<event>
 7    1  0.5622879E-006  0.1333033E+03  0.7818608E-02  0.1250213E+00
          2   -1    0    0  502    0  0.00000000000E+00  0.00000000000E+00  0.38071667543E+03  0.38071667543E+03  0.00000000000E+00 0. -1.
          1   -1    0    0  501    0 -0.00000000000E+00 -0.00000000000E+00 -0.18510088930E+03  0.18510088930E+03  0.00000000000E+00 0. -1.
         25    2    1    2    0    0 -0.50017336070E+02  0.34930476759E+02  0.14089326399E+03  0.19798940284E+03  0.12500807848E+03 0.  0.
          2    1    1    2  501    0  0.74633087218E+02 -0.13244408884E+03 -0.10095314896E+03  0.18249129476E+03  0.00000000000E+00 0. -1.
          1    1    1    2  502    0 -0.24615751148E+02  0.97513612081E+02  0.15567567111E+03  0.18533686714E+03  0.00000000000E+00 0. -1.
         22    1    3    3    0    0 -0.22652872223E+02  0.96659442935E+01 -0.20692050049E+02  0.32167437484E+02  0.00000000000E+00 0. -1.
         22    1    3    3    0    0 -0.27364463847E+02  0.25264532466E+02  0.16158531404E+03  0.16582196536E+03  0.00000000000E+00 0. -1.
</event>
<event>
 7    1  0.5622879E-006  0.5723899E+02  0.7818608E-02  0.1431977E+00
          2   -1    0    0  502    0  0.00000000000E+00  0.00000000000E+00  0.30968514967E+03  0.30968514967E+03  0.00000000000E+00 0. -1.
          1   -1    0    0  501    0 -0.00000000000E+00 -0.00000000000E+00 -0.26158733108E+04  0.26158733108E+04  0.00000000000E+00 0. -1.
         25    2    1    2    0    0  0.46761377541E+01 -0.10062576218E+03 -0.22848204204E+03  0.27924244046E+03  0.12499954695E+03 0.  0.
          2    1    1    2  501    0  0.12155982168E+02  0.55382199488E+02 -0.23596189184E+04  0.23603000648E+04  0.00000000000E+00 0. -1.
          1    1    1    2  502    0 -0.16832119922E+02  0.45243562693E+02  0.28191279930E+03  0.28601595521E+03  0.00000000000E+00 0. -1.
         22    1    3    3    0    0 -0.15662122130E+01 -0.10793231804E+03 -0.24064224733E+03  0.26374330228E+03  0.00000000000E+00 0.  1.
         22    1    3    3    0    0  0.62423499670E+01  0.73065558574E+01  0.12160205288E+02  0.15499138177E+02  0.00000000000E+00 0.  1.
</event>
<event>
 7    1  0.5622879E-006  0.4361773E+02  0.7818608E-02  0.1513630E+00
          2   -1    0    0  502    0  0.00000000000E+00  0.00000000000E+00  0.16211562664E+04  0.16211562664E+04  0.00000000000E+00 0. -1.
          1   -1    0    0  501    0 -0.00000000000E+00 -0.00000000000E+00 -0.27831013556E+03  0.27831013556E+03  0.00000000000E+00 0. -1.
         25    2    1    2    0    0 -0.59886621791E+02 -0.14380564678E+01  0.45782834427E+02  0.14596560759E+03  0.12498565996E+03 0.  0.
          2    1    1    2  501    0  0.34691196522E+02  0.26249326921E+02 -0.22593852921E+03  0.23008851614E+03  0.00000000000E+00 0. -1.
          1    1    1    2  502    0  0.25195425268E+02 -0.24811270453E+02  0.15230018256E+04  0.15234122782E+04  0.00000000000E+00 0. -1.
         22    1    3    3    0    0 -0.84627847692E+02  0.23352343878E+02  0.61892112525E+02  0.10741432941E+03  0.00000000000E+00 0. -1.
         22    1    3    3    0    0  0.24741225901E+02 -0.24790400346E+02 -0.16109278098E+02  0.38551278179E+02  0.00000000000E+00 0. -1.
</event>
<event>
 7    1  0.8709471E-006  0.5593003E+02  0.7818608E-02  0.1510263E+00
          2   -1    0    0  502    0  0.00000000000E+00  0.00000000000E+00  0.23337827717E+04  0.23337827717E+04  0.00000000000E+00 0. -1.
          1   -1    0    0  501    0 -0.00000000000E+00 -0.00000000000E+00 -0.11718218807E+04  0.11718218807E+04  0.00000000000E+00 0. -1.
         25    2    1    2    0    0  0.14539841636E+02 -0.31239143007E+02 -0.35890928616E+03  0.38161407016E+03  0.12500452714E+03 0.  0.
          2    1    1    2  501    0 -0.13621232648E+02 -0.24705607067E+02 -0.80097482345E+03  0.80147150468E+03  0.00000000000E+00 0. -1.
          1    1    1    2  502    0 -0.91860898811E+00  0.55944750074E+02  0.23218450006E+04  0.23225190776E+04  0.00000000000E+00 0. -1.
         22    1    3    3    0    0  0.58752005671E+02  0.16119240532E+02 -0.22101430882E+03  0.22925739418E+03  0.00000000000E+00 0.  1.
         22    1    3    3    0    0 -0.44212164035E+02 -0.47358383540E+02 -0.13789497734E+03  0.15235667598E+03  0.00000000000E+00 0.  1.
</event>
<event>
 7    1  0.5622879E-006  0.1539983E+03  0.7818608E-02  0.1361225E+00
          2   -1    0    0  502    0  0.00000000000E+00  0.00000000000E+00  0.78793433843E+03  0.78793433843E+03  0.00000000000E+00 0. -1.
          1   -1    0    0  501    0 -0.00000000000E+00 -0.00000000000E+00 -0.18445806029E+04  0.18445806029E+04  0.00000000000E+00 0. -1.
         25    2    1    2    0    0  0.84039027804E+02  0.10676279849E+03 -0.18309607426E+03  0.26002163830E+03  0.12500490647E+03 0.  0.
          2    1    1    2  501    0 -0.11549351550E+03 -0.10476957990E+03 -0.16189425678E+04  0.16264348910E+04  0.00000000000E+00 0. -1.
          1    1    1    2  502    0  0.31454487699E+02 -0.19932185850E+01  0.74539237752E+03  0.74605841205E+03  0.00000000000E+00 0. -1.
         22    1    3    3    0    0  0.46137654824E+02  0.10885605770E+03 -0.18765022664E+03  0.22179028845E+03  0.00000000000E+00 0. -1.
         22    1    3    3    0    0  0.37901372980E+02 -0.20932592153E+01  0.45541523824E+01  0.38231349856E+02  0.00000000000E+00 0. -1.
</event>
<event>
 7    1  0.5622879E-006  0.9061787E+02  0.7818608E-02  0.1344198E+00
          2   -1    0    0  502    0  0.00000000000E+00  0.00000000000E+00  0.39055016826E+04  0.39055016826E+04  0.00000000000E+00 0. -1.
          1   -1    0    0  501    0 -0.00000000000E+00 -0.00000000000E+00 -0.37214853412E+02  0.37214853412E+02  0.00000000000E+00 0. -1.
         25    2    1    2    0    0  0.83503291814E+02  0.68507345785E+02  0.72686564966E+03  0.74540188121E+03  0.12499694271E+03 0.  0.
          2    1    1    2  501    0 -0.24511479316E+02 -0.87254718045E+02  0.46666426825E+02  0.10194093305E+03  0.00000000000E+00 0. -1.
          1    1    1    2  502    0 -0.58991812498E+02  0.18747372260E+02  0.30947547527E+04  0.30953737217E+04  0.00000000000E+00 0. -1.
         22    1    3    3    0    0  0.51505244511E+02 -0.24303023723E+02  0.40239174313E+03  0.40640194649E+03  0.00000000000E+00 0. -1.
         22    1    3    3    0    0  0.31998047303E+02  0.92810369508E+02  0.32447390653E+03  0.33899993472E+03  0.00000000000E+00 0. -1.
</event>
<event>
 7    1  0.5622879E-006  0.7309607E+02  0.7818608E-02  0.1388701E+00
          2   -1    0    0  502    0  0.00000000000E+00  0.00000000000E+00  0.37873218322E+04  0.37873218322E+04  0.00000000000E+00 0. -1.
          1   -1    0    0  501    0 -0.00000000000E+00 -0.00000000000E+00 -0.40432518150E+02  0.40432518150E+02  0.00000000000E+00 0. -1.
         25    2    1    2    0    0  0.15546993448E+02 -0.11637722071E+03  0.66316803408E+03  0.68498340255E+03  0.12500021538E+03 0.  0.
          2    1    1    2  501    0 -0.27815570458E+02  0.64836314958E+02  0.13178781596E+02  0.71771400861E+02  0.00000000000E+00 0. -1.
          1    1    1    2  502    0  0.12268577009E+02  0.51540905748E+02  0.30705424984E+04  0.30709995470E+04  0.00000000000E+00 0. -1.
         22    1    3    3    0    0  0.53711330243E+02 -0.47107893097E+02  0.15468052721E+03  0.17038229394E+03  0.00000000000E+00 0.  1.
         22    1    3    3    0    0 -0.38164336795E+02 -0.69269327608E+02  0.50848750686E+03  0.51460110861E+03  0.00000000000E+00 0.  1.
</event>
<event>
 7    1  0.5622879E-006  0.1598805E+03  0.7818608E-02  0.1229791E+00
          2   -1    0    0  502    0  0.00000000000E+00  0.00000000000E+00  0.24833064174E+04  0.24833064174E+04  0.00000000000E+00 0. -1.
          1   -1    0    0  501    0 -0.00000000000E+00 -0.00000000000E+00 -0.59402881489E+03  0.59402881489E+03  0.00000000000E+00 0. -1.
         25    2    1    2    0    0 -0.65200869402E+02  0.63609167656E+02  0.26501606247E+03  0.30685139344E+03  0.12500793858E+03 0.  0.
          2    1    1    2  501    0  0.29950356356E+02 -0.16058118336E+03 -0.56022897482E+03  0.58355791874E+03  0.00000000000E+00 0. -1.
          1    1    1    2  502    0  0.35250513047E+02  0.96972015700E+02  0.21844905149E+04  0.21869259201E+04  0.00000000000E+00 0. -1.
         22    1    3    3    0    0  0.82022844272E+01  0.78279534712E+02  0.11742837084E+03  0.14136613916E+03  0.00000000000E+00 0.  1.
         22    1    3    3    0    0 -0.73403153830E+02 -0.14670367055E+02  0.14758769163E+03  0.16548525428E+03  0.00000000000E+00 0.  1.
</event>
<event>
 7    1  0.5622879E-006  0.1631142E+03  0.7818608E-02  0.1248450E+00
          2   -1    0    0  502    0  0.00000000000E+00  0.00000000000E+00  0.17829325266E+04  0.17829325266E+04  0.00000000000E+00 0. -1.
          1   -1    0    0  501    0 -0.00000000000E+00 -0.00000000000E+00 -0.72967157636E+03  0.72967157636E+03  0.00000000000E+00 0. -1.
         25    2    1    2    0    0  0.79656523211E+02 -0.23858333965E+02  0.23180299036E+03  0.27617504995E+03  0.12500260031E+03 0.  0.
          2    1    1    2  501    0 -0.16270068589E+03  0.33943273925E+02 -0.69655679713E+03  0.71611104632E+03  0.00000000000E+00 0. -1.
          1    1    1    2  502    0  0.83044162675E+02 -0.10084939959E+02  0.15180147570E+04  0.15203180066E+04  0.00000000000E+00 0. -1.
         22    1    3    3    0    0 -0.30089779050E+02 -0.26450038001E+02  0.54537654060E+02  0.67670931898E+02  0.00000000000E+00 0.  1.
         22    1    3    3    0    0  0.10974630226E+03  0.25917040359E+01  0.17726533630E+03  0.20850411805E+03  0.00000000000E+00 0.  1.
</event>
<event>
 7    1  0.5622879E-006  0.4357169E+02  0.7818608E-02  0.1593172E+00
          2   -1    0    0  502    0  0.00000000000E+00  0.00000000000E+00  0.11438798669E+04  0.11438798669E+04  0.00000000000E+00 0. -1.
          1   -1    0    0  501    0 -0.00000000000E+00 -0.00000000000E+00 -0.40827681976E+02  0.40827681976E+02  0.00000000000E+00 0. -1.
         25    2    1    2    0    0  0.50091878687E+02  0.30785097883E+02  0.68795759551E+03  0.70168784660E+03  0.12499304894E+03 0.  0.
          2    1    1    2  501    0 -0.41850665035E+02 -0.11166508966E+02 -0.19785231942E+02  0.47619580945E+02  0.00000000000E+00 0. -1.
          1    1    1    2  502    0 -0.82412136520E+01 -0.19618588917E+02  0.43487982133E+03  0.43540012131E+03  0.00000000000E+00 0. -1.
         22    1    3    3    0    0 -0.21215948499E+02 -0.34534631970E+02  0.16853544136E+03  0.17334056730E+03  0.00000000000E+00 0. -1.
         22    1    3    3    0    0  0.71307827186E+02  0.65319729853E+02  0.51942215415E+03  0.52834727931E+03  0.00000000000E+00 0. -1.
</event>
<event>
 7    1  0.5622879E-006  0.7277153E+02  0.7818608E-02  0.1423515E+00
          2   -1    0    0  502    0  0.00000000000E+00  0.00000000000E+00  0.71374175363E+03  0.71374175363E+03  0.00000000000E+00 0. -1.
          1   -1    0    0  501    0 -0.00000000000E+00 -0.00000000000E+00 -0.19584015980E+03  0.19584015980E+03  0.00000000000E+00 0. -1.
         25    2    1    2    0    0  0.50627264069E+02  0.30863707869E+02  0.13809919373E+03  0.19546044769E+03  0.12497084048E+03 0.  0.
          2    1    1    2  501    0 -0.31785772032E+02 -0.66706713513E+02 -0.15819527951E+03  0.17460202574E+03  0.00000000000E+00 0. -1.
          1    1    1    2  502    0 -0.18841492037E+02  0.35843005644E+02  0.53799767961E+03  0.53951944000E+03  0.00000000000E+00 0. -1.
         22    1    3    3    0    0 -0.11730672643E+02 -0.48861748459E+01 -0.18908333760E+02  0.22781757414E+02  0.00000000000E+00 0.  1.
         22    1    3    3    0    0  0.62357936713E+02  0.35749882715E+02  0.15700752749E+03  0.17267869027E+03  0.00000000000E+00 0.  1.
</event>
<event>
 7    1  0.5622879E-006  0.7746507E+02  0.7818608E-02  0.1474235E+00
          2   -1    0    0  502    0  0.00000000000E+00  0.00000000000E+00  0.46461927037E+02  0.46461927037E+02  0.00000000000E+00 0. -1.
          1   -1    0    0  501    0 -0.00000000000E+00 -0.00000000000E+00 -0.13285725811E+04  0.13285725811E+04  0.00000000000E+00 0. -1.
         25    2    1    2    0    0  0.73573527231E+02 -0.24027667651E+02 -0.27137167686E+03  0.30863960439E+03  0.12500170268E+03 0.  0.
          2    1    1    2  501    0  0.45889572673E+01  0.25755030865E+02 -0.98313542248E+03  0.98348342085E+03  0.00000000000E+00 0. -1.
          1    1    1    2  502    0 -0.78162484498E+02 -0.17273632135E+01 -0.27603554746E+02  0.82911482927E+02  0.00000000000E+00 0. -1.
         22    1    3    3    0    0  0.27422771786E+02 -0.53336789744E+02 -0.42950500812E+02  0.73766978199E+02  0.00000000000E+00 0.  1.
         22    1    3    3    0    0  0.46150755445E+02  0.29309122092E+02 -0.22842117605E+03  0.23487262619E+03  0.00000000000E+00 0.  1.
</event>
<event>
 7    1  0.5622879E-006  0.1009380E+03  0.7818608E-02  0.1412218E+00
          2   -1    0    0  502    0  0.00000000000E+00  0.00000000000E+00  0.16645639999E+04  0.16645639999E+04  0.00000000000E+00 0. -1.
          1   -1    0    0  501    0 -0.00000000000E+00 -0.00000000000E+00 -0.18443539732E+03  0.18443539732E+03  0.00000000000E+00 0. -1.
         25    2    1    2    0    0 -0.10529940436E+03  0.37995443654E+02 -0.91266232074E+02  0.19101246532E+03  0.12499847396E+03 0.  0.
          2    1    1    2  501    0  0.46443349423E+01 -0.31511904361E+02 -0.35634577614E+02  0.47795324931E+02  0.00000000000E+00 0. -1.
          1    1    1    2  502    0  0.10065506941E+03 -0.64835392925E+01  0.16070294123E+04  0.16101916070E+04  0.00000000000E+00 0. -1.
         22    1    3    3    0    0 -0.72670587443E+02 -0.62876989743E+01 -0.11078871814E+03  0.13264497542E+03  0.00000000000E+00 0. -1.
         22    1    3    3    0    0 -0.32628816913E+02  0.44283142628E+02  0.19522486067E+02  0.58367489893E+02  0.00000000000E+00 0. -1.
</event>
<event>
 7    1  0.5687973E-006  0.1611590E+03  0.7818608E-02  0.1282199E+00
          2   -1    0    0  502    0  0.00000000000E+00  0.00000000000E+00  0.98430181113E+03  0.98430181113E+03  0.00000000000E+00 0. -1.
          1   -1    0    0  501    0 -0.00000000000E+00 -0.00000000000E+00 -0.95876787341E+03  0.95876787341E+03  0.00000000000E+00 0. -1.
         25    2    1    2    0    0 -0.13295146961E+03 -0.84390202952E+02 -0.30809868892E+03  0.36789710194E+03  0.12500270346E+03 0.  0.
          2    1    1    2  501    0  0.16259979515E+03  0.31149369826E+02 -0.60872999392E+03  0.63084164583E+03  0.00000000000E+00 0. -1.
          1    1    1    2  502    0 -0.29648325540E+02  0.53240833126E+02  0.94236262056E+03  0.94433093677E+03  0.00000000000E+00 0. -1.
         22    1    3    3    0    0 -0.13448731654E+03 -0.59713042836E+02 -0.30994726954E+03  0.34310318519E+03  0.00000000000E+00 0.  1.
         22    1    3    3    0    0  0.15358469290E+01 -0.24677160116E+02  0.18485806165E+01  0.24793916743E+02  0.00000000000E+00 0.  1.
</event>
<event>
 7    1  0.5622879E-006  0.3969174E+02  0.7818608E-02  0.1514893E+00
          2   -1    0    0  502    0  0.00000000000E+00  0.00000000000E+00  0.31792191161E+03  0.31792191161E+03  0.00000000000E+00 0. -1.
          1   -1    0    0  501    0 -0.00000000000E+00 -0.00000000000E+00 -0.12978143558E+03  0.12978143558E+03  0.00000000000E+00 0. -1.
         25    2    1    2    0    0  0.10550174670E+00  0.31437672413E+01  0.70830632988E+02  0.14370651320E+03  0.12499875585E+03 0.  0.
          2    1    1    2  501    0 -0.20252428650E+02 -0.35986144824E+02 -0.86885076797E+02  0.96198648927E+02  0.00000000000E+00 0. -1.
          1    1    1    2  502    0  0.20146926903E+02  0.32842377583E+02  0.20419491983E+03  0.20779818506E+03  0.00000000000E+00 0. -1.
         22    1    3    3    0    0  0.10838549189E+02 -0.50034787993E+02  0.73289795179E+02  0.89399934202E+02  0.00000000000E+00 0. -1.
         22    1    3    3    0    0 -0.10733047443E+02  0.53178555234E+02 -0.24591621912E+01  0.54306579002E+02  0.00000000000E+00 0. -1.
</event>
<event>
 7    1  0.5622879E-006  0.9377275E+02  0.7818608E-02  0.1397540E+00
          2   -1    0    0  502    0  0.00000000000E+00  0.00000000000E+00  0.22213773060E+04  0.22213773060E+04  0.00000000000E+00 0. -1.
          1   -1    0    0  501    0 -0.00000000000E+00 -0.00000000000E+00 -0.43108610303E+03  0.43108610303E+03  0.00000000000E+00 0. -1.
         25    2    1    2    0    0 -0.28480150065E+02  0.48338956928E+02 -0.32018944194E+03  0.34827255840E+03  0.12499888997E+03 0.  0.
          2    1    1    2  501    0 -0.10812921111E+02  0.36929401247E+02 -0.91993196967E+02  0.99716840240E+02  0.00000000000E+00 0. -1.
          1    1    1    2  502    0  0.39293071177E+02 -0.85268358175E+02  0.22024738419E+04  0.22044740104E+04  0.00000000000E+00 0. -1.
         22    1    3    3    0    0 -0.65581170541E+02 -0.59448752735E+00 -0.99276683234E+02  0.11898362568E+03  0.00000000000E+00 0.  1.
         22    1    3    3    0    0  0.37101020476E+02  0.48933444456E+02 -0.22091275871E+03  0.22928893272E+03  0.00000000000E+00 0.  1.
</event>
<event>
 7    1  0.5622879E-006  0.7465118E+02  0.7818608E-02  0.1385289E+00
          2   -1    0    0  502    0  0.00000000000E+00  0.00000000000E+00  0.54427487247E+03  0.54427487247E+03  0.00000000000E+00 0. -1.
          1   -1    0    0  501    0 -0.00000000000E+00 -0.00000000000E+00 -0.58152028532E+03  0.58152028532E+03  0.00000000000E+00 0. -1.
         25    2    1    2    0    0 -0.25654993658E+02 -0.11652213528E+03  0.26821316399E+03  0.31906038772E+03  0.12500257183E+03 0.  0.
          2    1    1    2  501    0 -0.65605136051E+01  0.74027646594E+02 -0.55073591434E+03  0.55572761326E+03  0.00000000000E+00 0. -1.
          1    1    1    2  502    0  0.32215507263E+02  0.42494488686E+02  0.24527733750E+03  0.25100715681E+03  0.00000000000E+00 0. -1.
         22    1    3    3    0    0 -0.53282431744E+02 -0.32688384029E+02  0.39598929090E+02  0.73997453795E+02  0.00000000000E+00 0.  1.
         22    1    3    3    0    0  0.27627438087E+02 -0.83833751251E+02  0.22861423490E+03  0.24506293393E+03  0.00000000000E+00 0.  1.
</event>
<event>
 7    1  0.5622879E-006  0.1313413E+03  0.7818608E-02  0.1352416E+00
          2   -1    0    0  502    0  0.00000000000E+00  0.00000000000E+00  0.45964812462E+03  0.45964812462E+03  0.00000000000E+00 0. -1.
          1   -1    0    0  501    0 -0.00000000000E+00 -0.00000000000E+00 -0.36471948967E+03  0.36471948967E+03  0.00000000000E+00 0. -1.
         25    2    1    2    0    0 -0.13832266556E+03 -0.14275207791E+02  0.31130405617E+03  0.36314255619E+03  0.12500143746E+03 0.  0.
          2    1    1    2  501    0  0.12896878025E+03 -0.24418168631E+02 -0.32233419786E+03  0.34803524010E+03  0.00000000000E+00 0. -1.
          1    1    1    2  502    0  0.93538853051E+01  0.38693376422E+02  0.10595877664E+03  0.11318981799E+03  0.00000000000E+00 0. -1.
         22    1    3    3    0    0  0.12298872156E+02 -0.30929441347E+02  0.37043119631E+02  0.49800454920E+02  0.00000000000E+00 0.  1.
         22    1    3    3    0    0 -0.15062153771E+03  0.16654233555E+02  0.27426093654E+03  0.31334210127E+03  0.00000000000E+00 0.  1.
</event>
<event>
 7    1  0.5622879E-006  0.3384421E+02  0.7818608E-02  0.1629285E+00
          2   -1    0    0  502    0  0.00000000000E+00  0.00000000000E+00  0.69373217788E+03  0.69373217788E+03  0.00000000000E+00 0. -1.
          1   -1    0    0  501    0 -0.00000000000E+00 -0.00000000000E+00 -0.79964540128E+02  0.79964540128E+02  0.00000000000E+00 0. -1.
         25    2    1    2    0    0 -0.13212465763E+02 -0.48856451391E+01  0.47005171916E+02  0.13428392687E+03  0.12499699216E+03 0.  0.
          2    1    1    2  501    0 -0.20754526802E+02  0.76325501838E+01 -0.32430086959E+02  0.39251964858E+02  0.00000000000E+00 0. -1.
          1    1    1    2  502    0  0.33966992565E+02 -0.27469050447E+01  0.59919255280E+03  0.60016082628E+03  0.00000000000E+00 0. -1.
         22    1    3    3    0    0 -0.66817327373E+01  0.43181690200E+02 -0.22794077541E+02  0.49283606725E+02  0.00000000000E+00 0. -1.
         22    1    3    3    0    0 -0.65307330256E+01 -0.48067335339E+02  0.69799249457E+02  0.85000320148E+02  0.00000000000E+00 0. -1.
</event>
<event>
 7    1  0.5622879E-006  0.9362802E+02  0.7818608E-02  0.1455942E+00
          2   -1    0    0  502    0  0.00000000000E+00  0.00000000000E+00  0.12187175541E+04  0.12187175541E+04  0.00000000000E+00 0. -1.
          1   -1    0    0  501    0 -0.00000000000E+00 -0.00000000000E+00 -0.66153842926E+02  0.66153842926E+02  0.00000000000E+00 0. -1.
         25    2    1    2    0    0  0.42593107354E+02 -0.72153676606E+02  0.74132404458E+02  0.16775174235E+03  0.12499883131E+03 0.  0.
          2    1    1    2  501    0 -0.16542053787E+02 -0.18338864757E+02 -0.84983180576E+01  0.26118478399E+02  0.00000000000E+00 0. -1.
          1    1    1    2  502    0 -0.26051053567E+02  0.90492541363E+02  0.10869296247E+04  0.10910011762E+04  0.00000000000E+00 0. -1.
         22    1    3    3    0    0  0.15649803095E+02 -0.25808512895E+01 -0.33340317447E+02  0.36920914097E+02  0.00000000000E+00 0.  1.
         22    1    3    3    0    0  0.26943304259E+02 -0.69572825317E+02  0.10747272190E+03  0.13083082825E+03  0.00000000000E+00 0.  1.
</event>
<event>
 7    1  0.5622879E-006  0.5975219E+02  0.7818608E-02  0.1421318E+00
          2   -1    0    0  502    0  0.00000000000E+00  0.00000000000E+00  0.61837874112E+03  0.61837874112E+03  0.00000000000E+00 0. -1.
          1   -1    0    0  501    0 -0.00000000000E+00 -0.00000000000E+00 -0.36015103476E+03  0.36015103476E+03  0.00000000000E+00 0. -1.
         25    2    1    2    0    0  0.99127010272E+02 -0.69254113027E+01 -0.15985271609E+02  0.16048274676E+03  0.12500023045E+03 0.  0.
          2    1    1    2  501    0 -0.52498605218E+02  0.25396861439E+02 -0.26761855538E+03  0.27389924298E+03  0.00000000000E+00 0. -1.
          1    1    1    2  502    0 -0.46628405055E+02 -0.18471450136E+02  0.54183153334E+03  0.54414778613E+03  0.00000000000E+00 0. -1.
         22    1    3    3    0    0  0.61161457210E+01  0.40152770112E+02 -0.36068281068E+02  0.54319177878E+02  0.00000000000E+00 0.  1.
         22    1    3    3    0    0  0.93010864551E+02 -0.47078181414E+02  0.20083009459E+02  0.10616356889E+03  0.00000000000E+00 0.  1.
</event>
<event>
 7    1  0.5622879E-006  0.1525828E+03  0.7818608E-02  0.1340721E+00
          2   -1    0    0  502    0  0.00000000000E+00  0.00000000000E+00  0.34839589104E+03  0.34839589104E+03  0.00000000000E+00 0. -1.
          1   -1    0    0  501    0 -0.00000000000E+00 -0.00000000000E+00 -0.14967234470E+04  0.14967234470E+04  0.00000000000E+00 0. -1.
         25    2    1    2    0    0  0.16993719260E+03 -0.80742266011E+02 -0.30113597785E+02  0.22787857980E+03  0.12499542156E+03 0.  0.
          2    1    1    2  501    0 -0.13329317370E+03  0.71139183125E+02 -0.13620880223E+04  0.13704421309E+04  0.00000000000E+00 0. -1.
          1    1    1    2  502    0 -0.36644018897E+02  0.96030828856E+01  0.24387406412E+03  0.24679862737E+03  0.00000000000E+00 0. -1.
         22    1    3    3    0    0  0.17276338176E+03 -0.10427460747E+03 -0.31002033218E+02  0.20416049056E+03  0.00000000000E+00 0.  1.
         22    1    3    3    0    0 -0.28261891633E+01  0.23532341461E+02  0.88843543295E+00  0.23718089243E+02  0.00000000000E+00 0.  1.
</event>
<event>
 7    1  0.5622879E-006  0.5395294E+02  0.7818608E-02  0.1536453E+00
          2   -1    0    0  502    0  0.00000000000E+00  0.00000000000E+00  0.58968370458E+03  0.58968370458E+03  0.00000000000E+00 0. -1.
          1   -1    0    0  501    0 -0.00000000000E+00 -0.00000000000E+00 -0.10990763075E+04  0.10990763075E+04  0.00000000000E+00 0. -1.
         25    2    1    2    0    0 -0.39256817177E+02  0.53809758010E+02 -0.12639198210E+03  0.18983131969E+03  0.12499763615E+03 0.  0.
          2    1    1    2  501    0  0.14783739172E+02 -0.51669148795E+02 -0.93992628761E+03  0.94146146285E+03  0.00000000000E+00 0. -1.
          1    1    1    2  502    0  0.24473078005E+02 -0.21406092144E+01  0.55692566676E+03  0.55746722958E+03  0.00000000000E+00 0. -1.
         22    1    3    3    0    0 -0.20298401297E+02 -0.26636015645E+02 -0.96162523892E+02  0.10182697789E+03  0.00000000000E+00 0.  1.
         22    1    3    3    0    0 -0.18958415881E+02  0.80445773654E+02 -0.30229458210E+02  0.88004341797E+02  0.00000000000E+00 0.  1.
</event>
<event>
 7    1  0.5622879E-006  0.1401483E+03  0.7818608E-02  0.1214645E+00
          2   -1    0    0  502    0  0.00000000000E+00  0.00000000000E+00  0.33031992458E+04  0.33031992458E+04  0.00000000000E+00 0. -1.
          1   -1    0    0  501    0 -0.00000000000E+00 -0.00000000000E+00 -0.81009564760E+03  0.81009564760E+03  0.00000000000E+00 0. -1.
         25    2    1    2    0    0  0.20440419744E+02  0.18692290705E+03  0.20553178283E+03  0.30533084248E+03  0.12500250269E+03 0.  0.
          2    1    1    2  501    0  0.92000613950E+02 -0.10274173774E+03 -0.75230610023E+03  0.76484275905E+03  0.00000000000E+00 0. -1.
          1    1    1    2  502    0 -0.11244103369E+03 -0.84181169309E+02  0.30398779156E+04  0.30431212918E+04  0.00000000000E+00 0. -1.
         22    1    3    3    0    0 -0.53016933400E+02  0.80427676613E+02  0.92077556216E+02  0.13325795568E+03  0.00000000000E+00 0. -1.
         22    1    3    3    0    0  0.73457353143E+02  0.10649523043E+03  0.11345422662E+03  0.17207288680E+03  0.00000000000E+00 0. -1.
</event>
<event>
 7    1  0.5622879E-006  0.3631542E+02  0.7818608E-02  0.1630279E+00
          2   -1    0    0  502    0  0.00000000000E+00  0.00000000000E+00  0.53400849139E+03  0.53400849139E+03  0.00000000000E+00 0. -1.
          1   -1    0    0  501    0 -0.00000000000E+00 -0.00000000000E+00 -0.34209401248E+03  0.34209401248E+03  0.00000000000E+00 0. -1.
         25    2    1    2    0    0  0.11014125168E+02  0.15070058192E+02 -0.49746041471E+02  0.13582638185E+03  0.12500287900E+03 0.  0.
          2    1    1    2  501    0 -0.23920357925E+01  0.20350203922E+02 -0.24820836223E+03  0.24905269265E+03  0.00000000000E+00 0. -1.
          1    1    1    2  502    0 -0.86220893757E+01 -0.35420262113E+02  0.48986888262E+03  0.49122342936E+03  0.00000000000E+00 0. -1.
         22    1    3    3    0    0  0.27456059840E+02  0.30737602341E+02  0.31239856355E+02  0.51716187453E+02  0.00000000000E+00 0.  1.
         22    1    3    3    0    0 -0.16441934672E+02 -0.15667544149E+02 -0.80985897826E+02  0.84110194401E+02  0.00000000000E+00 0.  1.
</event>
<event>
 7    1  0.5622879E-006  0.9680770E+02  0.7818608E-02  0.1313703E+00
          2   -1    0    0  502    0  0.00000000000E+00  0.00000000000E+00  0.27161484937E+03  0.27161484937E+03  0.00000000000E+00 0. -1.
          1   -1    0    0  501    0 -0.00000000000E+00 -0.00000000000E+00 -0.92510434470E+03  0.92510434470E+03  0.00000000000E+00 0. -1.
         25    2    1    2    0    0  0.61304158587E+02 -0.94574444631E+02 -0.24095228695E+03  0.29391738065E+03  0.12500758627E+03 0.  0.
          2    1    1    2  501    0  0.14462582211E+02  0.96959103712E+02 -0.64803314913E+03  0.65540613092E+03  0.00000000000E+00 0. -1.
          1    1    1    2  502    0 -0.75766740798E+02 -0.23846590810E+01  0.23549594075E+03  0.24739568250E+03  0.00000000000E+00 0. -1.
         22    1    3    3    0    0  0.25492848414E+02 -0.11510884465E+03 -0.21486186162E+03  0.24508274321E+03  0.00000000000E+00 0.  1.
         22    1    3    3    0    0  0.35811310173E+02  0.20534400020E+02 -0.26090425323E+02  0.48834637441E+02  0.00000000000E+00 0.  1.
</event>
<event>
 7    1  0.5622879E-006  0.1140125E+03  0.7818608E-02  0.1387681E+00
          2   -1    0    0  502    0  0.00000000000E+00  0.00000000000E+00  0.14816129021E+04  0.14816129021E+04  0.00000000000E+00 0. -1.
          1   -1    0    0  501    0 -0.00000000000E+00 -0.00000000000E+00 -0.33638299951E+03  0.33638299951E+03  0.00000000000E+00 0. -1.
         25    2    1    2    0    0  0.50105546908E+02  0.12514039574E+03  0.68880234423E+02  0.19631354539E+03  0.12499534764E+03 0.  0.
          2    1    1    2  501    0 -0.18998452090E+02 -0.11081440311E+03 -0.26084780813E+03  0.28404639079E+03  0.00000000000E+00 0. -1.
          1    1    1    2  502    0 -0.31107094818E+02 -0.14325992629E+02  0.13371974763E+04  0.13376359654E+04  0.00000000000E+00 0. -1.
         22    1    3    3    0    0 -0.26727956497E+02  0.70992864114E+02  0.68661158375E+02  0.10231678788E+03  0.00000000000E+00 0.  1.
         22    1    3    3    0    0  0.76833503405E+02  0.54147531623E+02  0.21907604738E+00  0.93996757501E+02  0.00000000000E+00 0.  1.
</event>
<event>
 7    1  0.5622879E-006  0.9884707E+02  0.7818608E-02  0.1295653E+00
          2   -1    0    0  502    0  0.00000000000E+00  0.00000000000E+00  0.25963121110E+04  0.25963121110E+04  0.00000000000E+00 0. -1.
          1   -1    0    0  501    0 -0.00000000000E+00 -0.00000000000E+00 -0.32321913936E+02  0.32321913936E+02  0.00000000000E+00 0. -1.
         25    2    1    2    0    0  0.60175728231E+01  0.74817493825E+02  0.10731028219E+04  0.10829627714E+04  0.12499931759E+03 0.  0.
          2    1    1    2  501    0 -0.90458972582E+02 -0.51605933872E+02  0.78107535764E+02  0.13017981900E+03  0.00000000000E+00 0. -1.
          1    1    1    2  502    0  0.84441399759E+02 -0.23211559953E+02  0.14127798395E+04  0.14154914346E+04  0.00000000000E+00 0. -1.
         22    1    3    3    0    0 -0.56720619993E+02  0.26038484370E+02  0.59935454841E+03  0.60259530873E+03  0.00000000000E+00 0.  1.
         22    1    3    3    0    0  0.62738192816E+02  0.48779009455E+02  0.47374827347E+03  0.48036746269E+03  0.00000000000E+00 0.  1.
</event>
<event>
 7    1  0.6692595E-006  0.9769712E+02  0.7818608E-02  0.1313023E+00
          2   -1    0    0  502    0  0.00000000000E+00  0.00000000000E+00  0.89523126245E+03  0.89523126245E+03  0.00000000000E+00 0. -1.
          1   -1    0    0  501    0 -0.00000000000E+00 -0.00000000000E+00 -0.12955685019E+04  0.12955685019E+04  0.00000000000E+00 0. -1.
         25    2    1    2    0    0 -0.30043207301E+01  0.13143913034E+03 -0.19804713447E+03  0.26857650030E+03  0.12500159244E+03 0.  0.
          2    1    1    2  501    0  0.56911322451E+02 -0.78467946472E+02 -0.10583770645E+04  0.10628067218E+04  0.00000000000E+00 0. -1.
          1    1    1    2  502    0 -0.53907001721E+02 -0.52971183868E+02  0.85608695942E+03  0.85941654234E+03  0.00000000000E+00 0. -1.
         22    1    3    3    0    0  0.54578529882E+02  0.88594962047E+02 -0.14863300410E+03  0.18143773899E+03  0.00000000000E+00 0.  1.
         22    1    3    3    0    0 -0.57582850612E+02  0.42844168293E+02 -0.49414130375E+02  0.87138761306E+02  0.00000000000E+00 0.  1.
</event>
<event>
 7    1  0.5622879E-006  0.8634913E+02  0.7818608E-02  0.1360350E+00
          2   -1    0    0  502    0  0.00000000000E+00  0.00000000000E+00  0.97186689919E+03  0.97186689919E+03  0.00000000000E+00 0. -1.
          1   -1    0    0  501    0 -0.00000000000E+00 -0.00000000000E+00 -0.90452782510E+02  0.90452782510E+02  0.00000000000E+00 0. -1.
         25    2    1    2    0    0  0.13088000368E+02  0.60231341955E+02 -0.19250526921E+02  0.14069299157E+03  0.12499929912E+03 0.  0.
          2    1    1    2  501    0  0.56212116050E+02 -0.68166930727E+01  0.90523731221E+02  0.10677460002E+03  0.00000000000E+00 0. -1.
          1    1    1    2  502    0 -0.69300116418E+02 -0.53414648882E+02  0.81014091238E+03  0.81485209011E+03  0.00000000000E+00 0. -1.
         22    1    3    3    0    0 -0.31865922948E+02 -0.24983561861E+02 -0.18067935435E+02  0.44340339415E+02  0.00000000000E+00 0.  1.
         22    1    3    3    0    0  0.44953923315E+02  0.85214903816E+02 -0.11825914861E+01  0.96352652150E+02  0.00000000000E+00 0.  1.
</event>
<event>
 7    1  0.5622879E-006  0.2676632E+03  0.7818608E-02  0.1248347E+00
          2   -1    0    0  502    0  0.00000000000E+00  0.00000000000E+00  0.32820625401E+03  0.32820625401E+03  0.00000000000E+00 0. -1.
          1   -1    0    0  501    0 -0.00000000000E+00 -0.00000000000E+00 -0.86536662686E+03  0.86536662686E+03  0.00000000000E+00 0. -1.
         25    2    1    2    0    0  0.51233539809E+00 -0.39372819843E+01  0.12245362270E+03  0.17502924166E+03  0.12499832417E+03 0.  0.
          2    1    1    2  501    0  0.24632250125E+03 -0.10473201664E+03 -0.69666387216E+03  0.74631368787E+03  0.00000000000E+00 0. -1.
          1    1    1    2  502    0 -0.24683483665E+03  0.10866929863E+03  0.37049876615E+02  0.27222995134E+03  0.00000000000E+00 0. -1.
         22    1    3    3    0    0  0.35365246930E+02 -0.25004351880E+02  0.12687554487E+03  0.13406461946E+03  0.00000000000E+00 0.  1.
         22    1    3    3    0    0 -0.34852911532E+02  0.21067069896E+02 -0.44219221747E+01  0.40964622200E+02  0.00000000000E+00 0.  1.
</event>
<event>
 7    1  0.5622879E-006  0.1734989E+03  0.7818608E-02  0.1245330E+00
          2   -1    0    0  502    0  0.00000000000E+00  0.00000000000E+00  0.86615968374E+03  0.86615968374E+03  0.00000000000E+00 0. -1.
          1   -1    0    0  501    0 -0.00000000000E+00 -0.00000000000E+00 -0.12999003315E+04  0.12999003315E+04  0.00000000000E+00 0. -1.
         25    2    1    2    0    0 -0.67171568817E+02  0.12458518187E+03 -0.40395461484E+03  0.44591234816E+03  0.12500001678E+03 0.  0.
          2    1    1    2  501    0 -0.76854730805E+02 -0.26049956840E+02 -0.86403758730E+03  0.86783996346E+03  0.00000000000E+00 0. -1.
          1    1    1    2  502    0  0.14402629962E+03 -0.98535225029E+02  0.83425155442E+03  0.85230770359E+03  0.00000000000E+00 0. -1.
         22    1    3    3    0    0  0.22993843124E+02  0.76719713320E+02 -0.12099238528E+03  0.14509923683E+03  0.00000000000E+00 0. -1.
         22    1    3    3    0    0 -0.90165411941E+02  0.47865468548E+02 -0.28296222956E+03  0.30081311133E+03  0.00000000000E+00 0. -1.
</event>
<event>
 7    1  0.5622879E-006  0.5477963E+02  0.7818608E-02  0.1501938E+00
          2   -1    0    0  502    0  0.00000000000E+00  0.00000000000E+00  0.10048918042E+04  0.10048918042E+04  0.00000000000E+00 0. -1.
          1   -1    0    0  501    0 -0.00000000000E+00 -0.00000000000E+00 -0.19672358532E+03  0.19672358532E+03  0.00000000000E+00 0. -1.
         25    2    1    2    0    0  0.45366530670E+02 -0.67151200506E+02  0.24687904841E+02  0.15100334234E+03  0.12500044367E+03 0.  0.
          2    1    1    2  501    0 -0.55580492082E+01  0.29974526729E+02 -0.13100537992E+03  0.13450566431E+03  0.00000000000E+00 0. -1.
          1    1    1    2  502    0 -0.39808481462E+02  0.37176673777E+02  0.91448569397E+03  0.91610638287E+03  0.00000000000E+00 0. -1.
         22    1    3    3    0    0 -0.34676844115E+02 -0.51248170969E+02 -0.93523859990E+01  0.62580553444E+02  0.00000000000E+00 0.  1.
         22    1    3    3    0    0  0.80043374785E+02 -0.15903029537E+02  0.34040290840E+02  0.88422788895E+02  0.00000000000E+00 0.  1.
</event>
<event>
 7    1  0.5622879E-006  0.1215743E+03  0.7818608E-02  0.1307003E+00
          2   -1    0    0  502    0  0.00000000000E+00  0.00000000000E+00  0.42398216883E+03  0.42398216883E+03  0.00000000000E+00 0. -1.
          1   -1    0    0  501    0 -0.00000000000E+00 -0.00000000000E+00 -0.26619728959E+03  0.26619728959E+03  0.00000000000E+00 0. -1.
         25    2    1    2    0    0  0.61035994701E+02  0.11110632635E+03  0.28332780302E+02  0.18027167047E+03  0.12500048133E+03 0.  0.
          2    1    1    2  501    0  0.43864032329E+02 -0.46801065196E+02 -0.17239767523E+03  0.18394388128E+03  0.00000000000E+00 0. -1.
          1    1    1    2  502    0 -0.10490002703E+03 -0.64305261149E+02  0.30184977417E+03  0.32596390666E+03  0.00000000000E+00 0. -1.
         22    1    3    3    0    0  0.22128971723E+02  0.56695317523E+02 -0.48919558319E+02  0.78084400521E+02  0.00000000000E+00 0. -1.
         22    1    3    3    0    0  0.38907022978E+02  0.54411008822E+02  0.77252338621E+02  0.10218726995E+03  0.00000000000E+00 0. -1.
</event>
<event>
 7    1  0.5622879E-006  0.5288991E+02  0.7818608E-02  0.1450127E+00
          2   -1    0    0  502    0  0.00000000000E+00  0.00000000000E+00  0.12033690419E+04  0.12033690419E+04  0.00000000000E+00 0. -1.
          1   -1    0    0  501    0 -0.00000000000E+00 -0.00000000000E+00 -0.87018620866E+03  0.87018620866E+03  0.00000000000E+00 0. -1.
         25    2    1    2    0    0 -0.57178388955E+02  0.55481565370E+02 -0.14354376031E+03  0.20634212765E+03  0.12499876104E+03 0.  0.
          2    1    1    2  501    0  0.53234577172E+01 -0.45313909404E+02 -0.69389804852E+03  0.69539642746E+03  0.00000000000E+00 0. -1.
          1    1    1    2  502    0  0.51854931238E+02 -0.10167655966E+02  0.11706246421E+04  0.11718166954E+04  0.00000000000E+00 0. -1.
         22    1    3    3    0    0 -0.78310561909E+02  0.27527278593E+02 -0.31229716972E+02  0.88688163784E+02  0.00000000000E+00 0.  1.
         22    1    3    3    0    0  0.21132172954E+02  0.27954286777E+02 -0.11231404334E+03  0.11765396387E+03  0.00000000000E+00 0.  1.
</event>
<event>
 7    1  0.5622879E-006  0.7798359E+02  0.7818608E-02  0.1370837E+00
          2   -1    0    0  502    0  0.00000000000E+00  0.00000000000E+00  0.65839790352E+03  0.65839790352E+03  0.00000000000E+00 0. -1.
          1   -1    0    0  501    0 -0.00000000000E+00 -0.00000000000E+00 -0.56890225838E+03  0.56890225838E+03  0.00000000000E+00 0. -1.
         25    2    1    2    0    0 -0.10489991056E+03 -0.54690730894E+02 -0.28626619132E+03  0.33401733359E+03  0.12499671822E+03 0.  0.
          2    1    1    2  501    0  0.70334186534E+02  0.88005034185E+01 -0.25257099684E+03  0.26232890634E+03  0.00000000000E+00 0. -1.
          1    1    1    2  502    0  0.34565724028E+02  0.45890227475E+02  0.62833283330E+03  0.63095392198E+03  0.00000000000E+00 0. -1.
         22    1    3    3    0    0 -0.13244861391E+03 -0.33079725504E+02 -0.23825313750E+03  0.27459326484E+03  0.00000000000E+00 0. -1.
         22    1    3    3    0    0  0.27548703348E+02 -0.21611005390E+02 -0.48013053818E+02  0.59424068752E+02  0.00000000000E+00 0. -1.
</event>
<event>
 7    1  0.5622879E-006  0.5844698E+02  0.7818608E-02  0.1497321E+00
          2   -1    0    0  502    0  0.00000000000E+00  0.00000000000E+00  0.18860015478E+04  0.18860015478E+04  0.00000000000E+00 0. -1.
          1   -1    0    0  501    0 -0.00000000000E+00 -0.00000000000E+00 -0.10423476607E+04  0.10423476607E+04  0.00000000000E+00 0. -1.
         25    2    1    2    0    0  0.69717097487E+02  0.13020242819E+02  0.95728550635E+03  0.96801373677E+03  0.12500021401E+03 0.  0.
          2    1    1    2  501    0 -0.22420444366E+02  0.19162922252E+02 -0.10358873470E+04  0.10363071405E+04  0.00000000000E+00 0. -1.
          1    1    1    2  502    0 -0.47296653121E+02 -0.32183165071E+02  0.92225572777E+03  0.92402833123E+03  0.00000000000E+00 0. -1.
         22    1    3    3    0    0 -0.30082608958E+02  0.11274670043E+02  0.44095976671E+03  0.44212848517E+03  0.00000000000E+00 0. -1.
         22    1    3    3    0    0  0.99799706445E+02  0.17455727761E+01  0.51632573964E+03  0.52588525160E+03  0.00000000000E+00 0. -1.
</event>
<event>
 7    1  0.5622879E-006  0.8736780E+02  0.7818608E-02  0.1324052E+00
          2   -1    0    0  502    0  0.00000000000E+00  0.00000000000E+00  0.12078332147E+04  0.12078332147E+04  0.00000000000E+00 0. -1.
          1   -1    0    0  501    0 -0.00000000000E+00 -0.00000000000E+00 -0.57995852559E+02  0.57995852559E+02  0.00000000000E+00 0. -1.
         25    2    1    2    0    0  0.13590322149E+03 -0.60946758068E+02  0.33065552156E+03  0.38359116717E+03  0.12499966664E+03 0.  0.
          2    1    1    2  501    0 -0.78315742604E+02  0.10490566626E+02  0.22876528042E+02  0.82260215554E+02  0.00000000000E+00 0. -1.
          1    1    1    2  502    0 -0.57587478889E+02  0.50456191442E+02  0.79630531250E+03  0.79997768450E+03  0.00000000000E+00 0. -1.
         22    1    3    3    0    0 -0.20460415994E+02 -0.61384713733E+01  0.82380340684E+02  0.85104817635E+02  0.00000000000E+00 0.  1.
         22    1    3    3    0    0  0.15636363749E+03 -0.54808286695E+02  0.24827518088E+03  0.29848634953E+03  0.00000000000E+00 0.  1.
</event>
<event>
 7    1  0.5622879E-006  0.8275208E+02  0.7818608E-02  0.1412164E+00
          2   -1    0    0  502    0  0.00000000000E+00  0.00000000000E+00  0.19900628383E+04  0.19900628383E+04  0.00000000000E+00 0. -1.
          1   -1    0    0  501    0 -0.00000000000E+00 -0.00000000000E+00 -0.24695873037E+04  0.24695873037E+04  0.00000000000E+00 0. -1.
         25    2    1    2    0    0  0.70924579656E+01  0.12058091655E+03  0.17939036668E+03  0.24979281506E+03  0.12500194560E+03 0.  0.
          2    1    1    2  501    0 -0.10931502884E+02 -0.81902564969E+02 -0.24334720535E+04  0.24348744861E+04  0.00000000000E+00 0. -1.
          1    1    1    2  502    0  0.38390449188E+01 -0.38678351581E+02  0.17745572214E+04  0.17749828408E+04  0.00000000000E+00 0. -1.
         22    1    3    3    0    0 -0.31217610609E+02 -0.85387920476E+01  0.66878174374E+02  0.74297647267E+02  0.00000000000E+00 0. -1.
         22    1    3    3    0    0  0.38310068575E+02  0.12911970860E+03  0.11251219230E+03  0.17549516779E+03  0.00000000000E+00 0. -1.
</event>
<event>
 7    1  0.5622879E-006  0.2298418E+03  0.7818608E-02  0.1197937E+00
          2   -1    0    0  502    0  0.00000000000E+00  0.00000000000E+00  0.83906222568E+03  0.83906222568E+03  0.00000000000E+00 0. -1.
          1   -1    0    0  501    0 -0.00000000000E+00 -0.00000000000E+00 -0.36828731392E+03  0.36828731392E+03  0.00000000000E+00 0. -1.
         25    2    1    2    0    0 -0.16474526304E+03 -0.45152986852E+02  0.17357552397E+03  0.27374011070E+03  0.12500156706E+03 0.  0.
          2    1    1    2  501    0 -0.98872799405E+02  0.18725593335E+02 -0.28052723457E+03  0.29803021263E+03  0.00000000000E+00 0. -1.
          1    1    1    2  502    0  0.26361806245E+03  0.26427393517E+02  0.57772662236E+03  0.63557921627E+03  0.00000000000E+00 0. -1.
         22    1    3    3    0    0 -0.17296600231E+03 -0.90577542690E+01  0.15448463738E+03  0.23208788002E+03  0.00000000000E+00 0. -1.
         22    1    3    3    0    0  0.82207392715E+01 -0.36095232583E+02  0.19090886593E+02  0.41652230676E+02  0.00000000000E+00 0. -1.
</event>
<event>
 7    1  0.5622879E-006  0.9010596E+02  0.7818608E-02  0.1429632E+00
          2   -1    0    0  502    0  0.00000000000E+00  0.00000000000E+00  0.23749099604E+04  0.23749099604E+04  0.00000000000E+00 0. -1.
          1   -1    0    0  501    0 -0.00000000000E+00 -0.00000000000E+00 -0.13788036603E+03  0.13788036603E+03  0.00000000000E+00 0. -1.
         25    2    1    2    0    0  0.28225834196E+02 -0.86121740514E+02  0.44347613766E+03  0.46958536426E+03  0.12500271095E+03 0.  0.
          2    1    1    2  501    0 -0.30915469853E+02 -0.43093518104E+01 -0.12178976951E+03  0.12572622935E+03  0.00000000000E+00 0. -1.
          1    1    1    2  502    0  0.26896356569E+01  0.90431092324E+02  0.19153432263E+04  0.19174787329E+04  0.00000000000E+00 0. -1.
         22    1    3    3    0    0 -0.77096046952E+01  0.24878429590E+02  0.28900147282E+02  0.38904919693E+02  0.00000000000E+00 0.  1.
         22    1    3    3    0    0  0.35935438891E+02 -0.11100017010E+03  0.41457599038E+03  0.43068044457E+03  0.00000000000E+00 0.  1.
</event>
<event>
 7    1  0.5622879E-006  0.2010129E+03  0.7818608E-02  0.1180426E+00
          2   -1    0    0  502    0  0.00000000000E+00  0.00000000000E+00  0.57648749829E+03  0.57648749829E+03  0.00000000000E+00 0. -1.
          1   -1    0    0  501    0 -0.00000000000E+00 -0.00000000000E+00 -0.95737249728E+03  0.95737249728E+03  0.00000000000E+00 0. -1.
         25    2    1    2    0    0  0.43677113260E+02  0.77318014386E+02 -0.40345067628E+03  0.43160634741E+03  0.12500330141E+03 0.  0.
          2    1    1    2  501    0 -0.52775112538E+02  0.12930441449E+03 -0.51113927363E+03  0.52987564688E+03  0.00000000000E+00 0. -1.
          1    1    1    2  502    0  0.90979992779E+01 -0.20662242888E+03  0.53370495092E+03  0.57237800128E+03  0.00000000000E+00 0. -1.
         22    1    3    3    0    0 -0.45035297222E+01 -0.18606556373E+02 -0.62226825003E+01  0.20129766455E+02  0.00000000000E+00 0.  1.
         22    1    3    3    0    0  0.48180642982E+02  0.95924570759E+02 -0.39722799378E+03  0.41147658095E+03  0.00000000000E+00 0.  1.
</event>
<event>
 7    1  0.7303435E-006  0.7671987E+02  0.7818608E-02  0.1339955E+00
          2   -1    0    0  502    0  0.00000000000E+00  0.00000000000E+00  0.24676813343E+04  0.24676813343E+04  0.00000000000E+00 0. -1.
          1   -1    0    0  501    0 -0.00000000000E+00 -0.00000000000E+00 -0.45379702841E+03  0.45379702841E+03  0.00000000000E+00 0. -1.
         25    2    1    2    0    0  0.57391244123E+02  0.74217925349E+00 -0.21728286835E+03  0.25715298009E+03  0.12498601747E+03 0.  0.
          2    1    1    2  501    0 -0.28257203696E+02  0.70380158661E+02 -0.20931611490E+03  0.22263214559E+03  0.00000000000E+00 0. -1.
          1    1    1    2  502    0 -0.29134040428E+02 -0.71122337915E+02  0.24404832891E+04  0.24416932370E+04  0.00000000000E+00 0. -1.
         22    1    3    3    0    0 -0.20194459895E+01  0.49795196331E+02 -0.40174931992E+02  0.64013005712E+02  0.00000000000E+00 0.  1.
         22    1    3    3    0    0  0.59410690113E+02 -0.49053017078E+02 -0.17710793635E+03  0.19313997438E+03  0.00000000000E+00 0.  1.
</event>
<event>
 7    1  0.5622879E-006  0.9252692E+02  0.7818608E-02  0.1358889E+00
          2   -1    0    0  502    0  0.00000000000E+00  0.00000000000E+00  0.69891164666E+02  0.69891164666E+02  0.00000000000E+00 0. -1.
          1   -1    0    0  501    0 -0.00000000000E+00 -0.00000000000E+00 -0.10728055287E+04  0.10728055287E+04  0.00000000000E+00 0. -1.
         25    2    1    2    0    0 -0.10893509696E+03  0.39047232517E+01 -0.14929869184E+03  0.22313859581E+03  0.12497452278E+03 0.  0.
          2    1    1    2  501    0  0.82018294047E+02  0.42327007910E+02 -0.86066442162E+03  0.86559911207E+03  0.00000000000E+00 0. -1.
          1    1    1    2  502    0  0.26916802912E+02 -0.46231731162E+02  0.70487494381E+01  0.53958985478E+02  0.00000000000E+00 0. -1.
         22    1    3    3    0    0 -0.42505357303E+02 -0.59106566295E+02 -0.51554297538E+02  0.89208391832E+02  0.00000000000E+00 0.  1.
         22    1    3    3    0    0 -0.66429739656E+02  0.63011289547E+02 -0.97744394301E+02  0.13393020398E+03  0.00000000000E+00 0.  1.
</event>
<event>
 7    1  0.5622879E-006  0.6542094E+02  0.7818608E-02  0.1523335E+00
          2   -1    0    0  502    0  0.00000000000E+00  0.00000000000E+00  0.94354271278E+03  0.94354271278E+03  0.00000000000E+00 0. -1.
          1   -1    0    0  501    0 -0.00000000000E+00 -0.00000000000E+00 -0.53299676826E+03  0.53299676826E+03  0.00000000000E+00 0. -1.
         25    2    1    2    0    0 -0.44751601323E+02 -0.10852172748E+02 -0.17754447960E+03  0.22196222245E+03  0.12499884194E+03 0.  0.
          2    1    1    2  501    0 -0.20710806025E+02  0.76883627282E+01 -0.33171001042E+03  0.33244485170E+03  0.00000000000E+00 0. -1.
          1    1    1    2  502    0  0.65462407348E+02  0.31638100193E+01  0.91980043454E+03  0.92213240689E+03  0.00000000000E+00 0. -1.
         22    1    3    3    0    0  0.87529165175E-01 -0.24496473461E+02 -0.17316480060E+03  0.17488891629E+03  0.00000000000E+00 0. -1.
         22    1    3    3    0    0 -0.44839130488E+02  0.13644300714E+02 -0.43796789956E+01  0.47073306162E+02  0.00000000000E+00 0. -1.
</event>
<event>
 7    1  0.5622879E-006  0.6628435E+02  0.7818608E-02  0.1477724E+00
          2   -1    0    0  502    0  0.00000000000E+00  0.00000000000E+00  0.38947196216E+03  0.38947196216E+03  0.00000000000E+00 0. -1.
          1   -1    0    0  501    0 -0.00000000000E+00 -0.00000000000E+00 -0.20490071970E+03  0.20490071970E+03  0.00000000000E+00 0. -1.
         25    2    1    2    0    0  0.49215727808E+02  0.56503251050E+02 -0.64798474255E+02  0.15949469852E+03  0.12499964539E+03 0.  0.
          2    1    1    2  501    0 -0.19944499284E+02 -0.62223809949E+02 -0.80489444792E+02  0.10367321881E+03  0.00000000000E+00 0. -1.
          1    1    1    2  502    0 -0.29271228524E+02  0.57205588987E+01  0.32985916151E+03  0.33120476453E+03  0.00000000000E+00 0. -1.
         22    1    3    3    0    0  0.71322473148E+02  0.75818632401E+02 -0.20096577475E+02  0.10601524712E+03  0.00000000000E+00 0. -1.
         22    1    3    3    0    0 -0.22106745340E+02 -0.19315381351E+02 -0.44701896780E+02  0.53479451400E+02  0.00000000000E+00 0. -1.
</event>
<event>
 7    1  0.5622879E-006  0.3020678E+02  0.7818608E-02  0.1609036E+00
          2   -1    0    0  502    0  0.00000000000E+00  0.00000000000E+00  0.72286836284E+03  0.72286836284E+03  0.00000000000E+00 0. -1.
          1   -1    0    0  501    0 -0.00000000000E+00 -0.00000000000E+00 -0.20756764683E+02  0.20756764683E+02  0.00000000000E+00 0. -1.
         25    2    1    2    0    0  0.15859348897E+01 -0.16771751911E+01  0.25310798073E+03  0.28230072767E+03  0.12499889132E+03 0.  0.
          2    1    1    2  501    0 -0.28271479327E+02  0.15831011058E+02  0.41254366869E+02  0.52457794848E+02  0.00000000000E+00 0. -1.
          1    1    1    2  502    0  0.26685544438E+02 -0.14153835867E+02  0.40774925056E+03  0.40886660500E+03  0.00000000000E+00 0. -1.
         22    1    3    3    0    0 -0.56996126474E+02  0.41169057823E+01  0.17753761054E+03  0.18650766875E+03  0.00000000000E+00 0.  1.
         22    1    3    3    0    0  0.58582061363E+02 -0.57940809734E+01  0.75570370184E+02  0.95793058922E+02  0.00000000000E+00 0.  1.
</event>
<event>
 7    1  0.5622879E-006  0.6545176E+02  0.7818608E-02  0.1390946E+00
          2   -1    0    0  502    0  0.00000000000E+00  0.00000000000E+00  0.94886709172E+03  0.94886709172E+03  0.00000000000E+00 0. -1.
          1   -1    0    0  501    0 -0.00000000000E+00 -0.00000000000E+00 -0.45917274935E+03  0.45917274935E+03  0.00000000000E+00 0. -1.
         25    2    1    2    0    0  0.72018802584E+02 -0.21391496603E+02 -0.33119116684E+02  0.14955235750E+03  0.12499891076E+03 0.  0.
          2    1    1    2  501    0 -0.56415560441E+02 -0.34585114121E+02 -0.36390217580E+03  0.36986975968E+03  0.00000000000E+00 0. -1.
          1    1    1    2  502    0 -0.15603242143E+02  0.55976610724E+02  0.88671563486E+03  0.88861772389E+03  0.00000000000E+00 0. -1.
         22    1    3    3    0    0  0.92293733933E+02  0.23480511720E+01  0.13643428847E+02  0.93326254711E+02  0.00000000000E+00 0. -1.
         22    1    3    3    0    0 -0.20274931349E+02 -0.23739547775E+02 -0.46762545531E+02  0.56226102785E+02  0.00000000000E+00 0. -1.
</event>
<event>
 7    1  0.5622879E-006  0.6132035E+02  0.7818608E-02  0.1397546E+00
          2   -1    0    0  502    0  0.00000000000E+00  0.00000000000E+00  0.10292245251E+04  0.10292245251E+04  0.00000000000E+00 0. -1.
          1   -1    0    0  501    0 -0.00000000000E+00 -0.00000000000E+00 -0.75324985558E+02  0.75324985558E+02  0.00000000000E+00 0. -1.
         25    2    1    2    0    0 -0.75409100883E+01 -0.36103516170E+01  0.27796129995E+03  0.30489060204E+03  0.12500357985E+03 0.  0.
          2    1    1    2  501    0 -0.44387985375E+02  0.42307111165E+02 -0.44847108947E+02  0.75970047266E+02  0.00000000000E+00 0. -1.
          1    1    1    2  502    0  0.51928895463E+02 -0.38696759548E+02  0.72078534856E+03  0.72368886138E+03  0.00000000000E+00 0. -1.
         22    1    3    3    0    0 -0.30900395931E+02  0.54240450368E+02  0.12584094563E+03  0.14047350114E+03  0.00000000000E+00 0.  1.
         22    1    3    3    0    0  0.23359485843E+02 -0.57850801985E+02  0.15212035432E+03  0.16441710089E+03  0.00000000000E+00 0.  1.
</event>
<event>
 7    1  0.5622879E-006  0.4882372E+02  0.7818608E-02  0.1503739E+00
          2   -1    0    0  502    0  0.00000000000E+00  0.00000000000E+00  0.15274037878E+04  0.15274037878E+04  0.00000000000E+00 0. -1.
          1   -1    0    0  501    0 -0.00000000000E+00 -0.00000000000E+00 -0.23983715676E+03  0.23983715676E+03  0.00000000000E+00 0. -1.
         25    2    1    2    0    0 -0.19917787318E+02 -0.25686881148E+02 -0.51557389972E+02  0.13906745062E+03  0.12500022899E+03 0.  0.
          2    1    1    2  501    0  0.24742747033E+02 -0.23005196648E+02 -0.14214075586E+03  0.14610077714E+03  0.00000000000E+00 0. -1.
          1    1    1    2  502    0 -0.48249597147E+01  0.48692077796E+02  0.14812647768E+04  0.14820727168E+04  0.00000000000E+00 0. -1.
         22    1    3    3    0    0 -0.47685048598E+01  0.36165486464E+02 -0.64485150196E+02  0.74087891356E+02  0.00000000000E+00 0. -1.
         22    1    3    3    0    0 -0.15149282458E+02 -0.61852367613E+02  0.12927760224E+02  0.64979559268E+02  0.00000000000E+00 0. -1.
</event>
<event>
 7    1  0.5622879E-006  0.1645101E+03  0.7818608E-02  0.1329933E+00
          2   -1    0    0  502    0  0.00000000000E+00  0.00000000000E+00  0.67301880255E+03  0.67301880255E+03  0.00000000000E+00 0. -1.
          1   -1    0    0  501    0 -0.00000000000E+00 -0.00000000000E+00 -0.13991724099E+04  0.13991724099E+04  0.00000000000E+00 0. -1.
         25    2    1    2    0    0  0.11100018249E+02 -0.15895019505E+03  0.54865050485E+02  0.20981786240E+03  0.12499994682E+03 0.  0.
          2    1    1    2  501    0 -0.38304711091E+02 -0.47860152529E+01 -0.13086662005E+04  0.13092354186E+04  0.00000000000E+00 0. -1.
          1    1    1    2  502    0  0.27204692842E+02  0.16373621031E+03  0.52764754271E+03  0.55313793145E+03  0.00000000000E+00 0. -1.
         22    1    3    3    0    0  0.29283790876E+02 -0.17239479763E+03  0.32207092918E+02  0.17780552155E+03  0.00000000000E+00 0.  1.
         22    1    3    3    0    0 -0.18183772627E+02  0.13444602582E+02  0.22657957567E+02  0.32012340849E+02  0.00000000000E+00 0.  1.
</event>
<event>
 7    1  0.5622879E-006  0.1016136E+03  0.7818608E-02  0.1282423E+00
          2   -1    0    0  502    0  0.00000000000E+00  0.00000000000E+00  0.21481300598E+04  0.21481300598E+04  0.00000000000E+00 0. -1.
          1   -1    0    0  501    0 -0.00000000000E+00 -0.00000000000E+00 -0.21149060557E+03  0.21149060557E+03  0.00000000000E+00 0. -1.
         25    2    1    2    0    0 -0.26799557263E+02 -0.19123080062E+03  0.46677979610E+03  0.52038400540E+03  0.12501479776E+03 0.  0.
          2    1    1    2  501    0 -0.19448494282E+01  0.99169765394E+02 -0.16985101207E+03  0.19669212264E+03  0.00000000000E+00 0. -1.
          1    1    1    2  502    0  0.28744406691E+02  0.92061035230E+02  0.16397106702E+04  0.16425445374E+04  0.00000000000E+00 0. -1.
         22    1    3    3    0    0 -0.47239206458E+02 -0.31731726152E+02  0.20859076596E+03  0.21621413625E+03  0.00000000000E+00 0.  1.
         22    1    3    3    0    0  0.20439649196E+02 -0.15949907447E+03  0.25818903014E+03  0.30416986915E+03  0.00000000000E+00 0.  1.
</event>
<event>
 7    1  0.5622879E-006  0.1203047E+03  0.7818608E-02  0.1347768E+00
          2   -1    0    0  502    0  0.00000000000E+00  0.00000000000E+00  0.89356444700E+03  0.89356444700E+03  0.00000000000E+00 0. -1.
          1   -1    0    0  501    0 -0.00000000000E+00 -0.00000000000E+00 -0.74616853103E+02  0.74616853103E+02  0.00000000000E+00 0. -1.
         25    2    1    2    0    0  0.83675622180E+01  0.14494196841E+03  0.26576073517E+03  0.32761653251E+03  0.12500253482E+03 0.  0.
          2    1    1    2  501    0 -0.32816809611E+02 -0.31108041131E+02 -0.24385381299E+02  0.51374118359E+02  0.00000000000E+00 0. -1.
          1    1    1    2  502    0  0.24449247393E+02 -0.11383392728E+03  0.57757224002E+03  0.58919064923E+03  0.00000000000E+00 0. -1.
         22    1    3    3    0    0  0.65403193461E+01  0.20571651939E+02 -0.10972397335E+02  0.24214915733E+02  0.00000000000E+00 0.  1.
         22    1    3    3    0    0  0.18272428719E+01  0.12437031647E+03  0.27673313251E+03  0.30340161678E+03  0.00000000000E+00 0.  1.
</event>
<event>
 7    1  0.5622879E-006  0.7656769E+02  0.7818608E-02  0.1451959E+00
          2   -1    0    0  502    0  0.00000000000E+00  0.00000000000E+00  0.36750390251E+03  0.36750390251E+03  0.00000000000E+00 0. -1.
          1   -1    0    0  501    0 -0.00000000000E+00 -0.00000000000E+00 -0.11935092162E+04  0.11935092162E+04  0.00000000000E+00 0. -1.
         25    2    1    2    0    0 -0.43524901169E+02  0.26371838615E+02  0.19000063746E+03  0.23305494028E+03  0.12499788822E+03 0.  0.
          2    1    1    2  501    0  0.74011115359E+02 -0.20251864683E+02 -0.11691621482E+04  0.11716773925E+04  0.00000000000E+00 0. -1.
          1    1    1    2  502    0 -0.30486214190E+02 -0.61199739321E+01  0.15315619711E+03  0.15628078592E+03  0.00000000000E+00 0. -1.
         22    1    3    3    0    0 -0.72965619859E+02  0.37051880077E+02  0.18370860448E+03  0.20111110078E+03  0.00000000000E+00 0. -1.
         22    1    3    3    0    0  0.29440718690E+02 -0.10680041462E+02  0.62920329807E+01  0.31943839495E+02  0.00000000000E+00 0. -1.
</event>
<event>
 7    1  0.5622879E-006  0.8648154E+02  0.7818608E-02  0.1316035E+00
          2   -1    0    0  502    0  0.00000000000E+00  0.00000000000E+00  0.10700500959E+03  0.10700500959E+03  0.00000000000E+00 0. -1.
          1   -1    0    0  501    0 -0.00000000000E+00 -0.00000000000E+00 -0.12016852023E+04  0.12016852023E+04  0.00000000000E+00 0. -1.
         25    2    1    2    0    0  0.42889239420E+02 -0.62049911163E+02 -0.41136002936E+03  0.43650088968E+03  0.12500509829E+03 0.  0.
          2    1    1    2  501    0  0.41056273302E+02  0.82839532123E+02 -0.75452363762E+03  0.76016703782E+03  0.00000000000E+00 0. -1.
          1    1    1    2  502    0 -0.83945512722E+02 -0.20789620960E+02  0.71203474288E+02  0.11202228437E+03  0.00000000000E+00 0. -1.
         22    1    3    3    0    0  0.53648254005E+02 -0.46698481077E+02 -0.90552738571E+02  0.11514634929E+03  0.00000000000E+00 0.  1.
         22    1    3    3    0    0 -0.10759014586E+02 -0.15351430086E+02 -0.32080729079E+03  0.32135454038E+03  0.00000000000E+00 0.  1.
</event>
<event>
 7    1  0.5622879E-006  0.4732463E+02  0.7818608E-02  0.1556522E+00
          2   -1    0    0  502    0  0.00000000000E+00  0.00000000000E+00  0.19427243796E+03  0.19427243796E+03  0.00000000000E+00 0. -1.
          1   -1    0    0  501    0 -0.00000000000E+00 -0.00000000000E+00 -0.19892215458E+04  0.19892215458E+04  0.00000000000E+00 0. -1.
         25    2    1    2    0    0  0.51435894971E+02 -0.88851839627E+01 -0.44945636899E+03  0.46942563699E+03  0.12499921302E+03 0.  0.
          2    1    1    2  501    0 -0.44972824906E+02 -0.14856027901E+02 -0.15285908178E+04  0.15293244080E+04  0.00000000000E+00 0. -1.
          1    1    1    2  502    0 -0.64630700650E+01  0.23741211864E+02  0.18309807894E+03  0.18474393881E+03  0.00000000000E+00 0. -1.
         22    1    3    3    0    0  0.60127298815E+02  0.15801846014E+02 -0.43520846463E+03  0.43962643014E+03  0.00000000000E+00 0. -1.
         22    1    3    3    0    0 -0.86914038441E+01 -0.24687029977E+02 -0.14247904360E+02  0.29799206844E+02  0.00000000000E+00 0. -1.
</event>
<event>
 7    1  0.5622879E-006  0.7338521E+02  0.7818608E-02  0.1416624E+00
          2   -1    0    0  502    0  0.00000000000E+00  0.00000000000E+00  0.56702382772E+03  0.56702382772E+03  0.00000000000E+00 0. -1.
          1   -1    0    0  501    0 -0.00000000000E+00 -0.00000000000E+00 -0.40760576165E+02  0.40760576165E+02  0.00000000000E+00 0. -1.
         25    2    1    2    0    0 -0.99651786696E+01  0.39910869789E+02  0.39015906705E+03  0.41175324486E+03  0.12499781894E+03 0.  0.
          2    1    1    2  501    0  0.44034694821E+02 -0.65049521711E+02  0.34187671643E+02  0.85669665082E+02  0.00000000000E+00 0. -1.
          1    1    1    2  502    0 -0.34069516151E+02  0.25138651922E+02  0.10191651286E+03  0.11036149394E+03  0.00000000000E+00 0. -1.
         22    1    3    3    0    0 -0.23232950523E+01  0.13662031173E+02  0.38332231096E+03  0.38357273479E+03  0.00000000000E+00 0.  1.
         22    1    3    3    0    0 -0.76418836173E+01  0.26248838616E+02  0.68367560893E+01  0.28180510069E+02  0.00000000000E+00 0.  1.
</event>
<event>
 7    1  0.5622879E-006  0.1439871E+03  0.7818608E-02  0.1217632E+00
          2   -1    0    0  502    0  0.00000000000E+00  0.00000000000E+00  0.12913735303E+04  0.12913735303E+04  0.00000000000E+00 0. -1.
          1   -1    0    0  501    0 -0.00000000000E+00 -0.00000000000E+00 -0.16480806112E+04  0.16480806112E+04  0.00000000000E+00 0. -1.
         25    2    1    2    0    0 -0.13376528220E+03 -0.28538535283E+02  0.48814523503E+02  0.19161198178E+03  0.12499878056E+03 0.  0.
          2    1    1    2  501    0  0.10720428472E+03 -0.98786189240E+02 -0.15696828514E+04  0.15764376689E+04  0.00000000000E+00 0. -1.
          1    1    1    2  502    0  0.26560997479E+02  0.12732472452E+03  0.11641612470E+04  0.11714044908E+04  0.00000000000E+00 0. -1.
         22    1    3    3    0    0 -0.61803030023E+02  0.47202284784E+02  0.38244739618E+01  0.77860752693E+02  0.00000000000E+00 0. -1.
         22    1    3    3    0    0 -0.71962252174E+02 -0.75740820066E+02  0.44990049541E+02  0.11375122909E+03  0.00000000000E+00 0. -1.
</event>
<event>
 7    1  0.5622879E-006  0.7110964E+02  0.7818608E-02  0.1357572E+00
          2   -1    0    0  502    0  0.00000000000E+00  0.00000000000E+00  0.76485603787E+03  0.76485603787E+03  0.00000000000E+00 0. -1.
          1   -1    0    0  501    0 -0.00000000000E+00 -0.00000000000E+00 -0.31516205270E+02  0.31516205270E+02  0.00000000000E+00 0. -1.
         25    2    1    2    0    0  0.34678688262E+02  0.17250514035E+02  0.36510812081E+03  0.38785105547E+03  0.12499723874E+03 0.  0.
          2    1    1    2  501    0  0.36459039099E+02  0.61051773387E+02  0.14689808330E+03  0.16320425068E+03  0.00000000000E+00 0. -1.
          1    1    1    2  502    0 -0.71137727361E+02 -0.78302287421E+02  0.22133362850E+03  0.24531693699E+03  0.00000000000E+00 0. -1.
         22    1    3    3    0    0  0.67518609158E+02 -0.28597631716E+02  0.18064501612E+03  0.19495950598E+03  0.00000000000E+00 0. -1.
         22    1    3    3    0    0 -0.32839920896E+02  0.45848145750E+02  0.18446310468E+03  0.19289154949E+03  0.00000000000E+00 0. -1.
</event>
<event>
 7    1  0.5622879E-006  0.6017781E+02  0.7818608E-02  0.1477227E+00
          2   -1    0    0  502    0  0.00000000000E+00  0.00000000000E+00  0.22582591161E+04  0.22582591161E+04  0.00000000000E+00 0. -1.
          1   -1    0    0  501    0 -0.00000000000E+00 -0.00000000000E+00 -0.12455090258E+04  0.12455090258E+04  0.00000000000E+00 0. -1.
         25    2    1    2    0    0  0.60144038111E+02 -0.68664502964E+02  0.65612633977E+03  0.67413609626E+03  0.12500233302E+03 0.  0.
          2    1    1    2  501    0 -0.21008271783E+02  0.25406824177E+02 -0.12357502491E+04  0.12361899257E+04  0.00000000000E+00 0. -1.
          1    1    1    2  502    0 -0.39135766327E+02  0.43257678786E+02  0.15923739996E+04  0.15934421200E+04  0.00000000000E+00 0. -1.
         22    1    3    3    0    0  0.70732230637E+02 -0.34430157751E+02  0.61316919088E+03  0.61819490524E+03  0.00000000000E+00 0.  1.
         22    1    3    3    0    0 -0.10588192526E+02 -0.34234345213E+02  0.42957148888E+02  0.55941191029E+02  0.00000000000E+00 0.  1.
</event>
<event>
 7    1  0.5622879E-006  0.3342476E+03  0.7818608E-02  0.1207373E+00
          2   -1    0    0  502    0  0.00000000000E+00  0.00000000000E+00  0.12626588547E+04  0.12626588547E+04  0.00000000000E+00 0. -1.
          1   -1    0    0  501    0 -0.00000000000E+00 -0.00000000000E+00 -0.39757102520E+03  0.39757102520E+03  0.00000000000E+00 0. -1.
         25    2    1    2    0    0 -0.32164758371E+03  0.17200704371E+03  0.61114588908E+03  0.72261023517E+03  0.12499065182E+03 0.  0.
          2    1    1    2  501    0  0.26498936440E+03 -0.19836012453E+03 -0.25936760105E+03  0.42052069476E+03  0.00000000000E+00 0. -1.
          1    1    1    2  502    0  0.56658219302E+02  0.26353080814E+02  0.51330954150E+03  0.51709894998E+03  0.00000000000E+00 0. -1.
         22    1    3    3    0    0 -0.28910729918E+03  0.10998373164E+03  0.44150657205E+03  0.53908023969E+03  0.00000000000E+00 0. -1.
         22    1    3    3    0    0 -0.32540284530E+02  0.62023312071E+02  0.16963931703E+03  0.18352999548E+03  0.00000000000E+00 0. -1.
</event>
<event>
 7    1  0.5622879E-006  0.9396332E+02  0.7818608E-02  0.1344325E+00
          2   -1    0    0  502    0  0.00000000000E+00  0.00000000000E+00  0.55080967585E+02  0.55080967585E+02  0.00000000000E+00 0. -1.
          1   -1    0    0  501    0 -0.00000000000E+00 -0.00000000000E+00 -0.25444544944E+04  0.25444544944E+04  0.00000000000E+00 0. -1.
         25    2    1    2    0    0 -0.78542030746E+02 -0.96505078489E+02 -0.40400261090E+03  0.44082468035E+03  0.12500483357E+03 0.  0.
          2    1    1    2  501    0  0.59193314485E+02  0.72062775968E+01 -0.20640164213E+04  0.20648776153E+04  0.00000000000E+00 0. -1.
          1    1    1    2  502    0  0.19348716262E+02  0.89298800892E+02 -0.21354494633E+02  0.93833166326E+02  0.00000000000E+00 0. -1.
         22    1    3    3    0    0 -0.79773028870E+02 -0.55574894929E+01 -0.13552584745E+03  0.15735907077E+03  0.00000000000E+00 0.  1.
         22    1    3    3    0    0  0.12309981235E+01 -0.90947588996E+02 -0.26847676345E+03  0.28346560958E+03  0.00000000000E+00 0.  1.
</event>
<event>
 7    1  0.5622879E-006  0.6415306E+02  0.7818608E-02  0.1424003E+00
          2   -1    0    0  502    0  0.00000000000E+00  0.00000000000E+00  0.38152952683E+03  0.38152952683E+03  0.00000000000E+00 0. -1.
          1   -1    0    0  501    0 -0.00000000000E+00 -0.00000000000E+00 -0.33834019974E+03  0.33834019974E+03  0.00000000000E+00 0. -1.
         25    2    1    2    0    0 -0.41620556945E+02  0.87437237369E+01  0.46588730781E+02  0.14001704677E+03  0.12500216032E+03 0.  0.
          2    1    1    2  501    0  0.55401181179E+02  0.34894240480E+02 -0.28608766690E+03  0.29348433015E+03  0.00000000000E+00 0. -1.
          1    1    1    2  502    0 -0.13780624235E+02 -0.43637964217E+02  0.28268826320E+03  0.28636834964E+03  0.00000000000E+00 0. -1.
         22    1    3    3    0    0 -0.28368235622E+01 -0.27486209728E+02  0.74921370869E+02  0.79854562212E+02  0.00000000000E+00 0.  1.
         22    1    3    3    0    0 -0.38783733382E+02  0.36229933465E+02 -0.28332640088E+02  0.60162484559E+02  0.00000000000E+00 0.  1.
</event>
<event>
 7    1  0.5622879E-006  0.5938723E+02  0.7818608E-02  0.1442552E+00
          2   -1    0    0  502    0  0.00000000000E+00  0.00000000000E+00  0.96888595562E+03  0.96888595562E+03  0.00000000000E+00 0. -1.
          1   -1    0    0  501    0 -0.00000000000E+00 -0.00000000000E+00 -0.42218011613E+03  0.42218011613E+03  0.00000000000E+00 0. -1.
         25    2    1    2    0    0 -0.56413034128E+02 -0.40823651065E+02 -0.94100031053E+02  0.17125331591E+03  0.12499552576E+03 0.  0.
          2    1    1    2  501    0  0.59612877319E+02 -0.20354653066E+01 -0.28592775932E+03  0.29208307347E+03  0.00000000000E+00 0. -1.
          1    1    1    2  502    0 -0.31998431908E+01  0.42859116372E+02  0.92673362986E+03  0.92772968238E+03  0.00000000000E+00 0. -1.
         22    1    3    3    0    0 -0.12428616800E+02 -0.79550911568E+01  0.31165165103E+02  0.34482191154E+02  0.00000000000E+00 0. -1.
         22    1    3    3    0    0 -0.43984417328E+02 -0.32868559908E+02 -0.12526519616E+03  0.13677112475E+03  0.00000000000E+00 0. -1.
</event>
<event>
 7    1  0.5622879E-006  0.4979137E+02  0.7818608E-02  0.1455589E+00
          2   -1    0    0  502    0  0.00000000000E+00  0.00000000000E+00  0.26751484599E+03  0.26751484599E+03  0.00000000000E+00 0. -1.
          1   -1    0    0  501    0 -0.00000000000E+00 -0.00000000000E+00 -0.14082794759E+03  0.14082794759E+03  0.00000000000E+00 0. -1.
         25    2    1    2    0    0 -0.61457809540E+01  0.26186137172E+02 -0.10568599227E+02  0.12826184520E+03  0.12496367969E+03 0.  0.
          2    1    1    2  501    0 -0.44163476563E+02 -0.14747300313E+02 -0.60138316530E+02  0.76055983615E+02  0.00000000000E+00 0. -1.
          1    1    1    2  502    0  0.50309257517E+02 -0.11438836859E+02  0.19739381415E+03  0.20402496476E+03  0.00000000000E+00 0. -1.
         22    1    3    3    0    0 -0.57299941487E+02  0.46828817068E+01 -0.35350173734E+02  0.67489610004E+02  0.00000000000E+00 0. -1.
         22    1    3    3    0    0  0.51154160533E+02  0.21503255465E+02  0.24781574507E+02  0.60772235194E+02  0.00000000000E+00 0. -1.
</event>
<event>
 7    1  0.5622879E-006  0.7937185E+02  0.7818608E-02  0.1471165E+00
          2   -1    0    0  502    0  0.00000000000E+00  0.00000000000E+00  0.57808250555E+03  0.57808250555E+03  0.00000000000E+00 0. -1.
          1   -1    0    0  501    0 -0.00000000000E+00 -0.00000000000E+00 -0.41528801354E+03  0.41528801354E+03  0.00000000000E+00 0. -1.
         25    2    1    2    0    0  0.58106038873E+02 -0.86264782973E+02 -0.35881485895E+03  0.39394250921E+03  0.12499869211E+03 0.  0.
          2    1    1    2  501    0 -0.19873846705E+02  0.16914966912E+02 -0.31370425472E+02  0.40806733302E+02  0.00000000000E+00 0. -1.
          1    1    1    2  502    0 -0.38232192168E+02  0.69349816061E+02  0.55297977642E+03  0.55862127657E+03  0.00000000000E+00 0. -1.
         22    1    3    3    0    0  0.25149786426E+02 -0.43220619446E+02 -0.25282948512E+02  0.56033571973E+02  0.00000000000E+00 0. -1.
         22    1    3    3    0    0  0.32956252447E+02 -0.43044163527E+02 -0.33353191043E+03  0.33790893724E+03  0.00000000000E+00 0. -1.
</event>
<event>
 7    1  0.5622879E-006  0.2471148E+03  0.7818608E-02  0.1253761E+00
          2   -1    0    0  502    0  0.00000000000E+00  0.00000000000E+00  0.40186363470E+03  0.40186363470E+03  0.00000000000E+00 0. -1.
          1   -1    0    0  501    0 -0.00000000000E+00 -0.00000000000E+00 -0.68442691952E+03  0.68442691952E+03  0.00000000000E+00 0. -1.
         25    2    1    2    0    0 -0.11343832595E+03 -0.23672554050E+03 -0.49506180029E+03  0.57412414106E+03  0.12500043167E+03 0.  0.
          2    1    1    2  501    0  0.72054783091E+02  0.20463156803E+03 -0.67583732490E+02  0.22723012850E+03  0.00000000000E+00 0. -1.
          1    1    1    2  502    0  0.41383542858E+02  0.32093972466E+02  0.28008224797E+03  0.28493628466E+03  0.00000000000E+00 0. -1.
         22    1    3    3    0    0 -0.11388989690E+03 -0.24551671126E+03 -0.42735476174E+03  0.50584726599E+03  0.00000000000E+00 0. -1.
         22    1    3    3    0    0  0.45157094986E+00  0.87911707642E+01 -0.67707038552E+02  0.68276875069E+02  0.00000000000E+00 0. -1.
</event>
<event>
 7    1  0.5622879E-006  0.3061659E+03  0.7818608E-02  0.1259174E+00
          2   -1    0    0  502    0  0.00000000000E+00  0.00000000000E+00  0.20255768506E+04  0.20255768506E+04  0.00000000000E+00 0. -1.
          1   -1    0    0  501    0 -0.00000000000E+00 -0.00000000000E+00 -0.10851280228E+04  0.10851280228E+04  0.00000000000E+00 0. -1.
         25    2    1    2    0    0  0.23002049982E+03  0.22232655555E+03 -0.67612392598E+03  0.75835763165E+03  0.12499682616E+03 0.  0.
          2    1    1    2  501    0 -0.37088862138E+02  0.15158986107E+02 -0.35495904922E+03  0.35721324888E+03  0.00000000000E+00 0. -1.
          1    1    1    2  502    0 -0.19293163768E+03 -0.23748554165E+03  0.19715318030E+04  0.19951339929E+04  0.00000000000E+00 0. -1.
         22    1    3    3    0    0  0.24211701524E+03  0.21110257704E+03 -0.66481672959E+03  0.73835373030E+03  0.00000000000E+00 0. -1.
         22    1    3    3    0    0 -0.12096515421E+02  0.11223978502E+02 -0.11307196389E+02  0.20003901343E+02  0.00000000000E+00 0. -1.
</event>
<event>
 7    1  0.5622879E-006  0.9733641E+02  0.7818608E-02  0.1349866E+00
          2   -1    0    0  502    0  0.00000000000E+00  0.00000000000E+00  0.69167474521E+03  0.69167474521E+03  0.00000000000E+00 0. -1.
          1   -1    0    0  501    0 -0.00000000000E+00 -0.00000000000E+00 -0.24797176797E+03  0.24797176797E+03  0.00000000000E+00 0. -1.
         25    2    1    2    0    0  0.67947534184E+02  0.77951055140E+01  0.22503660624E+03  0.26635196870E+03  0.12499706401E+03 0.  0.
          2    1    1    2  501    0 -0.89371335794E+02  0.42746206657E+02 -0.21470585376E+03  0.23645946267E+03  0.00000000000E+00 0. -1.
          1    1    1    2  502    0  0.21423801609E+02 -0.50541312171E+02  0.43337222476E+03  0.43683508181E+03  0.00000000000E+00 0. -1.
         22    1    3    3    0    0  0.75679776149E+02  0.55250184137E+02  0.16087644860E+03  0.18617530202E+03  0.00000000000E+00 0. -1.
         22    1    3    3    0    0 -0.77322419650E+01 -0.47455078623E+02  0.64160157633E+02  0.80176666683E+02  0.00000000000E+00 0. -1.
</event>
<event>
 7    1  0.5622879E-006  0.6301399E+02  0.7818608E-02  0.1445733E+00
          2   -1    0    0  502    0  0.00000000000E+00  0.00000000000E+00  0.10240027011E+03  0.10240027011E+03  0.00000000000E+00 0. -1.
          1   -1    0    0  501    0 -0.00000000000E+00 -0.00000000000E+00 -0.61235946072E+03  0.61235946072E+03  0.00000000000E+00 0. -1.
         25    2    1    2    0    0  0.63040697318E+02 -0.30891931207E+02 -0.22795759676E+03  0.26929192819E+03  0.12500014295E+03 0.  0.
          2    1    1    2  501    0 -0.62870554757E+02 -0.86665114917E+01 -0.35597125061E+03  0.36158449405E+03  0.00000000000E+00 0. -1.
          1    1    1    2  502    0 -0.17014256139E+00  0.39558442699E+02  0.73969656764E+02  0.83883308585E+02  0.00000000000E+00 0. -1.
         22    1    3    3    0    0  0.55643555528E+01 -0.71872832175E+02 -0.10200060844E+03  0.12490312318E+03  0.00000000000E+00 0.  1.
         22    1    3    3    0    0  0.57476341765E+02  0.40980900967E+02 -0.12595698832E+03  0.14438880501E+03  0.00000000000E+00 0.  1.
</event>
<event>
 7    1  0.5622879E-006  0.6825795E+02  0.7818608E-02  0.1474533E+00
          2   -1    0    0  502    0  0.00000000000E+00  0.00000000000E+00  0.81680275342E+01  0.81680275342E+01  0.00000000000E+00 0. -1.
          1   -1    0    0  501    0 -0.00000000000E+00 -0.00000000000E+00 -0.23909716104E+04  0.23909716104E+04  0.00000000000E+00 0. -1.
         25    2    1    2    0    0 -0.88619879301E+01  0.74751712640E+02 -0.19133242269E+04  0.19188801272E+04  0.12499996784E+03 0.  0.
          2    1    1    2  501    0 -0.25061989591E+02 -0.15799580295E+02 -0.20706690852E+03  0.20917560724E+03  0.00000000000E+00 0. -1.
          1    1    1    2  502    0  0.33923977522E+02 -0.58952132345E+02 -0.26241244749E+03  0.27108390354E+03  0.00000000000E+00 0. -1.
         22    1    3    3    0    0 -0.57432686209E+02  0.59751199951E+02 -0.77444995026E+03  0.77887190525E+03  0.00000000000E+00 0.  1.
         22    1    3    3    0    0  0.48570698279E+02  0.15000512690E+02 -0.11388742766E+04  0.11400082219E+04  0.00000000000E+00 0.  1.
</event>
<event>
 7    1  0.5622879E-006  0.5687058E+02  0.7818608E-02  0.1428952E+00
          2   -1    0    0  502    0  0.00000000000E+00  0.00000000000E+00  0.12100435969E+04  0.12100435969E+04  0.00000000000E+00 0. -1.
          1   -1    0    0  501    0 -0.00000000000E+00 -0.00000000000E+00 -0.35278298653E+03  0.35278298653E+03  0.00000000000E+00 0. -1.
         25    2    1    2    0    0 -0.10490625385E+02  0.33341424083E+01  0.11441297508E+03  0.16981615695E+03  0.12500411421E+03 0.  0.
          2    1    1    2  501    0 -0.44912629111E+02 -0.21310617260E+02 -0.32238058140E+03  0.32619093477E+03  0.00000000000E+00 0. -1.
          1    1    1    2  502    0  0.55403254495E+02  0.17976474852E+02  0.10652282167E+04  0.10668194917E+04  0.00000000000E+00 0. -1.
         22    1    3    3    0    0  0.24910671626E+02 -0.43411451088E+02  0.96155099768E+02  0.10840156299E+03  0.00000000000E+00 0. -1.
         22    1    3    3    0    0 -0.35401297010E+02  0.46745593496E+02  0.18257875314E+02  0.61414593968E+02  0.00000000000E+00 0. -1.
</event>
<event>
 7    1  0.5622879E-006  0.1462806E+03  0.7818608E-02  0.1309468E+00
          2   -1    0    0  502    0  0.00000000000E+00  0.00000000000E+00  0.62311051052E+03  0.62311051052E+03  0.00000000000E+00 0. -1.
          1   -1    0    0  501    0 -0.00000000000E+00 -0.00000000000E+00 -0.88463220967E+03  0.88463220967E+03  0.00000000000E+00 0. -1.
         25    2    1    2    0    0  0.10575962868E+03 -0.72238055157E+02 -0.41792529131E+03  0.45463139609E+03  0.12499888608E+03 0.  0.
          2    1    1    2  501    0 -0.10586494962E+03  0.12436554389E+03 -0.43229047383E+03  0.46211387106E+03  0.00000000000E+00 0. -1.
          1    1    1    2  502    0  0.10532094140E+00 -0.52127488736E+02  0.58869406599E+03  0.59099745305E+03  0.00000000000E+00 0. -1.
         22    1    3    3    0    0 -0.10434401967E+02  0.14765179908E+02 -0.80121501142E+01  0.19775789026E+02  0.00000000000E+00 0.  1.
         22    1    3    3    0    0  0.11619403065E+03 -0.87003235065E+02 -0.40991314120E+03  0.43485560706E+03  0.00000000000E+00 0.  1.
</event>
<event>
 7    1  0.5622879E-006  0.3371274E+02  0.7818608E-02  0.1580779E+00
          2   -1    0    0  502    0  0.00000000000E+00  0.00000000000E+00  0.14122704209E+03  0.14122704209E+03  0.00000000000E+00 0. -1.
          1   -1    0    0  501    0 -0.00000000000E+00 -0.00000000000E+00 -0.13903186774E+04  0.13903186774E+04  0.00000000000E+00 0. -1.
         25    2    1    2    0    0 -0.18603338135E+02 -0.17527689749E+02 -0.25070136888E+03  0.28129327107E+03  0.12498569474E+03 0.  0.
          2    1    1    2  501    0  0.25164425861E+02 -0.15715940072E+02 -0.11218422820E+04  0.11222345320E+04  0.00000000000E+00 0. -1.
          1    1    1    2  502    0 -0.65610877261E+01  0.33243629821E+02  0.12345201554E+03  0.12801791647E+03  0.00000000000E+00 0. -1.
         22    1    3    3    0    0 -0.17875566509E+02 -0.38912508162E+02 -0.16147246832E+02  0.45765191464E+02  0.00000000000E+00 0. -1.
         22    1    3    3    0    0 -0.72777162576E+00  0.21384818413E+02 -0.23455412205E+03  0.23552807960E+03  0.00000000000E+00 0. -1.
</event>
<event>
 7    1  0.5622879E-006  0.1013572E+03  0.7818608E-02  0.1309234E+00
          2   -1    0    0  502    0  0.00000000000E+00  0.00000000000E+00  0.29631078713E+04  0.29631078713E+04  0.00000000000E+00 0. -1.
          1   -1    0    0  501    0 -0.00000000000E+00 -0.00000000000E+00 -0.60189950914E+03  0.60189950914E+03  0.00000000000E+00 0. -1.
         25    2    1    2    0    0  0.70279351186E+02  0.67053352637E+02  0.13617995768E+04  0.13709709001E+04  0.12501112877E+03 0.  0.
          2    1    1    2  501    0 -0.10144597088E+03  0.15946435066E+01 -0.59210667366E+03  0.60073633225E+03  0.00000000000E+00 0. -1.
          1    1    1    2  502    0  0.31166619698E+02 -0.68647996143E+02  0.15915154590E+04  0.15933001481E+04  0.00000000000E+00 0. -1.
         22    1    3    3    0    0  0.13110157059E+00 -0.21573095036E+02  0.51918292492E+02  0.56222101636E+02  0.00000000000E+00 0. -1.
         22    1    3    3    0    0  0.70148249616E+02  0.88626447673E+02  0.13098812843E+04  0.13147487985E+04  0.00000000000E+00 0. -1.
</event>
<event>
 7    1  0.5622879E-006  0.6252590E+02  0.7818608E-02  0.1516403E+00
          2   -1    0    0  502    0  0.00000000000E+00  0.00000000000E+00  0.32662141559E+03  0.32662141559E+03  0.00000000000E+00 0. -1.
          1   -1    0    0  501    0 -0.00000000000E+00 -0.00000000000E+00 -0.81884718518E+03  0.81884718518E+03  0.00000000000E+00 0. -1.
         25    2    1    2    0    0 -0.39088910069E+02  0.68108776328E+02 -0.27609077434E+03  0.31307820502E+03  0.12500039391E+03 0.  0.
          2    1    1    2  501    0  0.22898589051E+02 -0.78645396637E+01 -0.52082121062E+03  0.52138366852E+03  0.00000000000E+00 0. -1.
          1    1    1    2  502    0  0.16190321018E+02 -0.60244236664E+02  0.30468621537E+03  0.31100672723E+03  0.00000000000E+00 0. -1.
         22    1    3    3    0    0 -0.38473810263E+02  0.10011891682E+03 -0.24907473058E+03  0.27118674930E+03  0.00000000000E+00 0.  1.
         22    1    3    3    0    0 -0.61509980588E+00 -0.32010140488E+02 -0.27016043760E+02  0.41891455719E+02  0.00000000000E+00 0.  1.
</event>
<event>
 7    1  0.5622879E-006  0.2113398E+03  0.7818608E-02  0.1316036E+00
          2   -1    0    0  502    0  0.00000000000E+00  0.00000000000E+00  0.17774446229E+04  0.17774446229E+04  0.00000000000E+00 0. -1.
          1   -1    0    0  501    0 -0.00000000000E+00 -0.00000000000E+00 -0.11204810186E+03  0.11204810186E+03  0.00000000000E+00 0. -1.
         25    2    1    2    0    0 -0.19315201145E+03  0.45449269342E+02  0.67723167221E+03  0.71668757655E+03  0.12500003573E+03 0.  0.
          2    1    1    2  501    0  0.19886713455E+03 -0.78967130348E+02  0.32370909123E+02  0.21640660951E+03  0.00000000000E+00 0. -1.
          1    1    1    2  502    0 -0.57151231067E+01  0.33517861007E+02  0.95579393968E+03  0.95639853866E+03  0.00000000000E+00 0. -1.
         22    1    3    3    0    0 -0.50428009948E+01 -0.30386895825E+02  0.69939818597E+02  0.76422323343E+02  0.00000000000E+00 0.  1.
         22    1    3    3    0    0 -0.18810921045E+03  0.75836165167E+02  0.60729185361E+03  0.64026525321E+03  0.00000000000E+00 0.  1.
</event>
<event>
 7    1  0.5622879E-006  0.4841679E+02  0.7818608E-02  0.1489685E+00
          2   -1    0    0  502    0  0.00000000000E+00  0.00000000000E+00  0.14344676326E+04  0.14344676326E+04  0.00000000000E+00 0. -1.
          1   -1    0    0  501    0 -0.00000000000E+00 -0.00000000000E+00 -0.46265304213E+02  0.46265304213E+02  0.00000000000E+00 0. -1.
         25    2    1    2    0    0  0.83506257031E+00  0.82556192978E+02  0.57976232489E+03  0.59880508954E+03  0.12500783803E+03 0.  0.
          2    1    1    2  501    0  0.65415917015E+01 -0.36965437226E+02 -0.26347919290E+02  0.45863371248E+02  0.00000000000E+00 0. -1.
          1    1    1    2  502    0 -0.73766542718E+01 -0.45590755751E+02  0.83478792279E+03  0.83606447603E+03  0.00000000000E+00 0. -1.
         22    1    3    3    0    0 -0.38534109004E+02  0.99408660719E+02  0.39398271702E+03  0.40815357489E+03  0.00000000000E+00 0. -1.
         22    1    3    3    0    0  0.39369171575E+02 -0.16852467741E+02  0.18577960787E+03  0.19065151465E+03  0.00000000000E+00 0. -1.
</event>
<event>
 7    1  0.5622879E-006  0.4215676E+02  0.7818608E-02  0.1508150E+00
          2   -1    0    0  502    0  0.00000000000E+00  0.00000000000E+00  0.34565115978E+03  0.34565115978E+03  0.00000000000E+00 0. -1.
          1   -1    0    0  501    0 -0.00000000000E+00 -0.00000000000E+00 -0.54661004585E+03  0.54661004585E+03  0.00000000000E+00 0. -1.
         25    2    1    2    0    0  0.59863826947E+02  0.92650415570E+01  0.11224633512E+01  0.13890870149E+03  0.12499939462E+03 0.  0.
          2    1    1    2  501    0 -0.36610732106E+02  0.20751260321E+02 -0.47547556692E+03  0.47733423850E+03  0.00000000000E+00 0. -1.
          1    1    1    2  502    0 -0.23253094842E+02 -0.30016301878E+02  0.27339421750E+03  0.27601826563E+03  0.00000000000E+00 0. -1.
         22    1    3    3    0    0  0.64697786444E+02  0.34374087584E+02  0.46534992216E+02  0.86792205690E+02  0.00000000000E+00 0.  1.
         22    1    3    3    0    0 -0.48339594966E+01 -0.25109046027E+02 -0.45412528864E+02  0.52116495802E+02  0.00000000000E+00 0.  1.
</event>
<event>
 7    1  0.5622879E-006  0.8626546E+02  0.7818608E-02  0.1449253E+00
          2   -1    0    0  502    0  0.00000000000E+00  0.00000000000E+00  0.98136175856E+03  0.98136175856E+03  0.00000000000E+00 0. -1.
          1   -1    0    0  501    0 -0.00000000000E+00 -0.00000000000E+00 -0.16750085593E+03  0.16750085593E+03  0.00000000000E+00 0. -1.
         25    2    1    2    0    0 -0.79431749910E+02 -0.75707198247E+02  0.38479921738E+03  0.41920905312E+03  0.12499923904E+03 0.  0.
          2    1    1    2  501    0  0.23781125663E+02  0.15069960977E+02 -0.14602144292E+03  0.14871081821E+03  0.00000000000E+00 0. -1.
          1    1    1    2  502    0  0.55650624246E+02  0.60637237270E+02  0.57508312817E+03  0.58094274316E+03  0.00000000000E+00 0. -1.
         22    1    3    3    0    0  0.21360846030E+02 -0.32661317209E+02  0.20466515843E+03  0.20835276447E+03  0.00000000000E+00 0. -1.
         22    1    3    3    0    0 -0.10079259594E+03 -0.43045881038E+02  0.18013405895E+03  0.21085628865E+03  0.00000000000E+00 0. -1.
</event>
<event>
 7    1  0.5622879E-006  0.7802100E+02  0.7818608E-02  0.1383717E+00
          2   -1    0    0  502    0  0.00000000000E+00  0.00000000000E+00  0.31702179235E+04  0.31702179235E+04  0.00000000000E+00 0. -1.
          1   -1    0    0  501    0 -0.00000000000E+00 -0.00000000000E+00 -0.30303730000E+02  0.30303730000E+02  0.00000000000E+00 0. -1.
         25    2    1    2    0    0  0.81767591033E+02  0.63823681973E+02  0.99979065987E+03  0.10128989815E+04  0.12499432690E+03 0.  0.
          2    1    1    2  501    0 -0.76130407677E+02 -0.12455769645E+02  0.40061123697E+02  0.86924558108E+02  0.00000000000E+00 0. -1.
          1    1    1    2  502    0 -0.56371833565E+01 -0.51367912327E+02  0.21000624099E+04  0.21006981139E+04  0.00000000000E+00 0. -1.
         22    1    3    3    0    0  0.51340281260E+02  0.87209496110E+02  0.42716806632E+03  0.43899188782E+03  0.00000000000E+00 0.  1.
         22    1    3    3    0    0  0.30427309774E+02 -0.23385814137E+02  0.57262259354E+03  0.57390709363E+03  0.00000000000E+00 0.  1.
</event>
<event>
 7    1  0.5622879E-006  0.1586258E+03  0.7818608E-02  0.1239581E+00
          2   -1    0    0  502    0  0.00000000000E+00  0.00000000000E+00  0.28594275472E+03  0.28594275472E+03  0.00000000000E+00 0. -1.
          1   -1    0    0  501    0 -0.00000000000E+00 -0.00000000000E+00 -0.28447445914E+03  0.28447445914E+03  0.00000000000E+00 0. -1.
         25    2    1    2    0    0 -0.15486762389E+03 -0.12893662994E+03 -0.10967448310E+03  0.26127578448E+03  0.12501163082E+03 0.  0.
          2    1    1    2  501    0  0.48843233318E+01  0.93944992828E+02 -0.31515881083E+02  0.99210730530E+02  0.00000000000E+00 0. -1.
          1    1    1    2  502    0  0.14998330056E+03  0.34991637116E+02  0.14265865976E+03  0.20993069885E+03  0.00000000000E+00 0. -1.
         22    1    3    3    0    0 -0.16006037561E+03 -0.76706555943E+02 -0.10994996986E+03  0.20878748870E+03  0.00000000000E+00 0. -1.
         22    1    3    3    0    0  0.51927517245E+01 -0.52230074001E+02  0.27548675637E+00  0.52488295777E+02  0.00000000000E+00 0. -1.
</event>
<event>
 7    1  0.5622879E-006  0.5770320E+02  0.7818608E-02  0.1448852E+00
          2   -1    0    0  502    0  0.00000000000E+00  0.00000000000E+00  0.47142672479E+03  0.47142672479E+03  0.00000000000E+00 0. -1.
          1   -1    0    0  501    0 -0.00000000000E+00 -0.00000000000E+00 -0.37906562515E+02  0.37906562515E+02  0.00000000000E+00 0. -1.
         25    2    1    2    0    0  0.34175242736E+02  0.12544106403E+02  0.12306292040E+03  0.17914924746E+03  0.12499867466E+03 0.  0.
          2    1    1    2  501    0  0.23396397441E+02 -0.35138099262E+02  0.68633050928E+02  0.80576504718E+02  0.00000000000E+00 0. -1.
          1    1    1    2  502    0 -0.57571640176E+02  0.22593992860E+02  0.24182419094E+03  0.24960753512E+03  0.00000000000E+00 0. -1.
         22    1    3    3    0    0 -0.13789566000E+02 -0.49523606769E+02  0.42429927758E+02  0.66656121455E+02  0.00000000000E+00 0.  1.
         22    1    3    3    0    0  0.47964808736E+02  0.62067713171E+02  0.80632992644E+02  0.11249312600E+03  0.00000000000E+00 0.  1.
</event>
<event>
 7    1  0.5622879E-006  0.1176962E+03  0.7818608E-02  0.1306503E+00
          2   -1    0    0  502    0  0.00000000000E+00  0.00000000000E+00  0.22897424142E+04  0.22897424142E+04  0.00000000000E+00 0. -1.
          1   -1    0    0  501    0 -0.00000000000E+00 -0.00000000000E+00 -0.24659270727E+03  0.24659270727E+03  0.00000000000E+00 0. -1.
         25    2    1    2    0    0 -0.15545744582E+03 -0.91864969981E+02  0.37798728339E+03  0.43715598937E+03  0.12499912984E+03 0.  0.
          2    1    1    2  501    0  0.56985582292E+02  0.34392744884E+02 -0.21013213408E+03  0.22042171233E+03  0.00000000000E+00 0. -1.
          1    1    1    2  502    0  0.98471863526E+02  0.57472225097E+02  0.18752945576E+04  0.18787574198E+04  0.00000000000E+00 0. -1.
         22    1    3    3    0    0 -0.97242038466E+02 -0.55205025043E+02  0.34137834358E+03  0.35922525287E+03  0.00000000000E+00 0. -1.
         22    1    3    3    0    0 -0.58215407352E+02 -0.36659944938E+02  0.36608939810E+02  0.77930736491E+02  0.00000000000E+00 0. -1.
</event>
<event>
 7    1  0.5622879E-006  0.9588106E+02  0.7818608E-02  0.1302177E+00
          2   -1    0    0  502    0  0.00000000000E+00  0.00000000000E+00  0.54531122291E+02  0.54531122291E+02  0.00000000000E+00 0. -1.
          1   -1    0    0  501    0 -0.00000000000E+00 -0.00000000000E+00 -0.60101429937E+03  0.60101429937E+03  0.00000000000E+00 0. -1.
         25    2    1    2    0    0 -0.45484452998E+01 -0.77540636727E+02 -0.16416829222E+03  0.22047355303E+03  0.12499648282E+03 0.  0.
          2    1    1    2  501    0 -0.80449241210E+02  0.76433336867E+02 -0.28509562096E+03  0.30593079035E+03  0.00000000000E+00 0. -1.
          1    1    1    2  502    0  0.84997686510E+02  0.11072998605E+01 -0.97219263900E+02  0.12914107828E+03  0.00000000000E+00 0. -1.
         22    1    3    3    0    0  0.83786799345E+01 -0.10847513207E+03 -0.14677975560E+03  0.18270564635E+03  0.00000000000E+00 0. -1.
         22    1    3    3    0    0 -0.12927125234E+02  0.30934495344E+02 -0.17388536617E+02  0.37767906676E+02  0.00000000000E+00 0. -1.
</event>
<event>
 7    1  0.5622879E-006  0.9287884E+02  0.7818608E-02  0.1390654E+00
          2   -1    0    0  502    0  0.00000000000E+00  0.00000000000E+00  0.61220026247E+03  0.61220026247E+03  0.00000000000E+00 0. -1.
          1   -1    0    0  501    0 -0.00000000000E+00 -0.00000000000E+00 -0.82001794024E+03  0.82001794024E+03  0.00000000000E+00 0. -1.
         25    2    1    2    0    0 -0.14739924467E+02 -0.54804540052E+02 -0.26226777695E+03  0.29602280777E+03  0.12499725162E+03 0.  0.
          2    1    1    2  501    0 -0.31495184781E+02 -0.26322743657E+02 -0.53642215268E+03  0.53799029674E+03  0.00000000000E+00 0. -1.
          1    1    1    2  502    0  0.46235109248E+02  0.81127283709E+02  0.59087225186E+03  0.59820509820E+03  0.00000000000E+00 0. -1.
         22    1    3    3    0    0  0.10793562761E+02 -0.88492469345E+02 -0.21420804529E+03  0.23201832857E+03  0.00000000000E+00 0.  1.
         22    1    3    3    0    0 -0.25533487228E+02  0.33687929293E+02 -0.48059731662E+02  0.64004479199E+02  0.00000000000E+00 0.  1.
</event>
<event>
 7    1  0.5622879E-006  0.6695458E+02  0.7818608E-02  0.1390742E+00
          2   -1    0    0  502    0  0.00000000000E+00  0.00000000000E+00  0.87690628049E+03  0.87690628049E+03  0.00000000000E+00 0. -1.
          1   -1    0    0  501    0 -0.00000000000E+00 -0.00000000000E+00 -0.80976462829E+03  0.80976462829E+03  0.00000000000E+00 0. -1.
         25    2    1    2    0    0  0.89450301391E+02 -0.82028345004E+02  0.69922554139E+03  0.72061257737E+03  0.12504448457E+03 0.  0.
          2    1    1    2  501    0 -0.56603656060E+02  0.35567382298E+02 -0.79277617170E+03  0.79558976299E+03  0.00000000000E+00 0. -1.
          1    1    1    2  502    0 -0.32846645331E+02  0.46460962706E+02  0.16069228250E+03  0.17046856843E+03  0.00000000000E+00 0. -1.
         22    1    3    3    0    0  0.11106669705E+02 -0.65188418755E+02  0.13079268686E+03  0.14655925418E+03  0.00000000000E+00 0.  1.
         22    1    3    3    0    0  0.78343631686E+02 -0.16839926249E+02  0.56843285454E+03  0.57405332318E+03  0.00000000000E+00 0.  1.
</event>
<event>
 7    1  0.5622879E-006  0.1074801E+03  0.7818608E-02  0.1390690E+00
          2   -1    0    0  502    0  0.00000000000E+00  0.00000000000E+00  0.30838920350E+04  0.30838920350E+04  0.00000000000E+00 0. -1.
          1   -1    0    0  501    0 -0.00000000000E+00 -0.00000000000E+00 -0.80642383532E+03  0.80642383532E+03  0.00000000000E+00 0. -1.
         25    2    1    2    0    0  0.13787398577E+03  0.29355471834E+02  0.42713604978E+03  0.46684253559E+03  0.12500307332E+03 0.  0.
          2    1    1    2  501    0 -0.35206578274E+02 -0.42321698032E+01 -0.78511106578E+03  0.78591144541E+03  0.00000000000E+00 0. -1.
          1    1    1    2  502    0 -0.10266740750E+03 -0.25123302031E+02  0.26354432157E+04  0.26375618893E+04  0.00000000000E+00 0. -1.
         22    1    3    3    0    0  0.12658670229E+03  0.30800642127E+02  0.19553016769E+03  0.23495727107E+03  0.00000000000E+00 0.  1.
         22    1    3    3    0    0  0.11287283487E+02 -0.14451702932E+01  0.23160588208E+03  0.23188526452E+03  0.00000000000E+00 0.  1.
</event>
<event>
 7    1  0.5622879E-006  0.1062641E+03  0.7818608E-02  0.1283450E+00
          2   -1    0    0  502    0  0.00000000000E+00  0.00000000000E+00  0.24348909274E+03  0.24348909274E+03  0.00000000000E+00 0. -1.
          1   -1    0    0  501    0 -0.00000000000E+00 -0.00000000000E+00 -0.63535369294E+03  0.63535369294E+03  0.00000000000E+00 0. -1.
         25    2    1    2    0    0  0.18696015963E+03  0.48712480498E+02  0.30716428171E+02  0.23215318677E+03  0.12499838448E+03 0.  0.
          2    1    1    2  501    0 -0.10161739621E+03 -0.16185079736E+02 -0.50999213317E+03  0.52026918793E+03  0.00000000000E+00 0. -1.
          1    1    1    2  502    0 -0.85342763418E+02 -0.32527400762E+02  0.87411104802E+02  0.12642041097E+03  0.00000000000E+00 0. -1.
         22    1    3    3    0    0  0.96691319165E+02  0.74176201799E+02 -0.23074656439E+02  0.12403128591E+03  0.00000000000E+00 0.  1.
         22    1    3    3    0    0  0.90268840466E+02 -0.25463721301E+02  0.53791084609E+02  0.10812190086E+03  0.00000000000E+00 0.  1.
</event>
<event>
 7    1  0.5622879E-006  0.9939670E+02  0.7818608E-02  0.1298623E+00
          2   -1    0    0  502    0  0.00000000000E+00  0.00000000000E+00  0.22994817936E+03  0.22994817936E+03  0.00000000000E+00 0. -1.
          1   -1    0    0  501    0 -0.00000000000E+00 -0.00000000000E+00 -0.55393234819E+03  0.55393234819E+03  0.00000000000E+00 0. -1.
         25    2    1    2    0    0 -0.11130752459E+03 -0.39388282585E+01 -0.21189680659E+03  0.27005251829E+03  0.12499290619E+03 0.  0.
          2    1    1    2  501    0  0.69196259884E+02  0.77459810186E+02 -0.29472656876E+03  0.31249303178E+03  0.00000000000E+00 0. -1.
          1    1    1    2  502    0  0.42111264704E+02 -0.73520981927E+02  0.18263920652E+03  0.20133497748E+03  0.00000000000E+00 0. -1.
         22    1    3    3    0    0 -0.86832402349E+02  0.26650064966E+02 -0.21225782297E+03  0.23087545446E+03  0.00000000000E+00 0.  1.
         22    1    3    3    0    0 -0.24475122239E+02 -0.30588893224E+02  0.36101638867E+00  0.39177063827E+02  0.00000000000E+00 0.  1.
</event>
<event>
 7    1  0.5622879E-006  0.6383723E+02  0.7818608E-02  0.1458815E+00
          2   -1    0    0  502    0  0.00000000000E+00  0.00000000000E+00  0.32120571877E+03  0.32120571877E+03  0.00000000000E+00 0. -1.
          1   -1    0    0  501    0 -0.00000000000E+00 -0.00000000000E+00 -0.35462134626E+03  0.35462134626E+03  0.00000000000E+00 0. -1.
         25    2    1    2    0    0  0.91053214345E+02 -0.22369358997E+01  0.35898365155E+02  0.15876135658E+03  0.12498313485E+03 0.  0.
          2    1    1    2  501    0 -0.30833731049E+02  0.17536283416E+02 -0.28776886602E+03  0.28994682350E+03  0.00000000000E+00 0. -1.
          1    1    1    2  502    0 -0.60219483296E+02 -0.15299347516E+02  0.21845487337E+03  0.22711888495E+03  0.00000000000E+00 0. -1.
         22    1    3    3    0    0  0.12041154058E+03  0.13161442004E+01  0.43823793273E+02  0.12814521527E+03  0.00000000000E+00 0. -1.
         22    1    3    3    0    0 -0.29358326236E+02 -0.35530801001E+01 -0.79254281180E+01  0.30616141305E+02  0.00000000000E+00 0. -1.
</event>
<event>
 7    1  0.5622879E-006  0.1606130E+03  0.7818608E-02  0.1298570E+00
          2   -1    0    0  502    0  0.00000000000E+00  0.00000000000E+00  0.38498906462E+03  0.38498906462E+03  0.00000000000E+00 0. -1.
          1   -1    0    0  501    0 -0.00000000000E+00 -0.00000000000E+00 -0.98270676220E+03  0.98270676220E+03  0.00000000000E+00 0. -1.
         25    2    1    2    0    0  0.12664809736E+03 -0.32748434694E+02  0.16708361431E+02  0.18169532996E+03  0.12498729155E+03 0.  0.
          2    1    1    2  501    0 -0.14029004918E+03  0.83403141376E+02 -0.89032385383E+03  0.90515962492E+03  0.00000000000E+00 0. -1.
          1    1    1    2  502    0  0.13641951814E+02 -0.50654706681E+02  0.27589779482E+03  0.28084087193E+03  0.00000000000E+00 0. -1.
         22    1    3    3    0    0  0.13115303453E+03  0.12402170321E+02  0.28559772040E+02  0.13479834152E+03  0.00000000000E+00 0. -1.
         22    1    3    3    0    0 -0.45049371724E+01 -0.45150605015E+02 -0.11851410609E+02  0.46896988449E+02  0.00000000000E+00 0. -1.
</event>
<event>
 7    1  0.5622879E-006  0.4050540E+02  0.7818608E-02  0.1537091E+00
          2   -1    0    0  502    0  0.00000000000E+00  0.00000000000E+00  0.36301784629E+03  0.36301784629E+03  0.00000000000E+00 0. -1.
          1   -1    0    0  501    0 -0.00000000000E+00 -0.00000000000E+00 -0.32387101200E+03  0.32387101200E+03  0.00000000000E+00 0. -1.
         25    2    1    2    0    0  0.28027765869E+02 -0.65985963728E+02  0.18510471048E+02  0.14528451838E+03  0.12500100269E+03 0.  0.
          2    1    1    2  501    0 -0.10466188192E+02  0.38536607323E+02 -0.25799844476E+03  0.26107050522E+03  0.00000000000E+00 0. -1.
          1    1    1    2  502    0 -0.17561577677E+02  0.27449356405E+02  0.27863480800E+03  0.28053383469E+03  0.00000000000E+00 0. -1.
         22    1    3    3    0    0  0.20607662746E+02 -0.54696277366E+02  0.70494203760E+02  0.91573966198E+02  0.00000000000E+00 0.  1.
         22    1    3    3    0    0  0.74201031227E+01 -0.11289686362E+02 -0.51983732712E+02  0.53710552177E+02  0.00000000000E+00 0.  1.
</event>
<event>
 7    1  0.5622879E-006  0.1498389E+03  0.7818608E-02  0.1360501E+00
          2   -1    0    0  502    0  0.00000000000E+00  0.00000000000E+00  0.10145182224E+04  0.10145182224E+04  0.00000000000E+00 0. -1.
          1   -1    0    0  501    0 -0.00000000000E+00 -0.00000000000E+00 -0.17907770593E+03  0.17907770593E+03  0.00000000000E+00 0. -1.
         25    2    1    2    0    0 -0.13701815708E+02 -0.11906015700E+03  0.48494177519E+03  0.51493247322E+03  0.12499546356E+03 0.  0.
          2    1    1    2  501    0  0.11176401476E+02  0.15155214524E+03 -0.12822411774E+03  0.19883256535E+03  0.00000000000E+00 0. -1.
          1    1    1    2  502    0  0.25254142321E+01 -0.32491988235E+02  0.47872285901E+03  0.47983088975E+03  0.00000000000E+00 0. -1.
         22    1    3    3    0    0 -0.64335461367E+02 -0.67750659223E+02  0.34614382933E+03  0.35853138496E+03  0.00000000000E+00 0.  1.
         22    1    3    3    0    0  0.50633645659E+02 -0.51309497780E+02  0.13879794586E+03  0.15640108826E+03  0.00000000000E+00 0.  1.
</event>
<event>
 7    1  0.5622879E-006  0.1085178E+03  0.7818608E-02  0.1274464E+00
          2   -1    0    0  502    0  0.00000000000E+00  0.00000000000E+00  0.13311360024E+03  0.13311360024E+03  0.00000000000E+00 0. -1.
          1   -1    0    0  501    0 -0.00000000000E+00 -0.00000000000E+00 -0.66793917291E+03  0.66793917291E+03  0.00000000000E+00 0. -1.
         25    2    1    2    0    0  0.51277616361E+01 -0.29764609907E+02 -0.60196539055E+02  0.14198326737E+03  0.12499359566E+03 0.  0.
          2    1    1    2  501    0 -0.51391184866E+02 -0.95577523710E+02 -0.50954716432E+03  0.52097449994E+03  0.00000000000E+00 0. -1.
          1    1    1    2  502    0  0.46263423230E+02  0.12534213362E+03  0.34918130698E+02  0.13809500585E+03  0.00000000000E+00 0. -1.
         22    1    3    3    0    0 -0.16099897693E+02 -0.49418423588E+02 -0.87778904041E+02  0.10201236832E+03  0.00000000000E+00 0. -1.
         22    1    3    3    0    0  0.21227659329E+02  0.19653813681E+02  0.27582364985E+02  0.39970899052E+02  0.00000000000E+00 0. -1.
</event>
<event>
 7    1  0.5622879E-006  0.1302255E+03  0.7818608E-02  0.1299211E+00
          2   -1    0    0  502    0  0.00000000000E+00  0.00000000000E+00  0.45279249377E+03  0.45279249377E+03  0.00000000000E+00 0. -1.
          1   -1    0    0  501    0 -0.00000000000E+00 -0.00000000000E+00 -0.32556833938E+03  0.32556833938E+03  0.00000000000E+00 0. -1.
         25    2    1    2    0    0 -0.40644748582E+02 -0.12020420669E+03 -0.24339340724E+02  0.17977373788E+03  0.12500058571E+03 0.  0.
          2    1    1    2  501    0  0.98256779409E+02  0.91606958002E+02 -0.20014363085E+03  0.24104709586E+03  0.00000000000E+00 0. -1.
          1    1    1    2  502    0 -0.57612030827E+02  0.28597248690E+02  0.35170712596E+03  0.35753999941E+03  0.00000000000E+00 0. -1.
         22    1    3    3    0    0 -0.35899572472E+00 -0.24822072367E+02 -0.64194443141E+02  0.68827252486E+02  0.00000000000E+00 0. -1.
         22    1    3    3    0    0 -0.40285752857E+02 -0.95382134325E+02  0.39855102417E+02  0.11094648539E+03  0.00000000000E+00 0. -1.
</event>
<event>
 7    1  0.5622879E-006  0.7716536E+02  0.7818608E-02  0.1480877E+00
          2   -1    0    0  502    0  0.00000000000E+00  0.00000000000E+00  0.28231543545E+03  0.28231543545E+03  0.00000000000E+00 0. -1.
          1   -1    0    0  501    0 -0.00000000000E+00 -0.00000000000E+00 -0.56516090865E+03  0.56516090865E+03  0.00000000000E+00 0. -1.
         25    2    1    2    0    0 -0.72088247968E+02 -0.61578984572E+02 -0.36332358803E+03  0.39575141286E+03  0.12500585715E+03 0.  0.
          2    1    1    2  501    0  0.55062155568E+02  0.43198517629E+02 -0.17840043129E+03  0.19163680958E+03  0.00000000000E+00 0. -1.
          1    1    1    2  502    0  0.17026092400E+02  0.18380466943E+02  0.25887854612E+03  0.26008812166E+03  0.00000000000E+00 0. -1.
         22    1    3    3    0    0 -0.78303078438E+02 -0.85479939623E+02 -0.34773189298E+03  0.36654557912E+03  0.00000000000E+00 0. -1.
         22    1    3    3    0    0  0.62148304707E+01  0.23900955051E+02 -0.15591695048E+02  0.29205833743E+02  0.00000000000E+00 0. -1.
</event>
<event>
 7    1  0.5622879E-006  0.7527904E+02  0.7818608E-02  0.1405637E+00
          2   -1    0    0  502    0  0.00000000000E+00  0.00000000000E+00  0.11470564931E+04  0.11470564931E+04  0.00000000000E+00 0. -1.
          1   -1    0    0  501    0 -0.00000000000E+00 -0.00000000000E+00 -0.24005018845E+03  0.24005018845E+03  0.00000000000E+00 0. -1.
         25    2    1    2    0    0 -0.52349901662E+02 -0.29077648209E+00 -0.59960940297E+02  0.14818845239E+03  0.12499562515E+03 0.  0.
          2    1    1    2  501    0  0.73286977499E+02  0.40081663242E+02 -0.12263930456E+03  0.14838436515E+03  0.00000000000E+00 0. -1.
          1    1    1    2  502    0 -0.20937075837E+02 -0.39790886759E+02  0.10896065495E+04  0.10905338640E+04  0.00000000000E+00 0. -1.
         22    1    3    3    0    0 -0.52895859033E+02  0.23149587826E+02 -0.91920419981E+02  0.10855062841E+03  0.00000000000E+00 0. -1.
         22    1    3    3    0    0  0.54595737097E+00 -0.23440364308E+02  0.31959479684E+02  0.39637823982E+02  0.00000000000E+00 0. -1.
</event>
<event>
 7    1  0.5622879E-006  0.4852485E+02  0.7818608E-02  0.1493104E+00
          2   -1    0    0  502    0  0.00000000000E+00  0.00000000000E+00  0.32923777516E+03  0.32923777516E+03  0.00000000000E+00 0. -1.
          1   -1    0    0  501    0 -0.00000000000E+00 -0.00000000000E+00 -0.17833594862E+03  0.17833594862E+03  0.00000000000E+00 0. -1.
         25    2    1    2    0    0 -0.22639206093E+02  0.12460954634E+02 -0.36250280916E+02  0.13269280595E+03  0.12500195535E+03 0.  0.
          2    1    1    2  501    0  0.52111474162E+02  0.92003883067E+01 -0.85084643834E+02  0.10019805138E+03  0.00000000000E+00 0. -1.
          1    1    1    2  502    0 -0.29472268069E+02 -0.21661342941E+02  0.27223675129E+03  0.27468286644E+03  0.00000000000E+00 0. -1.
         22    1    3    3    0    0 -0.11192662889E+02  0.34814203695E+02 -0.76762432153E+02  0.85028086369E+02  0.00000000000E+00 0.  1.
         22    1    3    3    0    0 -0.11446543204E+02 -0.22353249061E+02  0.40512151237E+02  0.47664719581E+02  0.00000000000E+00 0.  1.
</event>
<event>
 7    1  0.5622879E-006  0.3170610E+03  0.7818608E-02  0.1126148E+00
          2   -1    0    0  502    0  0.00000000000E+00  0.00000000000E+00  0.26141003110E+04  0.26141003110E+04  0.00000000000E+00 0. -1.
          1   -1    0    0  501    0 -0.00000000000E+00 -0.00000000000E+00 -0.12064452059E+04  0.12064452059E+04  0.00000000000E+00 0. -1.
         25    2    1    2    0    0  0.20175401524E+03 -0.12894819641E+03  0.19444043583E+03  0.33280835848E+03  0.12498800087E+03 0.  0.
          2    1    1    2  501    0 -0.38421905238E+02 -0.16340583669E+03 -0.11190411033E+04  0.11315611787E+04  0.00000000000E+00 0. -1.
          1    1    1    2  502    0 -0.16333211001E+03  0.29235403311E+03  0.23322557726E+04  0.23561759798E+04  0.00000000000E+00 0. -1.
         22    1    3    3    0    0  0.14812237827E+03 -0.12998599031E+03  0.19759948486E+03  0.27907374122E+03  0.00000000000E+00 0. -1.
         22    1    3    3    0    0  0.53631636974E+02  0.10377939003E+01 -0.31590490356E+01  0.53734617255E+02  0.00000000000E+00 0. -1.
</event>
<event>
 7    1  0.5622879E-006  0.6246199E+02  0.7818608E-02  0.1399267E+00
          2   -1    0    0  502    0  0.00000000000E+00  0.00000000000E+00  0.19141529658E+03  0.19141529658E+03  0.00000000000E+00 0. -1.
          1   -1    0    0  501    0 -0.00000000000E+00 -0.00000000000E+00 -0.55086592812E+03  0.55086592812E+03  0.00000000000E+00 0. -1.
         25    2    1    2    0    0  0.22309984898E+02 -0.25876833961E+01  0.41199138922E+02  0.13351678977E+03  0.12499973029E+03 0.  0.
          2    1    1    2  501    0 -0.35543259434E+00 -0.62460979397E+02 -0.49118603149E+03  0.49514161389E+03  0.00000000000E+00 0. -1.
          1    1    1    2  502    0 -0.21954552304E+02  0.65048662794E+02  0.90536261033E+02  0.11362282103E+03  0.00000000000E+00 0. -1.
         22    1    3    3    0    0 -0.44066492628E+02 -0.31634651871E+02  0.13101464675E+02  0.55805513600E+02  0.00000000000E+00 0. -1.
         22    1    3    3    0    0  0.66376477526E+02  0.29046968475E+02  0.28097674246E+02  0.77711276173E+02  0.00000000000E+00 0. -1.
</event>
<event>
 7    1  0.5622879E-006  0.3250419E+03  0.7818608E-02  0.1284079E+00
          2   -1    0    0  502    0  0.00000000000E+00  0.00000000000E+00  0.26898918536E+04  0.26898918536E+04  0.00000000000E+00 0. -1.
          1   -1    0    0  501    0 -0.00000000000E+00 -0.00000000000E+00 -0.64264024064E+03  0.64264024064E+03  0.00000000000E+00 0. -1.
         25    2    1    2    0    0 -0.23430289276E+03 -0.23195926837E+03  0.91024629951E+02  0.36416140764E+03  0.12500039929E+03 0.  0.
          2    1    1    2  501    0 -0.15990938100E+02  0.25005142103E+02 -0.49491610782E+03  0.49580532572E+03  0.00000000000E+00 0. -1.
          1    1    1    2  502    0  0.25029383086E+03  0.20695412627E+03  0.24511430908E+04  0.24725653609E+04  0.00000000000E+00 0. -1.
         22    1    3    3    0    0 -0.19635082188E+03 -0.23600612465E+03  0.55424831819E+02  0.31196866527E+03  0.00000000000E+00 0. -1.
         22    1    3    3    0    0 -0.37952070876E+02  0.40468562837E+01  0.35599798133E+02  0.52192742375E+02  0.00000000000E+00 0. -1.
</event>
<event>
 7    1  0.5622879E-006  0.2049863E+03  0.7818608E-02  0.1152183E+00
          2   -1    0    0  502    0  0.00000000000E+00  0.00000000000E+00  0.11956757671E+03  0.11956757671E+03  0.00000000000E+00 0. -1.
          1   -1    0    0  501    0 -0.00000000000E+00 -0.00000000000E+00 -0.22266347092E+04  0.22266347092E+04  0.00000000000E+00 0. -1.
         25    2    1    2    0    0  0.15819822775E+03 -0.69003605055E+02 -0.54856803862E+03  0.58850800637E+03  0.12500641500E+03 0.  0.
          2    1    1    2  501    0  0.33041008733E+01  0.20495965411E+03 -0.15311621183E+04  0.15448225819E+04  0.00000000000E+00 0. -1.
          1    1    1    2  502    0 -0.16150232863E+03 -0.13595604906E+03 -0.27336975523E+02  0.21287169764E+03  0.00000000000E+00 0. -1.
         22    1    3    3    0    0  0.17617595984E+03 -0.68026241287E+02 -0.53001261425E+03  0.56265345426E+03  0.00000000000E+00 0. -1.
         22    1    3    3    0    0 -0.17977732090E+02 -0.97736376762E+00 -0.18555424371E+02  0.25854552106E+02  0.00000000000E+00 0. -1.
</event>
<event>
 7    1  0.5622879E-006  0.7604237E+02  0.7818608E-02  0.1380729E+00
          2   -1    0    0  502    0  0.00000000000E+00  0.00000000000E+00  0.10458600972E+03  0.10458600972E+03  0.00000000000E+00 0. -1.
          1   -1    0    0  501    0 -0.00000000000E+00 -0.00000000000E+00 -0.12280570887E+04  0.12280570887E+04  0.00000000000E+00 0. -1.
         25    2    1    2    0    0 -0.25128112982E+01  0.64060601084E+02 -0.20499486896E+03  0.24850296527E+03  0.12498300931E+03 0.  0.
          2    1    1    2  501    0 -0.53531486366E+02 -0.92466776396E+01 -0.98183946329E+03  0.98334116804E+03  0.00000000000E+00 0. -1.
          1    1    1    2  502    0  0.56044297664E+02 -0.54813923444E+02  0.63363253265E+02  0.10079896512E+03  0.00000000000E+00 0. -1.
         22    1    3    3    0    0  0.50058756291E+02  0.43656633853E+01 -0.36280930438E+02  0.61977770302E+02  0.00000000000E+00 0. -1.
         22    1    3    3    0    0 -0.52571567589E+02  0.59694937698E+02 -0.16871393852E+03  0.18652519496E+03  0.00000000000E+00 0. -1.
</event>
<event>
 7    1  0.5622879E-006  0.8909728E+02  0.7818608E-02  0.1441641E+00
          2   -1    0    0  502    0  0.00000000000E+00  0.00000000000E+00  0.80264899441E+03  0.80264899441E+03  0.00000000000E+00 0. -1.
          1   -1    0    0  501    0 -0.00000000000E+00 -0.00000000000E+00 -0.40170329160E+03  0.40170329160E+03  0.00000000000E+00 0. -1.
         25    2    1    2    0    0  0.43726927177E+02 -0.46934035622E+02  0.32778940185E+03  0.35663135133E+03  0.12500072370E+03 0.  0.
          2    1    1    2  501    0 -0.48146050142E+02  0.75435445173E+02 -0.38164970076E+03  0.39200132988E+03  0.00000000000E+00 0. -1.
          1    1    1    2  502    0  0.44191229650E+01 -0.28501409551E+02  0.45480600173E+03  0.45571960480E+03  0.00000000000E+00 0. -1.
         22    1    3    3    0    0  0.88039191721E+01 -0.71967028649E+02  0.92898134523E+02  0.11784237609E+03  0.00000000000E+00 0. -1.
         22    1    3    3    0    0  0.34923008005E+02  0.25032993027E+02  0.23489126733E+03  0.23878897524E+03  0.00000000000E+00 0. -1.
</event>
<event>
 7    1  0.5622879E-006  0.7448470E+02  0.7818608E-02  0.1382016E+00
          2   -1    0    0  502    0  0.00000000000E+00  0.00000000000E+00  0.23668681058E+04  0.23668681058E+04  0.00000000000E+00 0. -1.
          1   -1    0    0  501    0 -0.00000000000E+00 -0.00000000000E+00 -0.31761681121E+03  0.31761681121E+03  0.00000000000E+00 0. -1.
         25    2    1    2    0    0  0.16164018610E+00 -0.12202438683E+03 -0.88008657790E+02  0.19560354732E+03  0.12500098708E+03 0.  0.
          2    1    1    2  501    0 -0.97179342448E+01  0.67980149495E+02 -0.16876602659E+03  0.18220238940E+03  0.00000000000E+00 0. -1.
          1    1    1    2  502    0  0.95562940587E+01  0.54044237336E+02  0.23060259790E+04  0.23066789803E+04  0.00000000000E+00 0. -1.
         22    1    3    3    0    0  0.37713139687E+02  0.86097755209E+01 -0.21953516420E+02  0.44478826679E+02  0.00000000000E+00 0. -1.
         22    1    3    3    0    0 -0.37551499501E+02 -0.13063416235E+03 -0.66055141370E+02  0.15112472064E+03  0.00000000000E+00 0. -1.
</event>
<event>
 7    1  0.5622879E-006  0.4425698E+02  0.7818608E-02  0.1495537E+00
          2   -1    0    0  502    0  0.00000000000E+00  0.00000000000E+00  0.66324020480E+03  0.66324020480E+03  0.00000000000E+00 0. -1.
          1   -1    0    0  501    0 -0.00000000000E+00 -0.00000000000E+00 -0.84452957544E+03  0.84452957544E+03  0.00000000000E+00 0. -1.
         25    2    1    2    0    0 -0.11898379012E+02  0.97217570354E+01  0.67276373296E+02  0.14277708828E+03  0.12499240998E+03 0.  0.
          2    1    1    2  501    0 -0.80494400591E+01 -0.43737579004E+02 -0.80546864785E+03  0.80669542702E+03  0.00000000000E+00 0. -1.
          1    1    1    2  502    0  0.19947819071E+02  0.34015821969E+02  0.55690290392E+03  0.55829726493E+03  0.00000000000E+00 0. -1.
         22    1    3    3    0    0  0.30334453753E+02 -0.41046600620E+02  0.56023980764E+02  0.75787129036E+02  0.00000000000E+00 0. -1.
         22    1    3    3    0    0 -0.42232832765E+02  0.50768357655E+02  0.11252392532E+02  0.66989959249E+02  0.00000000000E+00 0. -1.
</event>
<event>
 7    1  0.5622879E-006  0.5291725E+02  0.7818608E-02  0.1516637E+00
          2   -1    0    0  502    0  0.00000000000E+00  0.00000000000E+00  0.31533693305E+03  0.31533693305E+03  0.00000000000E+00 0. -1.
          1   -1    0    0  501    0 -0.00000000000E+00 -0.00000000000E+00 -0.18088620542E+03  0.18088620542E+03  0.00000000000E+00 0. -1.
         25    2    1    2    0    0 -0.27205581295E+02  0.39416957705E+02 -0.41250655786E+02  0.14007537770E+03  0.12500261848E+03 0.  0.
          2    1    1    2  501    0  0.30937768588E+01 -0.54729233833E+02 -0.81031258159E+02  0.97831105943E+02  0.00000000000E+00 0. -1.
          1    1    1    2  502    0  0.24111804436E+02  0.15312276128E+02  0.25673264157E+03  0.25831665483E+03  0.00000000000E+00 0. -1.
         22    1    3    3    0    0 -0.34502821291E+02  0.74107129406E+02 -0.58627901529E+02  0.10059593502E+03  0.00000000000E+00 0. -1.
         22    1    3    3    0    0  0.72972399963E+01 -0.34690171702E+02  0.17377245743E+02  0.39479442674E+02  0.00000000000E+00 0. -1.
</event>
<event>
 7    1  0.5622879E-006  0.6807031E+02  0.7818608E-02  0.1525615E+00
          2   -1    0    0  502    0  0.00000000000E+00  0.00000000000E+00  0.91550862137E+03  0.91550862137E+03  0.00000000000E+00 0. -1.
          1   -1    0    0  501    0 -0.00000000000E+00 -0.00000000000E+00 -0.34769956278E+03  0.34769956278E+03  0.00000000000E+00 0. -1.
         25    2    1    2    0    0  0.85966275433E+02 -0.86157179013E+01  0.19076076336E+03  0.24388344342E+03  0.12500013612E+03 0.  0.
          2    1    1    2  501    0 -0.66079388173E+02  0.15084974907E+02 -0.31740268950E+03  0.32455894582E+03  0.00000000000E+00 0. -1.
          1    1    1    2  502    0 -0.19886887260E+02 -0.64692570055E+01  0.69445098474E+03  0.69476579491E+03  0.00000000000E+00 0. -1.
         22    1    3    3    0    0  0.98788811210E+02 -0.36863371562E+02  0.18409523289E+03  0.21215369937E+03  0.00000000000E+00 0. -1.
         22    1    3    3    0    0 -0.12822535777E+02  0.28247653660E+02  0.66655304653E+01  0.31729744049E+02  0.00000000000E+00 0. -1.
</event>
<event>
 7    1  0.5622879E-006  0.1485086E+03  0.7818608E-02  0.1398703E+00
          2   -1    0    0  502    0  0.00000000000E+00  0.00000000000E+00  0.12859693686E+04  0.12859693686E+04  0.00000000000E+00 0. -1.
          1   -1    0    0  501    0 -0.00000000000E+00 -0.00000000000E+00 -0.14918867478E+04  0.14918867478E+04  0.00000000000E+00 0. -1.
         25    2    1    2    0    0 -0.10039630462E+03  0.87965441036E+02  0.33807415595E+02  0.18597126330E+03  0.12500013050E+03 0.  0.
          2    1    1    2  501    0 -0.23649380468E+02 -0.45015982593E+01 -0.14109500215E+04  0.14111553850E+04  0.00000000000E+00 0. -1.
          1    1    1    2  502    0  0.12404568509E+03 -0.83463842777E+02  0.11712252267E+04  0.11807294680E+04  0.00000000000E+00 0. -1.
         22    1    3    3    0    0 -0.77327431620E+02  0.92805217828E+02 -0.24341306122E+02  0.12322678005E+03  0.00000000000E+00 0.  1.
         22    1    3    3    0    0 -0.23068872997E+02 -0.48397767922E+01  0.58148721717E+02  0.62744483249E+02  0.00000000000E+00 0.  1.
</event>
<event>
 7    1  0.5622879E-006  0.6807973E+02  0.7818608E-02  0.1464986E+00
          2   -1    0    0  502    0  0.00000000000E+00  0.00000000000E+00  0.58914382423E+02  0.58914382423E+02  0.00000000000E+00 0. -1.
          1   -1    0    0  501    0 -0.00000000000E+00 -0.00000000000E+00 -0.11912149096E+04  0.11912149096E+04  0.00000000000E+00 0. -1.
         25    2    1    2    0    0 -0.59266383851E+02 -0.11394043405E+02 -0.42256515784E+03  0.44478259856E+03  0.12501167499E+03 0.  0.
          2    1    1    2  501    0  0.55359802303E+02  0.42960318849E+02 -0.75043108209E+03  0.75369563198E+03  0.00000000000E+00 0. -1.
          1    1    1    2  502    0  0.39065815480E+01 -0.31566275444E+02  0.40695712700E+02  0.51651061528E+02  0.00000000000E+00 0. -1.
         22    1    3    3    0    0 -0.88125552131E+02 -0.33326716853E+02 -0.36324132940E+03  0.37526130413E+03  0.00000000000E+00 0. -1.
         22    1    3    3    0    0  0.28859168280E+02  0.21932673448E+02 -0.59323828439E+02  0.69521294429E+02  0.00000000000E+00 0. -1.
</event>
<event>
 7    1  0.5622879E-006  0.2089621E+03  0.7818608E-02  0.1194763E+00
          2   -1    0    0  502    0  0.00000000000E+00  0.00000000000E+00  0.30412562745E+03  0.30412562745E+03  0.00000000000E+00 0. -1.
          1   -1    0    0  501    0 -0.00000000000E+00 -0.00000000000E+00 -0.66434340408E+03  0.66434340408E+03  0.00000000000E+00 0. -1.
         25    2    1    2    0    0 -0.31774730909E+02  0.20901184990E+03 -0.38041357271E+03  0.45280976189E+03  0.12500642878E+03 0.  0.
          2    1    1    2  501    0 -0.10451096285E+03 -0.46997257821E+02 -0.18707139602E+03  0.21937864711E+03  0.00000000000E+00 0. -1.
          1    1    1    2  502    0  0.13628569376E+03 -0.16201459207E+03  0.20726719210E+03  0.29628062253E+03  0.00000000000E+00 0. -1.
         22    1    3    3    0    0 -0.62671388852E+02  0.17795544848E+03 -0.35537344093E+03  0.40235075139E+03  0.00000000000E+00 0.  1.
         22    1    3    3    0    0  0.30896657944E+02  0.31056401411E+02 -0.25040131778E+02  0.50459010495E+02  0.00000000000E+00 0.  1.
</event>
<event>
 7    1  0.5622879E-006  0.3588452E+02  0.7818608E-02  0.1631575E+00
          2   -1    0    0  502    0  0.00000000000E+00  0.00000000000E+00  0.14786543262E+03  0.14786543262E+03  0.00000000000E+00 0. -1.
          1   -1    0    0  501    0 -0.00000000000E+00 -0.00000000000E+00 -0.34772039451E+03  0.34772039451E+03  0.00000000000E+00 0. -1.
         25    2    1    2    0    0 -0.49038185487E+02  0.22513969181E+02  0.46144805264E+02  0.14375700219E+03  0.12500044072E+03 0.  0.
          2    1    1    2  501    0  0.16907191531E+02 -0.11736620123E+02 -0.29308970435E+03  0.29381146365E+03  0.00000000000E+00 0. -1.
          1    1    1    2  502    0  0.32130993956E+02 -0.10777349058E+02  0.47089937197E+02  0.58017361285E+02  0.00000000000E+00 0. -1.
         22    1    3    3    0    0  0.21902475166E+02 -0.37348040167E+02  0.13265014274E+02  0.45283055621E+02  0.00000000000E+00 0.  1.
         22    1    3    3    0    0 -0.70940660653E+02  0.59862009348E+02  0.32879790991E+02  0.98473946568E+02  0.00000000000E+00 0.  1.
</event>
<event>
 7    1  0.5622879E-006  0.6847585E+02  0.7818608E-02  0.1426264E+00
          2   -1    0    0  502    0  0.00000000000E+00  0.00000000000E+00  0.42820565880E+03  0.42820565880E+03  0.00000000000E+00 0. -1.
          1   -1    0    0  501    0 -0.00000000000E+00 -0.00000000000E+00 -0.54379626686E+03  0.54379626686E+03  0.00000000000E+00 0. -1.
         25    2    1    2    0    0  0.45499738660E+02 -0.11027408057E+02  0.26033683084E+03  0.29256077933E+03  0.12499885665E+03 0.  0.
          2    1    1    2  501    0 -0.63088664187E+02 -0.27265937585E+02 -0.52246437443E+03  0.52696549550E+03  0.00000000000E+00 0. -1.
          1    1    1    2  502    0  0.17588925527E+02  0.38293345642E+02  0.14653693552E+03  0.15247565082E+03  0.00000000000E+00 0. -1.
         22    1    3    3    0    0  0.34505212003E+02  0.23840355362E+02  0.25146657557E+03  0.25494001418E+03  0.00000000000E+00 0.  1.
         22    1    3    3    0    0  0.10994526657E+02 -0.34867763419E+02  0.88702552695E+01  0.37620765154E+02  0.00000000000E+00 0.  1.
</event>
<event>
 7    1  0.5622879E-006  0.7326032E+02  0.7818608E-02  0.1366627E+00
          2   -1    0    0  502    0  0.00000000000E+00  0.00000000000E+00  0.20093049377E+04  0.20093049377E+04  0.00000000000E+00 0. -1.
          1   -1    0    0  501    0 -0.00000000000E+00 -0.00000000000E+00 -0.12728386145E+02  0.12728386145E+02  0.00000000000E+00 0. -1.
         25    2    1    2    0    0  0.12197032796E+02 -0.57104211330E+02  0.74257506946E+03  0.75528255822E+03  0.12499740155E+03 0.  0.
          2    1    1    2  501    0 -0.62968867462E+02 -0.67444476448E+01  0.20444143084E+03  0.21402538281E+03  0.00000000000E+00 0. -1.
          1    1    1    2  502    0  0.50771834667E+02  0.63848658975E+02  0.10495600513E+04  0.10527253829E+04  0.00000000000E+00 0. -1.
         22    1    3    3    0    0 -0.96556537200E+01 -0.88938562245E+01  0.63743483080E+03  0.63756999290E+03  0.00000000000E+00 0.  1.
         22    1    3    3    0    0  0.21852686516E+02 -0.48210355106E+02  0.10514023867E+03  0.11771256532E+03  0.00000000000E+00 0.  1.
</event>
<event>
 7    1  0.5622879E-006  0.5357301E+02  0.7818608E-02  0.1438590E+00
          2   -1    0    0  502    0  0.00000000000E+00  0.00000000000E+00  0.87533201888E+03  0.87533201888E+03  0.00000000000E+00 0. -1.
          1   -1    0    0  501    0 -0.00000000000E+00 -0.00000000000E+00 -0.48900564643E+03  0.48900564643E+03  0.00000000000E+00 0. -1.
         25    2    1    2    0    0 -0.80525777498E+01 -0.99024234687E+02 -0.20113253300E+03  0.25680818237E+03  0.12500201453E+03 0.  0.
          2    1    1    2  501    0 -0.86819937056E+01  0.48298874063E+02 -0.25686858409E+03  0.26151410620E+03  0.00000000000E+00 0. -1.
          1    1    1    2  502    0  0.16734571455E+02  0.50725360624E+02  0.84432748954E+03  0.84601537674E+03  0.00000000000E+00 0. -1.
         22    1    3    3    0    0 -0.65576051658E+00 -0.11348581443E+02 -0.15873040891E+03  0.15913693171E+03  0.00000000000E+00 0.  1.
         22    1    3    3    0    0 -0.73968172332E+01 -0.87675653244E+02 -0.42402124091E+02  0.97671250654E+02  0.00000000000E+00 0.  1.
</event>
<event>
 7    1  0.5622879E-006  0.2035621E+03  0.7818608E-02  0.1284771E+00
          2   -1    0    0  502    0  0.00000000000E+00  0.00000000000E+00  0.18067446340E+03  0.18067446340E+03  0.00000000000E+00 0. -1.
          1   -1    0    0  501    0 -0.00000000000E+00 -0.00000000000E+00 -0.84687579562E+03  0.84687579562E+03  0.00000000000E+00 0. -1.
         25    2    1    2    0    0 -0.17308911773E+03 -0.38712022615E+02 -0.23015627407E+03  0.31630203257E+03  0.12496640326E+03 0.  0.
          2    1    1    2  501    0 -0.23464433346E+02 -0.40821989761E+02 -0.49016002810E+03  0.49241635597E+03  0.00000000000E+00 0. -1.
          1    1    1    2  502    0  0.19655355108E+03  0.79534012376E+02  0.54114969940E+02  0.21883187048E+03  0.00000000000E+00 0. -1.
         22    1    3    3    0    0 -0.13587190173E+03 -0.65841711787E+02 -0.22357032111E+03  0.26977767360E+03  0.00000000000E+00 0. -1.
         22    1    3    3    0    0 -0.37217216003E+02  0.27129689172E+02 -0.65859529560E+01  0.46524358974E+02  0.00000000000E+00 0. -1.
</event>
<event>
 7    1  0.5622879E-006  0.6696724E+02  0.7818608E-02  0.1423578E+00
          2   -1    0    0  502    0  0.00000000000E+00  0.00000000000E+00  0.33070368234E+04  0.33070368234E+04  0.00000000000E+00 0. -1.
          1   -1    0    0  501    0 -0.00000000000E+00 -0.00000000000E+00 -0.13970687674E+03  0.13970687674E+03  0.00000000000E+00 0. -1.
         25    2    1    2    0    0  0.26336339120E+01  0.73869671871E+02  0.61004633737E+03  0.62709111232E+03  0.12499225963E+03 0.  0.
          2    1    1    2  501    0 -0.40129903202E+02 -0.18000267293E+02 -0.12706457894E+03  0.13446124339E+03  0.00000000000E+00 0. -1.
          1    1    1    2  502    0  0.37496269290E+02 -0.55869404578E+02  0.26843481882E+04  0.26851913444E+04  0.00000000000E+00 0. -1.
         22    1    3    3    0    0 -0.41765453566E+02  0.46813595865E+02  0.13117495487E+03  0.14540541480E+03  0.00000000000E+00 0.  1.
         22    1    3    3    0    0  0.44399087478E+02  0.27056076006E+02  0.47887138250E+03  0.48168569752E+03  0.00000000000E+00 0.  1.
</event>
<event>
 7    1  0.5622879E-006  0.3823047E+02  0.7818608E-02  0.1545313E+00
          2   -1    0    0  502    0  0.00000000000E+00  0.00000000000E+00  0.22452933943E+03  0.22452933943E+03  0.00000000000E+00 0. -1.
          1   -1    0    0  501    0 -0.00000000000E+00 -0.00000000000E+00 -0.24577928929E+03  0.24577928929E+03  0.00000000000E+00 0. -1.
         25    2    1    2    0    0  0.73021875113E+01  0.24322791342E+01  0.93302591216E+02  0.15617132836E+03  0.12499948940E+03 0.  0.
          2    1    1    2  501    0 -0.36967341416E+02  0.11394248643E+02 -0.20984510004E+03  0.21338083148E+03  0.00000000000E+00 0. -1.
          1    1    1    2  502    0  0.29665153904E+02 -0.13826527777E+02  0.95292558959E+02  0.10075646887E+03  0.00000000000E+00 0. -1.
         22    1    3    3    0    0  0.67615911680E+01 -0.48142137750E+01  0.12417659638E+03  0.12445369764E+03  0.00000000000E+00 0. -1.
         22    1    3    3    0    0  0.54059634328E+00  0.72464929092E+01 -0.30874005160E+02  0.31717630720E+02  0.00000000000E+00 0. -1.
</event>
<event>
 7    1  0.5622879E-006  0.4437146E+02  0.7818608E-02  0.1491715E+00
          2   -1    0    0  502    0  0.00000000000E+00  0.00000000000E+00  0.29109908242E+03  0.29109908242E+03  0.00000000000E+00 0. -1.
          1   -1    0    0  501    0 -0.00000000000E+00 -0.00000000000E+00 -0.13122724349E+04  0.13122724349E+04  0.00000000000E+00 0. -1.
         25    2    1    2    0    0  0.32257198158E+02  0.79236304539E+01  0.55104829628E+02  0.14058836831E+03  0.12500094520E+03 0.  0.
          2    1    1    2  501    0 -0.11965784370E+02 -0.42843669219E+02 -0.12670259525E+04  0.12678065800E+04  0.00000000000E+00 0. -1.
          1    1    1    2  502    0 -0.20291413788E+02  0.34920038765E+02  0.19074777035E+03  0.19497656904E+03  0.00000000000E+00 0. -1.
         22    1    3    3    0    0 -0.39609767906E+02  0.15038593805E+02  0.53640880685E+02  0.68355227289E+02  0.00000000000E+00 0. -1.
         22    1    3    3    0    0  0.71866966063E+02 -0.71149633506E+01  0.14639489437E+01  0.72233141017E+02  0.00000000000E+00 0. -1.
</event>
<event>
 7    1  0.5828469E-006  0.1065944E+03  0.7818608E-02  0.1306478E+00
          2   -1    0    0  502    0  0.00000000000E+00  0.00000000000E+00  0.18383506049E+04  0.18383506049E+04  0.00000000000E+00 0. -1.
          1   -1    0    0  501    0 -0.00000000000E+00 -0.00000000000E+00 -0.58050757173E+03  0.58050757173E+03  0.00000000000E+00 0. -1.
         25    2    1    2    0    0 -0.16409112250E+03 -0.49074922446E+02 -0.11203502708E+03  0.23982382654E+03  0.12501750272E+03 0.  0.
          2    1    1    2  501    0  0.73285718318E+02 -0.57235173287E+01 -0.39963820397E+03  0.40634252698E+03  0.00000000000E+00 0. -1.
          1    1    1    2  502    0  0.90805404181E+02  0.54798439775E+02  0.17695162642E+04  0.17726918231E+04  0.00000000000E+00 0. -1.
         22    1    3    3    0    0 -0.14705784600E+02  0.26037628602E+02 -0.55989628415E+02  0.63474850878E+02  0.00000000000E+00 0. -1.
         22    1    3    3    0    0 -0.14938533790E+03 -0.75112551049E+02 -0.56045398661E+02  0.17634897566E+03  0.00000000000E+00 0. -1.
</event>
<event>
 7    1  0.5622879E-006  0.8170818E+02  0.7818608E-02  0.1332719E+00
          2   -1    0    0  502    0  0.00000000000E+00  0.00000000000E+00  0.96787789012E+03  0.96787789012E+03  0.00000000000E+00 0. -1.
          1   -1    0    0  501    0 -0.00000000000E+00 -0.00000000000E+00 -0.80874066314E+03  0.80874066314E+03  0.00000000000E+00 0. -1.
         25    2    1    2    0    0 -0.12722084778E+03 -0.12485534262E+02  0.21612590400E+03  0.28049296429E+03  0.12499945585E+03 0.  0.
          2    1    1    2  501    0  0.62598112807E+02  0.52187155733E+02 -0.77240880535E+03  0.77669645650E+03  0.00000000000E+00 0. -1.
          1    1    1    2  502    0  0.64622734973E+02 -0.39701621470E+02  0.71542012833E+03  0.71942913246E+03  0.00000000000E+00 0. -1.
         22    1    3    3    0    0 -0.97089577160E+02 -0.50941664092E+02  0.20166441153E+03  0.22954296768E+03  0.00000000000E+00 0. -1.
         22    1    3    3    0    0 -0.30131270620E+02  0.38456129830E+02  0.14461492474E+02  0.50949996617E+02  0.00000000000E+00 0. -1.
</event>
<event>
 7    1  0.5622879E-006  0.3213639E+02  0.7818608E-02  0.1594687E+00
          2   -1    0    0  502    0  0.00000000000E+00  0.00000000000E+00  0.19882801744E+03  0.19882801744E+03  0.00000000000E+00 0. -1.
          1   -1    0    0  501    0 -0.00000000000E+00 -0.00000000000E+00 -0.45260545775E+03  0.45260545775E+03  0.00000000000E+00 0. -1.
         25    2    1    2    0    0  0.32318588535E+02 -0.20025175963E+00 -0.91817848372E+02  0.15842295245E+03  0.12499113295E+03 0.  0.
          2    1    1    2  501    0 -0.12828635713E+02 -0.25547327771E+02 -0.32527718919E+03  0.32653099342E+03  0.00000000000E+00 0. -1.
          1    1    1    2  502    0 -0.19489952821E+02  0.25747579531E+02  0.16331759726E+03  0.16647952933E+03  0.00000000000E+00 0. -1.
         22    1    3    3    0    0  0.64830960381E+02 -0.38408088579E+02 -0.36449916627E+02  0.83706816415E+02  0.00000000000E+00 0.  1.
         22    1    3    3    0    0 -0.32512371847E+02  0.38207836819E+02 -0.55367931745E+02  0.74716136030E+02  0.00000000000E+00 0.  1.
</event>
<event>
 7    1  0.5622879E-006  0.9900550E+02  0.7818608E-02  0.1430762E+00
          2   -1    0    0  502    0  0.00000000000E+00  0.00000000000E+00  0.53918697780E+03  0.53918697780E+03  0.00000000000E+00 0. -1.
          1   -1    0    0  501    0 -0.00000000000E+00 -0.00000000000E+00 -0.43641306670E+03  0.43641306670E+03  0.00000000000E+00 0. -1.
         25    2    1    2    0    0  0.12389373694E+02  0.86064770947E+02  0.96488453578E+02  0.18026461170E+03  0.12499866871E+03 0.  0.
          2    1    1    2  501    0  0.27259390539E+02  0.70897644821E+01 -0.38761265037E+03  0.38863466889E+03  0.00000000000E+00 0. -1.
          1    1    1    2  502    0 -0.39648764233E+02 -0.93154535429E+02  0.39389810788E+03  0.40670076392E+03  0.00000000000E+00 0. -1.
         22    1    3    3    0    0  0.24214514543E+02 -0.25691546694E+02  0.56316609516E+01  0.35750718750E+02  0.00000000000E+00 0.  1.
         22    1    3    3    0    0 -0.11825140849E+02  0.11175631764E+03  0.90856792626E+02  0.14451389295E+03  0.00000000000E+00 0.  1.
</event>
<event>
 7    1  0.5622879E-006  0.1189306E+03  0.7818608E-02  0.1308330E+00
          2   -1    0    0  502    0  0.00000000000E+00  0.00000000000E+00  0.34260598676E+04  0.34260598676E+04  0.00000000000E+00 0. -1.
          1   -1    0    0  501    0 -0.00000000000E+00 -0.00000000000E+00 -0.13516468594E+02  0.13516468594E+02  0.00000000000E+00 0. -1.
         25    2    1    2    0    0  0.49869213781E+02  0.14754747388E+03  0.21509457948E+04  0.21601966213E+04  0.12499774003E+03 0.  0.
          2    1    1    2  501    0 -0.72786687027E+02 -0.86955048444E+02  0.41214924878E+03  0.42746471846E+03  0.00000000000E+00 0. -1.
          1    1    1    2  502    0  0.22917473246E+02 -0.60592425434E+02  0.84944835538E+03  0.85191499638E+03  0.00000000000E+00 0. -1.
         22    1    3    3    0    0  0.46896568409E+02  0.28804682505E+01  0.83468399787E+03  0.83600535975E+03  0.00000000000E+00 0. -1.
         22    1    3    3    0    0  0.29726453722E+01  0.14466700563E+03  0.13162617970E+04  0.13241912616E+04  0.00000000000E+00 0. -1.
</event>
<event>
 7    1  0.5622879E-006  0.5660210E+02  0.7818608E-02  0.1530795E+00
          2   -1    0    0  502    0  0.00000000000E+00  0.00000000000E+00  0.10752247309E+03  0.10752247309E+03  0.00000000000E+00 0. -1.
          1   -1    0    0  501    0 -0.00000000000E+00 -0.00000000000E+00 -0.62176930892E+03  0.62176930892E+03  0.00000000000E+00 0. -1.
         25    2    1    2    0    0 -0.21259136002E+02  0.31713527405E+02 -0.78156058363E+02  0.15228640061E+03  0.12500031867E+03 0.  0.
          2    1    1    2  501    0 -0.23467554769E+02  0.63173237810E+01 -0.49396707641E+03  0.49456456331E+03  0.00000000000E+00 0. -1.
          1    1    1    2  502    0  0.44726690771E+02 -0.38030851186E+02  0.57876298938E+02  0.82440818094E+02  0.00000000000E+00 0. -1.
         22    1    3    3    0    0  0.28402777408E+02 -0.40841891212E+01 -0.85912458306E+02  0.90577860747E+02  0.00000000000E+00 0.  1.
         22    1    3    3    0    0 -0.49661913410E+02  0.35797716526E+02  0.77563999429E+01  0.61708539864E+02  0.00000000000E+00 0.  1.
</event>
<event>
 7    1  0.5622879E-006  0.1081749E+03  0.7818608E-02  0.1413718E+00
          2   -1    0    0  502    0  0.00000000000E+00  0.00000000000E+00  0.10932407980E+04  0.10932407980E+04  0.00000000000E+00 0. -1.
          1   -1    0    0  501    0 -0.00000000000E+00 -0.00000000000E+00 -0.59087952588E+03  0.59087952588E+03  0.00000000000E+00 0. -1.
         25    2    1    2    0    0  0.15507337394E+02  0.80086108075E+02  0.12328976331E+03  0.19359584131E+03  0.12499888726E+03 0.  0.
          2    1    1    2  501    0  0.10214256703E+02  0.27544003456E+02 -0.55205958699E+03  0.55284065585E+03  0.00000000000E+00 0. -1.
          1    1    1    2  502    0 -0.25721594097E+02 -0.10763011153E+03  0.93113109582E+03  0.93768382673E+03  0.00000000000E+00 0. -1.
         22    1    3    3    0    0  0.16179960567E+02  0.25062680758E+02  0.13421831690E+03  0.13749358414E+03  0.00000000000E+00 0. -1.
         22    1    3    3    0    0 -0.67262317320E+00  0.55023427316E+02 -0.10928553588E+02  0.56102257166E+02  0.00000000000E+00 0. -1.
</event>
<event>
 7    1  0.5622879E-006  0.1109853E+03  0.7818608E-02  0.1375756E+00
          2   -1    0    0  502    0  0.00000000000E+00  0.00000000000E+00  0.12546517678E+03  0.12546517678E+03  0.00000000000E+00 0. -1.
          1   -1    0    0  501    0 -0.00000000000E+00 -0.00000000000E+00 -0.23694240788E+03  0.23694240788E+03  0.00000000000E+00 0. -1.
         25    2    1    2    0    0  0.46026825657E+02 -0.88100494086E+02  0.47032269785E+00  0.15970639902E+03  0.12500298774E+03 0.  0.
          2    1    1    2  501    0  0.36713971703E+02 -0.12443857375E+02 -0.24960218474E+02  0.46106158058E+02  0.00000000000E+00 0. -1.
          1    1    1    2  502    0 -0.82740797360E+02  0.10054435146E+03 -0.86987335327E+02  0.15659502759E+03  0.00000000000E+00 0. -1.
         22    1    3    3    0    0 -0.16394824877E+02 -0.76986396122E+02  0.36518800946E+02  0.86771644523E+02  0.00000000000E+00 0.  1.
         22    1    3    3    0    0  0.62421650534E+02 -0.11114097963E+02 -0.36048478248E+02  0.72934754493E+02  0.00000000000E+00 0.  1.
</event>
<event>
 7    1  0.5622879E-006  0.8152535E+02  0.7818608E-02  0.1467166E+00
          2   -1    0    0  502    0  0.00000000000E+00  0.00000000000E+00  0.15382997620E+04  0.15382997620E+04  0.00000000000E+00 0. -1.
          1   -1    0    0  501    0 -0.00000000000E+00 -0.00000000000E+00 -0.54547094385E+02  0.54547094385E+02  0.00000000000E+00 0. -1.
         25    2    1    2    0    0  0.35232498200E+02  0.76120348343E+02  0.34042910422E+03  0.37222709809E+03  0.12500160475E+03 0.  0.
          2    1    1    2  501    0 -0.55657333882E+02 -0.59794951610E+02  0.48365876703E+01  0.81832558516E+02  0.00000000000E+00 0. -1.
          1    1    1    2  502    0  0.20424835682E+02 -0.16325396732E+02  0.11384869757E+04  0.11387871997E+04  0.00000000000E+00 0. -1.
         22    1    3    3    0    0  0.71504659544E+02  0.44767547872E+02  0.12026922804E+03  0.14690723907E+03  0.00000000000E+00 0. -1.
         22    1    3    3    0    0 -0.36272161344E+02  0.31352800471E+02  0.22015987618E+03  0.22531985901E+03  0.00000000000E+00 0. -1.
</event>
<event>
 7    1  0.5622879E-006  0.1547518E+03  0.7818608E-02  0.1297483E+00
          2   -1    0    0  502    0  0.00000000000E+00  0.00000000000E+00  0.56194357077E+03  0.56194357077E+03  0.00000000000E+00 0. -1.
          1   -1    0    0  501    0 -0.00000000000E+00 -0.00000000000E+00 -0.15036091495E+04  0.15036091495E+04  0.00000000000E+00 0. -1.
         25    2    1    2    0    0  0.20050707845E+02  0.10308054285E+03 -0.65716370325E+02  0.17594913117E+03  0.12494729381E+03 0.  0.
          2    1    1    2  501    0  0.13453192850E+02  0.53325569585E+02 -0.13695903954E+04  0.13706941511E+04  0.00000000000E+00 0. -1.
          1    1    1    2  502    0 -0.33503900695E+02 -0.15640611244E+03  0.49364118697E+03  0.51890943800E+03  0.00000000000E+00 0. -1.
         22    1    3    3    0    0  0.41028598293E+02  0.98816477272E+02 -0.16999561361E+00  0.10699565859E+03  0.00000000000E+00 0.  1.
         22    1    3    3    0    0 -0.20977890448E+02  0.42640655821E+01 -0.65546374711E+02  0.68953472579E+02  0.00000000000E+00 0.  1.
</event>
<event>
 7    1  0.5622879E-006  0.1322932E+03  0.7818608E-02  0.1301597E+00
          2   -1    0    0  502    0  0.00000000000E+00  0.00000000000E+00  0.32938496896E+03  0.32938496896E+03  0.00000000000E+00 0. -1.
          1   -1    0    0  501    0 -0.00000000000E+00 -0.00000000000E+00 -0.15294878312E+04  0.15294878312E+04  0.00000000000E+00 0. -1.
         25    2    1    2    0    0 -0.69216379824E+02  0.63028659358E+02 -0.32959072157E+03  0.36471678652E+03  0.12499908594E+03 0.  0.
          2    1    1    2  501    0 -0.58270608854E+02 -0.20995050351E+02 -0.11670275528E+04  0.11686699983E+04  0.00000000000E+00 0. -1.
          1    1    1    2  502    0  0.12748698868E+03 -0.42033609007E+02  0.29651541210E+03  0.32548601534E+03  0.00000000000E+00 0. -1.
         22    1    3    3    0    0  0.17038829825E+02  0.58254422964E+02 -0.19971755301E+03  0.20873667741E+03  0.00000000000E+00 0. -1.
         22    1    3    3    0    0 -0.86255209649E+02  0.47742363939E+01 -0.12987316856E+03  0.15598010910E+03  0.00000000000E+00 0. -1.
</event>
<event>
 7    1  0.7852399E-006  0.7399544E+02  0.7818608E-02  0.1353071E+00
          2   -1    0    0  502    0  0.00000000000E+00  0.00000000000E+00  0.15399853172E+04  0.15399853172E+04  0.00000000000E+00 0. -1.
          1   -1    0    0  501    0 -0.00000000000E+00 -0.00000000000E+00 -0.13177443654E+04  0.13177443654E+04  0.00000000000E+00 0. -1.
         25    2    1    2    0    0  0.11364709839E+03 -0.72710252831E+02 -0.14655703444E+03  0.23517325020E+03  0.12500019769E+03 0.  0.
          2    1    1    2  501    0 -0.41693862897E+02  0.56560316921E+02 -0.11248733230E+04  0.11270658545E+04  0.00000000000E+00 0. -1.
          1    1    1    2  502    0 -0.71953235493E+02  0.16149935910E+02  0.14936713092E+04  0.14954905778E+04  0.00000000000E+00 0. -1.
         22    1    3    3    0    0  0.10443070389E+03 -0.10631318026E+03 -0.12099528486E+03  0.19195864964E+03  0.00000000000E+00 0. -1.
         22    1    3    3    0    0  0.92163945013E+01  0.33602927432E+02 -0.25561749588E+02  0.43214600561E+02  0.00000000000E+00 0. -1.
</event>
<event>
 7    1  0.5622879E-006  0.9449146E+02  0.7818608E-02  0.1301343E+00
          2   -1    0    0  502    0  0.00000000000E+00  0.00000000000E+00  0.90282512465E+03  0.90282512465E+03  0.00000000000E+00 0. -1.
          1   -1    0    0  501    0 -0.00000000000E+00 -0.00000000000E+00 -0.30424341317E+03  0.30424341317E+03  0.00000000000E+00 0. -1.
         25    2    1    2    0    0  0.11414277231E+02  0.11297947592E+03 -0.11023976002E+03  0.20167330870E+03  0.12499868419E+03 0.  0.
          2    1    1    2  501    0  0.65334606417E+02 -0.57325777940E+02 -0.13265537268E+03  0.15859477770E+03  0.00000000000E+00 0. -1.
          1    1    1    2  502    0 -0.76748883648E+02 -0.55653697978E+02  0.84147684418E+03  0.84680045142E+03  0.00000000000E+00 0. -1.
         22    1    3    3    0    0  0.42873323534E+02  0.14305058170E+02  0.64462820703E+01  0.45654256238E+02  0.00000000000E+00 0. -1.
         22    1    3    3    0    0 -0.31459046303E+02  0.98674417748E+02 -0.11668604209E+03  0.15601905246E+03  0.00000000000E+00 0. -1.
</event>
<event>
 7    1  0.5622879E-006  0.6651514E+02  0.7818608E-02  0.1447291E+00
          2   -1    0    0  502    0  0.00000000000E+00  0.00000000000E+00  0.37016976481E+03  0.37016976481E+03  0.00000000000E+00 0. -1.
          1   -1    0    0  501    0 -0.00000000000E+00 -0.00000000000E+00 -0.15616940792E+03  0.15616940792E+03  0.00000000000E+00 0. -1.
         25    2    1    2    0    0  0.77964428559E+02 -0.65065009381E+02 -0.78985833240E+02  0.17938030788E+03  0.12500650158E+03 0.  0.
          2    1    1    2  501    0 -0.32469628399E+02  0.17837481816E+02 -0.88436644018E+01  0.38087569179E+02  0.00000000000E+00 0. -1.
          1    1    1    2  502    0 -0.45494800160E+02  0.47227527565E+02  0.30182985453E+03  0.30887129567E+03  0.00000000000E+00 0. -1.
         22    1    3    3    0    0 -0.30971857309E+02 -0.11155286628E+02 -0.39851413886E+02  0.51689762561E+02  0.00000000000E+00 0. -1.
         22    1    3    3    0    0  0.10893628587E+03 -0.53909722753E+02 -0.39134419353E+02  0.12769054532E+03  0.00000000000E+00 0. -1.
</event>
<event>
 7    1  0.5622879E-006  0.1418974E+03  0.7818608E-02  0.1239165E+00
          2   -1    0    0  502    0  0.00000000000E+00  0.00000000000E+00  0.20563917220E+04  0.20563917220E+04  0.00000000000E+00 0. -1.
          1   -1    0    0  501    0 -0.00000000000E+00 -0.00000000000E+00 -0.79267079932E+03  0.79267079932E+03  0.00000000000E+00 0. -1.
         25    2    1    2    0    0  0.12440796972E+03 -0.13391097225E+03  0.26583448430E+03  0.34597760705E+03  0.12499216023E+03 0.  0.
          2    1    1    2  501    0  0.13717112284E+02  0.10471280533E+03 -0.74602777205E+03  0.75346557150E+03  0.00000000000E+00 0. -1.
          1    1    1    2  502    0 -0.13812508201E+03  0.29198166917E+02  0.17439142104E+04  0.17496193428E+04  0.00000000000E+00 0. -1.
         22    1    3    3    0    0  0.58394844742E+02  0.69812015762E+01  0.11556853419E+03  0.12967182100E+03  0.00000000000E+00 0. -1.
         22    1    3    3    0    0  0.66013124982E+02 -0.14089217382E+03  0.15026595011E+03  0.21630578605E+03  0.00000000000E+00 0. -1.
</event>
<event>
 7    1  0.5622879E-006  0.1563421E+03  0.7818608E-02  0.1363500E+00
          2   -1    0    0  502    0  0.00000000000E+00  0.00000000000E+00  0.21445162068E+03  0.21445162068E+03  0.00000000000E+00 0. -1.
          1   -1    0    0  501    0 -0.00000000000E+00 -0.00000000000E+00 -0.13758246006E+04  0.13758246006E+04  0.00000000000E+00 0. -1.
         25    2    1    2    0    0  0.78652531483E+02  0.14054073557E+03 -0.11720053958E+03  0.23516141373E+03  0.12500801961E+03 0.  0.
          2    1    1    2  501    0  0.21718990770E+02 -0.21355430993E+02 -0.11603515881E+04  0.11607512985E+04  0.00000000000E+00 0. -1.
          1    1    1    2  502    0 -0.10037152225E+03 -0.11918530458E+03  0.11617914770E+03  0.19436350910E+03  0.00000000000E+00 0. -1.
         22    1    3    3    0    0  0.98546870795E+02  0.14890907914E+03 -0.88617274765E+02  0.19934497982E+03  0.00000000000E+00 0. -1.
         22    1    3    3    0    0 -0.19894339312E+02 -0.83683435648E+01 -0.28583264812E+02  0.35816433909E+02  0.00000000000E+00 0. -1.
</event>
<event>
 7    1  0.5622879E-006  0.5335683E+02  0.7818608E-02  0.1489347E+00
          2   -1    0    0  502    0  0.00000000000E+00  0.00000000000E+00  0.58323063209E+03  0.58323063209E+03  0.00000000000E+00 0. -1.
          1   -1    0    0  501    0 -0.00000000000E+00 -0.00000000000E+00 -0.26218590345E+02  0.26218590345E+02  0.00000000000E+00 0. -1.
         25    2    1    2    0    0 -0.62309098284E+02 -0.42232337664E+02  0.37893493211E+03  0.40605771628E+03  0.12500076841E+03 0.  0.
          2    1    1    2  501    0  0.15499470679E+02  0.30423855268E+02  0.23496669438E+02  0.41448016061E+02  0.00000000000E+00 0. -1.
          1    1    1    2  502    0  0.46809627605E+02  0.11808482396E+02  0.15458044020E+03  0.16194349010E+03  0.00000000000E+00 0. -1.
         22    1    3    3    0    0 -0.74246058402E+02  0.22853665413E+02  0.23809116283E+03  0.25044394388E+03  0.00000000000E+00 0.  1.
         22    1    3    3    0    0  0.11936960118E+02 -0.65086003077E+02  0.14084376928E+03  0.15561377239E+03  0.00000000000E+00 0.  1.
</event>
<event>
 7    1  0.5622879E-006  0.9158316E+02  0.7818608E-02  0.1409458E+00
          2   -1    0    0  502    0  0.00000000000E+00  0.00000000000E+00  0.50319082722E+03  0.50319082722E+03  0.00000000000E+00 0. -1.
          1   -1    0    0  501    0 -0.00000000000E+00 -0.00000000000E+00 -0.29043673930E+04  0.29043673930E+04  0.00000000000E+00 0. -1.
         25    2    1    2    0    0 -0.96595391974E+01  0.12606545582E+03 -0.12091027510E+03  0.21501092927E+03  0.12499839691E+03 0.  0.
          2    1    1    2  501    0  0.21062694923E+01 -0.91000750285E+02 -0.27349432998E+04  0.27364576419E+04  0.00000000000E+00 0. -1.
          1    1    1    2  502    0  0.75532697050E+01 -0.35064705537E+02  0.45467700905E+03  0.45608964910E+03  0.00000000000E+00 0. -1.
         22    1    3    3    0    0 -0.10113664628E+01  0.59243932730E+01 -0.90606373392E+02  0.90805485501E+02  0.00000000000E+00 0.  1.
         22    1    3    3    0    0 -0.86481727346E+01  0.12014106255E+03 -0.30303901704E+02  0.12420544376E+03  0.00000000000E+00 0.  1.
</event>
<event>
 7    1  0.5622879E-006  0.5524693E+02  0.7818608E-02  0.1502934E+00
          2   -1    0    0  502    0  0.00000000000E+00  0.00000000000E+00  0.23601760668E+04  0.23601760668E+04  0.00000000000E+00 0. -1.
          1   -1    0    0  501    0 -0.00000000000E+00 -0.00000000000E+00 -0.41409815366E+02  0.41409815366E+02  0.00000000000E+00 0. -1.
         25    2    1    2    0    0 -0.61179851235E+02 -0.52920510254E+02  0.79787507539E+03  0.81164888053E+03  0.12500285895E+03 0.  0.
          2    1    1    2  501    0  0.14726500134E+02  0.26162029194E+02 -0.27443135060E+02  0.40674896922E+02  0.00000000000E+00 0. -1.
          1    1    1    2  502    0  0.46453351101E+02  0.26758481060E+02  0.15483343111E+04  0.15492621047E+04  0.00000000000E+00 0. -1.
         22    1    3    3    0    0 -0.29589812140E+02 -0.55735021696E+02  0.75835804521E+03  0.76097889219E+03  0.00000000000E+00 0.  1.
         22    1    3    3    0    0 -0.31590039096E+02  0.28145114417E+01  0.39517030178E+02  0.50669988345E+02  0.00000000000E+00 0.  1.
</event>
<event>
 7    1  0.5622879E-006  0.1755600E+03  0.7818608E-02  0.1264475E+00
          2   -1    0    0  502    0  0.00000000000E+00  0.00000000000E+00  0.18180677126E+04  0.18180677126E+04  0.00000000000E+00 0. -1.
          1   -1    0    0  501    0 -0.00000000000E+00 -0.00000000000E+00 -0.63884462562E+02  0.63884462562E+02  0.00000000000E+00 0. -1.
         25    2    1    2    0    0  0.11512618036E+03  0.75658070337E+02  0.50900538737E+03  0.54193178594E+03  0.12500158088E+03 0.  0.
          2    1    1    2  501    0  0.65975184804E+02 -0.69257137775E+01 -0.12506587822E+02  0.67506334963E+02  0.00000000000E+00 0. -1.
          1    1    1    2  502    0 -0.18110136516E+03 -0.68732356559E+02  0.12576844505E+04  0.12725140542E+04  0.00000000000E+00 0. -1.
         22    1    3    3    0    0  0.95144266998E+02  0.52342445658E+02  0.17121091226E+03  0.20274451814E+03  0.00000000000E+00 0. -1.
         22    1    3    3    0    0  0.19981913357E+02  0.23315624678E+02  0.33779447511E+03  0.33918726779E+03  0.00000000000E+00 0. -1.
</event>
<event>
 7    1  0.1011727E-005  0.7956887E+02  0.7818608E-02  0.1371579E+00
          2   -1    0    0  502    0  0.00000000000E+00  0.00000000000E+00  0.14654718137E+04  0.14654718137E+04  0.00000000000E+00 0. -1.
          1   -1    0    0  501    0 -0.00000000000E+00 -0.00000000000E+00 -0.99713179798E+03  0.99713179798E+03  0.00000000000E+00 0. -1.
         25    2    1    2    0    0  0.95571419743E+02  0.76032195745E+02 -0.34797512948E+03  0.38939253442E+03  0.12500025626E+03 0.  0.
          2    1    1    2  501    0 -0.70963390528E+02 -0.25769582929E+02 -0.62563577504E+03  0.63017457677E+03  0.00000000000E+00 0. -1.
          1    1    1    2  502    0 -0.24608029215E+02 -0.50262612815E+02  0.14419509202E+04  0.14430365005E+04  0.00000000000E+00 0. -1.
         22    1    3    3    0    0  0.56364439288E+02  0.10656632158E+03 -0.28287888289E+03  0.30749600533E+03  0.00000000000E+00 0.  1.
         22    1    3    3    0    0  0.39206980455E+02 -0.30534125831E+02 -0.65096246596E+02  0.81896529094E+02  0.00000000000E+00 0.  1.
</event>
<event>
 7    1  0.5622879E-006  0.8817747E+02  0.7818608E-02  0.1309795E+00
          2   -1    0    0  502    0  0.00000000000E+00  0.00000000000E+00  0.43798176001E+03  0.43798176001E+03  0.00000000000E+00 0. -1.
          1   -1    0    0  501    0 -0.00000000000E+00 -0.00000000000E+00 -0.23442393709E+03  0.23442393709E+03  0.00000000000E+00 0. -1.
         25    2    1    2    0    0 -0.65970078516E+02  0.80312171916E+02 -0.44366966868E+02  0.16852007203E+03  0.12501396207E+03 0.  0.
          2    1    1    2  501    0 -0.19659946597E+02 -0.90378334098E+02 -0.10537970789E+03  0.14021283682E+03  0.00000000000E+00 0. -1.
          1    1    1    2  502    0  0.85630025113E+02  0.10066162182E+02  0.35330449769E+03  0.36367278824E+03  0.00000000000E+00 0. -1.
         22    1    3    3    0    0 -0.10068452942E+01 -0.32432140347E+02 -0.94349011042E+01  0.33791638371E+02  0.00000000000E+00 0.  1.
         22    1    3    3    0    0 -0.64963233222E+02  0.11274431226E+03 -0.34932065763E+02  0.13472843366E+03  0.00000000000E+00 0.  1.
</event>
<event>
 7    1  0.5622879E-006  0.1010276E+03  0.7818608E-02  0.1303218E+00
          2   -1    0    0  502    0  0.00000000000E+00  0.00000000000E+00  0.18105553247E+03  0.18105553247E+03  0.00000000000E+00 0. -1.
          1   -1    0    0  501    0 -0.00000000000E+00 -0.00000000000E+00 -0.17307238072E+04  0.17307238072E+04  0.00000000000E+00 0. -1.
         25    2    1    2    0    0  0.11031793412E+03  0.51540787378E+02 -0.23134445299E+03  0.28977858047E+03  0.12499948166E+03 0.  0.
          2    1    1    2  501    0 -0.68609134194E+02  0.40962745546E+02 -0.14519870946E+04  0.14541841983E+04  0.00000000000E+00 0. -1.
          1    1    1    2  502    0 -0.41708799930E+02 -0.92503532925E+02  0.13366327285E+03  0.16781656087E+03  0.00000000000E+00 0. -1.
         22    1    3    3    0    0 -0.41474204734E+01  0.47790192470E+02 -0.12341202159E+03  0.13240706426E+03  0.00000000000E+00 0.  1.
         22    1    3    3    0    0  0.11446535460E+03  0.37505949083E+01 -0.10793243140E+03  0.15737151621E+03  0.00000000000E+00 0.  1.
</event>
<event>
 7    1  0.5622879E-006  0.1267801E+03  0.7818608E-02  0.1320942E+00
          2   -1    0    0  502    0  0.00000000000E+00  0.00000000000E+00  0.39382132131E+02  0.39382132131E+02  0.00000000000E+00 0. -1.
          1   -1    0    0  501    0 -0.00000000000E+00 -0.00000000000E+00 -0.18967036187E+04  0.18967036187E+04  0.00000000000E+00 0. -1.
         25    2    1    2    0    0 -0.17253207310E+02  0.79246959396E+02 -0.24239825837E+03  0.28453417572E+03  0.12500011101E+03 0.  0.
          2    1    1    2  501    0  0.80058236868E+01 -0.13269654819E+03 -0.15830801539E+04  0.15886520201E+04  0.00000000000E+00 0. -1.
          1    1    1    2  502    0  0.92473836233E+01  0.53449588796E+02 -0.31843074276E+02  0.62899555052E+02  0.00000000000E+00 0. -1.
         22    1    3    3    0    0  0.30029097407E+02  0.17433972988E+02 -0.18397104700E+03  0.18721921974E+03  0.00000000000E+00 0.  1.
         22    1    3    3    0    0 -0.47282304717E+02  0.61812986408E+02 -0.58427211375E+02  0.97314955979E+02  0.00000000000E+00 0.  1.
</event>
<event>
 7    1  0.5622879E-006  0.3793479E+02  0.7818608E-02  0.1589961E+00
          2   -1    0    0  502    0  0.00000000000E+00  0.00000000000E+00  0.13487454728E+03  0.13487454728E+03  0.00000000000E+00 0. -1.
          1   -1    0    0  501    0 -0.00000000000E+00 -0.00000000000E+00 -0.78912226201E+03  0.78912226201E+03  0.00000000000E+00 0. -1.
         25    2    1    2    0    0  0.30353880244E+02 -0.52898235765E+02 -0.45862501254E+03  0.47925104709E+03  0.12500033046E+03 0.  0.
          2    1    1    2  501    0 -0.18091709698E+02  0.17142446558E+02 -0.31681577303E+03  0.31779459950E+03  0.00000000000E+00 0. -1.
          1    1    1    2  502    0 -0.12262170547E+02  0.35755789207E+02  0.12119307085E+03  0.12695116269E+03  0.00000000000E+00 0. -1.
         22    1    3    3    0    0  0.72697130523E+02 -0.50861406713E+01 -0.20020214656E+03  0.21305314149E+03  0.00000000000E+00 0.  1.
         22    1    3    3    0    0 -0.42343250279E+02 -0.47812095094E+02 -0.25842286598E+03  0.26619790560E+03  0.00000000000E+00 0.  1.
</event>
<event>
 7    1  0.9933683E-006  0.8612214E+02  0.7818608E-02  0.1348882E+00
          2   -1    0    0  502    0  0.00000000000E+00  0.00000000000E+00  0.11727585670E+04  0.11727585670E+04  0.00000000000E+00 0. -1.
          1   -1    0    0  501    0 -0.00000000000E+00 -0.00000000000E+00 -0.75741874471E+03  0.75741874471E+03  0.00000000000E+00 0. -1.
         25    2    1    2    0    0  0.37599643747E+02  0.30894566770E+02 -0.31948008034E+03  0.34649903342E+03  0.12500340379E+03 0.  0.
          2    1    1    2  501    0  0.48318732065E+02 -0.39746550688E+02 -0.42050257098E+03  0.42513162710E+03  0.00000000000E+00 0. -1.
          1    1    1    2  502    0 -0.85918375812E+02  0.88519839178E+01  0.11553224736E+04  0.11585466512E+04  0.00000000000E+00 0. -1.
         22    1    3    3    0    0 -0.25530956695E+02  0.45889679326E+02 -0.23029916482E+03  0.23621049455E+03  0.00000000000E+00 0. -1.
         22    1    3    3    0    0  0.63130600442E+02 -0.14995112556E+02 -0.89180915519E+02  0.11028853887E+03  0.00000000000E+00 0. -1.
</event>
<event>
 7    1  0.5622879E-006  0.8801842E+02  0.7818608E-02  0.1393276E+00
          2   -1    0    0  502    0  0.00000000000E+00  0.00000000000E+00  0.28851688070E+04  0.28851688070E+04  0.00000000000E+00 0. -1.
          1   -1    0    0  501    0 -0.00000000000E+00 -0.00000000000E+00 -0.47014542406E+02  0.47014542406E+02  0.00000000000E+00 0. -1.
         25    2    1    2    0    0 -0.53743651487E+02  0.11400970533E+02  0.93004289401E+03  0.94001196103E+03  0.12499735990E+03 0.  0.
          2    1    1    2  501    0 -0.36334316708E+02  0.21878605876E+02 -0.29829827424E+02  0.51852430703E+02  0.00000000000E+00 0. -1.
          1    1    1    2  502    0  0.90077968195E+02 -0.33279576408E+02  0.19379411980E+04  0.19403189576E+04  0.00000000000E+00 0. -1.
         22    1    3    3    0    0  0.16239847329E+02  0.44317507128E+02  0.55932456858E+03  0.56131252177E+03  0.00000000000E+00 0.  1.
         22    1    3    3    0    0 -0.69983498816E+02 -0.32916536595E+02  0.37071832543E+03  0.37869943926E+03  0.00000000000E+00 0.  1.
</event>
<event>
 7    1  0.5622879E-006  0.6474344E+02  0.7818608E-02  0.1480039E+00
          2   -1    0    0  502    0  0.00000000000E+00  0.00000000000E+00  0.31212958095E+04  0.31212958095E+04  0.00000000000E+00 0. -1.
          1   -1    0    0  501    0 -0.00000000000E+00 -0.00000000000E+00 -0.54066856140E+03  0.54066856140E+03  0.00000000000E+00 0. -1.
         25    2    1    2    0    0  0.18072114686E+02 -0.30751357682E+02  0.33794514082E+02  0.13430608414E+03  0.12499523082E+03 0.  0.
          2    1    1    2  501    0  0.67180673449E+01 -0.29278009706E+02 -0.48960521466E+03  0.49052584081E+03  0.00000000000E+00 0. -1.
          1    1    1    2  502    0 -0.24790182031E+02  0.60029367388E+02  0.30364379487E+04  0.30371324460E+04  0.00000000000E+00 0. -1.
         22    1    3    3    0    0 -0.17977220575E+02 -0.54579785765E+02 -0.23888659737E+02  0.62231837011E+02  0.00000000000E+00 0. -1.
         22    1    3    3    0    0  0.36049335261E+02  0.23828428083E+02  0.57683173818E+02  0.72074247130E+02  0.00000000000E+00 0. -1.
</event>
<event>
 7    1  0.5622879E-006  0.3918496E+02  0.7818608E-02  0.1564757E+00
          2   -1    0    0  502    0  0.00000000000E+00  0.00000000000E+00  0.54312951661E+03  0.54312951661E+03  0.00000000000E+00 0. -1.
          1   -1    0    0  501    0 -0.00000000000E+00 -0.00000000000E+00 -0.10385399147E+04  0.10385399147E+04  0.00000000000E+00 0. -1.
         25    2    1    2    0    0 -0.37030746376E+02 -0.17682641151E+00  0.11247476948E+03  0.17218225580E+03  0.12499939200E+03 0.  0.
          2    1    1    2  501    0  0.28411246531E+02  0.27033840142E+02 -0.10078080623E+04  0.10085708293E+04  0.00000000000E+00 0. -1.
          1    1    1    2  502    0  0.86194998456E+01 -0.26857013731E+02  0.39992289466E+03  0.40091634619E+03  0.00000000000E+00 0. -1.
         22    1    3    3    0    0  0.33327549421E+01  0.12321947339E+02  0.12689471922E+03  0.12753512225E+03  0.00000000000E+00 0. -1.
         22    1    3    3    0    0 -0.40363501318E+02 -0.12498773750E+02 -0.14419949744E+02  0.44647133554E+02  0.00000000000E+00 0. -1.
</event>
<event>
 7    1  0.5622879E-006  0.1157728E+03  0.7818608E-02  0.1398665E+00
          2   -1    0    0  502    0  0.00000000000E+00  0.00000000000E+00  0.36471451446E+03  0.36471451446E+03  0.00000000000E+00 0. -1.
          1   -1    0    0  501    0 -0.00000000000E+00 -0.00000000000E+00 -0.69515220969E+03  0.69515220969E+03  0.00000000000E+00 0. -1.
         25    2    1    2    0    0 -0.93079996609E+00  0.12965791763E+03 -0.11061531743E+03  0.21135751081E+03  0.12499682769E+03 0.  0.
          2    1    1    2  501    0  0.25886146292E+02 -0.11145236262E+03 -0.52725572232E+03  0.53952786622E+03  0.00000000000E+00 0. -1.
          1    1    1    2  502    0 -0.24955346326E+02 -0.18205555013E+02  0.30743334452E+03  0.30898134712E+03  0.00000000000E+00 0. -1.
         22    1    3    3    0    0 -0.18306809884E+02  0.11880352289E+03 -0.13416855588E+03  0.18014054992E+03  0.00000000000E+00 0. -1.
         22    1    3    3    0    0  0.17376009918E+02  0.10854394745E+02  0.23553238449E+02  0.31216960893E+02  0.00000000000E+00 0. -1.
</event>
<event>
 7    1  0.5622879E-006  0.1122728E+03  0.7818608E-02  0.1425057E+00
          2   -1    0    0  502    0  0.00000000000E+00  0.00000000000E+00  0.14968722188E+04  0.14968722188E+04  0.00000000000E+00 0. -1.
          1   -1    0    0  501    0 -0.00000000000E+00 -0.00000000000E+00 -0.75259255416E+03  0.75259255416E+03  0.00000000000E+00 0. -1.
         25    2    1    2    0    0  0.12998943993E+03  0.25120438738E+02  0.38392423221E+03  0.42491303395E+03  0.12499991763E+03 0.  0.
          2    1    1    2  501    0 -0.25057031320E+02  0.67060039684E+01 -0.72911540288E+03  0.72957665535E+03  0.00000000000E+00 0. -1.
          1    1    1    2  502    0 -0.10493240861E+03 -0.31826442706E+02  0.10894708353E+04  0.10949750836E+04  0.00000000000E+00 0. -1.
         22    1    3    3    0    0  0.12494070929E+03  0.45707996023E+02  0.38094423579E+03  0.40350701670E+03  0.00000000000E+00 0.  1.
         22    1    3    3    0    0  0.50487306430E+01 -0.20587557285E+02  0.29799964136E+01  0.21406017254E+02  0.00000000000E+00 0.  1.
</event>
<event>
 7    1  0.6408866E-006  0.8705424E+02  0.7818608E-02  0.1352159E+00
          2   -1    0    0  502    0  0.00000000000E+00  0.00000000000E+00  0.11654417519E+04  0.11654417519E+04  0.00000000000E+00 0. -1.
          1   -1    0    0  501    0 -0.00000000000E+00 -0.00000000000E+00 -0.74165772134E+03  0.74165772134E+03  0.00000000000E+00 0. -1.
         25    2    1    2    0    0 -0.13739389197E+03 -0.25255213304E+02 -0.24636125775E+03  0.30957042203E+03  0.12500027810E+03 0.  0.
          2    1    1    2  501    0  0.77203102833E+02  0.25281178342E+02 -0.45932627703E+03  0.46645480578E+03  0.00000000000E+00 0. -1.
          1    1    1    2  502    0  0.60190789133E+02 -0.25965038493E-01  0.11294715653E+04  0.11310742454E+04  0.00000000000E+00 0. -1.
         22    1    3    3    0    0 -0.81727312665E+02  0.45879727975E+02 -0.15473614034E+03  0.18090764551E+03  0.00000000000E+00 0. -1.
         22    1    3    3    0    0 -0.55666579302E+02 -0.71134941279E+02 -0.91625117409E+02  0.12866277652E+03  0.00000000000E+00 0. -1.
</event>
<event>
 7    1  0.5622879E-006  0.8827171E+02  0.7818608E-02  0.1375319E+00
          2   -1    0    0  502    0  0.00000000000E+00  0.00000000000E+00  0.13704088277E+03  0.13704088277E+03  0.00000000000E+00 0. -1.
          1   -1    0    0  501    0 -0.00000000000E+00 -0.00000000000E+00 -0.15824402016E+04  0.15824402016E+04  0.00000000000E+00 0. -1.
         25    2    1    2    0    0  0.54181279929E+02 -0.14948229524E+02 -0.84923435078E+02  0.16122764996E+03  0.12499321831E+03 0.  0.
          2    1    1    2  501    0 -0.87147353686E+02 -0.21189830665E+02 -0.14518460342E+04  0.14546135491E+04  0.00000000000E+00 0. -1.
          1    1    1    2  502    0  0.32966073757E+02  0.36138060189E+02  0.91370150512E+02  0.10363988526E+03  0.00000000000E+00 0. -1.
         22    1    3    3    0    0  0.60247084415E+02  0.40787507217E+02 -0.20014571507E+02  0.75458034682E+02  0.00000000000E+00 0.  1.
         22    1    3    3    0    0 -0.60658044863E+01 -0.55735736741E+02 -0.64908863570E+02  0.85769615273E+02  0.00000000000E+00 0.  1.
</event>
<event>
 7    1  0.5622879E-006  0.1783241E+03  0.7818608E-02  0.1253674E+00
          2   -1    0    0  502    0  0.00000000000E+00  0.00000000000E+00  0.20787723719E+04  0.20787723719E+04  0.00000000000E+00 0. -1.
          1   -1    0    0  501    0 -0.00000000000E+00 -0.00000000000E+00 -0.44741904851E+03  0.44741904851E+03  0.00000000000E+00 0. -1.
         25    2    1    2    0    0 -0.83709566572E+02  0.66299155792E+02  0.11888785016E+04  0.12001914996E+04  0.12499869750E+03 0.  0.
          2    1    1    2  501    0  0.14082103046E+03 -0.11117808401E+03 -0.42195895909E+03  0.45851989285E+03  0.00000000000E+00 0. -1.
          1    1    1    2  502    0 -0.57111463885E+02  0.44878928220E+02  0.86443378084E+03  0.86748002799E+03  0.00000000000E+00 0. -1.
         22    1    3    3    0    0 -0.10968454023E+03  0.41677466903E+02  0.10587132594E+04  0.10651955104E+04  0.00000000000E+00 0. -1.
         22    1    3    3    0    0  0.25974973661E+02  0.24621688890E+02  0.13016524221E+03  0.13499598920E+03  0.00000000000E+00 0. -1.
</event>
<event>
 7    1  0.5622879E-006  0.7094492E+02  0.7818608E-02  0.1397060E+00
          2   -1    0    0  502    0  0.00000000000E+00  0.00000000000E+00  0.72175812740E+03  0.72175812740E+03  0.00000000000E+00 0. -1.
          1   -1    0    0  501    0 -0.00000000000E+00 -0.00000000000E+00 -0.10349053848E+04  0.10349053848E+04  0.00000000000E+00 0. -1.
         25    2    1    2    0    0 -0.14565685732E+02  0.31854442735E+02  0.10463791083E+03  0.16673596306E+03  0.12499969709E+03 0.  0.
          2    1    1    2  501    0 -0.21416687830E+02 -0.68075649629E+02 -0.10014722426E+04  0.10040117636E+04  0.00000000000E+00 0. -1.
          1    1    1    2  502    0  0.35982373562E+02  0.36221206894E+02  0.58368707437E+03  0.58591578561E+03  0.00000000000E+00 0. -1.
         22    1    3    3    0    0 -0.35524049032E+02  0.69500869171E+02  0.36614420282E+02  0.86214526895E+02  0.00000000000E+00 0.  1.
         22    1    3    3    0    0  0.20958363300E+02 -0.37646426435E+02  0.68023490550E+02  0.80521436166E+02  0.00000000000E+00 0.  1.
</event>
<event>
 7    1  0.5622879E-006  0.1425480E+03  0.7818608E-02  0.1271022E+00
          2   -1    0    0  502    0  0.00000000000E+00  0.00000000000E+00  0.16410057926E+04  0.16410057926E+04  0.00000000000E+00 0. -1.
          1   -1    0    0  501    0 -0.00000000000E+00 -0.00000000000E+00 -0.95536385717E+02  0.95536385717E+02  0.00000000000E+00 0. -1.
         25    2    1    2    0    0 -0.83475352991E+02  0.42460191343E+02  0.47090816492E+03  0.49613518891E+03  0.12499849391E+03 0.  0.
          2    1    1    2  501    0 -0.76516875796E+02  0.48549882087E+01 -0.57676555644E+02  0.95942630061E+02  0.00000000000E+00 0. -1.
          1    1    1    2  502    0  0.15999222879E+03 -0.47315179551E+02  0.11322377976E+04  0.11444643594E+04  0.00000000000E+00 0. -1.
         22    1    3    3    0    0 -0.37121533411E+02  0.43846380431E+01  0.40613536676E+03  0.40785189643E+03  0.00000000000E+00 0. -1.
         22    1    3    3    0    0 -0.46353819579E+02  0.38075553299E+02  0.64772798169E+02  0.88283292481E+02  0.00000000000E+00 0. -1.
</event>
<event>
 7    1  0.5622879E-006  0.1697151E+03  0.7818608E-02  0.1335897E+00
          2   -1    0    0  502    0  0.00000000000E+00  0.00000000000E+00  0.79251307321E+03  0.79251307321E+03  0.00000000000E+00 0. -1.
          1   -1    0    0  501    0 -0.00000000000E+00 -0.00000000000E+00 -0.74797446328E+02  0.74797446328E+02  0.00000000000E+00 0. -1.
         25    2    1    2    0    0  0.15414437713E+03  0.52674059124E+02  0.23310478106E+03  0.31064147473E+03  0.12500096543E+03 0.  0.
          2    1    1    2  501    0 -0.17509725208E+03 -0.23998967796E+02  0.18833886868E+03  0.25827606857E+03  0.00000000000E+00 0. -1.
          1    1    1    2  502    0  0.20952874947E+02 -0.28675091328E+02  0.29627197713E+03  0.29839297624E+03  0.00000000000E+00 0. -1.
         22    1    3    3    0    0  0.12976076395E+03  0.69416929036E+01  0.89005711302E+02  0.15750574468E+03  0.00000000000E+00 0.  1.
         22    1    3    3    0    0  0.24383613182E+02  0.45732366220E+02  0.14409906976E+03  0.15313573005E+03  0.00000000000E+00 0.  1.
</event>
<event>
 7    1  0.5622879E-006  0.1299021E+03  0.7818608E-02  0.1297104E+00
          2   -1    0    0  502    0  0.00000000000E+00  0.00000000000E+00  0.21911192270E+04  0.21911192270E+04  0.00000000000E+00 0. -1.
          1   -1    0    0  501    0 -0.00000000000E+00 -0.00000000000E+00 -0.23451545302E+03  0.23451545302E+03  0.00000000000E+00 0. -1.
         25    2    1    2    0    0  0.13602453460E+03  0.23652089738E+02  0.30751233167E+03  0.35951617121E+03  0.12500379141E+03 0.  0.
          2    1    1    2  501    0 -0.33216786089E+02  0.56739663490E+02 -0.20097422931E+03  0.21145539751E+03  0.00000000000E+00 0. -1.
          1    1    1    2  502    0 -0.10280774851E+03 -0.80391753228E+02  0.18500656716E+04  0.18546631113E+04  0.00000000000E+00 0. -1.
         22    1    3    3    0    0  0.59199951485E+02 -0.45966725596E+02  0.80727737546E+02  0.11015689596E+03  0.00000000000E+00 0.  1.
         22    1    3    3    0    0  0.76824583114E+02  0.69618815334E+02  0.22678459413E+03  0.24935927525E+03  0.00000000000E+00 0.  1.
</event>
<event>
 7    1  0.5622879E-006  0.3491895E+02  0.7818608E-02  0.1630130E+00
          2   -1    0    0  502    0  0.00000000000E+00  0.00000000000E+00  0.66468376393E+03  0.66468376393E+03  0.00000000000E+00 0. -1.
          1   -1    0    0  501    0 -0.00000000000E+00 -0.00000000000E+00 -0.13781107225E+04  0.13781107225E+04  0.00000000000E+00 0. -1.
         25    2    1    2    0    0 -0.41984520195E+02 -0.24682706175E+02 -0.43159509206E+03  0.45196712042E+03  0.12501207353E+03 0.  0.
          2    1    1    2  501    0  0.21075837962E+02 -0.32712592165E+01 -0.93574254292E+03  0.93598557612E+03  0.00000000000E+00 0. -1.
          1    1    1    2  502    0  0.20908682233E+02  0.27953965392E+02  0.65391067637E+03  0.65484178993E+03  0.00000000000E+00 0. -1.
         22    1    3    3    0    0 -0.33173114758E+01 -0.48460548678E+02 -0.58128202428E+02  0.75751681507E+02  0.00000000000E+00 0. -1.
         22    1    3    3    0    0 -0.38667208719E+02  0.23777842502E+02 -0.37346688963E+03  0.37621543891E+03  0.00000000000E+00 0. -1.
</event>
<event>
 7    1  0.5622879E-006  0.7980615E+02  0.7818608E-02  0.1340690E+00
          2   -1    0    0  502    0  0.00000000000E+00  0.00000000000E+00  0.10804528253E+04  0.10804528253E+04  0.00000000000E+00 0. -1.
          1   -1    0    0  501    0 -0.00000000000E+00 -0.00000000000E+00 -0.59250296123E+02  0.59250296123E+02  0.00000000000E+00 0. -1.
         25    2    1    2    0    0  0.53441164444E+01 -0.16301803222E+01  0.31471417612E+03  0.33867558552E+03  0.12499969003E+03 0.  0.
          2    1    1    2  501    0  0.13769689857E+02  0.79113623550E+02 -0.92677557560E+01  0.80836013551E+02  0.00000000000E+00 0. -1.
          1    1    1    2  502    0 -0.19113806302E+02 -0.77483443228E+02  0.71575610877E+03  0.72019152231E+03  0.00000000000E+00 0. -1.
         22    1    3    3    0    0 -0.47605630514E+02 -0.37119970542E+02  0.17465401711E+03  0.18479235364E+03  0.00000000000E+00 0.  1.
         22    1    3    3    0    0  0.52949746958E+02  0.35489790220E+02  0.14006015901E+03  0.15388323188E+03  0.00000000000E+00 0.  1.
</event>
<event>
 7    1  0.5622879E-006  0.1150441E+03  0.7818608E-02  0.1326182E+00
          2   -1    0    0  502    0  0.00000000000E+00  0.00000000000E+00  0.29902739270E+03  0.29902739270E+03  0.00000000000E+00 0. -1.
          1   -1    0    0  501    0 -0.00000000000E+00 -0.00000000000E+00 -0.24841595710E+03  0.24841595710E+03  0.00000000000E+00 0. -1.
         25    2    1    2    0    0 -0.26179349989E+02  0.16033240208E+03  0.89198132029E+02  0.22354575025E+03  0.12499823268E+03 0.  0.
          2    1    1    2  501    0 -0.71646586633E+00 -0.11001079036E+03 -0.15743383182E+03  0.19206326749E+03  0.00000000000E+00 0. -1.
          1    1    1    2  502    0  0.26895815855E+02 -0.50321611727E+02  0.11884713539E+03  0.13183433205E+03  0.00000000000E+00 0. -1.
         22    1    3    3    0    0 -0.35171934932E+01 -0.21242096951E+02  0.14183395672E+02  0.25783057339E+02  0.00000000000E+00 0.  1.
         22    1    3    3    0    0 -0.22662156495E+02  0.18157449904E+03  0.75014736357E+02  0.19776269291E+03  0.00000000000E+00 0.  1.
</event>
<event>
 7    1  0.5622879E-006  0.1677590E+03  0.7818608E-02  0.1210489E+00
          2   -1    0    0  502    0  0.00000000000E+00  0.00000000000E+00  0.15434830214E+03  0.15434830214E+03  0.00000000000E+00 0. -1.
          1   -1    0    0  501    0 -0.00000000000E+00 -0.00000000000E+00 -0.45159705561E+03  0.45159705561E+03  0.00000000000E+00 0. -1.
         25    2    1    2    0    0 -0.45909118186E+02 -0.21065572709E+03 -0.26045815282E+03  0.36047898474E+03  0.12499266612E+03 0.  0.
          2    1    1    2  501    0  0.75528133086E+02  0.93935790491E+02 -0.37323107743E+01  0.12059171516E+03  0.00000000000E+00 0. -1.
          1    1    1    2  502    0 -0.29619014901E+02  0.11671993660E+03 -0.33058289875E+02  0.12487465785E+03  0.00000000000E+00 0. -1.
         22    1    3    3    0    0  0.32022793594E+01 -0.12731230926E+02  0.13581423868E+02  0.18888989075E+02  0.00000000000E+00 0.  1.
         22    1    3    3    0    0 -0.49111397545E+02 -0.19792449616E+03 -0.27403957669E+03  0.34158999567E+03  0.00000000000E+00 0.  1.
</event>
<event>
 7    1  0.5622879E-006  0.7503763E+02  0.7818608E-02  0.1425646E+00
          2   -1    0    0  502    0  0.00000000000E+00  0.00000000000E+00  0.27130311508E+03  0.27130311508E+03  0.00000000000E+00 0. -1.
          1   -1    0    0  501    0 -0.00000000000E+00 -0.00000000000E+00 -0.47864239861E+03  0.47864239861E+03  0.00000000000E+00 0. -1.
         25    2    1    2    0    0 -0.63500296929E+02 -0.53986880243E+02 -0.46962470870E+02  0.15740909855E+03  0.12500111875E+03 0.  0.
          2    1    1    2  501    0  0.73217979723E+02  0.16592606614E+02 -0.37093844799E+03  0.37845940251E+03  0.00000000000E+00 0. -1.
          1    1    1    2  502    0 -0.97176827941E+01  0.37394273629E+02  0.21056163533E+03  0.21407701262E+03  0.00000000000E+00 0. -1.
         22    1    3    3    0    0 -0.11627415801E+02 -0.92167282107E+01  0.42330282674E+02  0.44855297440E+02  0.00000000000E+00 0. -1.
         22    1    3    3    0    0 -0.51872881128E+02 -0.44770152032E+02 -0.89292753544E+02  0.11255380111E+03  0.00000000000E+00 0. -1.
</event>
<event>
 7    1  0.5622879E-006  0.3659488E+02  0.7818608E-02  0.1581005E+00
          2   -1    0    0  502    0  0.00000000000E+00  0.00000000000E+00  0.84654043299E+03  0.84654043299E+03  0.00000000000E+00 0. -1.
          1   -1    0    0  501    0 -0.00000000000E+00 -0.00000000000E+00 -0.44831395851E+02  0.44831395851E+02  0.00000000000E+00 0. -1.
         25    2    1    2    0    0 -0.41534870808E+02  0.12182748939E+02  0.14488527942E+03  0.19618609411E+03  0.12499469775E+03 0.  0.
          2    1    1    2  501    0  0.20604737393E+02  0.17899991222E+02 -0.87051102733E+01  0.28648627081E+02  0.00000000000E+00 0. -1.
          1    1    1    2  502    0  0.20930133416E+02 -0.30082740161E+02  0.66552886799E+03  0.66653710765E+03  0.00000000000E+00 0. -1.
         22    1    3    3    0    0 -0.73404865934E+02 -0.28259752586E+02  0.69923376619E+02  0.10524336823E+03  0.00000000000E+00 0. -1.
         22    1    3    3    0    0  0.31869995125E+02  0.40442501526E+02  0.74961902796E+02  0.90942725876E+02  0.00000000000E+00 0. -1.
</event>
<event>
 7    1  0.5622879E-006  0.7158846E+02  0.7818608E-02  0.1425744E+00
          2   -1    0    0  502    0  0.00000000000E+00  0.00000000000E+00  0.48567006809E+02  0.48567006809E+02  0.00000000000E+00 0. -1.
          1   -1    0    0  501    0 -0.00000000000E+00 -0.00000000000E+00 -0.83843686583E+03  0.83843686583E+03  0.00000000000E+00 0. -1.
         25    2    1    2    0    0 -0.56096503320E+02 -0.17517937390E+02 -0.19340829484E+03  0.23766712016E+03  0.12500078269E+03 0.  0.
          2    1    1    2  501    0  0.51841875614E+01 -0.40134165905E+02 -0.56465820766E+03  0.56610645514E+03  0.00000000000E+00 0. -1.
          1    1    1    2  502    0  0.50912315759E+02  0.57652103294E+02 -0.31803356522E+02  0.83230297346E+02  0.00000000000E+00 0. -1.
         22    1    3    3    0    0  0.34291444456E+02 -0.45095484257E+01 -0.15942211068E+02  0.38084029246E+02  0.00000000000E+00 0. -1.
         22    1    3    3    0    0 -0.90387947776E+02 -0.13008388964E+02 -0.17746608377E+03  0.19958309091E+03  0.00000000000E+00 0. -1.
</event>
<event>
 7    1  0.5622879E-006  0.7789786E+02  0.7818608E-02  0.1356414E+00
          2   -1    0    0  502    0  0.00000000000E+00  0.00000000000E+00  0.16266040725E+04  0.16266040725E+04  0.00000000000E+00 0. -1.
          1   -1    0    0  501    0 -0.00000000000E+00 -0.00000000000E+00 -0.97324782444E+03  0.97324782444E+03  0.00000000000E+00 0. -1.
         25    2    1    2    0    0 -0.67661062704E+01 -0.29458310056E+01  0.66962667911E+03  0.68123463139E+03  0.12500510198E+03 0.  0.
          2    1    1    2  501    0 -0.33219332773E+02 -0.70459582240E+02 -0.96403328739E+03  0.96717540085E+03  0.00000000000E+00 0. -1.
          1    1    1    2  502    0  0.39985439043E+02  0.73405413245E+02  0.94776285639E+03  0.95144186474E+03  0.00000000000E+00 0. -1.
         22    1    3    3    0    0  0.42394509766E+02 -0.33502780699E+02  0.17289964436E+03  0.18114639879E+03  0.00000000000E+00 0. -1.
         22    1    3    3    0    0 -0.49160616036E+02  0.30556949693E+02  0.49672703474E+03  0.50008823260E+03  0.00000000000E+00 0. -1.
</event>
<event>
 7    1  0.5622879E-006  0.5467744E+02  0.7818608E-02  0.1559826E+00
          2   -1    0    0  502    0  0.00000000000E+00  0.00000000000E+00  0.93542521874E+03  0.93542521874E+03  0.00000000000E+00 0. -1.
          1   -1    0    0  501    0 -0.00000000000E+00 -0.00000000000E+00 -0.26267370049E+02  0.26267370049E+02  0.00000000000E+00 0. -1.
         25    2    1    2    0    0 -0.41003671892E+02 -0.47960345151E+01  0.52551332648E+03  0.54174727992E+03  0.12498622299E+03 0.  0.
          2    1    1    2  501    0 -0.13849265810E+02 -0.15591287083E+02 -0.91805458075E+01  0.22785364112E+02  0.00000000000E+00 0. -1.
          1    1    1    2  502    0  0.54852937701E+02  0.20387321598E+02  0.39282506801E+03  0.39715994475E+03  0.00000000000E+00 0. -1.
         22    1    3    3    0    0  0.35529137088E+02 -0.27860777884E+02  0.11542366478E+03  0.12394016668E+03  0.00000000000E+00 0. -1.
         22    1    3    3    0    0 -0.76532808979E+02  0.23064743369E+02  0.41008966170E+03  0.41780711324E+03  0.00000000000E+00 0. -1.
</event>
<event>
 7    1  0.5622879E-006  0.1437727E+03  0.7818608E-02  0.1344296E+00
          2   -1    0    0  502    0  0.00000000000E+00  0.00000000000E+00  0.30278344733E+04  0.30278344733E+04  0.00000000000E+00 0. -1.
          1   -1    0    0  501    0 -0.00000000000E+00 -0.00000000000E+00 -0.11844183409E+03  0.11844183409E+03  0.00000000000E+00 0. -1.
         25    2    1    2    0    0 -0.54795816751E+02  0.10705022509E+03  0.20366130112E+03  0.26751491762E+03  0.12499589335E+03 0.  0.
          2    1    1    2  501    0  0.19273869886E+02  0.33883244724E+02 -0.80131348732E+02  0.89109984755E+02  0.00000000000E+00 0. -1.
          1    1    1    2  502    0  0.35521946865E+02 -0.14093346981E+03  0.27858626868E+04  0.27896514050E+04  0.00000000000E+00 0. -1.
         22    1    3    3    0    0 -0.42183162790E+01  0.12051887450E+03  0.13225370508E+03  0.17897942846E+03  0.00000000000E+00 0.  1.
         22    1    3    3    0    0 -0.50577500472E+02 -0.13468649409E+02  0.71407596033E+02  0.88535489167E+02  0.00000000000E+00 0.  1.
</event>
<event>
 7    1  0.5622879E-006  0.9423661E+02  0.7818608E-02  0.1415179E+00
          2   -1    0    0  502    0  0.00000000000E+00  0.00000000000E+00  0.35554410613E+03  0.35554410613E+03  0.00000000000E+00 0. -1.
          1   -1    0    0  501    0 -0.00000000000E+00 -0.00000000000E+00 -0.10397314013E+03  0.10397314013E+03  0.00000000000E+00 0. -1.
         25    2    1    2    0    0  0.78053329763E+02 -0.42397913561E+02  0.70057969087E+02  0.16859115859E+03  0.12499981745E+03 0.  0.
          2    1    1    2  501    0  0.17235730918E+02  0.28541793172E+02 -0.38400306980E+02  0.50855559714E+02  0.00000000000E+00 0. -1.
          1    1    1    2  502    0 -0.95289060681E+02  0.13856120390E+02  0.21991330390E+03  0.24007052795E+03  0.00000000000E+00 0. -1.
         22    1    3    3    0    0  0.81133061602E+02 -0.68514161081E+02  0.14569838740E+02  0.10718695888E+03  0.00000000000E+00 0. -1.
         22    1    3    3    0    0 -0.30797318390E+01  0.26116247520E+02  0.55488130347E+02  0.61404199711E+02  0.00000000000E+00 0. -1.
</event>
<event>
 7    1  0.5622879E-006  0.9526003E+02  0.7818608E-02  0.1307164E+00
          2   -1    0    0  502    0  0.00000000000E+00  0.00000000000E+00  0.33930492331E+04  0.33930492331E+04  0.00000000000E+00 0. -1.
          1   -1    0    0  501    0 -0.00000000000E+00 -0.00000000000E+00 -0.22261187026E+03  0.22261187026E+03  0.00000000000E+00 0. -1.
         25    2    1    2    0    0  0.32460072140E+02  0.16826741834E+03  0.58346121418E+03  0.62082205716E+03  0.12500183134E+03 0.  0.
          2    1    1    2  501    0 -0.36388266445E+02 -0.86619315223E+02 -0.19247754491E+03  0.21418360581E+03  0.00000000000E+00 0. -1.
          1    1    1    2  502    0  0.39281943042E+01 -0.81648103119E+02  0.27794536936E+04  0.27806554404E+04  0.00000000000E+00 0. -1.
         22    1    3    3    0    0  0.16078837422E+02  0.96558979002E+02  0.13720763354E+03  0.16854702650E+03  0.00000000000E+00 0.  1.
         22    1    3    3    0    0  0.16381234719E+02  0.71708439339E+02  0.44625358064E+03  0.45227503066E+03  0.00000000000E+00 0.  1.
</event>
<event>
 7    1  0.5622879E-006  0.1712139E+03  0.7818608E-02  0.1286296E+00
          2   -1    0    0  502    0  0.00000000000E+00  0.00000000000E+00  0.31184390545E+04  0.31184390545E+04  0.00000000000E+00 0. -1.
          1   -1    0    0  501    0 -0.00000000000E+00 -0.00000000000E+00 -0.70913422249E+02  0.70913422249E+02  0.00000000000E+00 0. -1.
         25    2    1    2    0    0  0.78425278228E+02 -0.11833741405E+03  0.28969357817E+03  0.34597894644E+03  0.12499917725E+03 0.  0.
          2    1    1    2  501    0 -0.12776040958E+03  0.14305741023E+03  0.17404625423E+03  0.25899853955E+03  0.00000000000E+00 0. -1.
          1    1    1    2  502    0  0.49335131349E+02 -0.24719996182E+02  0.25837857998E+04  0.25843749908E+04  0.00000000000E+00 0. -1.
         22    1    3    3    0    0  0.98052495085E+02 -0.11822779420E+03  0.28784833911E+03  0.32626487620E+03  0.00000000000E+00 0.  1.
         22    1    3    3    0    0 -0.19627216857E+02 -0.10961984468E+00  0.18452390655E+01  0.19714070236E+02  0.00000000000E+00 0.  1.
</event>
<event>
 7    1  0.5622879E-006  0.5448567E+02  0.7818608E-02  0.1495068E+00
          2   -1    0    0  502    0  0.00000000000E+00  0.00000000000E+00  0.58188542757E+03  0.58188542757E+03  0.00000000000E+00 0. -1.
          1   -1    0    0  501    0 -0.00000000000E+00 -0.00000000000E+00 -0.14694960249E+04  0.14694960249E+04  0.00000000000E+00 0. -1.
         25    2    1    2    0    0 -0.41189805164E+02  0.71357569167E+01  0.17860174020E+03  0.22196816523E+03  0.12499506268E+03 0.  0.
          2    1    1    2  501    0 -0.10095345713E+02 -0.30507475844E+02 -0.14455522993E+04  0.14459094273E+04  0.00000000000E+00 0. -1.
          1    1    1    2  502    0  0.51285150877E+02  0.23371718927E+02  0.37933996178E+03  0.38350385989E+03  0.00000000000E+00 0. -1.
         22    1    3    3    0    0 -0.54172160067E+02 -0.18992127588E+02  0.20128379194E+02  0.60831533645E+02  0.00000000000E+00 0. -1.
         22    1    3    3    0    0  0.12982354903E+02  0.26127884505E+02  0.15847336101E+03  0.16113663158E+03  0.00000000000E+00 0. -1.
</event>
<event>
 7    1  0.5622879E-006  0.8984966E+02  0.7818608E-02  0.1326475E+00
          2   -1    0    0  502    0  0.00000000000E+00  0.00000000000E+00  0.73754191506E+03  0.73754191506E+03  0.00000000000E+00 0. -1.
          1   -1    0    0  501    0 -0.00000000000E+00 -0.00000000000E+00 -0.49610655868E+02  0.49610655868E+02  0.00000000000E+00 0. -1.
         25    2    1    2    0    0  0.26509589923E+02 -0.21024858119E+02  0.18890358761E+03  0.22902836953E+03  0.12499850247E+03 0.  0.
          2    1    1    2  501    0  0.54930976882E+02 -0.47879596046E+02  0.32912023384E+02  0.79956670904E+02  0.00000000000E+00 0. -1.
          1    1    1    2  502    0 -0.81440566806E+02  0.68904454165E+02  0.46611564820E+03  0.47816753050E+03  0.00000000000E+00 0. -1.
         22    1    3    3    0    0  0.48227720532E+02 -0.38359146819E+02  0.19145126499E+03  0.20112415081E+03  0.00000000000E+00 0.  1.
         22    1    3    3    0    0 -0.21718130609E+02  0.17334288700E+02 -0.25476773880E+01  0.27904218712E+02  0.00000000000E+00 0.  1.
</event>
<event>
 7    1  0.5622879E-006  0.6360295E+02  0.7818608E-02  0.1508159E+00
          2   -1    0    0  502    0  0.00000000000E+00  0.00000000000E+00  0.21157675857E+04  0.21157675857E+04  0.00000000000E+00 0. -1.
          1   -1    0    0  501    0 -0.00000000000E+00 -0.00000000000E+00 -0.24102143153E+03  0.24102143153E+03  0.00000000000E+00 0. -1.
         25    2    1    2    0    0  0.83997342070E+02 -0.53378452659E+01  0.24787409187E+03  0.29008795104E+03  0.12500163138E+03 0.  0.
          2    1    1    2  501    0 -0.22890489157E+02 -0.10454737852E+02 -0.21865336808E+03  0.22009673194E+03  0.00000000000E+00 0. -1.
          1    1    1    2  502    0 -0.61106852914E+02  0.15792583118E+02  0.18455254304E+04  0.18466043343E+04  0.00000000000E+00 0. -1.
         22    1    3    3    0    0  0.30791883603E+01  0.30913601466E+02  0.49124880592E+01  0.31452578519E+02  0.00000000000E+00 0.  1.
         22    1    3    3    0    0  0.80918153710E+02 -0.36251446732E+02  0.24296160382E+03  0.25863537252E+03  0.00000000000E+00 0.  1.
</event>
<event>
 7    1  0.5622879E-006  0.3594807E+02  0.7818608E-02  0.1560015E+00
          2   -1    0    0  502    0  0.00000000000E+00  0.00000000000E+00  0.16341369974E+03  0.16341369974E+03  0.00000000000E+00 0. -1.
          1   -1    0    0  501    0 -0.00000000000E+00 -0.00000000000E+00 -0.13271846364E+04  0.13271846364E+04  0.00000000000E+00 0. -1.
         25    2    1    2    0    0 -0.26575805841E+02  0.61890710150E+02 -0.28231859923E+03  0.31601633384E+03  0.12500319326E+03 0.  0.
          2    1    1    2  501    0  0.11356969572E+02 -0.29575546317E+02 -0.10255926169E+04  0.10260818240E+04  0.00000000000E+00 0. -1.
          1    1    1    2  502    0  0.15218836269E+02 -0.32315163833E+02  0.14414027947E+03  0.14850017831E+03  0.00000000000E+00 0. -1.
         22    1    3    3    0    0 -0.73829146790E+02  0.57338074346E+02 -0.16847234966E+03  0.19266896555E+03  0.00000000000E+00 0. -1.
         22    1    3    3    0    0  0.47253340949E+02  0.45526358038E+01 -0.11384624957E+03  0.12334736829E+03  0.00000000000E+00 0. -1.
</event>
<event>
 7    1  0.5622879E-006  0.1748894E+03  0.7818608E-02  0.1247193E+00
          2   -1    0    0  502    0  0.00000000000E+00  0.00000000000E+00  0.57771084618E+03  0.57771084618E+03  0.00000000000E+00 0. -1.
          1   -1    0    0  501    0 -0.00000000000E+00 -0.00000000000E+00 -0.18635932417E+04  0.18635932417E+04  0.00000000000E+00 0. -1.
         25    2    1    2    0    0 -0.41678474833E+02 -0.14910684229E+03  0.14596352404E+03  0.24677021323E+03  0.12498096698E+03 0.  0.
          2    1    1    2  501    0  0.69478542121E+02 -0.37623036522E+02 -0.17888990238E+04  0.17906430347E+04  0.00000000000E+00 0. -1.
          1    1    1    2  502    0 -0.27800067287E+02  0.18672987881E+03  0.35705310417E+03  0.40389083993E+03  0.00000000000E+00 0. -1.
         22    1    3    3    0    0 -0.46850273952E+02 -0.12147219345E+03  0.16693042971E+03  0.21169839469E+03  0.00000000000E+00 0. -1.
         22    1    3    3    0    0  0.51717991183E+01 -0.27634648836E+02 -0.20966905670E+02  0.35071818541E+02  0.00000000000E+00 0. -1.
</event>
<event>
 7    1  0.5622879E-006  0.3977609E+02  0.7818608E-02  0.1574446E+00
          2   -1    0    0  502    0  0.00000000000E+00  0.00000000000E+00  0.71029507945E+03  0.71029507945E+03  0.00000000000E+00 0. -1.
          1   -1    0    0  501    0 -0.00000000000E+00 -0.00000000000E+00 -0.21208903533E+03  0.21208903533E+03  0.00000000000E+00 0. -1.
         25    2    1    2    0    0  0.46871845666E+01  0.27151535578E+02 -0.54992381474E+02  0.13931426527E+03  0.12500050761E+03 0.  0.
          2    1    1    2  501    0  0.19810735325E+02 -0.36304729050E+02 -0.11094946136E+03  0.11840726988E+03  0.00000000000E+00 0. -1.
          1    1    1    2  502    0 -0.24497919892E+02  0.91531934725E+01  0.66414788694E+03  0.66466257963E+03  0.00000000000E+00 0. -1.
         22    1    3    3    0    0  0.50151817491E+02 -0.27145687537E+02 -0.21121217383E+02  0.60812819152E+02  0.00000000000E+00 0. -1.
         22    1    3    3    0    0 -0.45464632925E+02  0.54297223115E+02 -0.33871164091E+02  0.78501446113E+02  0.00000000000E+00 0. -1.
</event>
<event>
 7    1  0.5622879E-006  0.1064551E+03  0.7818608E-02  0.1372877E+00
          2   -1    0    0  502    0  0.00000000000E+00  0.00000000000E+00  0.10627681066E+04  0.10627681066E+04  0.00000000000E+00 0. -1.
          1   -1    0    0  501    0 -0.00000000000E+00 -0.00000000000E+00 -0.39725946897E+03  0.39725946897E+03  0.00000000000E+00 0. -1.
         25    2    1    2    0    0 -0.51557619182E+02  0.81481453660E+02  0.30790815450E+03  0.34601923425E+03  0.12499785391E+03 0.  0.
          2    1    1    2  501    0  0.17765153607E+02 -0.10537007748E+03 -0.37005644282E+03  0.38517557657E+03  0.00000000000E+00 0. -1.
          1    1    1    2  502    0  0.33792465575E+02  0.23888623823E+02  0.72765692599E+03  0.72883276478E+03  0.00000000000E+00 0. -1.
         22    1    3    3    0    0 -0.76298494523E+02  0.73456743751E+02  0.30102596432E+03  0.31911437552E+03  0.00000000000E+00 0.  1.
         22    1    3    3    0    0  0.24740875341E+02  0.80247099097E+01  0.68821901762E+01  0.26904858732E+02  0.00000000000E+00 0.  1.
</event>
<event>
 7    1  0.5622879E-006  0.7543047E+02  0.7818608E-02  0.1450303E+00
          2   -1    0    0  502    0  0.00000000000E+00  0.00000000000E+00  0.25174772639E+03  0.25174772639E+03  0.00000000000E+00 0. -1.
          1   -1    0    0  501    0 -0.00000000000E+00 -0.00000000000E+00 -0.28749104801E+03  0.28749104801E+03  0.00000000000E+00 0. -1.
         25    2    1    2    0    0  0.42941037975E+02  0.69901906726E+02  0.38651719773E+02  0.15443310541E+03  0.12500167718E+03 0.  0.
          2    1    1    2  501    0 -0.31630578166E+02  0.45057195478E+01 -0.21924985071E+03  0.22156554791E+03  0.00000000000E+00 0. -1.
          1    1    1    2  502    0 -0.11310459809E+02 -0.74407626274E+02  0.14485480932E+03  0.16324012108E+03  0.00000000000E+00 0. -1.
         22    1    3    3    0    0  0.73770210492E+02  0.85314168342E+02  0.17888502277E+02  0.11419522665E+03  0.00000000000E+00 0. -1.
         22    1    3    3    0    0 -0.30829172516E+02 -0.15412261615E+02  0.20763217496E+02  0.40237878758E+02  0.00000000000E+00 0. -1.
</event>
<event>
 7    1  0.5622879E-006  0.4958099E+02  0.7818608E-02  0.1476723E+00
          2   -1    0    0  502    0  0.00000000000E+00  0.00000000000E+00  0.24311934267E+04  0.24311934267E+04  0.00000000000E+00 0. -1.
          1   -1    0    0  501    0 -0.00000000000E+00 -0.00000000000E+00 -0.51796629101E+02  0.51796629101E+02  0.00000000000E+00 0. -1.
         25    2    1    2    0    0 -0.26449574310E+01  0.20698877420E+02  0.95007053759E+02  0.15840394463E+03  0.12502011872E+03 0.  0.
          2    1    1    2  501    0  0.22119139394E+02 -0.55817503152E+02  0.25322430576E+02  0.65161917374E+02  0.00000000000E+00 0. -1.
          1    1    1    2  502    0 -0.19474181963E+02  0.35118625731E+02  0.22590673133E+04  0.22594241938E+04  0.00000000000E+00 0. -1.
         22    1    3    3    0    0  0.39047835037E+02 -0.10094794601E+02 -0.97783491558E+01  0.41500053149E+02  0.00000000000E+00 0.  1.
         22    1    3    3    0    0 -0.41692792468E+02  0.30793672022E+02  0.10478540291E+03  0.11690389149E+03  0.00000000000E+00 0.  1.
</event>
<event>
 7    1  0.5622879E-006  0.1383640E+03  0.7818608E-02  0.1379870E+00
          2   -1    0    0  502    0  0.00000000000E+00  0.00000000000E+00  0.74059556339E+03  0.74059556339E+03  0.00000000000E+00 0. -1.
          1   -1    0    0  501    0 -0.00000000000E+00 -0.00000000000E+00 -0.48997152029E+03  0.48997152029E+03  0.00000000000E+00 0. -1.
         25    2    1    2    0    0  0.31144424374E+01  0.11349048286E+03  0.11983471690E+03  0.20706502727E+03  0.12500310673E+03 0.  0.
          2    1    1    2  501    0  0.41902634034E+01  0.29772005477E+02 -0.43691829381E+03  0.43795151111E+03  0.00000000000E+00 0. -1.
          1    1    1    2  502    0 -0.73047058408E+01 -0.14326248834E+03  0.56770762001E+03  0.58555054530E+03  0.00000000000E+00 0. -1.
         22    1    3    3    0    0 -0.96554660919E+00  0.13212232011E+03  0.61587876513E+02  0.14577484792E+03  0.00000000000E+00 0. -1.
         22    1    3    3    0    0  0.40799890466E+01 -0.18631837249E+02  0.58246840386E+02  0.61290179350E+02  0.00000000000E+00 0. -1.
</event>
<event>
 7    1  0.5622879E-006  0.5813845E+02  0.7818608E-02  0.1455775E+00
          2   -1    0    0  502    0  0.00000000000E+00  0.00000000000E+00  0.17966209730E+04  0.17966209730E+04  0.00000000000E+00 0. -1.
          1   -1    0    0  501    0 -0.00000000000E+00 -0.00000000000E+00 -0.86778437927E+03  0.86778437927E+03  0.00000000000E+00 0. -1.
         25    2    1    2    0    0  0.67738219953E+02  0.43372872372E+02  0.17894422989E+03  0.23262764285E+03  0.12499964122E+03 0.  0.
          2    1    1    2  501    0 -0.39204435501E+02  0.69838639467E+01 -0.83994434770E+03  0.84088778642E+03  0.00000000000E+00 0. -1.
          1    1    1    2  502    0 -0.28533784452E+02 -0.50356736319E+02  0.15898367115E+04  0.15908899230E+04  0.00000000000E+00 0. -1.
         22    1    3    3    0    0  0.14597182151E+02  0.81422868915E+02  0.89841500296E+02  0.12212393903E+03  0.00000000000E+00 0. -1.
         22    1    3    3    0    0  0.53141037803E+02 -0.38049996543E+02  0.89102729594E+02  0.11050370381E+03  0.00000000000E+00 0. -1.
</event>
<event>
 7    1  0.5622879E-006  0.1444017E+03  0.7818608E-02  0.1342221E+00
          2   -1    0    0  502    0  0.00000000000E+00  0.00000000000E+00  0.20918799084E+04  0.20918799084E+04  0.00000000000E+00 0. -1.
          1   -1    0    0  501    0 -0.00000000000E+00 -0.00000000000E+00 -0.25943767859E+03  0.25943767859E+03  0.00000000000E+00 0. -1.
         25    2    1    2    0    0 -0.91156556001E+01  0.13777241461E+03  0.43588388815E+03  0.47400887514E+03  0.12500126540E+03 0.  0.
          2    1    1    2  501    0 -0.30193994474E+02 -0.14176646740E+03 -0.21826089030E+03  0.26200615415E+03  0.00000000000E+00 0. -1.
          1    1    1    2  502    0  0.39309650074E+02  0.39940527858E+01  0.16148192319E+04  0.16153025577E+04  0.00000000000E+00 0. -1.
         22    1    3    3    0    0 -0.36719697757E+02 -0.81652624421E+01  0.81707380622E+02  0.89950562879E+02  0.00000000000E+00 0.  1.
         22    1    3    3    0    0  0.27604042157E+02  0.14593767705E+03  0.35417650753E+03  0.38405831226E+03  0.00000000000E+00 0.  1.
</event>
<event>
 7    1  0.5622879E-006  0.4493632E+02  0.7818608E-02  0.1575836E+00
          2   -1    0    0  502    0  0.00000000000E+00  0.00000000000E+00  0.55103963248E+03  0.55103963248E+03  0.00000000000E+00 0. -1.
          1   -1    0    0  501    0 -0.00000000000E+00 -0.00000000000E+00 -0.70336566651E+03  0.70336566651E+03  0.00000000000E+00 0. -1.
         25    2    1    2    0    0 -0.88491769030E+01 -0.25562181326E+02  0.16152899560E+03  0.20603143315E+03  0.12500240789E+03 0.  0.
          2    1    1    2  501    0 -0.20650898391E+02 -0.10011780476E+02 -0.67946609496E+03  0.67985356479E+03  0.00000000000E+00 0. -1.
          1    1    1    2  502    0  0.29500075294E+02  0.35573961801E+02  0.36561106532E+03  0.36852030105E+03  0.00000000000E+00 0. -1.
         22    1    3    3    0    0  0.25070148219E+02  0.39188287104E+02  0.29405705813E+02  0.55035713062E+02  0.00000000000E+00 0.  1.
         22    1    3    3    0    0 -0.33919325122E+02 -0.64750468430E+02  0.13212328979E+03  0.15099572008E+03  0.00000000000E+00 0.  1.
</event>
<event>
 7    1  0.5622879E-006  0.8787671E+02  0.7818608E-02  0.1342926E+00
          2   -1    0    0  502    0  0.00000000000E+00  0.00000000000E+00  0.23699215092E+03  0.23699215092E+03  0.00000000000E+00 0. -1.
          1   -1    0    0  501    0 -0.00000000000E+00 -0.00000000000E+00 -0.16657900442E+04  0.16657900442E+04  0.00000000000E+00 0. -1.
         25    2    1    2    0    0 -0.13957054099E+03 -0.51439574526E+02 -0.10734348267E+03  0.22197567956E+03  0.12499845319E+03 0.  0.
          2    1    1    2  501    0  0.60598259455E+02  0.22191199206E+02 -0.14905259019E+04  0.14919222710E+04  0.00000000000E+00 0. -1.
          1    1    1    2  502    0  0.78972281540E+02  0.29248375320E+02  0.16907149126E+03  0.18888424463E+03  0.00000000000E+00 0. -1.
         22    1    3    3    0    0 -0.10773250900E+03 -0.85373004194E+02 -0.10897671156E+03  0.17541598274E+03  0.00000000000E+00 0.  1.
         22    1    3    3    0    0 -0.31838031998E+02  0.33933429667E+02  0.16332288881E+01  0.46559696811E+02  0.00000000000E+00 0.  1.
</event>
<event>
 7    1  0.5622879E-006  0.7794869E+02  0.7818608E-02  0.1484947E+00
          2   -1    0    0  502    0  0.00000000000E+00  0.00000000000E+00  0.10149822859E+03  0.10149822859E+03  0.00000000000E+00 0. -1.
          1   -1    0    0  501    0 -0.00000000000E+00 -0.00000000000E+00 -0.34083056249E+03  0.34083056249E+03  0.00000000000E+00 0. -1.
         25    2    1    2    0    0 -0.40547571157E+02 -0.51559267812E+02 -0.70177065514E+02  0.15764807297E+03  0.12500252303E+03 0.  0.
          2    1    1    2  501    0  0.64386536265E+02  0.48003292911E+02 -0.21684865230E+03  0.23124290300E+03  0.00000000000E+00 0. -1.
          1    1    1    2  502    0 -0.23838965107E+02  0.35559749011E+01  0.47693383911E+02  0.53437815110E+02  0.00000000000E+00 0. -1.
         22    1    3    3    0    0 -0.58471030823E+02  0.17849744527E+02 -0.59247783550E+02  0.85133863302E+02  0.00000000000E+00 0. -1.
         22    1    3    3    0    0  0.17923459666E+02 -0.69409012339E+02 -0.10929281964E+02  0.72514209673E+02  0.00000000000E+00 0. -1.
</event>
<event>
 7    1  0.5622879E-006  0.1357075E+03  0.7818608E-02  0.1226395E+00
          2   -1    0    0  502    0  0.00000000000E+00  0.00000000000E+00  0.29290466807E+03  0.29290466807E+03  0.00000000000E+00 0. -1.
          1   -1    0    0  501    0 -0.00000000000E+00 -0.00000000000E+00 -0.19997968136E+04  0.19997968136E+04  0.00000000000E+00 0. -1.
         25    2    1    2    0    0 -0.15682443942E+02 -0.76065413597E+02 -0.42584220848E+02  0.15319902294E+03  0.12499855428E+03 0.  0.
          2    1    1    2  501    0  0.13542207089E+03  0.37130877862E+02 -0.18824234708E+04  0.18876535600E+04  0.00000000000E+00 0. -1.
          1    1    1    2  502    0 -0.11973962695E+03  0.38934535735E+02  0.21811554609E+03  0.25184889871E+03  0.00000000000E+00 0. -1.
         22    1    3    3    0    0  0.90279155625E+01  0.92997632251E+01  0.33682655603E+02  0.36090305401E+02  0.00000000000E+00 0. -1.
         22    1    3    3    0    0 -0.24710359505E+02 -0.85365176822E+02 -0.76266876452E+02  0.11710871754E+03  0.00000000000E+00 0. -1.
</event>
<event>
 7    1  0.5622879E-006  0.8057711E+02  0.7818608E-02  0.1429280E+00
          2   -1    0    0  502    0  0.00000000000E+00  0.00000000000E+00  0.72581236589E+02  0.72581236589E+02  0.00000000000E+00 0. -1.
          1   -1    0    0  501    0 -0.00000000000E+00 -0.00000000000E+00 -0.28363874423E+04  0.28363874423E+04  0.00000000000E+00 0. -1.
         25    2    1    2    0    0 -0.29849613749E+02 -0.10066511012E+03 -0.52579183066E+03  0.55055190333E+03  0.12500354089E+03 0.  0.
          2    1    1    2  501    0  0.20668743483E+01  0.79380066060E+02 -0.22923825361E+04  0.22937574324E+04  0.00000000000E+00 0. -1.
          1    1    1    2  502    0  0.27782739400E+02  0.21285044062E+02  0.54368161104E+02  0.64659343108E+02  0.00000000000E+00 0. -1.
         22    1    3    3    0    0 -0.22937358036E+02 -0.29828305092E+02 -0.42773924183E+03  0.42939109118E+03  0.00000000000E+00 0.  1.
         22    1    3    3    0    0 -0.69122557125E+01 -0.70836805030E+02 -0.98052588826E+02  0.12116081215E+03  0.00000000000E+00 0.  1.
</event>
<event>
 7    1  0.5622879E-006  0.5780370E+02  0.7818608E-02  0.1461395E+00
          2   -1    0    0  502    0  0.00000000000E+00  0.00000000000E+00  0.24966937271E+04  0.24966937271E+04  0.00000000000E+00 0. -1.
          1   -1    0    0  501    0 -0.00000000000E+00 -0.00000000000E+00 -0.13727446655E+02  0.13727446655E+02  0.00000000000E+00 0. -1.
         25    2    1    2    0    0 -0.75146099061E+02  0.22420285922E+02  0.16013710951E+04  0.16081550756E+04  0.12499502938E+03 0.  0.
          2    1    1    2  501    0  0.35597731779E+02  0.14525135879E+02  0.29517132124E+02  0.48471013698E+02  0.00000000000E+00 0. -1.
          1    1    1    2  502    0  0.39548367282E+02 -0.36945421801E+02  0.85207805317E+03  0.85379508445E+03  0.00000000000E+00 0. -1.
         22    1    3    3    0    0 -0.48319251655E+02 -0.48896641857E+02  0.91159566480E+03  0.91418394634E+03  0.00000000000E+00 0.  1.
         22    1    3    3    0    0 -0.26826847405E+02  0.71316927779E+02  0.68977543035E+03  0.69397112926E+03  0.00000000000E+00 0.  1.
</event>
<event>
 7    1  0.5622879E-006  0.8425496E+02  0.7818608E-02  0.1413295E+00
          2   -1    0    0  502    0  0.00000000000E+00  0.00000000000E+00  0.13718372632E+03  0.13718372632E+03  0.00000000000E+00 0. -1.
          1   -1    0    0  501    0 -0.00000000000E+00 -0.00000000000E+00 -0.11181174713E+04  0.11181174713E+04  0.00000000000E+00 0. -1.
         25    2    1    2    0    0 -0.24619640635E+02 -0.92116327929E+02  0.45249969523E+01  0.15727673109E+03  0.12499579980E+03 0.  0.
          2    1    1    2  501    0  0.36216425888E+02  0.10968545292E+02 -0.10113521554E+04  0.10120598405E+04  0.00000000000E+00 0. -1.
          1    1    1    2  502    0 -0.11596785252E+02  0.81147782637E+02  0.25893413534E+02  0.85964625978E+02  0.00000000000E+00 0. -1.
         22    1    3    3    0    0 -0.13419599999E+02  0.28976507989E+02  0.14874458271E+02  0.35227449357E+02  0.00000000000E+00 0.  1.
         22    1    3    3    0    0 -0.11200040637E+02 -0.12109283592E+03 -0.10349461318E+02  0.12204928173E+03  0.00000000000E+00 0.  1.
</event>
<event>
 7    1  0.5622879E-006  0.3258391E+02  0.7818608E-02  0.1628880E+00
          2   -1    0    0  502    0  0.00000000000E+00  0.00000000000E+00  0.10090823959E+04  0.10090823959E+04  0.00000000000E+00 0. -1.
          1   -1    0    0  501    0 -0.00000000000E+00 -0.00000000000E+00 -0.99109648201E+02  0.99109648201E+02  0.00000000000E+00 0. -1.
         25    2    1    2    0    0 -0.15222939566E+01 -0.24769581268E+02  0.15866670371E+03  0.20351294891E+03  0.12500619173E+03 0.  0.
          2    1    1    2  501    0  0.24383245888E+02  0.22045278513E+02 -0.72995825167E+02  0.80055777285E+02  0.00000000000E+00 0. -1.
          1    1    1    2  502    0 -0.22860951932E+02  0.27243027548E+01  0.82430186915E+03  0.82462331791E+03  0.00000000000E+00 0. -1.
         22    1    3    3    0    0  0.59060403297E+02  0.10245997432E+01  0.95349630844E+02  0.11216386737E+03  0.00000000000E+00 0. -1.
         22    1    3    3    0    0 -0.60582697253E+02 -0.25794181011E+02  0.63317072869E+02  0.91349081535E+02  0.00000000000E+00 0. -1.
</event>
<event>
 7    1  0.5622879E-006  0.8591126E+02  0.7818608E-02  0.1392539E+00
          2   -1    0    0  502    0  0.00000000000E+00  0.00000000000E+00  0.26247345201E+04  0.26247345201E+04  0.00000000000E+00 0. -1.
          1   -1    0    0  501    0 -0.00000000000E+00 -0.00000000000E+00 -0.12258909624E+02  0.12258909624E+02  0.00000000000E+00 0. -1.
         25    2    1    2    0    0  0.20877662848E+02 -0.55091843122E+02  0.78927186634E+03  0.80127766264E+03  0.12499930264E+03 0.  0.
          2    1    1    2  501    0 -0.20054511997E+02  0.98794086437E+02  0.42361864308E+03  0.43544828594E+03  0.00000000000E+00 0. -1.
          1    1    1    2  502    0 -0.82315085143E+00 -0.43702243315E+02  0.13995851011E+04  0.14002674812E+04  0.00000000000E+00 0. -1.
         22    1    3    3    0    0  0.36728588699E+02 -0.91422145706E+02  0.56978408180E+03  0.57823948138E+03  0.00000000000E+00 0.  1.
         22    1    3    3    0    0 -0.15850925850E+02  0.36330302584E+02  0.21948778455E+03  0.22303818127E+03  0.00000000000E+00 0.  1.
</event>
<event>
 7    1  0.5622879E-006  0.3346446E+02  0.7818608E-02  0.1634295E+00
          2   -1    0    0  502    0  0.00000000000E+00  0.00000000000E+00  0.24559660327E+03  0.24559660327E+03  0.00000000000E+00 0. -1.
          1   -1    0    0  501    0 -0.00000000000E+00 -0.00000000000E+00 -0.47880363734E+02  0.47880363734E+02  0.00000000000E+00 0. -1.
         25    2    1    2    0    0  0.23750547141E+02 -0.15424743489E+02  0.14707224526E+03  0.19507369037E+03  0.12498595180E+03 0.  0.
          2    1    1    2  501    0 -0.12092184667E+02 -0.18050323407E+02 -0.13169133983E+02  0.25405928343E+02  0.00000000000E+00 0. -1.
          1    1    1    2  502    0 -0.11658362474E+02  0.33475066896E+02  0.63813128260E+02  0.72997348291E+02  0.00000000000E+00 0. -1.
         22    1    3    3    0    0  0.70022765539E+02  0.43980709875E+01  0.51426994057E+02  0.86990036440E+02  0.00000000000E+00 0. -1.
         22    1    3    3    0    0 -0.46272218398E+02 -0.19822814476E+02  0.95645251204E+02  0.10808365393E+03  0.00000000000E+00 0. -1.
</event>
<event>
 7    1  0.5622879E-006  0.1000482E+03  0.7818608E-02  0.1449529E+00
          2   -1    0    0  502    0  0.00000000000E+00  0.00000000000E+00  0.10036682058E+04  0.10036682058E+04  0.00000000000E+00 0. -1.
          1   -1    0    0  501    0 -0.00000000000E+00 -0.00000000000E+00 -0.30905341742E+03  0.30905341742E+03  0.00000000000E+00 0. -1.
         25    2    1    2    0    0  0.11672300266E+03  0.16210540019E+02  0.66365402323E+03  0.68552804044E+03  0.12499996290E+03 0.  0.
          2    1    1    2  501    0 -0.95742025401E+02 -0.28322746610E+02 -0.28928629684E+03  0.30603149338E+03  0.00000000000E+00 0. -1.
          1    1    1    2  502    0 -0.20980977257E+02  0.12112206591E+02  0.32024706195E+03  0.32116208936E+03  0.00000000000E+00 0. -1.
         22    1    3    3    0    0  0.40962011524E+02  0.63643955400E+02  0.21177875681E+03  0.22489704596E+03  0.00000000000E+00 0.  1.
         22    1    3    3    0    0  0.75760991134E+02 -0.47433415381E+02  0.45187526642E+03  0.46063099448E+03  0.00000000000E+00 0.  1.
</event>
<event>
 7    1  0.5622879E-006  0.1094153E+03  0.7818608E-02  0.1432588E+00
          2   -1    0    0  502    0  0.00000000000E+00  0.00000000000E+00  0.17241278132E+04  0.17241278132E+04  0.00000000000E+00 0. -1.
          1   -1    0    0  501    0 -0.00000000000E+00 -0.00000000000E+00 -0.14317304673E+04  0.14317304673E+04  0.00000000000E+00 0. -1.
         25    2    1    2    0    0  0.48165556612E+01 -0.11235289629E+03 -0.42078653293E+02  0.17332853677E+03  0.12500318429E+03 0.  0.
          2    1    1    2  501    0 -0.24682179824E+02  0.47603049541E+01 -0.13221028109E+04  0.13223417535E+04  0.00000000000E+00 0. -1.
          1    1    1    2  502    0  0.19865624163E+02  0.10759259134E+03  0.16565788101E+04  0.16601879902E+04  0.00000000000E+00 0. -1.
         22    1    3    3    0    0 -0.37559357897E+02  0.55762503655E+00  0.14309244452E+02  0.40196651454E+02  0.00000000000E+00 0.  1.
         22    1    3    3    0    0  0.42375913558E+02 -0.11291052133E+03 -0.56387897745E+02  0.13313188532E+03  0.00000000000E+00 0.  1.
</event>
<event>
 7    1  0.5622879E-006  0.7638853E+02  0.7818608E-02  0.1453324E+00
          2   -1    0    0  502    0  0.00000000000E+00  0.00000000000E+00  0.60072909273E+03  0.60072909273E+03  0.00000000000E+00 0. -1.
          1   -1    0    0  501    0 -0.00000000000E+00 -0.00000000000E+00 -0.29444195872E+03  0.29444195872E+03  0.00000000000E+00 0. -1.
         25    2    1    2    0    0 -0.74659943681E+02 -0.62255332255E+02  0.51426496915E+01  0.15843313464E+03  0.12499911089E+03 0.  0.
          2    1    1    2  501    0  0.30853020271E+02  0.45942899479E+00 -0.21391965169E+03  0.21613360986E+03  0.00000000000E+00 0. -1.
          1    1    1    2  502    0  0.43806923410E+02  0.61795903260E+02  0.51506413601E+03  0.52060430694E+03  0.00000000000E+00 0. -1.
         22    1    3    3    0    0 -0.71097328425E+02 -0.21525511819E+02  0.56109497855E+02  0.93093788825E+02  0.00000000000E+00 0. -1.
         22    1    3    3    0    0 -0.35626152557E+01 -0.40729820436E+02 -0.50966848163E+02  0.65339345818E+02  0.00000000000E+00 0. -1.
</event>
<event>
 7    1  0.5622879E-006  0.1328137E+03  0.7818608E-02  0.1325771E+00
          2   -1    0    0  502    0  0.00000000000E+00  0.00000000000E+00  0.98362742044E+03  0.98362742044E+03  0.00000000000E+00 0. -1.
          1   -1    0    0  501    0 -0.00000000000E+00 -0.00000000000E+00 -0.76806898201E+02  0.76806898201E+02  0.00000000000E+00 0. -1.
         25    2    1    2    0    0  0.59192371250E+02  0.15773461999E+03  0.22287900292E+03  0.30607915871E+03  0.12500181718E+03 0.  0.
          2    1    1    2  501    0 -0.42765428278E+02 -0.11092929501E+03  0.69088072260E+02  0.13750400749E+03  0.00000000000E+00 0. -1.
          1    1    1    2  502    0 -0.16426942972E+02 -0.46805324978E+02  0.61485344706E+03  0.61685115244E+03  0.00000000000E+00 0. -1.
         22    1    3    3    0    0 -0.37523752789E+02  0.38765148292E+02  0.38496151629E+02  0.66277616400E+02  0.00000000000E+00 0. -1.
         22    1    3    3    0    0  0.96716124039E+02  0.11896947170E+03  0.18438285129E+03  0.23980154231E+03  0.00000000000E+00 0. -1.
</event>
<event>
 7    1  0.5622879E-006  0.1372056E+03  0.7818608E-02  0.1341205E+00
          2   -1    0    0  502    0  0.00000000000E+00  0.00000000000E+00  0.15379310369E+03  0.15379310369E+03  0.00000000000E+00 0. -1.
          1   -1    0    0  501    0 -0.00000000000E+00 -0.00000000000E+00 -0.12930705736E+04  0.12930705736E+04  0.00000000000E+00 0. -1.
         25    2    1    2    0    0 -0.13164560064E+02 -0.10206695730E+03 -0.17354196255E+03  0.23734548916E+03  0.12500039618E+03 0.  0.
          2    1    1    2  501    0  0.34812509135E+02  0.13800095285E+03 -0.10792012668E+04  0.10885456114E+04  0.00000000000E+00 0. -1.
          1    1    1    2  502    0 -0.21647949070E+02 -0.35933995547E+02  0.11346575949E+03  0.12097257670E+03  0.00000000000E+00 0. -1.
         22    1    3    3    0    0  0.41831026656E+01 -0.12913966482E+03 -0.14644572508E+03  0.19529695792E+03  0.00000000000E+00 0.  1.
         22    1    3    3    0    0 -0.17347662730E+02  0.27072707518E+02 -0.27096237465E+02  0.42048531238E+02  0.00000000000E+00 0.  1.
</event>
<event>
 7    1  0.5622879E-006  0.4165960E+02  0.7818608E-02  0.1511581E+00
          2   -1    0    0  502    0  0.00000000000E+00  0.00000000000E+00  0.21488706100E+03  0.21488706100E+03  0.00000000000E+00 0. -1.
          1   -1    0    0  501    0 -0.00000000000E+00 -0.00000000000E+00 -0.97228279705E+02  0.97228279705E+02  0.00000000000E+00 0. -1.
         25    2    1    2    0    0 -0.13609042031E+02  0.20420709313E+02 -0.11629751413E+02  0.12792114265E+03  0.12500542478E+03 0.  0.
          2    1    1    2  501    0 -0.29309361792E+02 -0.23455212651E+02 -0.96388730900E+01  0.38756851828E+02  0.00000000000E+00 0. -1.
          1    1    1    2  502    0  0.42918403823E+02  0.30345033383E+01  0.13892740580E+03  0.14543734623E+03  0.00000000000E+00 0. -1.
         22    1    3    3    0    0 -0.40059657157E+02  0.29323438667E+02 -0.56417031612E+02  0.75149994296E+02  0.00000000000E+00 0.  1.
         22    1    3    3    0    0  0.26450615126E+02 -0.89027293543E+01  0.44787280199E+02  0.52771148350E+02  0.00000000000E+00 0.  1.
</event>
<event>
 7    1  0.5622879E-006  0.2610631E+03  0.7818608E-02  0.1258378E+00
          2   -1    0    0  502    0  0.00000000000E+00  0.00000000000E+00  0.49715614474E+03  0.49715614474E+03  0.00000000000E+00 0. -1.
          1   -1    0    0  501    0 -0.00000000000E+00 -0.00000000000E+00 -0.23523880410E+03  0.23523880410E+03  0.00000000000E+00 0. -1.
         25    2    1    2    0    0 -0.10957634840E+03 -0.20060570197E+03  0.23763047198E+03  0.35262168442E+03  0.12499674921E+03 0.  0.
          2    1    1    2  501    0  0.14603273801E+03  0.23083463457E+03 -0.63132778238E+02  0.28034966876E+03  0.00000000000E+00 0. -1.
          1    1    1    2  502    0 -0.36456389609E+02 -0.30228932598E+02  0.87419646895E+02  0.99423595653E+02  0.00000000000E+00 0. -1.
         22    1    3    3    0    0 -0.99678831803E+02 -0.56398717019E+02  0.12366428280E+03  0.16855129674E+03  0.00000000000E+00 0. -1.
         22    1    3    3    0    0 -0.98975165960E+01 -0.14420698495E+03  0.11396618918E+03  0.18407038768E+03  0.00000000000E+00 0. -1.
</event>
<event>
 7    1  0.5622879E-006  0.6213580E+02  0.7818608E-02  0.1423675E+00
          2   -1    0    0  502    0  0.00000000000E+00  0.00000000000E+00  0.47606257417E+03  0.47606257417E+03  0.00000000000E+00 0. -1.
          1   -1    0    0  501    0 -0.00000000000E+00 -0.00000000000E+00 -0.13647199605E+04  0.13647199605E+04  0.00000000000E+00 0. -1.
         25    2    1    2    0    0  0.48687148236E+02 -0.43168499413E+02 -0.26943714963E+03  0.30406463505E+03  0.12499986776E+03 0.  0.
          2    1    1    2  501    0 -0.43451364070E+02 -0.18856589184E+02 -0.10753338518E+04  0.10763765534E+04  0.00000000000E+00 0. -1.
          1    1    1    2  502    0 -0.52357841660E+01  0.62025088597E+02  0.45611361514E+03  0.46034134614E+03  0.00000000000E+00 0. -1.
         22    1    3    3    0    0  0.88182888869E+02 -0.46299714547E+02 -0.21269014033E+03  0.23485523467E+03  0.00000000000E+00 0. -1.
         22    1    3    3    0    0 -0.39495740634E+02  0.31312151342E+01 -0.56747009301E+02  0.69209400381E+02  0.00000000000E+00 0. -1.
</event>
<event>
 7    1  0.5622879E-006  0.2205353E+03  0.7818608E-02  0.1294761E+00
          2   -1    0    0  502    0  0.00000000000E+00  0.00000000000E+00  0.11775264322E+04  0.11775264322E+04  0.00000000000E+00 0. -1.
          1   -1    0    0  501    0 -0.00000000000E+00 -0.00000000000E+00 -0.50886353240E+03  0.50886353240E+03  0.00000000000E+00 0. -1.
         25    2    1    2    0    0 -0.95373136449E+02  0.16853989953E+03  0.31350134462E+03  0.38911348012E+03  0.12499789774E+03 0.  0.
          2    1    1    2  501    0  0.83668448221E+02 -0.20634797632E+03 -0.44422741488E+03  0.49690833429E+03  0.00000000000E+00 0. -1.
          1    1    1    2  502    0  0.11704688228E+02  0.37808076788E+02  0.79938897001E+03  0.80036815014E+03  0.00000000000E+00 0. -1.
         22    1    3    3    0    0 -0.22597645618E+02  0.11063462621E+03  0.81771232919E+02  0.13941739001E+03  0.00000000000E+00 0.  1.
         22    1    3    3    0    0 -0.72775490831E+02  0.57905273317E+02  0.23173011170E+03  0.24969609011E+03  0.00000000000E+00 0.  1.
</event>
<event>
 7    1  0.5622879E-006  0.1086280E+03  0.7818608E-02  0.1272461E+00
          2   -1    0    0  502    0  0.00000000000E+00  0.00000000000E+00  0.54383092049E+03  0.54383092049E+03  0.00000000000E+00 0. -1.
          1   -1    0    0  501    0 -0.00000000000E+00 -0.00000000000E+00 -0.56758181148E+03  0.56758181148E+03  0.00000000000E+00 0. -1.
         25    2    1    2    0    0  0.32532177163E+02 -0.13840084050E+03  0.31009053463E+02  0.19183316440E+03  0.12500106545E+03 0.  0.
          2    1    1    2  501    0  0.55906602930E+02  0.93408548429E+02 -0.47524085821E+03  0.48754956515E+03  0.00000000000E+00 0. -1.
          1    1    1    2  502    0 -0.88438780093E+02  0.44992292070E+02  0.42048091374E+03  0.43203000242E+03  0.00000000000E+00 0. -1.
         22    1    3    3    0    0  0.32756105262E+02 -0.16162838601E+03  0.19983085120E+02  0.16612050230E+03  0.00000000000E+00 0. -1.
         22    1    3    3    0    0 -0.22392809882E+00  0.23227545506E+02  0.11025968343E+02  0.25712662094E+02  0.00000000000E+00 0. -1.
</event>
<event>
 7    1  0.5622879E-006  0.1090018E+03  0.7818608E-02  0.1285409E+00
          2   -1    0    0  502    0  0.00000000000E+00  0.00000000000E+00  0.16954725246E+03  0.16954725246E+03  0.00000000000E+00 0. -1.
          1   -1    0    0  501    0 -0.00000000000E+00 -0.00000000000E+00 -0.20092957142E+04  0.20092957142E+04  0.00000000000E+00 0. -1.
         25    2    1    2    0    0  0.94968349676E+02  0.40738893459E+01 -0.20418975578E+02  0.15835865866E+03  0.12499978477E+03 0.  0.
          2    1    1    2  501    0 -0.67426934755E+02 -0.87025164765E+02 -0.18990179088E+04  0.19022062950E+04  0.00000000000E+00 0. -1.
          1    1    1    2  502    0 -0.27541414920E+02  0.82951275419E+02  0.79688422703E+02  0.11827801293E+03  0.00000000000E+00 0. -1.
         22    1    3    3    0    0  0.25008406792E+02  0.34671298571E+01  0.51913196405E+02  0.57727128464E+02  0.00000000000E+00 0. -1.
         22    1    3    3    0    0  0.69959942884E+02  0.60675948886E+00 -0.72332171983E+02  0.10063153019E+03  0.00000000000E+00 0. -1.
</event>
<event>
 7    1  0.5622879E-006  0.1081052E+03  0.7818608E-02  0.1370114E+00
          2   -1    0    0  502    0  0.00000000000E+00  0.00000000000E+00  0.34197453623E+02  0.34197453623E+02  0.00000000000E+00 0. -1.
          1   -1    0    0  501    0 -0.00000000000E+00 -0.00000000000E+00 -0.19826540012E+04  0.19826540012E+04  0.00000000000E+00 0. -1.
         25    2    1    2    0    0 -0.11610283359E+02  0.90793709564E+02 -0.28253366674E+03  0.32222397650E+03  0.12499888725E+03 0.  0.
          2    1    1    2  501    0 -0.26859189806E+02 -0.10686765206E+03 -0.16436861216E+04  0.16473755424E+04  0.00000000000E+00 0. -1.
          1    1    1    2  502    0  0.38469473165E+02  0.16073942493E+02 -0.22236759226E+02  0.47251935978E+02  0.00000000000E+00 0. -1.
         22    1    3    3    0    0 -0.93081834304E+01  0.19786419454E+02  0.78827636082E+01  0.23243980634E+02  0.00000000000E+00 0. -1.
         22    1    3    3    0    0 -0.23020999289E+01  0.71007290110E+02 -0.29041643035E+03  0.29897999587E+03  0.00000000000E+00 0. -1.
</event>
<event>
 7    1  0.5622879E-006  0.1138545E+03  0.7818608E-02  0.1338902E+00
          2   -1    0    0  502    0  0.00000000000E+00  0.00000000000E+00  0.34838378019E+03  0.34838378019E+03  0.00000000000E+00 0. -1.
          1   -1    0    0  501    0 -0.00000000000E+00 -0.00000000000E+00 -0.85863124368E+03  0.85863124368E+03  0.00000000000E+00 0. -1.
         25    2    1    2    0    0 -0.86992802018E+02  0.14031235748E+01 -0.79098901653E+02  0.17161453434E+03  0.12500078318E+03 0.  0.
          2    1    1    2  501    0  0.10802601279E+03  0.45686651444E+02 -0.72633420382E+03  0.73574334194E+03  0.00000000000E+00 0. -1.
          1    1    1    2  502    0 -0.21033210776E+02 -0.47089775019E+02  0.29518564199E+03  0.29965714760E+03  0.00000000000E+00 0. -1.
         22    1    3    3    0    0 -0.73312435760E+00 -0.35733837470E+02  0.14915623208E+02  0.38728806170E+02  0.00000000000E+00 0. -1.
         22    1    3    3    0    0 -0.86259677661E+02  0.37136961045E+02 -0.94014524861E+02  0.13288572817E+03  0.00000000000E+00 0. -1.
</event>
<event>
 7    1  0.6818262E-006  0.5077355E+02  0.7818608E-02  0.1467985E+00
          2   -1    0    0  502    0  0.00000000000E+00  0.00000000000E+00  0.14223180764E+04  0.14223180764E+04  0.00000000000E+00 0. -1.
          1   -1    0    0  501    0 -0.00000000000E+00 -0.00000000000E+00 -0.66817222244E+03  0.66817222244E+03  0.00000000000E+00 0. -1.
         25    2    1    2    0    0 -0.35483787436E+02 -0.44488368741E+01 -0.24670723041E+03  0.27887203829E+03  0.12500505943E+03 0.  0.
          2    1    1    2  501    0  0.28571457034E+02  0.45610341046E+02 -0.40328476892E+03  0.40686021704E+03  0.00000000000E+00 0. -1.
          1    1    1    2  502    0  0.69123304023E+01 -0.41161504172E+02  0.14041378533E+04  0.14047580436E+04  0.00000000000E+00 0. -1.
         22    1    3    3    0    0 -0.28879963254E+01 -0.58588901636E+02 -0.16792394622E+03  0.17787482011E+03  0.00000000000E+00 0.  1.
         22    1    3    3    0    0 -0.32595791111E+02  0.54140064762E+02 -0.78783284194E+02  0.10099721817E+03  0.00000000000E+00 0.  1.
</event>
<event>
 7    1  0.5622879E-006  0.1280993E+03  0.7818608E-02  0.1285033E+00
          2   -1    0    0  502    0  0.00000000000E+00  0.00000000000E+00  0.12679196011E+04  0.12679196011E+04  0.00000000000E+00 0. -1.
          1   -1    0    0  501    0 -0.00000000000E+00 -0.00000000000E+00 -0.19333099794E+03  0.19333099794E+03  0.00000000000E+00 0. -1.
         25    2    1    2    0    0  0.13996964471E+03  0.31349648833E+02  0.55788724242E+03  0.58944126711E+03  0.12501411997E+03 0.  0.
          2    1    1    2  501    0 -0.12156590150E+03  0.40983946135E+02 -0.15203047489E+03  0.19892515564E+03  0.00000000000E+00 0. -1.
          1    1    1    2  502    0 -0.18403743209E+02 -0.72333594968E+02  0.66873183565E+03  0.67288417632E+03  0.00000000000E+00 0. -1.
         22    1    3    3    0    0 -0.15831197626E+02  0.45062584059E+01  0.16676103202E+03  0.16757140264E+03  0.00000000000E+00 0. -1.
         22    1    3    3    0    0  0.15580084234E+03  0.26843390427E+02  0.39112621041E+03  0.42186986447E+03  0.00000000000E+00 0. -1.
</event>
<event>
 7    1  0.5622879E-006  0.7468741E+02  0.7818608E-02  0.1399302E+00
          2   -1    0    0  502    0  0.00000000000E+00  0.00000000000E+00  0.14589524000E+03  0.14589524000E+03  0.00000000000E+00 0. -1.
          1   -1    0    0  501    0 -0.00000000000E+00 -0.00000000000E+00 -0.20021778879E+03  0.20021778879E+03  0.00000000000E+00 0. -1.
         25    2    1    2    0    0  0.54367501970E+02 -0.19978706627E+02  0.57347082904E+02  0.14923760682E+03  0.12501280487E+03 0.  0.
          2    1    1    2  501    0  0.47420063397E+02  0.45912577702E+01 -0.72455731681E+02  0.86715483704E+02  0.00000000000E+00 0. -1.
          1    1    1    2  502    0 -0.10178756537E+03  0.15387448857E+02 -0.39213900007E+02  0.11015993827E+03  0.00000000000E+00 0. -1.
         22    1    3    3    0    0 -0.78188294238E+01 -0.54467934359E+02  0.55425270229E+02  0.78101539978E+02  0.00000000000E+00 0.  1.
         22    1    3    3    0    0  0.62186331394E+02  0.34489227732E+02  0.19218126750E+01  0.71136066842E+02  0.00000000000E+00 0.  1.
</event>
<event>
 7    1  0.5622879E-006  0.6029188E+02  0.7818608E-02  0.1400457E+00
          2   -1    0    0  502    0  0.00000000000E+00  0.00000000000E+00  0.25757383724E+03  0.25757383724E+03  0.00000000000E+00 0. -1.
          1   -1    0    0  501    0 -0.00000000000E+00 -0.00000000000E+00 -0.29595759045E+04  0.29595759045E+04  0.00000000000E+00 0. -1.
         25    2    1    2    0    0 -0.23935068381E+02  0.10029818180E+02  0.34794719257E+01  0.12771617359E+03  0.12500331804E+03 0.  0.
          2    1    1    2  501    0  0.38714612713E+02  0.46551349500E+02 -0.28926799025E+04  0.28933134755E+04  0.00000000000E+00 0. -1.
          1    1    1    2  502    0 -0.14779544332E+02 -0.56581167680E+02  0.18719836336E+03  0.19612009257E+03  0.00000000000E+00 0. -1.
         22    1    3    3    0    0  0.50054449115E+02  0.13746474674E+02 -0.87216433767E+01  0.52635354140E+02  0.00000000000E+00 0. -1.
         22    1    3    3    0    0 -0.73989517496E+02 -0.37166564938E+01  0.12201115302E+02  0.75080819451E+02  0.00000000000E+00 0. -1.
</event>
<event>
 7    1  0.5622879E-006  0.1521877E+03  0.7818608E-02  0.1318372E+00
          2   -1    0    0  502    0  0.00000000000E+00  0.00000000000E+00  0.66598577807E+03  0.66598577807E+03  0.00000000000E+00 0. -1.
          1   -1    0    0  501    0 -0.00000000000E+00 -0.00000000000E+00 -0.47562648434E+03  0.47562648434E+03  0.00000000000E+00 0. -1.
         25    2    1    2    0    0  0.88149372261E+02 -0.86340727709E+02 -0.39126343269E+01  0.17568544619E+03  0.12500013682E+03 0.  0.
          2    1    1    2  501    0 -0.86227465366E+02  0.13253867273E+03 -0.36863960214E+03  0.40111947324E+03  0.00000000000E+00 0. -1.
          1    1    1    2  502    0 -0.19219068947E+01 -0.46197945018E+02  0.56291153019E+03  0.56480734297E+03  0.00000000000E+00 0. -1.
         22    1    3    3    0    0  0.22587811740E+02 -0.92735910283E+02 -0.36506003574E+02  0.10219024705E+03  0.00000000000E+00 0.  1.
         22    1    3    3    0    0  0.65561560521E+02  0.63951825744E+01  0.32593369247E+02  0.73495199142E+02  0.00000000000E+00 0.  1.
</event>
<event>
 7    1  0.5622879E-006  0.5433780E+02  0.7818608E-02  0.1514280E+00
          2   -1    0    0  502    0  0.00000000000E+00  0.00000000000E+00  0.14707454958E+04  0.14707454958E+04  0.00000000000E+00 0. -1.
          1   -1    0    0  501    0 -0.00000000000E+00 -0.00000000000E+00 -0.30568759961E+03  0.30568759961E+03  0.00000000000E+00 0. -1.
         25    2    1    2    0    0 -0.64090949012E+02 -0.48398063396E+02 -0.18590591703E+03  0.23798293813E+03  0.12499938627E+03 0.  0.
          2    1    1    2  501    0  0.26804963564E+02  0.89538514658E+01 -0.91090981484E+02  0.95374233604E+02  0.00000000000E+00 0. -1.
          1    1    1    2  502    0  0.37285985448E+02  0.39444211930E+02  0.14420547947E+04  0.14430759236E+04  0.00000000000E+00 0. -1.
         22    1    3    3    0    0 -0.56877119750E+02 -0.68998204041E+02 -0.54375842093E+02  0.10465415001E+03  0.00000000000E+00 0.  1.
         22    1    3    3    0    0 -0.72138292619E+01  0.20600140645E+02 -0.13153007494E+03  0.13332878812E+03  0.00000000000E+00 0.  1.
</event>
<event>
 7    1  0.5622879E-006  0.8332864E+02  0.7818608E-02  0.1499464E+00
          2   -1    0    0  502    0  0.00000000000E+00  0.00000000000E+00  0.86162464434E+02  0.86162464434E+02  0.00000000000E+00 0. -1.
          1   -1    0    0  501    0 -0.00000000000E+00 -0.00000000000E+00 -0.26083251831E+04  0.26083251831E+04  0.00000000000E+00 0. -1.
         25    2    1    2    0    0  0.55515226240E+02 -0.53744428641E+02 -0.40832477318E+03  0.43396345744E+03  0.12499903218E+03 0.  0.
          2    1    1    2  501    0 -0.72385577925E+02  0.42303077650E+02 -0.21849450532E+04  0.21865530196E+04  0.00000000000E+00 0. -1.
          1    1    1    2  502    0  0.16870351685E+02  0.11441350990E+02  0.71107107748E+02  0.73971170403E+02  0.00000000000E+00 0. -1.
         22    1    3    3    0    0  0.72144793173E+02 -0.87314209371E+01 -0.35442128475E+03  0.36179490872E+03  0.00000000000E+00 0. -1.
         22    1    3    3    0    0 -0.16629566932E+02 -0.45013007703E+02 -0.53903488429E+02  0.72168548715E+02  0.00000000000E+00 0. -1.
</event>
<event>
 7    1  0.5622879E-006  0.3380417E+02  0.7818608E-02  0.1565424E+00
          2   -1    0    0  502    0  0.00000000000E+00  0.00000000000E+00  0.62628255867E+02  0.62628255867E+02  0.00000000000E+00 0. -1.
          1   -1    0    0  501    0 -0.00000000000E+00 -0.00000000000E+00 -0.11108498551E+04  0.11108498551E+04  0.00000000000E+00 0. -1.
         25    2    1    2    0    0  0.11412394124E+01  0.64055924141E+02 -0.41586198648E+03  0.43894003711E+03  0.12499080180E+03 0.  0.
          2    1    1    2  501    0 -0.84818874073E+01 -0.31434867322E+02 -0.67754482037E+03  0.67832667418E+03  0.00000000000E+00 0. -1.
          1    1    1    2  502    0  0.73406479949E+01 -0.32621056819E+02  0.45185207642E+02  0.56211399650E+02  0.00000000000E+00 0. -1.
         22    1    3    3    0    0 -0.60990466916E+02  0.43814679136E+02 -0.22507186666E+03  0.23726969533E+03  0.00000000000E+00 0. -1.
         22    1    3    3    0    0  0.62131706328E+02  0.20241245005E+02 -0.19079011982E+03  0.20167034178E+03  0.00000000000E+00 0. -1.
</event>
<event>
 7    1  0.5622879E-006  0.9379381E+02  0.7818608E-02  0.1476701E+00
          2   -1    0    0  502    0  0.00000000000E+00  0.00000000000E+00  0.86399932553E+03  0.86399932553E+03  0.00000000000E+00 0. -1.
          1   -1    0    0  501    0 -0.00000000000E+00 -0.00000000000E+00 -0.21770374387E+02  0.21770374387E+02  0.00000000000E+00 0. -1.
         25    2    1    2    0    0 -0.99618524508E+02 -0.69677321537E+01  0.55206623664E+03  0.57478207144E+03  0.12499960118E+03 0.  0.
          2    1    1    2  501    0  0.10105330971E+02  0.18671641361E+02  0.45757570999E+02  0.50443068987E+02  0.00000000000E+00 0. -1.
          1    1    1    2  502    0  0.89513193537E+02 -0.11703909207E+02  0.24440514350E+03  0.26054455949E+03  0.00000000000E+00 0. -1.
         22    1    3    3    0    0 -0.12548819045E+03 -0.25403765771E+02  0.43070895369E+03  0.44933599906E+03  0.00000000000E+00 0. -1.
         22    1    3    3    0    0  0.25869665946E+02  0.18436033618E+02  0.12135728295E+03  0.12544607238E+03  0.00000000000E+00 0. -1.
</event>
<event>
 7    1  0.5622879E-006  0.6456565E+02  0.7818608E-02  0.1399363E+00
          2   -1    0    0  502    0  0.00000000000E+00  0.00000000000E+00  0.64715211893E+03  0.64715211893E+03  0.00000000000E+00 0. -1.
          1   -1    0    0  501    0 -0.00000000000E+00 -0.00000000000E+00 -0.10827005788E+03  0.10827005788E+03  0.00000000000E+00 0. -1.
         25    2    1    2    0    0  0.45116758649E+02  0.62530185935E+02  0.25337402538E+03  0.29286388275E+03  0.12500124407E+03 0.  0.
          2    1    1    2  501    0  0.99420315012E+01 -0.64189291395E+02 -0.74224662800E+02  0.98632700906E+02  0.00000000000E+00 0. -1.
          1    1    1    2  502    0 -0.55058790150E+02  0.16591054606E+01  0.35973269847E+03  0.36392559315E+03  0.00000000000E+00 0. -1.
         22    1    3    3    0    0 -0.28447390945E+01  0.43233210273E+02  0.23348682264E+03  0.23747273392E+03  0.00000000000E+00 0.  1.
         22    1    3    3    0    0  0.47961497744E+02  0.19296975661E+02  0.19887202740E+02  0.55391148827E+02  0.00000000000E+00 0.  1.
</event>
<event>
 7    1  0.5622879E-006  0.1342170E+03  0.7818608E-02  0.1366871E+00
          2   -1    0    0  502    0  0.00000000000E+00  0.00000000000E+00  0.13063053978E+04  0.13063053978E+04  0.00000000000E+00 0. -1.
          1   -1    0    0  501    0 -0.00000000000E+00 -0.00000000000E+00 -0.19565620246E+03  0.19565620246E+03  0.00000000000E+00 0. -1.
         25    2    1    2    0    0  0.15549743950E+03  0.47457415959E+02  0.30404263562E+03  0.36674361097E+03  0.12500916724E+03 0.  0.
          2    1    1    2  501    0 -0.12131710660E+03 -0.52121977856E+02 -0.13741210656E+03  0.19056922091E+03  0.00000000000E+00 0. -1.
          1    1    1    2  502    0 -0.34180332901E+02  0.46645618976E+01  0.94401866631E+03  0.94464876839E+03  0.00000000000E+00 0. -1.
         22    1    3    3    0    0  0.21997678047E+02 -0.35702964801E+02  0.10496228264E+03  0.11302955504E+03  0.00000000000E+00 0.  1.
         22    1    3    3    0    0  0.13349976146E+03  0.83160380759E+02  0.19908035298E+03  0.25371405594E+03  0.00000000000E+00 0.  1.
</event>
<event>
 7    1  0.5622879E-006  0.6767391E+02  0.7818608E-02  0.1512305E+00
          2   -1    0    0  502    0  0.00000000000E+00  0.00000000000E+00  0.67195450123E+02  0.67195450123E+02  0.00000000000E+00 0. -1.
          1   -1    0    0  501    0 -0.00000000000E+00 -0.00000000000E+00 -0.33310521008E+04  0.33310521008E+04  0.00000000000E+00 0. -1.
         25    2    1    2    0    0  0.73780163967E+02 -0.14048810682E+02 -0.34072188403E+03  0.37061943435E+03  0.12500592460E+03 0.  0.
          2    1    1    2  501    0 -0.67100317104E+02 -0.79556819207E+01 -0.29724483615E+04  0.29732162732E+04  0.00000000000E+00 0. -1.
          1    1    1    2  502    0 -0.66798468629E+01  0.22004492603E+02  0.49313594917E+02  0.54411843310E+02  0.00000000000E+00 0. -1.
         22    1    3    3    0    0  0.69853840628E+02 -0.57153080287E+02 -0.29111192311E+03  0.30478219340E+03  0.00000000000E+00 0.  1.
         22    1    3    3    0    0  0.39263233386E+01  0.43104269606E+02 -0.49609960912E+02  0.65837240942E+02  0.00000000000E+00 0.  1.
</event>
<event>
 7    1  0.5622879E-006  0.1096125E+03  0.7818608E-02  0.1456595E+00
          2   -1    0    0  502    0  0.00000000000E+00  0.00000000000E+00  0.24117100595E+03  0.24117100595E+03  0.00000000000E+00 0. -1.
          1   -1    0    0  501    0 -0.00000000000E+00 -0.00000000000E+00 -0.31923166172E+03  0.31923166172E+03  0.00000000000E+00 0. -1.
         25    2    1    2    0    0 -0.11431493914E+03 -0.38814994739E+01 -0.15303241837E+02  0.17012507091E+03  0.12500151677E+03 0.  0.
          2    1    1    2  501    0  0.78610769072E+01 -0.19468055448E+02 -0.20779709918E+03  0.20885506013E+03  0.00000000000E+00 0. -1.
          1    1    1    2  502    0  0.10645386223E+03  0.23349554922E+02  0.14503968525E+03  0.18142253663E+03  0.00000000000E+00 0. -1.
         22    1    3    3    0    0 -0.12672872512E+02  0.40356103140E+02  0.28422435914E+02  0.50961275706E+02  0.00000000000E+00 0. -1.
         22    1    3    3    0    0 -0.10164206663E+03 -0.44237602614E+02 -0.43725677751E+02  0.11916379521E+03  0.00000000000E+00 0. -1.
</event>
<event>
 7    1  0.5622879E-006  0.6448074E+02  0.7818608E-02  0.1414032E+00
          2   -1    0    0  502    0  0.00000000000E+00  0.00000000000E+00  0.98831168395E+03  0.98831168395E+03  0.00000000000E+00 0. -1.
          1   -1    0    0  501    0 -0.00000000000E+00 -0.00000000000E+00 -0.51814078279E+02  0.51814078279E+02  0.00000000000E+00 0. -1.
         25    2    1    2    0    0  0.10203212338E+03 -0.37465939332E+02  0.22398555666E+03  0.27858708491E+03  0.12500793365E+03 0.  0.
          2    1    1    2  501    0 -0.48933374073E+02  0.47548372345E+01  0.29618987585E+01  0.49252983864E+02  0.00000000000E+00 0. -1.
          1    1    1    2  502    0 -0.53098749303E+02  0.32711102098E+02  0.70955015025E+03  0.71228569346E+03  0.00000000000E+00 0. -1.
         22    1    3    3    0    0  0.10525579594E+03  0.19651021076E+02  0.12836848427E+03  0.16716283367E+03  0.00000000000E+00 0.  1.
         22    1    3    3    0    0 -0.32236725616E+01 -0.57116960408E+02  0.95617072387E+02  0.11142425123E+03  0.00000000000E+00 0.  1.
</event>
<event>
 7    1  0.5622879E-006  0.1581075E+03  0.7818608E-02  0.1277242E+00
          2   -1    0    0  502    0  0.00000000000E+00  0.00000000000E+00  0.22198063452E+03  0.22198063452E+03  0.00000000000E+00 0. -1.
          1   -1    0    0  501    0 -0.00000000000E+00 -0.00000000000E+00 -0.13296960376E+04  0.13296960376E+04  0.00000000000E+00 0. -1.
         25    2    1    2    0    0  0.21261337483E+03 -0.41741191565E+01 -0.20957693444E+03  0.32368064239E+03  0.12499918552E+03 0.  0.
          2    1    1    2  501    0 -0.62217785202E+02  0.19212396947E+02 -0.10271899234E+04  0.10292518194E+04  0.00000000000E+00 0. -1.
          1    1    1    2  502    0 -0.15039558963E+03 -0.15038277791E+02  0.12905145474E+03  0.19874421036E+03  0.00000000000E+00 0. -1.
         22    1    3    3    0    0  0.11923820442E+02 -0.33617952800E+02 -0.57611424494E+01  0.36132187959E+02  0.00000000000E+00 0. -1.
         22    1    3    3    0    0  0.20068955439E+03  0.29443833644E+02 -0.20381579199E+03  0.28754845444E+03  0.00000000000E+00 0. -1.
</event>
<event>
 7    1  0.5622879E-006  0.7602902E+02  0.7818608E-02  0.1422246E+00
          2   -1    0    0  502    0  0.00000000000E+00  0.00000000000E+00  0.30237738022E+04  0.30237738022E+04  0.00000000000E+00 0. -1.
          1   -1    0    0  501    0 -0.00000000000E+00 -0.00000000000E+00 -0.35716299782E+03  0.35716299782E+03  0.00000000000E+00 0. -1.
         25    2    1    2    0    0 -0.16193402161E+02  0.10622970058E+03  0.13921432678E+03  0.21576012372E+03  0.12499930659E+03 0.  0.
          2    1    1    2  501    0 -0.73451126162E+01 -0.74962357100E+02 -0.31430577625E+03  0.32320492980E+03  0.00000000000E+00 0. -1.
          1    1    1    2  502    0  0.23538514778E+02 -0.31267343482E+02  0.28417022538E+04  0.28419717465E+04  0.00000000000E+00 0. -1.
         22    1    3    3    0    0 -0.54866355109E+02  0.28235598579E+02  0.14028476278E+02  0.63280045012E+02  0.00000000000E+00 0. -1.
         22    1    3    3    0    0  0.38672952948E+02  0.77994102002E+02  0.12518585051E+03  0.15248007871E+03  0.00000000000E+00 0. -1.
</event>
<event>
 7    1  0.5622879E-006  0.1182110E+03  0.7818608E-02  0.1249981E+00
          2   -1    0    0  502    0  0.00000000000E+00  0.00000000000E+00  0.10534345483E+04  0.10534345483E+04  0.00000000000E+00 0. -1.
          1   -1    0    0  501    0 -0.00000000000E+00 -0.00000000000E+00 -0.28594861804E+04  0.28594861804E+04  0.00000000000E+00 0. -1.
         25    2    1    2    0    0 -0.72239966130E+02  0.74926092594E+02 -0.13012218102E+03  0.20830221243E+03  0.12500199060E+03 0.  0.
          2    1    1    2  501    0  0.11676302916E+03  0.29668916578E+02 -0.26857344854E+04  0.26884351537E+04  0.00000000000E+00 0. -1.
          1    1    1    2  502    0 -0.44523063029E+02 -0.10459500917E+03  0.10098050343E+04  0.10161833625E+04  0.00000000000E+00 0. -1.
         22    1    3    3    0    0  0.26144255721E+01 -0.27753751407E+02 -0.52386804961E+02  0.59342086854E+02  0.00000000000E+00 0.  1.
         22    1    3    3    0    0 -0.74854391702E+02  0.10267984400E+03 -0.77735376061E+02  0.14896012558E+03  0.00000000000E+00 0.  1.
</event>
<event>
 7    1  0.5622879E-006  0.5906058E+02  0.7818608E-02  0.1462750E+00
          2   -1    0    0  502    0  0.00000000000E+00  0.00000000000E+00  0.90690368738E+02  0.90690368738E+02  0.00000000000E+00 0. -1.
          1   -1    0    0  501    0 -0.00000000000E+00 -0.00000000000E+00 -0.21310684565E+04  0.21310684565E+04  0.00000000000E+00 0. -1.
         25    2    1    2    0    0 -0.49122314943E+02 -0.50126858452E+01 -0.10035265226E+03  0.16774262494E+03  0.12501521732E+03 0.  0.
          2    1    1    2  501    0  0.43413074997E+01 -0.37007632745E+02 -0.19802535146E+04  0.19806040477E+04  0.00000000000E+00 0. -1.
          1    1    1    2  502    0  0.44781007443E+02  0.42020318590E+02  0.40228079069E+02  0.73412152588E+02  0.00000000000E+00 0. -1.
         22    1    3    3    0    0 -0.18781342019E+02 -0.47895234264E+02  0.32863191230E+01  0.51550869698E+02  0.00000000000E+00 0. -1.
         22    1    3    3    0    0 -0.30340972924E+02  0.42882548418E+02 -0.10363897138E+03  0.11619175524E+03  0.00000000000E+00 0. -1.
</event>
<event>
 7    1  0.5622879E-006  0.5201010E+02  0.7818608E-02  0.1509142E+00
          2   -1    0    0  502    0  0.00000000000E+00  0.00000000000E+00  0.71096223289E+03  0.71096223289E+03  0.00000000000E+00 0. -1.
          1   -1    0    0  501    0 -0.00000000000E+00 -0.00000000000E+00 -0.10500506162E+04  0.10500506162E+04  0.00000000000E+00 0. -1.
         25    2    1    2    0    0  0.44439441195E+02 -0.45681391919E+02  0.93722705980E+02  0.16873025114E+03  0.12499719410E+03 0.  0.
          2    1    1    2  501    0 -0.49608587797E+02  0.15552081068E+02 -0.10114757829E+04  0.10128110084E+04  0.00000000000E+00 0. -1.
          1    1    1    2  502    0  0.51691466018E+01  0.30129310851E+02  0.57866469365E+03  0.57947158957E+03  0.00000000000E+00 0. -1.
         22    1    3    3    0    0 -0.50661958419E+01 -0.14086759777E+02 -0.29024164181E+02  0.32657391931E+02  0.00000000000E+00 0. -1.
         22    1    3    3    0    0  0.49505637037E+02 -0.31594632142E+02  0.12274687016E+03  0.13607285921E+03  0.00000000000E+00 0. -1.
</event>
<event>
 7    1  0.5622879E-006  0.1355419E+03  0.7818608E-02  0.1227103E+00
          2   -1    0    0  502    0  0.00000000000E+00  0.00000000000E+00  0.25332819212E+03  0.25332819212E+03  0.00000000000E+00 0. -1.
          1   -1    0    0  501    0 -0.00000000000E+00 -0.00000000000E+00 -0.30592029472E+03  0.30592029472E+03  0.00000000000E+00 0. -1.
         25    2    1    2    0    0  0.51386529649E+02  0.36293753381E+02 -0.81967717619E+01  0.14016157633E+03  0.12498107236E+03 0.  0.
          2    1    1    2  501    0  0.94469650945E+02  0.82071796280E+02 -0.15646534175E+03  0.20035393149E+03  0.00000000000E+00 0. -1.
          1    1    1    2  502    0 -0.14585618059E+03 -0.11836554966E+03  0.11207001091E+03  0.21873297902E+03  0.00000000000E+00 0. -1.
         22    1    3    3    0    0  0.28845171617E+02  0.47651117165E+02 -0.60407922761E+02  0.82169276649E+02  0.00000000000E+00 0. -1.
         22    1    3    3    0    0  0.22541358032E+02 -0.11357363783E+02  0.52211150999E+02  0.57992299685E+02  0.00000000000E+00 0. -1.
</event>
<event>
 7    1  0.5622879E-006  0.6096783E+02  0.7818608E-02  0.1437386E+00
          2   -1    0    0  502    0  0.00000000000E+00  0.00000000000E+00  0.90008439585E+03  0.90008439585E+03  0.00000000000E+00 0. -1.
          1   -1    0    0  501    0 -0.00000000000E+00 -0.00000000000E+00 -0.30384643340E+03  0.30384643340E+03  0.00000000000E+00 0. -1.
         25    2    1    2    0    0  0.20870867338E+02  0.34391896470E+02 -0.16538122843E+03  0.21116653565E+03  0.12498783707E+03 0.  0.
          2    1    1    2  501    0  0.38589550107E+02 -0.20102766166E+02 -0.11036795655E+03  0.11863540963E+03  0.00000000000E+00 0. -1.
          1    1    1    2  502    0 -0.59460417445E+02 -0.14289130303E+02  0.87198714743E+03  0.87412888396E+03  0.00000000000E+00 0. -1.
         22    1    3    3    0    0  0.54563737311E+02  0.19226192906E+02 -0.16431569203E+03  0.17420245282E+03  0.00000000000E+00 0.  1.
         22    1    3    3    0    0 -0.33692869973E+02  0.15165703563E+02 -0.10655364041E+01  0.36964082829E+02  0.00000000000E+00 0.  1.
</event>
<event>
 7    1  0.5622879E-006  0.1666088E+03  0.7818608E-02  0.1222896E+00
          2   -1    0    0  502    0  0.00000000000E+00  0.00000000000E+00  0.25645294403E+03  0.25645294403E+03  0.00000000000E+00 0. -1.
          1   -1    0    0  501    0 -0.00000000000E+00 -0.00000000000E+00 -0.23885978207E+04  0.23885978207E+04  0.00000000000E+00 0. -1.
         25    2    1    2    0    0 -0.89770497932E+02  0.13053595133E+03 -0.14024938184E+03  0.24574717767E+03  0.12499363719E+03 0.  0.
          2    1    1    2  501    0  0.16101827555E+03 -0.51559019133E+02 -0.21782118639E+04  0.21847636351E+04  0.00000000000E+00 0. -1.
          1    1    1    2  502    0 -0.71247777618E+02 -0.78976932200E+02  0.18631636899E+03  0.21453995197E+03  0.00000000000E+00 0. -1.
         22    1    3    3    0    0 -0.27195776125E+02  0.70876306829E+02 -0.14003611090E+03  0.15928958994E+03  0.00000000000E+00 0. -1.
         22    1    3    3    0    0 -0.62574721807E+02  0.59659644504E+02 -0.21327094484E+00  0.86457587730E+02  0.00000000000E+00 0. -1.
</event>
<event>
 7    1  0.5622879E-006  0.7201771E+02  0.7818608E-02  0.1420853E+00
          2   -1    0    0  502    0  0.00000000000E+00  0.00000000000E+00  0.11109727417E+04  0.11109727417E+04  0.00000000000E+00 0. -1.
          1   -1    0    0  501    0 -0.00000000000E+00 -0.00000000000E+00 -0.87502143888E+03  0.87502143888E+03  0.00000000000E+00 0. -1.
         25    2    1    2    0    0  0.33786900407E+02 -0.10769961310E+03  0.21731227594E+03  0.27493917087E+03  0.12500464434E+03 0.  0.
          2    1    1    2  501    0 -0.27002725032E+02  0.66493561352E+02 -0.84418041541E+03  0.84722553941E+03  0.00000000000E+00 0. -1.
          1    1    1    2  502    0 -0.67841753756E+01  0.41206051747E+02  0.86281944231E+03  0.86382947031E+03  0.00000000000E+00 0. -1.
         22    1    3    3    0    0  0.49851420415E+02 -0.80273742014E+02  0.54563207612E+02  0.10911544986E+03  0.00000000000E+00 0. -1.
         22    1    3    3    0    0 -0.16064520008E+02 -0.27425871085E+02  0.16274906833E+03  0.16582372101E+03  0.00000000000E+00 0. -1.
</event>
<event>
 7    1  0.5622879E-006  0.6945119E+02  0.7818608E-02  0.1444702E+00
          2   -1    0    0  502    0  0.00000000000E+00  0.00000000000E+00  0.17648833718E+04  0.17648833718E+04  0.00000000000E+00 0. -1.
          1   -1    0    0  501    0 -0.00000000000E+00 -0.00000000000E+00 -0.44614092748E+02  0.44614092748E+02  0.00000000000E+00 0. -1.
         25    2    1    2    0    0 -0.18707278877E+02 -0.30784227136E+02  0.29621922588E+03  0.32352518569E+03  0.12500034029E+03 0.  0.
          2    1    1    2  501    0 -0.25749732836E+02 -0.25398025780E+02 -0.19197933531E+02  0.40947150163E+02  0.00000000000E+00 0. -1.
          1    1    1    2  502    0  0.44457011713E+02  0.56182252916E+02  0.14432479867E+04  0.14450251287E+04  0.00000000000E+00 0. -1.
         22    1    3    3    0    0 -0.62143796848E+01 -0.79502343569E+02  0.18591126908E+03  0.20229246432E+03  0.00000000000E+00 0. -1.
         22    1    3    3    0    0 -0.12492899192E+02  0.48718116433E+02  0.11030795680E+03  0.12123272138E+03  0.00000000000E+00 0. -1.
</event>
<event>
 7    1  0.5622879E-006  0.2586153E+03  0.7818608E-02  0.1220948E+00
          2   -1    0    0  502    0  0.00000000000E+00  0.00000000000E+00  0.75906971304E+03  0.75906971304E+03  0.00000000000E+00 0. -1.
          1   -1    0    0  501    0 -0.00000000000E+00 -0.00000000000E+00 -0.31324958353E+03  0.31324958353E+03  0.00000000000E+00 0. -1.
         25    2    1    2    0    0  0.26420237321E+03  0.99326138568E+02  0.14107485963E+03  0.33940579660E+03  0.12500241171E+03 0.  0.
          2    1    1    2  501    0 -0.25116854901E+03 -0.30616091303E+02 -0.13558441971E+03  0.28706466158E+03  0.00000000000E+00 0. -1.
          1    1    1    2  502    0 -0.13033824205E+02 -0.68710047265E+02  0.44032968958E+03  0.44584883839E+03  0.00000000000E+00 0. -1.
         22    1    3    3    0    0  0.20008858169E+03  0.62672108744E+02  0.38767749196E+02  0.21322798155E+03  0.00000000000E+00 0.  1.
         22    1    3    3    0    0  0.64113791520E+02  0.36654029824E+02  0.10230711044E+03  0.12617781505E+03  0.00000000000E+00 0.  1.
</event>
<event>
 7    1  0.5622879E-006  0.8358902E+02  0.7818608E-02  0.1325707E+00
          2   -1    0    0  502    0  0.00000000000E+00  0.00000000000E+00  0.33306417672E+03  0.33306417672E+03  0.00000000000E+00 0. -1.
          1   -1    0    0  501    0 -0.00000000000E+00 -0.00000000000E+00 -0.76614317173E+03  0.76614317173E+03  0.00000000000E+00 0. -1.
         25    2    1    2    0    0 -0.11541995807E+00  0.52736075898E+01 -0.53090356600E+02  0.13590943821E+03  0.12499986069E+03 0.  0.
          2    1    1    2  501    0 -0.83586543310E+02  0.64343566986E+00 -0.66292849606E+03  0.66817760747E+03  0.00000000000E+00 0. -1.
          1    1    1    2  502    0  0.83701963268E+02 -0.59170432596E+01  0.28293985765E+03  0.29512030276E+03  0.00000000000E+00 0. -1.
         22    1    3    3    0    0 -0.26722880604E+02  0.73698480353E+01 -0.87830084796E+02  0.92100764400E+02  0.00000000000E+00 0. -1.
         22    1    3    3    0    0  0.26607460646E+02 -0.20962404455E+01  0.34739728196E+02  0.43808673811E+02  0.00000000000E+00 0. -1.
</event>
<event>
 7    1  0.5622879E-006  0.2431612E+02  0.7818608E-02  0.1673954E+00
          2   -1    0    0  502    0  0.00000000000E+00  0.00000000000E+00  0.15311265475E+04  0.15311265475E+04  0.00000000000E+00 0. -1.
          1   -1    0    0  501    0 -0.00000000000E+00 -0.00000000000E+00 -0.51319774128E+03  0.51319774128E+03  0.00000000000E+00 0. -1.
         25    2    1    2    0    0 -0.11707845878E+01  0.22201474210E+01  0.10917384005E+03  0.16598154044E+03  0.12499857848E+03 0.  0.
          2    1    1    2  501    0  0.19399468033E+02  0.14007483496E+02 -0.48439169628E+03  0.48498233409E+03  0.00000000000E+00 0. -1.
          1    1    1    2  502    0 -0.18228683445E+02 -0.16227630917E+02  0.13931466624E+04  0.13933604142E+04  0.00000000000E+00 0. -1.
         22    1    3    3    0    0  0.12945031770E+02  0.36260530884E+02 -0.11196240939E+02  0.40096829784E+02  0.00000000000E+00 0.  1.
         22    1    3    3    0    0 -0.14115816358E+02 -0.34040383463E+02  0.12037008099E+03  0.12588471065E+03  0.00000000000E+00 0.  1.
</event>
<event>
 7    1  0.5622879E-006  0.1003205E+03  0.7818608E-02  0.1467547E+00
          2   -1    0    0  502    0  0.00000000000E+00  0.00000000000E+00  0.48456931556E+03  0.48456931556E+03  0.00000000000E+00 0. -1.
          1   -1    0    0  501    0 -0.00000000000E+00 -0.00000000000E+00 -0.46544243416E+03  0.46544243416E+03  0.00000000000E+00 0. -1.
         25    2    1    2    0    0 -0.79096271113E+02 -0.33139975228E+02 -0.11928534385E+03  0.19289232590E+03  0.12499591222E+03 0.  0.
          2    1    1    2  501    0  0.90514832144E+02  0.50991041061E+02 -0.30036844863E+03  0.31782735256E+03  0.00000000000E+00 0. -1.
          1    1    1    2  502    0 -0.11418561031E+02 -0.17851065834E+02  0.43878067388E+03  0.43929207125E+03  0.00000000000E+00 0. -1.
         22    1    3    3    0    0 -0.43813836150E+02  0.43582629594E+02 -0.25954396256E+02  0.67027819042E+02  0.00000000000E+00 0.  1.
         22    1    3    3    0    0 -0.35282434963E+02 -0.76722604821E+02 -0.93330947599E+02  0.12586450686E+03  0.00000000000E+00 0.  1.
</event>
<event>
 7    1  0.5622879E-006  0.6747091E+02  0.7818608E-02  0.1408544E+00
          2   -1    0    0  502    0  0.00000000000E+00  0.00000000000E+00  0.39108737496E+03  0.39108737496E+03  0.00000000000E+00 0. -1.
          1   -1    0    0  501    0 -0.00000000000E+00 -0.00000000000E+00 -0.13460683043E+04  0.13460683043E+04  0.00000000000E+00 0. -1.
         25    2    1    2    0    0 -0.33203910789E+01 -0.63056864902E+02 -0.68656643860E+02  0.15596901381E+03  0.12500162125E+03 0.  0.
          2    1    1    2  501    0 -0.46235491799E+02  0.16335883388E+02 -0.12299243941E+04  0.12309015383E+04  0.00000000000E+00 0. -1.
          1    1    1    2  502    0  0.49555882878E+02  0.46720981513E+02  0.34360010864E+03  0.35028512714E+03  0.00000000000E+00 0. -1.
         22    1    3    3    0    0 -0.11161265372E+01  0.22596648429E+02  0.21769332247E+02  0.31396784631E+02  0.00000000000E+00 0.  1.
         22    1    3    3    0    0 -0.22042645417E+01 -0.85653513331E+02 -0.90425976107E+02  0.12457222918E+03  0.00000000000E+00 0.  1.
</event>
<event>
 7    1  0.5622879E-006  0.8831031E+02  0.7818608E-02  0.1427611E+00
          2   -1    0    0  502    0  0.00000000000E+00  0.00000000000E+00  0.22572055394E+04  0.22572055394E+04  0.00000000000E+00 0. -1.
          1   -1    0    0  501    0 -0.00000000000E+00 -0.00000000000E+00 -0.15863266082E+03  0.15863266082E+03  0.00000000000E+00 0. -1.
         25    2    1    2    0    0  0.63484376922E+02 -0.25789237709E+02  0.11190070680E+04  0.11280499998E+04  0.12499853158E+03 0.  0.
          2    1    1    2  501    0  0.19926369903E+02 -0.25474097175E+02 -0.15027377932E+03  0.15371466617E+03  0.00000000000E+00 0. -1.
          1    1    1    2  502    0 -0.83410746824E+02  0.51263334885E+02  0.11298395899E+04  0.11340735343E+04  0.00000000000E+00 0. -1.
         22    1    3    3    0    0 -0.91241659466E+01 -0.61111617895E+02  0.47708192132E+03  0.48106656494E+03  0.00000000000E+00 0.  1.
         22    1    3    3    0    0  0.72608542868E+02  0.35322380186E+02  0.64192514669E+03  0.64698343487E+03  0.00000000000E+00 0.  1.
</event>
<event>
 7    1  0.5622879E-006  0.8600042E+02  0.7818608E-02  0.1375977E+00
          2   -1    0    0  502    0  0.00000000000E+00  0.00000000000E+00  0.86639851907E+03  0.86639851907E+03  0.00000000000E+00 0. -1.
          1   -1    0    0  501    0 -0.00000000000E+00 -0.00000000000E+00 -0.64178964165E+02  0.64178964165E+02  0.00000000000E+00 0. -1.
         25    2    1    2    0    0  0.74965851380E+02 -0.61087764756E+01  0.63578446766E+03  0.65230669309E+03  0.12499974605E+03 0.  0.
          2    1    1    2  501    0 -0.67448494574E+02  0.55476670772E+02 -0.16295376665E+02  0.88839741787E+02  0.00000000000E+00 0. -1.
          1    1    1    2  502    0 -0.75173568057E+01 -0.49367894296E+02  0.18273046391E+03  0.18943104836E+03  0.00000000000E+00 0. -1.
         22    1    3    3    0    0  0.10067099814E+01 -0.31831629710E+02  0.44416281592E+03  0.44530312503E+03  0.00000000000E+00 0.  1.
         22    1    3    3    0    0  0.73959141398E+02  0.25722853234E+02  0.19162165173E+03  0.20700356806E+03  0.00000000000E+00 0.  1.
</event>
<event>
 7    1  0.5622879E-006  0.7075511E+02  0.7818608E-02  0.1459165E+00
          2   -1    0    0  502    0  0.00000000000E+00  0.00000000000E+00  0.85012942103E+03  0.85012942103E+03  0.00000000000E+00 0. -1.
          1   -1    0    0  501    0 -0.00000000000E+00 -0.00000000000E+00 -0.80202323152E+02  0.80202323152E+02  0.00000000000E+00 0. -1.
         25    2    1    2    0    0 -0.14242519714E+02 -0.51037923426E+02  0.11069648228E+02  0.13621849639E+03  0.12500089061E+03 0.  0.
          2    1    1    2  501    0  0.25309220859E+02 -0.19454407659E+02  0.13949515110E-01  0.31922262333E+02  0.00000000000E+00 0. -1.
          1    1    1    2  502    0 -0.11066701145E+02  0.70492331085E+02  0.75884350013E+03  0.76219098546E+03  0.00000000000E+00 0. -1.
         22    1    3    3    0    0  0.80755574736E+01 -0.68030476273E+02  0.52412384106E+02  0.86257859573E+02  0.00000000000E+00 0.  1.
         22    1    3    3    0    0 -0.22318077188E+02  0.16992552847E+02 -0.41342735877E+02  0.49960636820E+02  0.00000000000E+00 0.  1.
</event>
<event>
 7    1  0.5622879E-006  0.3410361E+02  0.7818608E-02  0.1570712E+00
          2   -1    0    0  502    0  0.00000000000E+00  0.00000000000E+00  0.10049942584E+03  0.10049942584E+03  0.00000000000E+00 0. -1.
          1   -1    0    0  501    0 -0.00000000000E+00 -0.00000000000E+00 -0.75755098295E+03  0.75755098295E+03  0.00000000000E+00 0. -1.
         25    2    1    2    0    0 -0.47233763383E+02  0.44729397802E+02 -0.53223926308E+01  0.14101586026E+03  0.12500159019E+03 0.  0.
          2    1    1    2  501    0  0.25695341849E+02 -0.22128234422E+02 -0.67639599966E+03  0.67724549294E+03  0.00000000000E+00 0. -1.
          1    1    1    2  502    0  0.21538421533E+02 -0.22601163380E+02  0.24666835172E+02  0.39789055602E+02  0.00000000000E+00 0. -1.
         22    1    3    3    0    0  0.28054459694E+02 -0.23615885139E+02  0.10417586498E+02  0.38122025760E+02  0.00000000000E+00 0. -1.
         22    1    3    3    0    0 -0.75288223076E+02  0.68345282941E+02 -0.15739979129E+02  0.10289383450E+03  0.00000000000E+00 0. -1.
</event>
<event>
 7    1  0.5622879E-006  0.9320233E+02  0.7818608E-02  0.1397947E+00
          2   -1    0    0  502    0  0.00000000000E+00  0.00000000000E+00  0.10476003856E+03  0.10476003856E+03  0.00000000000E+00 0. -1.
          1   -1    0    0  501    0 -0.00000000000E+00 -0.00000000000E+00 -0.72967310076E+03  0.72967310076E+03  0.00000000000E+00 0. -1.
         25    2    1    2    0    0  0.10258675080E+03 -0.23136796818E+02 -0.33718163521E+03  0.37466910383E+03  0.12500451765E+03 0.  0.
          2    1    1    2  501    0 -0.75718541562E+02  0.50837058964E+02 -0.36348259790E+03  0.37474965387E+03  0.00000000000E+00 0. -1.
          1    1    1    2  502    0 -0.26868209242E+02 -0.27700262146E+02  0.75751170906E+02  0.85014381633E+02  0.00000000000E+00 0. -1.
         22    1    3    3    0    0  0.36057258158E+02  0.24441326536E+02 -0.25510250220E+03  0.25879488198E+03  0.00000000000E+00 0. -1.
         22    1    3    3    0    0  0.66529492646E+02 -0.47578123354E+02 -0.82079133009E+02  0.11587422185E+03  0.00000000000E+00 0. -1.
</event>
<event>
 7    1  0.5622879E-006  0.7754218E+02  0.7818608E-02  0.1369361E+00
          2   -1    0    0  502    0  0.00000000000E+00  0.00000000000E+00  0.17977148644E+04  0.17977148644E+04  0.00000000000E+00 0. -1.
          1   -1    0    0  501    0 -0.00000000000E+00 -0.00000000000E+00 -0.78394626477E+02  0.78394626477E+02  0.00000000000E+00 0. -1.
         25    2    1    2    0    0  0.20329085563E+02  0.13240058523E+02  0.60530287751E+02  0.14098790516E+03  0.12500041119E+03 0.  0.
          2    1    1    2  501    0  0.58176892981E+02 -0.60356532197E+01 -0.14270408381E+02  0.60204854805E+02  0.00000000000E+00 0. -1.
          1    1    1    2  502    0 -0.78505978544E+02 -0.72044053038E+01  0.16730603586E+04  0.16749167309E+04  0.00000000000E+00 0. -1.
         22    1    3    3    0    0  0.48567322755E+01 -0.20340898751E+02  0.90816517236E+02  0.93193239097E+02  0.00000000000E+00 0. -1.
         22    1    3    3    0    0  0.15472353288E+02  0.33580957275E+02 -0.30286229486E+02  0.47794666064E+02  0.00000000000E+00 0. -1.
</event>
<event>
 7    1  0.5622879E-006  0.5800686E+02  0.7818608E-02  0.1432809E+00
          2   -1    0    0  502    0  0.00000000000E+00  0.00000000000E+00  0.63421046171E+02  0.63421046171E+02  0.00000000000E+00 0. -1.
          1   -1    0    0  501    0 -0.00000000000E+00 -0.00000000000E+00 -0.89720568894E+03  0.89720568894E+03  0.00000000000E+00 0. -1.
         25    2    1    2    0    0  0.30256045307E+02  0.34930659426E+01 -0.27671446478E+03  0.30516227715E+03  0.12500196235E+03 0.  0.
          2    1    1    2  501    0 -0.36504943084E+02 -0.50414404439E+02 -0.59286198788E+03  0.59612042384E+03  0.00000000000E+00 0. -1.
          1    1    1    2  502    0  0.62488977767E+01  0.46921338496E+02  0.35791809893E+02  0.59344034116E+02  0.00000000000E+00 0. -1.
         22    1    3    3    0    0  0.72883039130E+02 -0.16864285221E+02 -0.11932009705E+03  0.14083191069E+03  0.00000000000E+00 0.  1.
         22    1    3    3    0    0 -0.42626993823E+02  0.20357351164E+02 -0.15739436773E+03  0.16433036647E+03  0.00000000000E+00 0.  1.
</event>
<event>
 7    1  0.5622879E-006  0.8969050E+02  0.7818608E-02  0.1353434E+00
          2   -1    0    0  502    0  0.00000000000E+00  0.00000000000E+00  0.17861868630E+03  0.17861868630E+03  0.00000000000E+00 0. -1.
          1   -1    0    0  501    0 -0.00000000000E+00 -0.00000000000E+00 -0.41437518336E+03  0.41437518336E+03  0.00000000000E+00 0. -1.
         25    2    1    2    0    0 -0.56312116900E+02 -0.55927545212E+01 -0.12758163313E+03  0.18736338631E+03  0.12500252800E+03 0.  0.
          2    1    1    2  501    0 -0.25239217931E+02  0.51990103391E+02 -0.23829920126E+03  0.24520705189E+03  0.00000000000E+00 0. -1.
          1    1    1    2  502    0  0.81551334831E+02 -0.46397348870E+02  0.13012433733E+03  0.16042343145E+03  0.00000000000E+00 0. -1.
         22    1    3    3    0    0 -0.90782497124E+02 -0.39349613238E+01 -0.12243642872E+03  0.15247171797E+03  0.00000000000E+00 0. -1.
         22    1    3    3    0    0  0.34470380224E+02 -0.16577931974E+01 -0.51452044092E+01  0.34891668339E+02  0.00000000000E+00 0. -1.
</event>
<event>
 7    1  0.5622879E-006  0.6732716E+02  0.7818608E-02  0.1431516E+00
          2   -1    0    0  502    0  0.00000000000E+00  0.00000000000E+00  0.51389438029E+03  0.51389438029E+03  0.00000000000E+00 0. -1.
          1   -1    0    0  501    0 -0.00000000000E+00 -0.00000000000E+00 -0.44959670236E+03  0.44959670236E+03  0.00000000000E+00 0. -1.
         25    2    1    2    0    0  0.88158258798E+02  0.60869721265E+02 -0.27347630724E+03  0.31920339439E+03  0.12499805921E+03 0.  0.
          2    1    1    2  501    0 -0.37536537234E+02 -0.16943070425E+02 -0.14814776014E+03  0.15376546458E+03  0.00000000000E+00 0. -1.
          1    1    1    2  502    0 -0.50621721564E+02 -0.43926650840E+02  0.48592174531E+03  0.49052222367E+03  0.00000000000E+00 0. -1.
         22    1    3    3    0    0  0.11590016045E+02  0.81909744492E+02 -0.11178692977E+03  0.13906779779E+03  0.00000000000E+00 0. -1.
         22    1    3    3    0    0  0.76568242753E+02 -0.21040023227E+02 -0.16168937747E+03  0.18013559660E+03  0.00000000000E+00 0. -1.
</event>
<event>
 7    1  0.5622879E-006  0.5757138E+02  0.7818608E-02  0.1486613E+00
          2   -1    0    0  502    0  0.00000000000E+00  0.00000000000E+00  0.11537393846E+04  0.11537393846E+04  0.00000000000E+00 0. -1.
          1   -1    0    0  501    0 -0.00000000000E+00 -0.00000000000E+00 -0.21748318275E+03  0.21748318275E+03  0.00000000000E+00 0. -1.
         25    2    1    2    0    0 -0.49090159738E+02 -0.68625285703E+02  0.64066781934E+03  0.65817860523E+03  0.12499819205E+03 0.  0.
          2    1    1    2  501    0  0.23983842962E+02  0.21567687928E+02 -0.20605946790E+03  0.20856867981E+03  0.00000000000E+00 0. -1.
          1    1    1    2  502    0  0.25106316776E+02  0.47057597775E+02  0.50164785045E+03  0.50447528236E+03  0.00000000000E+00 0. -1.
         22    1    3    3    0    0  0.19148189168E+02 -0.78752138610E+02  0.31253736500E+03  0.32287483180E+03  0.00000000000E+00 0.  1.
         22    1    3    3    0    0 -0.68238348907E+02  0.10126852907E+02  0.32813045434E+03  0.33530377343E+03  0.00000000000E+00 0.  1.
</event>
<event>
 7    1  0.5622879E-006  0.9386979E+02  0.7818608E-02  0.1345227E+00
          2   -1    0    0  502    0  0.00000000000E+00  0.00000000000E+00  0.20131966417E+04  0.20131966417E+04  0.00000000000E+00 0. -1.
          1   -1    0    0  501    0 -0.00000000000E+00 -0.00000000000E+00 -0.12781061016E+03  0.12781061016E+03  0.00000000000E+00 0. -1.
         25    2    1    2    0    0  0.31971949522E+02  0.68573369462E+02  0.85793617646E+03  0.87029003335E+03  0.12500298682E+03 0.  0.
          2    1    1    2  501    0 -0.47693345538E+02  0.35119283914E+02 -0.11186933023E+03  0.12658106635E+03  0.00000000000E+00 0. -1.
          1    1    1    2  502    0  0.15721396016E+02 -0.10369265338E+03  0.11393191853E+04  0.11441361522E+04  0.00000000000E+00 0. -1.
         22    1    3    3    0    0  0.19981407073E+02 -0.27035915062E+02  0.85581075779E+02  0.91947364635E+02  0.00000000000E+00 0.  1.
         22    1    3    3    0    0  0.11990542449E+02  0.95609284523E+02  0.77235510068E+03  0.77834266871E+03  0.00000000000E+00 0.  1.
</event>
<event>
 7    1  0.5622879E-006  0.7865697E+02  0.7818608E-02  0.1387866E+00
          2   -1    0    0  502    0  0.00000000000E+00  0.00000000000E+00  0.12697760712E+04  0.12697760712E+04  0.00000000000E+00 0. -1.
          1   -1    0    0  501    0 -0.00000000000E+00 -0.00000000000E+00 -0.18864972210E+03  0.18864972210E+03  0.00000000000E+00 0. -1.
         25    2    1    2    0    0 -0.19983931074E+02  0.56021751142E+02  0.83092529858E+03  0.84237700576E+03  0.12499749561E+03 0.  0.
          2    1    1    2  501    0  0.21118108508E+02  0.44843514305E+02 -0.17353321287E+03  0.18047351953E+03  0.00000000000E+00 0. -1.
          1    1    1    2  502    0 -0.11341774344E+01 -0.10086526545E+03  0.42373426335E+03  0.43557526797E+03  0.00000000000E+00 0. -1.
         22    1    3    3    0    0 -0.38986903016E+02 -0.71009792528E+00  0.79241481750E+02  0.88315883485E+02  0.00000000000E+00 0. -1.
         22    1    3    3    0    0  0.19002971942E+02  0.56731849067E+02  0.75168381683E+03  0.75406112228E+03  0.00000000000E+00 0. -1.
</event>
<event>
 7    1  0.5622879E-006  0.8251570E+02  0.7818608E-02  0.1336144E+00
          2   -1    0    0  502    0  0.00000000000E+00  0.00000000000E+00  0.15053483628E+04  0.15053483628E+04  0.00000000000E+00 0. -1.
          1   -1    0    0  501    0 -0.00000000000E+00 -0.00000000000E+00 -0.10263003286E+04  0.10263003286E+04  0.00000000000E+00 0. -1.
         25    2    1    2    0    0  0.14022711161E+03  0.56862649959E+02  0.20983361787E+03  0.28731883842E+03  0.12499985573E+03 0.  0.
          2    1    1    2  501    0 -0.71106982326E+02 -0.16014412675E+02 -0.98492740564E+03  0.98762070591E+03  0.00000000000E+00 0. -1.
          1    1    1    2  502    0 -0.69120129283E+02 -0.40848237284E+02  0.12541418220E+04  0.12567091471E+04  0.00000000000E+00 0. -1.
         22    1    3    3    0    0  0.13738604995E+03  0.33802164433E+02  0.22031250844E+03  0.26183031607E+03  0.00000000000E+00 0.  1.
         22    1    3    3    0    0  0.28410616631E+01  0.23060485525E+02 -0.10478890566E+02  0.25488522349E+02  0.00000000000E+00 0.  1.
</event>
<event>
 7    1  0.5622879E-006  0.1580873E+03  0.7818608E-02  0.1240114E+00
          2   -1    0    0  502    0  0.00000000000E+00  0.00000000000E+00  0.49174495591E+03  0.49174495591E+03  0.00000000000E+00 0. -1.
          1   -1    0    0  501    0 -0.00000000000E+00 -0.00000000000E+00 -0.26801354587E+03  0.26801354587E+03  0.00000000000E+00 0. -1.
         25    2    1    2    0    0  0.20622396775E+03  0.10319541203E+03  0.72202722586E+02  0.27205844075E+03  0.12499977638E+03 0.  0.
          2    1    1    2  501    0 -0.14043393983E+03 -0.36220520327E+02 -0.12762117167E+03  0.19318587166E+03  0.00000000000E+00 0. -1.
          1    1    1    2  502    0 -0.65790027914E+02 -0.66974891706E+02  0.27914985912E+03  0.29451418937E+03  0.00000000000E+00 0. -1.
         22    1    3    3    0    0  0.38079287040E+02 -0.14475343981E+02  0.51679896309E+02  0.65805618053E+02  0.00000000000E+00 0.  1.
         22    1    3    3    0    0  0.16814468071E+03  0.11767075601E+03  0.20522826276E+02  0.20625282270E+03  0.00000000000E+00 0.  1.
</event>
<event>
 7    1  0.5622879E-006  0.6822363E+02  0.7818608E-02  0.1479805E+00
          2   -1    0    0  502    0  0.00000000000E+00  0.00000000000E+00  0.68146576586E+03  0.68146576586E+03  0.00000000000E+00 0. -1.
          1   -1    0    0  501    0 -0.00000000000E+00 -0.00000000000E+00 -0.36337054074E+03  0.36337054074E+03  0.00000000000E+00 0. -1.
         25    2    1    2    0    0 -0.57355278022E+02 -0.59019576995E+02 -0.53625518157E+02  0.15897718148E+03  0.12500043859E+03 0.  0.
          2    1    1    2  501    0 -0.33986023986E+01  0.28350622172E+02 -0.25442675213E+03  0.25602398418E+03  0.00000000000E+00 0. -1.
          1    1    1    2  502    0  0.60753880420E+02  0.30668954822E+02  0.62614749540E+03  0.62983514095E+03  0.00000000000E+00 0. -1.
         22    1    3    3    0    0 -0.71463305530E+01 -0.45998027112E+02 -0.86030526412E+02  0.97816869779E+02  0.00000000000E+00 0.  1.
         22    1    3    3    0    0 -0.50208947469E+02 -0.13021549883E+02  0.32405008255E+02  0.61160311700E+02  0.00000000000E+00 0.  1.
</event>
<event>
 7    1  0.6130713E-006  0.7980589E+02  0.7818608E-02  0.1388842E+00
          2   -1    0    0  502    0  0.00000000000E+00  0.00000000000E+00  0.20106971592E+04  0.20106971592E+04  0.00000000000E+00 0. -1.
          1   -1    0    0  501    0 -0.00000000000E+00 -0.00000000000E+00 -0.39618107113E+03  0.39618107113E+03  0.00000000000E+00 0. -1.
         25    2    1    2    0    0 -0.21835752071E+02  0.29664837157E+02  0.78331994525E+02  0.15204437320E+03  0.12499914969E+03 0.  0.
          2    1    1    2  501    0  0.23710496639E+02 -0.78099962591E+02 -0.35437530085E+03  0.36365319421E+03  0.00000000000E+00 0. -1.
          1    1    1    2  502    0 -0.18747445674E+01  0.48435125434E+02  0.18905593944E+04  0.18911806629E+04  0.00000000000E+00 0. -1.
         22    1    3    3    0    0 -0.52847925095E+02 -0.77494543461E+00  0.92332393949E+02  0.10638973024E+03  0.00000000000E+00 0.  1.
         22    1    3    3    0    0  0.31012173024E+02  0.30439782591E+02 -0.14000399424E+02  0.45654642961E+02  0.00000000000E+00 0.  1.
</event>
<event>
 7    1  0.5622879E-006  0.2991846E+02  0.7818608E-02  0.1668340E+00
          2   -1    0    0  502    0  0.00000000000E+00  0.00000000000E+00  0.14901274089E+03  0.14901274089E+03  0.00000000000E+00 0. -1.
          1   -1    0    0  501    0 -0.00000000000E+00 -0.00000000000E+00 -0.64807564405E+03  0.64807564405E+03  0.00000000000E+00 0. -1.
         25    2    1    2    0    0  0.35625054854E+02 -0.27830549398E+02 -0.62211588887E+02  0.14674986324E+03  0.12498622547E+03 0.  0.
          2    1    1    2  501    0 -0.15727027599E+02  0.25308408860E+02 -0.54224006244E+03  0.54305813710E+03  0.00000000000E+00 0. -1.
          1    1    1    2  502    0 -0.19898027255E+02  0.25221405379E+01  0.10538874817E+03  0.10728038461E+03  0.00000000000E+00 0. -1.
         22    1    3    3    0    0  0.59077762383E+02  0.27297376663E+02 -0.57178226477E+02  0.86629546715E+02  0.00000000000E+00 0. -1.
         22    1    3    3    0    0 -0.23452707529E+02 -0.55127926061E+02 -0.50333624094E+01  0.60120316528E+02  0.00000000000E+00 0. -1.
</event>
<event>
 7    1  0.1184296E-005  0.9856482E+02  0.7818608E-02  0.1335287E+00
          2   -1    0    0  502    0  0.00000000000E+00  0.00000000000E+00  0.21723042591E+04  0.21723042591E+04  0.00000000000E+00 0. -1.
          1   -1    0    0  501    0 -0.00000000000E+00 -0.00000000000E+00 -0.30200558028E+04  0.30200558028E+04  0.00000000000E+00 0. -1.
         25    2    1    2    0    0 -0.32929716495E+02 -0.97292333346E+02 -0.12618179993E+04  0.12721518019E+04  0.12504151067E+03 0.  0.
          2    1    1    2  501    0 -0.47012779898E+02  0.39613707890E+02 -0.17514102819E+04  0.17524889223E+04  0.00000000000E+00 0. -1.
          1    1    1    2  502    0  0.79942496394E+02  0.57678625456E+02  0.21654767374E+04  0.21677193377E+04  0.00000000000E+00 0. -1.
         22    1    3    3    0    0 -0.66107004691E+02 -0.30418753558E+02 -0.88650013282E+03  0.88948182788E+03  0.00000000000E+00 0. -1.
         22    1    3    3    0    0  0.33177288196E+02 -0.66873579788E+02 -0.37531786644E+03  0.38266997399E+03  0.00000000000E+00 0. -1.
</event>
<event>
 7    1  0.5622879E-006  0.5507954E+02  0.7818608E-02  0.1423791E+00
          2   -1    0    0  502    0  0.00000000000E+00  0.00000000000E+00  0.42477479957E+02  0.42477479957E+02  0.00000000000E+00 0. -1.
          1   -1    0    0  501    0 -0.00000000000E+00 -0.00000000000E+00 -0.17354797205E+04  0.17354797205E+04  0.00000000000E+00 0. -1.
         25    2    1    2    0    0 -0.85911804194E+01  0.69438445438E+02 -0.90654092636E+03  0.91778925617E+03  0.12500064596E+03 0.  0.
          2    1    1    2  501    0  0.45355017660E+02 -0.28162782514E+02 -0.80118846737E+03  0.80296524220E+03  0.00000000000E+00 0. -1.
          1    1    1    2  502    0 -0.36763837241E+02 -0.41275662924E+02  0.14727153227E+02  0.57202702040E+02  0.00000000000E+00 0. -1.
         22    1    3    3    0    0 -0.23796192584E+02  0.34409769313E+01 -0.29142173974E+02  0.37780489775E+02  0.00000000000E+00 0.  1.
         22    1    3    3    0    0  0.15205012164E+02  0.65997468507E+02 -0.87739875238E+03  0.88000876639E+03  0.00000000000E+00 0.  1.
</event>
<event>
 7    1  0.5622879E-006  0.1000856E+03  0.7818608E-02  0.1399891E+00
          2   -1    0    0  502    0  0.00000000000E+00  0.00000000000E+00  0.47656151321E+03  0.47656151321E+03  0.00000000000E+00 0. -1.
          1   -1    0    0  501    0 -0.00000000000E+00 -0.00000000000E+00 -0.18944187178E+03  0.18944187178E+03  0.00000000000E+00 0. -1.
         25    2    1    2    0    0  0.20128699969E+01 -0.70718896393E+02 -0.20952757773E+02  0.14514968982E+03  0.12499680174E+03 0.  0.
          2    1    1    2  501    0  0.19735399466E+02 -0.29372155253E+02 -0.96884225617E+02  0.10314437779E+03  0.00000000000E+00 0. -1.
          1    1    1    2  502    0 -0.21748269463E+02  0.10009105165E+03  0.40495662481E+03  0.41770931737E+03  0.00000000000E+00 0. -1.
         22    1    3    3    0    0  0.20411491572E+02 -0.10045763664E+03 -0.33732322433E+02  0.10791772479E+03  0.00000000000E+00 0.  1.
         22    1    3    3    0    0 -0.18398621575E+02  0.29738740247E+02  0.12779564660E+02  0.37231965033E+02  0.00000000000E+00 0.  1.
</event>
<event>
 7    1  0.5622879E-006  0.2976288E+02  0.7818608E-02  0.1658405E+00
          2   -1    0    0  502    0  0.00000000000E+00  0.00000000000E+00  0.93834324224E+02  0.93834324224E+02  0.00000000000E+00 0. -1.
          1   -1    0    0  501    0 -0.00000000000E+00 -0.00000000000E+00 -0.65807518596E+03  0.65807518596E+03  0.00000000000E+00 0. -1.
         25    2    1    2    0    0  0.34997464321E+02  0.26588057272E+02  0.13285088996E+01  0.13250952783E+03  0.12500105092E+03 0.  0.
          2    1    1    2  501    0 -0.21242876968E+02 -0.16354189523E+01 -0.58469536686E+03  0.58508341837E+03  0.00000000000E+00 0. -1.
          1    1    1    2  502    0 -0.13754587353E+02 -0.24952638319E+02  0.19125996226E+02  0.34316563988E+02  0.00000000000E+00 0. -1.
         22    1    3    3    0    0 -0.13158542427E+02 -0.27158748392E+02 -0.39411912531E+02  0.49639134787E+02  0.00000000000E+00 0. -1.
         22    1    3    3    0    0  0.48156006748E+02  0.53746805663E+02  0.40740421431E+02  0.82870393044E+02  0.00000000000E+00 0. -1.
</event>
<event>
 7    1  0.5622879E-006  0.4639465E+02  0.7818608E-02  0.1480323E+00
          2   -1    0    0  502    0  0.00000000000E+00  0.00000000000E+00  0.18132634716E+04  0.18132634716E+04  0.00000000000E+00 0. -1.
          1   -1    0    0  501    0 -0.00000000000E+00 -0.00000000000E+00 -0.69124519819E+02  0.69124519819E+02  0.00000000000E+00 0. -1.
         25    2    1    2    0    0 -0.57170001253E+02  0.27124178453E+02  0.18503103999E+03  0.23208955155E+03  0.12499977632E+03 0.  0.
          2    1    1    2  501    0  0.18269394462E+02 -0.42516238199E+02 -0.33508057379E+02  0.57133100685E+02  0.00000000000E+00 0. -1.
          1    1    1    2  502    0  0.38900606791E+02  0.15392059746E+02  0.15926159692E+04  0.15931653392E+04  0.00000000000E+00 0. -1.
         22    1    3    3    0    0 -0.75836914065E+02  0.31389632401E+02  0.50855922279E+02  0.96555017415E+02  0.00000000000E+00 0. -1.
         22    1    3    3    0    0  0.18666912813E+02 -0.42654539483E+01  0.13417511771E+03  0.13553453414E+03  0.00000000000E+00 0. -1.
</event>
<event>
 7    1  0.5622879E-006  0.1558695E+03  0.7818608E-02  0.1355845E+00
          2   -1    0    0  502    0  0.00000000000E+00  0.00000000000E+00  0.16563659082E+04  0.16563659082E+04  0.00000000000E+00 0. -1.
          1   -1    0    0  501    0 -0.00000000000E+00 -0.00000000000E+00 -0.11758066206E+03  0.11758066206E+03  0.00000000000E+00 0. -1.
         25    2    1    2    0    0 -0.14707517363E+03 -0.17499025399E+01  0.14117838692E+03  0.23914607549E+03  0.12500135851E+03 0.  0.
          2    1    1    2  501    0 -0.68792723876E+01  0.31848177026E+02 -0.60267207065E+02  0.68511072214E+02  0.00000000000E+00 0. -1.
          1    1    1    2  502    0  0.15395444602E+03 -0.30098274486E+02  0.14578740663E+04  0.14662894226E+04  0.00000000000E+00 0. -1.
         22    1    3    3    0    0 -0.12550479625E+03 -0.42507758091E+02  0.14035765255E+03  0.19302495696E+03  0.00000000000E+00 0. -1.
         22    1    3    3    0    0 -0.21570377383E+02  0.40757855551E+02  0.82073437085E+00  0.46121118530E+02  0.00000000000E+00 0. -1.
</event>
<event>
 7    1  0.5622879E-006  0.1337560E+03  0.7818608E-02  0.1275872E+00
          2   -1    0    0  502    0  0.00000000000E+00  0.00000000000E+00  0.10023427654E+04  0.10023427654E+04  0.00000000000E+00 0. -1.
          1   -1    0    0  501    0 -0.00000000000E+00 -0.00000000000E+00 -0.18518468110E+04  0.18518468110E+04  0.00000000000E+00 0. -1.
         25    2    1    2    0    0 -0.55543442413E+02  0.11093374464E+03  0.60629912198E+03  0.63136932595E+03  0.12504891341E+03 0.  0.
          2    1    1    2  501    0  0.11769161815E+03 -0.63820998292E+02 -0.18328799987E+04  0.18377631856E+04  0.00000000000E+00 0. -1.
          1    1    1    2  502    0 -0.62148175742E+02 -0.47112746343E+02  0.37707683116E+03  0.38505706488E+03  0.00000000000E+00 0. -1.
         22    1    3    3    0    0  0.10374328596E+02  0.10650114514E+03  0.31523005037E+03  0.33289653838E+03  0.00000000000E+00 0. -1.
         22    1    3    3    0    0 -0.65917771009E+02  0.44325994997E+01  0.29106907161E+03  0.29847278757E+03  0.00000000000E+00 0. -1.
</event>
<event>
 7    1  0.5622879E-006  0.7189079E+02  0.7818608E-02  0.1389462E+00
          2   -1    0    0  502    0  0.00000000000E+00  0.00000000000E+00  0.17654296548E+03  0.17654296548E+03  0.00000000000E+00 0. -1.
          1   -1    0    0  501    0 -0.00000000000E+00 -0.00000000000E+00 -0.21837094776E+04  0.21837094776E+04  0.00000000000E+00 0. -1.
         25    2    1    2    0    0  0.84029308479E+02 -0.19570863739E+01 -0.19356957692E+02  0.15187002137E+03  0.12500022684E+03 0.  0.
          2    1    1    2  501    0 -0.28877512645E+02 -0.45085015224E+02 -0.20858038080E+04  0.20864908567E+04  0.00000000000E+00 0. -1.
          1    1    1    2  502    0 -0.55151795835E+02  0.47042101598E+02  0.97994253565E+02  0.12189156508E+03  0.00000000000E+00 0. -1.
         22    1    3    3    0    0  0.93462384649E+02  0.59812557626E+01  0.32065040850E+02  0.98990704662E+02  0.00000000000E+00 0. -1.
         22    1    3    3    0    0 -0.94330761700E+01 -0.79383421365E+01 -0.51421998542E+02  0.52879316712E+02  0.00000000000E+00 0. -1.
</event>
<event>
 7    1  0.5622879E-006  0.1584772E+03  0.7818608E-02  0.1209057E+00
          2   -1    0    0  502    0  0.00000000000E+00  0.00000000000E+00  0.30201958788E+04  0.30201958788E+04  0.00000000000E+00 0. -1.
          1   -1    0    0  501    0 -0.00000000000E+00 -0.00000000000E+00 -0.12577159511E+04  0.12577159511E+04  0.00000000000E+00 0. -1.
         25    2    1    2    0    0  0.33252621978E+02  0.78961667429E+02 -0.32071168762E+03  0.35471644681E+03  0.12500835680E+03 0.  0.
          2    1    1    2  501    0 -0.38914740121E+02 -0.20827464732E+03 -0.90638384122E+03  0.93081918402E+03  0.00000000000E+00 0. -1.
          1    1    1    2  502    0  0.56621181429E+01  0.12931297989E+03  0.29895754565E+04  0.29923761990E+04  0.00000000000E+00 0. -1.
         22    1    3    3    0    0  0.30799573522E+02  0.10726863859E+03 -0.29840940601E+03  0.31859590102E+03  0.00000000000E+00 0.  1.
         22    1    3    3    0    0  0.24530484560E+01 -0.28306971159E+02 -0.22302281615E+02  0.36120545789E+02  0.00000000000E+00 0.  1.
</event>
<event>
 7    1  0.5622879E-006  0.9057157E+02  0.7818608E-02  0.1343263E+00
          2   -1    0    0  502    0  0.00000000000E+00  0.00000000000E+00  0.28436527715E+04  0.28436527715E+04  0.00000000000E+00 0. -1.
          1   -1    0    0  501    0 -0.00000000000E+00 -0.00000000000E+00 -0.17067675707E+03  0.17067675707E+03  0.00000000000E+00 0. -1.
         25    2    1    2    0    0 -0.41865255802E+02 -0.14335895389E+03  0.79086502374E+03  0.81449049490E+03  0.12499116454E+03 0.  0.
          2    1    1    2  501    0  0.11218584501E+02  0.88966579581E+02 -0.14569145396E+03  0.17107573959E+03  0.00000000000E+00 0. -1.
          1    1    1    2  502    0  0.30646671301E+02  0.54392374305E+02  0.20278024446E+04  0.20287632941E+04  0.00000000000E+00 0. -1.
         22    1    3    3    0    0 -0.66187169019E+02 -0.20999617625E+02  0.31296175611E+03  0.32057259096E+03  0.00000000000E+00 0.  1.
         22    1    3    3    0    0  0.24321913216E+02 -0.12235933626E+03  0.47790326762E+03  0.49391790395E+03  0.00000000000E+00 0.  1.
</event>
<event>
 7    1  0.5622879E-006  0.8820950E+02  0.7818608E-02  0.1365239E+00
          2   -1    0    0  502    0  0.00000000000E+00  0.00000000000E+00  0.44326964945E+03  0.44326964945E+03  0.00000000000E+00 0. -1.
          1   -1    0    0  501    0 -0.00000000000E+00 -0.00000000000E+00 -0.13925882993E+04  0.13925882993E+04  0.00000000000E+00 0. -1.
         25    2    1    2    0    0 -0.21008869500E+02 -0.94971098322E+02 -0.82837042279E+03  0.84337595644E+03  0.12499825773E+03 0.  0.
          2    1    1    2  501    0 -0.30904662780E+02  0.83306299634E+02 -0.55152172540E+03  0.55863337828E+03  0.00000000000E+00 0. -1.
          1    1    1    2  502    0  0.51913532281E+02  0.11664798688E+02  0.43057349837E+03  0.43384861399E+03  0.00000000000E+00 0. -1.
         22    1    3    3    0    0  0.49342181275E+02 -0.47274775288E+02 -0.47709864595E+03  0.48196750222E+03  0.00000000000E+00 0. -1.
         22    1    3    3    0    0 -0.70351050775E+02 -0.47696323034E+02 -0.35127177685E+03  0.36140845423E+03  0.00000000000E+00 0. -1.
</event>
<event>
 7    1  0.5622879E-006  0.6567908E+02  0.7818608E-02  0.1416940E+00
          2   -1    0    0  502    0  0.00000000000E+00  0.00000000000E+00  0.13105265407E+04  0.13105265407E+04  0.00000000000E+00 0. -1.
          1   -1    0    0  501    0 -0.00000000000E+00 -0.00000000000E+00 -0.44892951757E+02  0.44892951757E+02  0.00000000000E+00 0. -1.
         25    2    1    2    0    0  0.99853980468E+01 -0.19280738396E+02  0.16573990985E+03  0.20872453499E+03  0.12499903496E+03 0.  0.
          2    1    1    2  501    0  0.47898893742E+01 -0.46948808165E+02  0.25565399804E+01  0.47261713098E+02  0.00000000000E+00 0. -1.
          1    1    1    2  502    0 -0.14775287421E+02  0.66229546560E+02  0.10973371391E+04  0.10994332444E+04  0.00000000000E+00 0. -1.
         22    1    3    3    0    0 -0.26742003990E+00 -0.45929074368E+02  0.58449851578E+01  0.46300272540E+02  0.00000000000E+00 0. -1.
         22    1    3    3    0    0  0.10252818087E+02  0.26648335973E+02  0.15989492469E+03  0.16242426245E+03  0.00000000000E+00 0. -1.
</event>
<event>
 7    1  0.5622879E-006  0.2256571E+03  0.7818608E-02  0.1250974E+00
          2   -1    0    0  502    0  0.00000000000E+00  0.00000000000E+00  0.81999999854E+02  0.81999999854E+02  0.00000000000E+00 0. -1.
          1   -1    0    0  501    0 -0.00000000000E+00 -0.00000000000E+00 -0.39339740447E+04  0.39339740447E+04  0.00000000000E+00 0. -1.
         25    2    1    2    0    0 -0.13983232637E+03  0.10134335573E+03 -0.28012715090E+03  0.35202170223E+03  0.12499801167E+03 0.  0.
          2    1    1    2  501    0  0.19230451476E+03 -0.12823657271E+03 -0.35936590186E+04  0.36010846682E+04  0.00000000000E+00 0. -1.
          1    1    1    2  502    0 -0.52472188384E+02  0.26893216984E+02  0.21812124680E+02  0.62867674178E+02  0.00000000000E+00 0. -1.
         22    1    3    3    0    0 -0.13780356984E+03  0.60898126727E+02 -0.13825083013E+03  0.20447908874E+03  0.00000000000E+00 0.  1.
         22    1    3    3    0    0 -0.20287565347E+01  0.40445229002E+02 -0.14187632077E+03  0.14754261350E+03  0.00000000000E+00 0.  1.
</event>
<event>
 7    1  0.5622879E-006  0.4062744E+02  0.7818608E-02  0.1589765E+00
          2   -1    0    0  502    0  0.00000000000E+00  0.00000000000E+00  0.14346392892E+04  0.14346392892E+04  0.00000000000E+00 0. -1.
          1   -1    0    0  501    0 -0.00000000000E+00 -0.00000000000E+00 -0.29228223623E+02  0.29228223623E+02  0.00000000000E+00 0. -1.
         25    2    1    2    0    0 -0.16415137086E+02 -0.16021419438E+02  0.27252431854E+03  0.30068626810E+03  0.12496633557E+03 0.  0.
          2    1    1    2  501    0  0.34454260930E+01 -0.23043209404E+02 -0.55900713411E+01  0.23960579255E+02  0.00000000000E+00 0. -1.
          1    1    1    2  502    0  0.12969710993E+02  0.39064628843E+02  0.11384768184E+04  0.11392206655E+04  0.00000000000E+00 0. -1.
         22    1    3    3    0    0  0.49187968225E+01 -0.67763953096E+02  0.18187548865E+03  0.19415159354E+03  0.00000000000E+00 0. -1.
         22    1    3    3    0    0 -0.21333933909E+02  0.51742533658E+02  0.90648829886E+02  0.10653467457E+03  0.00000000000E+00 0. -1.
</event>
<event>
 7    1  0.5622879E-006  0.1005247E+03  0.7818608E-02  0.1303705E+00
          2   -1    0    0  502    0  0.00000000000E+00  0.00000000000E+00  0.73127892066E+03  0.73127892066E+03  0.00000000000E+00 0. -1.
          1   -1    0    0  501    0 -0.00000000000E+00 -0.00000000000E+00 -0.10419581914E+03  0.10419581914E+03  0.00000000000E+00 0. -1.
         25    2    1    2    0    0 -0.72928669573E+01  0.48178351207E+02  0.12260995064E+03  0.18174750946E+03  0.12499847105E+03 0.  0.
          2    1    1    2  501    0 -0.41101581158E+02 -0.11181631597E+03 -0.22062183076E+02  0.12115679268E+03  0.00000000000E+00 0. -1.
          1    1    1    2  502    0  0.48394448115E+02  0.63637964760E+02  0.52653533396E+03  0.53257043766E+03  0.00000000000E+00 0. -1.
         22    1    3    3    0    0  0.55571277490E+02  0.34333905803E+02  0.38470355179E+02  0.75808655160E+02  0.00000000000E+00 0. -1.
         22    1    3    3    0    0 -0.62864144448E+02  0.13844445404E+02  0.84139595461E+02  0.10593885430E+03  0.00000000000E+00 0. -1.
</event>
<event>
 7    1  0.5622879E-006  0.9804135E+02  0.7818608E-02  0.1422834E+00
          2   -1    0    0  502    0  0.00000000000E+00  0.00000000000E+00  0.59401098295E+03  0.59401098295E+03  0.00000000000E+00 0. -1.
          1   -1    0    0  501    0 -0.00000000000E+00 -0.00000000000E+00 -0.19105316835E+03  0.19105316835E+03  0.00000000000E+00 0. -1.
         25    2    1    2    0    0  0.51245893855E+02 -0.92151941828E+02  0.41185545767E+02  0.16862813329E+03  0.12498430356E+03 0.  0.
          2    1    1    2  501    0 -0.69571014589E+02  0.68130235574E+02 -0.10815912470E+03  0.14553436476E+03  0.00000000000E+00 0. -1.
          1    1    1    2  502    0  0.18325120734E+02  0.24021706254E+02  0.46993139353E+03  0.47090165326E+03  0.00000000000E+00 0. -1.
         22    1    3    3    0    0  0.55109282636E+02 -0.12108051667E+03  0.25358201626E+02  0.13542733453E+03  0.00000000000E+00 0.  1.
         22    1    3    3    0    0 -0.38633887803E+01  0.28928574841E+02  0.15827344142E+02  0.33200798752E+02  0.00000000000E+00 0.  1.
</event>
<event>
 7    1  0.5622879E-006  0.1366282E+03  0.7818608E-02  0.1368323E+00
          2   -1    0    0  502    0  0.00000000000E+00  0.00000000000E+00  0.21267333827E+04  0.21267333827E+04  0.00000000000E+00 0. -1.
          1   -1    0    0  501    0 -0.00000000000E+00 -0.00000000000E+00 -0.34297785872E+03  0.34297785872E+03  0.00000000000E+00 0. -1.
         25    2    1    2    0    0  0.24302177974E+02  0.13346308274E+03  0.20482146230E+03  0.27564366325E+03  0.12499842944E+03 0.  0.
          2    1    1    2  501    0 -0.56612557822E+02 -0.12468342729E+03 -0.29216820421E+03  0.32266576871E+03  0.00000000000E+00 0. -1.
          1    1    1    2  502    0  0.32310379849E+02 -0.87796554446E+01  0.18711022659E+04  0.18714018094E+04  0.00000000000E+00 0. -1.
         22    1    3    3    0    0 -0.44114104539E+01  0.11759221375E+03  0.21162152011E+03  0.24213850799E+03  0.00000000000E+00 0.  1.
         22    1    3    3    0    0  0.28713588428E+02  0.15870868992E+02 -0.68000578122E+01  0.33505155263E+02  0.00000000000E+00 0.  1.
</event>
<event>
 7    1  0.5622879E-006  0.1078453E+03  0.7818608E-02  0.1391065E+00
          2   -1    0    0  502    0  0.00000000000E+00  0.00000000000E+00  0.19733547743E+03  0.19733547743E+03  0.00000000000E+00 0. -1.
          1   -1    0    0  501    0 -0.00000000000E+00 -0.00000000000E+00 -0.16803217708E+04  0.16803217708E+04  0.00000000000E+00 0. -1.
         25    2    1    2    0    0 -0.87947315897E+02  0.60989284455E+01 -0.12867290372E+03  0.19988448917E+03  0.12500066222E+03 0.  0.
          2    1    1    2  501    0 -0.20134636519E+02 -0.28913897302E+02 -0.14969494940E+04  0.14973640855E+04  0.00000000000E+00 0. -1.
          1    1    1    2  502    0  0.10808195242E+03  0.22814968856E+02  0.14263610432E+03  0.18040867357E+03  0.00000000000E+00 0. -1.
         22    1    3    3    0    0  0.98122213150E+01 -0.34868905127E+02 -0.69790302242E+02  0.78630824229E+02  0.00000000000E+00 0. -1.
         22    1    3    3    0    0 -0.97759537212E+02  0.40967833572E+02 -0.58882601479E+02  0.12125366494E+03  0.00000000000E+00 0. -1.
</event>
<event>
 7    1  0.5622879E-006  0.1087331E+03  0.7818608E-02  0.1303882E+00
          2   -1    0    0  502    0  0.00000000000E+00  0.00000000000E+00  0.82732261371E+03  0.82732261371E+03  0.00000000000E+00 0. -1.
          1   -1    0    0  501    0 -0.00000000000E+00 -0.00000000000E+00 -0.11753354799E+04  0.11753354799E+04  0.00000000000E+00 0. -1.
         25    2    1    2    0    0 -0.43818936425E+02  0.33136468340E+02  0.49627853371E+03  0.51471860777E+03  0.12499894974E+03 0.  0.
          2    1    1    2  501    0 -0.68645423451E+02 -0.84324894948E+02 -0.11515984760E+04  0.11567203344E+04  0.00000000000E+00 0. -1.
          1    1    1    2  502    0  0.11246435988E+03  0.51188426608E+02  0.30730707610E+03  0.33121915144E+03  0.00000000000E+00 0. -1.
         22    1    3    3    0    0  0.35595836755E+02 -0.18752376571E+02  0.11571964434E+03  0.12251429022E+03  0.00000000000E+00 0.  1.
         22    1    3    3    0    0 -0.79414773180E+02  0.51888844911E+02  0.38055888937E+03  0.39220431755E+03  0.00000000000E+00 0.  1.
</event>
<event>
 7    1  0.5622879E-006  0.7806355E+02  0.7818608E-02  0.1432028E+00
          2   -1    0    0  502    0  0.00000000000E+00  0.00000000000E+00  0.22407454612E+03  0.22407454612E+03  0.00000000000E+00 0. -1.
          1   -1    0    0  501    0 -0.00000000000E+00 -0.00000000000E+00 -0.43847632509E+03  0.43847632509E+03  0.00000000000E+00 0. -1.
         25    2    1    2    0    0 -0.11196495967E+01  0.58013207234E+02  0.53788862802E+02  0.14793781730E+03  0.12500228076E+03 0.  0.
          2    1    1    2  501    0 -0.27581172637E+02  0.22161907420E+02 -0.37575672784E+03  0.37741885186E+03  0.00000000000E+00 0. -1.
          1    1    1    2  502    0  0.28700822233E+02 -0.80175114655E+02  0.10756608606E+03  0.13719420205E+03  0.00000000000E+00 0. -1.
         22    1    3    3    0    0 -0.38290046420E+02 -0.24678594604E+02  0.28803135577E+02  0.53896023096E+02  0.00000000000E+00 0. -1.
         22    1    3    3    0    0  0.37170396824E+02  0.82691801839E+02  0.24985727225E+02  0.94041794200E+02  0.00000000000E+00 0. -1.
</event>
<event>
 7    1  0.5622879E-006  0.1134596E+03  0.7818608E-02  0.1407980E+00
          2   -1    0    0  502    0  0.00000000000E+00  0.00000000000E+00  0.32908863227E+04  0.32908863227E+04  0.00000000000E+00 0. -1.
          1   -1    0    0  501    0 -0.00000000000E+00 -0.00000000000E+00 -0.36445145732E+03  0.36445145732E+03  0.00000000000E+00 0. -1.
         25    2    1    2    0    0 -0.26624897218E+02 -0.13969096011E+03 -0.11738631361E+02  0.18969474944E+03  0.12499541195E+03 0.  0.
          2    1    1    2  501    0  0.20426650264E+01  0.29218210923E+02 -0.26191814705E+03  0.26355073911E+03  0.00000000000E+00 0. -1.
          1    1    1    2  502    0  0.24582232191E+02  0.11047274919E+03  0.32000916438E+04  0.32020922915E+04  0.00000000000E+00 0. -1.
         22    1    3    3    0    0  0.41069111058E+02 -0.87516266779E+02  0.19641510926E+02  0.98648658306E+02  0.00000000000E+00 0. -1.
         22    1    3    3    0    0 -0.67694008275E+02 -0.52174693332E+02 -0.31380142287E+02  0.91046091133E+02  0.00000000000E+00 0. -1.
</event>
<event>
 7    1  0.5622879E-006  0.4779137E+02  0.7818608E-02  0.1474686E+00
          2   -1    0    0  502    0  0.00000000000E+00  0.00000000000E+00  0.12805888813E+04  0.12805888813E+04  0.00000000000E+00 0. -1.
          1   -1    0    0  501    0 -0.00000000000E+00 -0.00000000000E+00 -0.40798469742E+03  0.40798469742E+03  0.00000000000E+00 0. -1.
         25    2    1    2    0    0 -0.66644705615E+02  0.18526110603E+01  0.15499743104E+03  0.20998530374E+03  0.12499870080E+03 0.  0.
          2    1    1    2  501    0  0.28814097261E+02 -0.30924442644E+02 -0.37879649858E+03  0.38114742645E+03  0.00000000000E+00 0. -1.
          1    1    1    2  502    0  0.37830608354E+02  0.29071831584E+02  0.10964032515E+04  0.10974408486E+04  0.00000000000E+00 0. -1.
         22    1    3    3    0    0 -0.44946464803E+02  0.20058671189E+02  0.17066208233E+03  0.17761779565E+03  0.00000000000E+00 0. -1.
         22    1    3    3    0    0 -0.21698240812E+02 -0.18206060129E+02 -0.15664651287E+02  0.32367508086E+02  0.00000000000E+00 0. -1.
</event>
<event>
 7    1  0.5622879E-006  0.4900669E+02  0.7818608E-02  0.1538879E+00
          2   -1    0    0  502    0  0.00000000000E+00  0.00000000000E+00  0.24467187703E+03  0.24467187703E+03  0.00000000000E+00 0. -1.
          1   -1    0    0  501    0 -0.00000000000E+00 -0.00000000000E+00 -0.65514654592E+02  0.65514654592E+02  0.00000000000E+00 0. -1.
         25    2    1    2    0    0  0.54000955050E+02  0.80092137108E+01  0.74588383000E+02  0.15546125497E+03  0.12499809706E+03 0.  0.
          2    1    1    2  501    0 -0.45841709471E+02  0.17330654638E+02  0.23150143637E+01  0.49062951490E+02  0.00000000000E+00 0. -1.
          1    1    1    2  502    0 -0.81592455794E+01 -0.25339868349E+02  0.10225382508E+03  0.10566232516E+03  0.00000000000E+00 0. -1.
         22    1    3    3    0    0 -0.11502542611E+02  0.13217872895E+02  0.86864488813E+02  0.88614107608E+02  0.00000000000E+00 0. -1.
         22    1    3    3    0    0  0.65503497662E+02 -0.52086591843E+01 -0.12276105813E+02  0.66847147361E+02  0.00000000000E+00 0. -1.
</event>
<event>
 7    1  0.5622879E-006  0.1767118E+03  0.7818608E-02  0.1258695E+00
          2   -1    0    0  502    0  0.00000000000E+00  0.00000000000E+00  0.17350294275E+04  0.17350294275E+04  0.00000000000E+00 0. -1.
          1   -1    0    0  501    0 -0.00000000000E+00 -0.00000000000E+00 -0.44122416828E+03  0.44122416828E+03  0.00000000000E+00 0. -1.
         25    2    1    2    0    0 -0.16502515120E+03 -0.16721858819E+03  0.36303078408E+03  0.45012299441E+03  0.12499601249E+03 0.  0.
          2    1    1    2  501    0  0.14141745468E+03  0.10158851125E+03 -0.37764452254E+03  0.41585394974E+03  0.00000000000E+00 0. -1.
          1    1    1    2  502    0  0.23607696524E+02  0.65630076934E+02  0.13084189977E+04  0.13102766517E+04  0.00000000000E+00 0. -1.
         22    1    3    3    0    0 -0.87254350831E+01  0.20150906324E+02  0.34431711960E+02  0.40837911694E+02  0.00000000000E+00 0. -1.
         22    1    3    3    0    0 -0.15629971612E+03 -0.18736949451E+03  0.32859907212E+03  0.40928508271E+03  0.00000000000E+00 0. -1.
</event>
<event>
 7    1  0.5622879E-006  0.1120352E+03  0.7818608E-02  0.1421398E+00
          2   -1    0    0  502    0  0.00000000000E+00  0.00000000000E+00  0.83134543887E+03  0.83134543887E+03  0.00000000000E+00 0. -1.
          1   -1    0    0  501    0 -0.00000000000E+00 -0.00000000000E+00 -0.54787145982E+03  0.54787145982E+03  0.00000000000E+00 0. -1.
         25    2    1    2    0    0 -0.51389734857E+02  0.68923114039E+02 -0.19674462430E+03  0.24844524953E+03  0.12500117730E+03 0.  0.
          2    1    1    2  501    0 -0.12758921235E+02  0.23490985961E+02 -0.32079001680E+03  0.32190192819E+03  0.00000000000E+00 0. -1.
          1    1    1    2  502    0  0.64148656092E+02 -0.92414100000E+02  0.80100862014E+03  0.80886972097E+03  0.00000000000E+00 0. -1.
         22    1    3    3    0    0 -0.56736721204E+02  0.55779444450E+02 -0.36436092623E+02  0.87509946874E+02  0.00000000000E+00 0. -1.
         22    1    3    3    0    0  0.53469863472E+01  0.13143669589E+02 -0.16030853167E+03  0.16093530265E+03  0.00000000000E+00 0. -1.
</event>
<event>
 7    1  0.5622879E-006  0.9295937E+02  0.7818608E-02  0.1399835E+00
          2   -1    0    0  502    0  0.00000000000E+00  0.00000000000E+00  0.56562841520E+02  0.56562841520E+02  0.00000000000E+00 0. -1.
          1   -1    0    0  501    0 -0.00000000000E+00 -0.00000000000E+00 -0.24837812394E+04  0.24837812394E+04  0.00000000000E+00 0. -1.
         25    2    1    2    0    0 -0.83478210436E+02 -0.83400683869E+02 -0.54276014729E+03  0.56933173189E+03  0.12500303101E+03 0.  0.
          2    1    1    2  501    0  0.79029910693E+02  0.45544859945E+02 -0.19180431458E+04  0.19202108140E+04  0.00000000000E+00 0. -1.
          1    1    1    2  502    0  0.44482997426E+01  0.37855823925E+02  0.33584895209E+02  0.50801535034E+02  0.00000000000E+00 0. -1.
         22    1    3    3    0    0 -0.83857263866E+01 -0.20577246012E+02 -0.50580317117E+01  0.22788750411E+02  0.00000000000E+00 0. -1.
         22    1    3    3    0    0 -0.75092484049E+02 -0.62823437857E+02 -0.53770211558E+03  0.54654298148E+03  0.00000000000E+00 0. -1.
</event>
<event>
 7    1  0.5622879E-006  0.1403155E+03  0.7818608E-02  0.1357412E+00
          2   -1    0    0  502    0  0.00000000000E+00  0.00000000000E+00  0.69516302526E+03  0.69516302526E+03  0.00000000000E+00 0. -1.
          1   -1    0    0  501    0 -0.00000000000E+00 -0.00000000000E+00 -0.10775576783E+04  0.10775576783E+04  0.00000000000E+00 0. -1.
         25    2    1    2    0    0 -0.10754882775E+03  0.21106469324E+02 -0.13844312154E+03  0.21634488563E+03  0.12500551284E+03 0.  0.
          2    1    1    2  501    0 -0.26936949880E+02  0.23456565176E+02 -0.89215511613E+03  0.89286984547E+03  0.00000000000E+00 0. -1.
          1    1    1    2  502    0  0.13448577763E+03 -0.44563034500E+02  0.64820358460E+03  0.66350597248E+03  0.00000000000E+00 0. -1.
         22    1    3    3    0    0  0.24721274029E+02 -0.56313496438E+01 -0.46787962239E+02  0.53216227778E+02  0.00000000000E+00 0.  1.
         22    1    3    3    0    0 -0.13227010178E+03  0.26737818968E+02 -0.91655159298E+02  0.16312865785E+03  0.00000000000E+00 0.  1.
</event>
<event>
 7    1  0.5622879E-006  0.1010791E+03  0.7818608E-02  0.1279864E+00
          2   -1    0    0  502    0  0.00000000000E+00  0.00000000000E+00  0.45853841700E+03  0.45853841700E+03  0.00000000000E+00 0. -1.
          1   -1    0    0  501    0 -0.00000000000E+00 -0.00000000000E+00 -0.71098635810E+03  0.71098635810E+03  0.00000000000E+00 0. -1.
         25    2    1    2    0    0 -0.57051611872E+02  0.94843841996E+02 -0.75145610000E+02  0.18310296299E+03  0.12501836494E+03 0.  0.
          2    1    1    2  501    0 -0.42288179666E+02 -0.95091987174E+02 -0.57098869911E+03  0.58039544337E+03  0.00000000000E+00 0. -1.
          1    1    1    2  502    0  0.99339791537E+02  0.24814517732E+00  0.39368636801E+03  0.40602636875E+03  0.00000000000E+00 0. -1.
         22    1    3    3    0    0  0.33069430167E+01  0.83834735656E+02 -0.86723792157E+02  0.12066571552E+03  0.00000000000E+00 0. -1.
         22    1    3    3    0    0 -0.60358554888E+02  0.11009106340E+02  0.11578182157E+02  0.62437247479E+02  0.00000000000E+00 0. -1.
</event>
<event>
 7    1  0.5622879E-006  0.1051780E+03  0.7818608E-02  0.1360293E+00
          2   -1    0    0  502    0  0.00000000000E+00  0.00000000000E+00  0.90307780551E+03  0.90307780551E+03  0.00000000000E+00 0. -1.
          1   -1    0    0  501    0 -0.00000000000E+00 -0.00000000000E+00 -0.11266891855E+03  0.11266891855E+03  0.00000000000E+00 0. -1.
         25    2    1    2    0    0 -0.93941243643E+01  0.75091374497E+02  0.12246210523E+03  0.19065462325E+03  0.12500101622E+03 0.  0.
          2    1    1    2  501    0 -0.18674281916E+02 -0.11217621949E+03 -0.36252508935E+02  0.11935860852E+03  0.00000000000E+00 0. -1.
          1    1    1    2  502    0  0.28068406281E+02  0.37084844996E+02  0.70419929066E+03  0.70573349228E+03  0.00000000000E+00 0. -1.
         22    1    3    3    0    0 -0.56832401387E+02  0.74825172208E+02  0.57304302416E+02  0.11005685494E+03  0.00000000000E+00 0. -1.
         22    1    3    3    0    0  0.47438277022E+02  0.26620228907E+00  0.65157802810E+02  0.80597768316E+02  0.00000000000E+00 0. -1.
</event>
<event>
 7    1  0.5622879E-006  0.5372239E+02  0.7818608E-02  0.1454899E+00
          2   -1    0    0  502    0  0.00000000000E+00  0.00000000000E+00  0.23146087565E+04  0.23146087565E+04  0.00000000000E+00 0. -1.
          1   -1    0    0  501    0 -0.00000000000E+00 -0.00000000000E+00 -0.95640850331E+01  0.95640850331E+01  0.00000000000E+00 0. -1.
         25    2    1    2    0    0  0.22975060043E+02 -0.40450127861E+02  0.71909707590E+03  0.73136673493E+03  0.12503051698E+03 0.  0.
          2    1    1    2  501    0 -0.59014042051E+02  0.16318580454E+02  0.30294316972E+03  0.30906879058E+03  0.00000000000E+00 0. -1.
          1    1    1    2  502    0  0.36038982009E+02  0.24131547407E+02  0.12830044259E+04  0.12837373160E+04  0.00000000000E+00 0. -1.
         22    1    3    3    0    0 -0.51453460981E+02 -0.14481500503E+02  0.33821436199E+03  0.34241221818E+03  0.00000000000E+00 0. -1.
         22    1    3    3    0    0  0.74428521023E+02 -0.25968627358E+02  0.38088271391E+03  0.38895451675E+03  0.00000000000E+00 0. -1.
</event>
<event>
 7    1  0.5622879E-006  0.6791214E+02  0.7818608E-02  0.1396271E+00
          2   -1    0    0  502    0  0.00000000000E+00  0.00000000000E+00  0.11496049820E+04  0.11496049820E+04  0.00000000000E+00 0. -1.
          1   -1    0    0  501    0 -0.00000000000E+00 -0.00000000000E+00 -0.97637037493E+03  0.97637037493E+03  0.00000000000E+00 0. -1.
         25    2    1    2    0    0  0.55852440412E+02 -0.51343502162E+02  0.50151519232E+03  0.52239655091E+03  0.12500007186E+03 0.  0.
          2    1    1    2  501    0 -0.50535090149E+02 -0.18078634223E+02 -0.96327981811E+03  0.96477388042E+03  0.00000000000E+00 0. -1.
          1    1    1    2  502    0 -0.53173502632E+01  0.69422136385E+02  0.63499923290E+03  0.63880492563E+03  0.00000000000E+00 0. -1.
         22    1    3    3    0    0 -0.23241932130E+02 -0.61181124488E+02  0.19509046268E+03  0.20577562060E+03  0.00000000000E+00 0.  1.
         22    1    3    3    0    0  0.79094372543E+02  0.98376223256E+01  0.30642472964E+03  0.31662093032E+03  0.00000000000E+00 0.  1.
</event>
<event>
 7    1  0.5622879E-006  0.8140087E+02  0.7818608E-02  0.1404019E+00
          2   -1    0    0  502    0  0.00000000000E+00  0.00000000000E+00  0.54626280959E+03  0.54626280959E+03  0.00000000000E+00 0. -1.
          1   -1    0    0  501    0 -0.00000000000E+00 -0.00000000000E+00 -0.11678757379E+03  0.11678757379E+03  0.00000000000E+00 0. -1.
         25    2    1    2    0    0  0.55283002743E+02 -0.82441554183E+02  0.25560127085E+02  0.16165005231E+03  0.12499839626E+03 0.  0.
          2    1    1    2  501    0 -0.13637307600E+02  0.76179369941E+02 -0.16293215276E+02  0.79086923237E+02  0.00000000000E+00 0. -1.
          1    1    1    2  502    0 -0.41645695143E+02  0.62621842426E+01  0.42020832399E+03  0.42231340782E+03  0.00000000000E+00 0. -1.
         22    1    3    3    0    0  0.19139317511E+02 -0.11119790571E+03  0.11756169166E+02  0.11344379764E+03  0.00000000000E+00 0. -1.
         22    1    3    3    0    0  0.36143685232E+02  0.28756351528E+02  0.13803957919E+02  0.48206254672E+02  0.00000000000E+00 0. -1.
</event>
<event>
 7    1  0.5622879E-006  0.1129462E+03  0.7818608E-02  0.1353312E+00
          2   -1    0    0  502    0  0.00000000000E+00  0.00000000000E+00  0.28054798389E+03  0.28054798389E+03  0.00000000000E+00 0. -1.
          1   -1    0    0  501    0 -0.00000000000E+00 -0.00000000000E+00 -0.17087602742E+04  0.17087602742E+04  0.00000000000E+00 0. -1.
         25    2    1    2    0    0  0.60838455292E+02 -0.81227652798E+02 -0.46365313396E+03  0.49081520593E+03  0.12500435398E+03 0.  0.
          2    1    1    2  501    0 -0.35362803907E+02 -0.29325895243E+02 -0.12190207772E+04  0.12198861387E+04  0.00000000000E+00 0. -1.
          1    1    1    2  502    0 -0.25475651385E+02  0.11055354804E+03  0.25446162083E+03  0.27860691354E+03  0.00000000000E+00 0. -1.
         22    1    3    3    0    0  0.20577138865E+02 -0.10975398757E+03 -0.31991077526E+03  0.33883957939E+03  0.00000000000E+00 0.  1.
         22    1    3    3    0    0  0.40261316427E+02  0.28526334776E+02 -0.14374235870E+03  0.15197562654E+03  0.00000000000E+00 0.  1.
</event>
<event>
 7    1  0.5622879E-006  0.4330424E+02  0.7818608E-02  0.1498689E+00
          2   -1    0    0  502    0  0.00000000000E+00  0.00000000000E+00  0.14228364658E+02  0.14228364658E+02  0.00000000000E+00 0. -1.
          1   -1    0    0  501    0 -0.00000000000E+00 -0.00000000000E+00 -0.41998567231E+04  0.41998567231E+04  0.00000000000E+00 0. -1.
         25    2    1    2    0    0 -0.48254469801E+02  0.21758382214E+02 -0.16530766237E+04  0.16586408179E+04  0.12500047160E+03 0.  0.
          2    1    1    2  501    0  0.81644124730E+01 -0.38579737102E+02 -0.25019909750E+04  0.25023017190E+04  0.00000000000E+00 0. -1.
          1    1    1    2  502    0  0.40090057328E+02  0.16821354887E+02 -0.30560759662E+02  0.53142550823E+02  0.00000000000E+00 0. -1.
         22    1    3    3    0    0  0.23793677443E+02  0.42202098619E+02 -0.10199667467E+04  0.10211167027E+04  0.00000000000E+00 0.  1.
         22    1    3    3    0    0 -0.72048147244E+02 -0.20443716405E+02 -0.63310987705E+03  0.63752411522E+03  0.00000000000E+00 0.  1.
</event>
<event>
 7    1  0.5622879E-006  0.9366786E+02  0.7818608E-02  0.1300856E+00
          2   -1    0    0  502    0  0.00000000000E+00  0.00000000000E+00  0.66842527582E+03  0.66842527582E+03  0.00000000000E+00 0. -1.
          1   -1    0    0  501    0 -0.00000000000E+00 -0.00000000000E+00 -0.23276504715E+03  0.23276504715E+03  0.00000000000E+00 0. -1.
         25    2    1    2    0    0 -0.13451148378E+02 -0.10069095964E+01  0.35108018702E+03  0.37291292001E+03  0.12499920372E+03 0.  0.
          2    1    1    2  501    0  0.67460533832E+02 -0.68566374090E+02 -0.20454581660E+03  0.22603376378E+03  0.00000000000E+00 0. -1.
          1    1    1    2  502    0 -0.54009385453E+02  0.69573283687E+02  0.28912585825E+03  0.30224363919E+03  0.00000000000E+00 0. -1.
         22    1    3    3    0    0  0.51132619935E+02  0.19090328782E+02  0.20130764251E+03  0.20857553166E+03  0.00000000000E+00 0.  1.
         22    1    3    3    0    0 -0.64583768313E+02 -0.20097238378E+02  0.14977254451E+03  0.16433738835E+03  0.00000000000E+00 0.  1.
</event>
<event>
 7    1  0.5622879E-006  0.4617806E+02  0.7818608E-02  0.1474210E+00
          2   -1    0    0  502    0  0.00000000000E+00  0.00000000000E+00  0.92687676757E+03  0.92687676757E+03  0.00000000000E+00 0. -1.
          1   -1    0    0  501    0 -0.00000000000E+00 -0.00000000000E+00 -0.13071711721E+04  0.13071711721E+04  0.00000000000E+00 0. -1.
         25    2    1    2    0    0  0.71563518945E+02 -0.17737446727E+02 -0.26630854931E+03  0.30328521126E+03  0.12500288665E+03 0.  0.
          2    1    1    2  501    0 -0.43006959433E+02 -0.15596278454E+02 -0.10213317381E+04  0.10223557902E+04  0.00000000000E+00 0. -1.
          1    1    1    2  502    0 -0.28556559512E+02  0.33333725181E+02  0.90734588286E+03  0.90840693825E+03  0.00000000000E+00 0. -1.
         22    1    3    3    0    0  0.79180959569E+02 -0.61770289009E+02 -0.18231150777E+03  0.20814100708E+03  0.00000000000E+00 0.  1.
         22    1    3    3    0    0 -0.76174406240E+01  0.44032842282E+02 -0.83997041536E+02  0.95144204174E+02  0.00000000000E+00 0.  1.
</event>
<event>
 7    1  0.5622879E-006  0.1290277E+03  0.7818608E-02  0.1323571E+00
          2   -1    0    0  502    0  0.00000000000E+00  0.00000000000E+00  0.36705121084E+03  0.36705121084E+03  0.00000000000E+00 0. -1.
          1   -1    0    0  501    0 -0.00000000000E+00 -0.00000000000E+00 -0.25424841123E+04  0.25424841123E+04  0.00000000000E+00 0. -1.
         25    2    1    2    0    0  0.96169271981E+02  0.60148178059E+01 -0.30136502031E+02  0.16067802336E+03  0.12499804610E+03 0.  0.
          2    1    1    2  501    0  0.34595777778E+02 -0.38910138200E+02 -0.24317223187E+04  0.24322796513E+04  0.00000000000E+00 0. -1.
          1    1    1    2  502    0 -0.13076504976E+03  0.32895320394E+02  0.28642591924E+03  0.31657764854E+03  0.00000000000E+00 0. -1.
         22    1    3    3    0    0  0.12358246791E+03  0.22741817142E+02 -0.25712336911E+02  0.12826122131E+03  0.00000000000E+00 0. -1.
         22    1    3    3    0    0 -0.27413195931E+02 -0.16726999336E+02 -0.44241651198E+01  0.32416802047E+02  0.00000000000E+00 0. -1.
</event>
<event>
 7    1  0.5622879E-006  0.1037754E+03  0.7818608E-02  0.1352977E+00
          2   -1    0    0  502    0  0.00000000000E+00  0.00000000000E+00  0.17030774463E+04  0.17030774463E+04  0.00000000000E+00 0. -1.
          1   -1    0    0  501    0 -0.00000000000E+00 -0.00000000000E+00 -0.84978505795E+02  0.84978505795E+02  0.00000000000E+00 0. -1.
         25    2    1    2    0    0  0.34531348406E+02 -0.11155472124E+03  0.87306961658E+03  0.88967011169E+03  0.12500192955E+03 0.  0.
          2    1    1    2  501    0  0.34322689858E+02  0.36554737129E+02 -0.64938289099E+02  0.82044361395E+02  0.00000000000E+00 0. -1.
          1    1    1    2  502    0 -0.68854038264E+02  0.74999984111E+02  0.80996761298E+03  0.81634147896E+03  0.00000000000E+00 0. -1.
         22    1    3    3    0    0 -0.46461081070E+02 -0.56375975267E+02  0.37657702886E+03  0.38359762943E+03  0.00000000000E+00 0. -1.
         22    1    3    3    0    0  0.80992429476E+02 -0.55178745973E+02  0.49649258772E+03  0.50607248226E+03  0.00000000000E+00 0. -1.
</event>
<event>
 7    1  0.5622879E-006  0.1556507E+03  0.7818608E-02  0.1335162E+00
          2   -1    0    0  502    0  0.00000000000E+00  0.00000000000E+00  0.15032361949E+04  0.15032361949E+04  0.00000000000E+00 0. -1.
          1   -1    0    0  501    0 -0.00000000000E+00 -0.00000000000E+00 -0.75679831116E+03  0.75679831116E+03  0.00000000000E+00 0. -1.
         25    2    1    2    0    0 -0.71140871415E+02 -0.17796588672E+03  0.87993609273E+02  0.24515552482E+03  0.12500190261E+03 0.  0.
          2    1    1    2  501    0  0.21305112136E+02  0.32633685775E+02 -0.67323702064E+03  0.67436410878E+03  0.00000000000E+00 0. -1.
          1    1    1    2  502    0  0.49835759279E+02  0.14533220094E+03  0.13316812951E+04  0.13405148725E+04  0.00000000000E+00 0. -1.
         22    1    3    3    0    0 -0.78592933698E+02 -0.59614825970E+02  0.19875095011E+01  0.98664719615E+02  0.00000000000E+00 0.  1.
         22    1    3    3    0    0  0.74520622836E+01 -0.11835106075E+03  0.86006099772E+02  0.14649080521E+03  0.00000000000E+00 0.  1.
</event>
<event>
 7    1  0.5622879E-006  0.8266329E+02  0.7818608E-02  0.1487252E+00
          2   -1    0    0  502    0  0.00000000000E+00  0.00000000000E+00  0.53315643849E+03  0.53315643849E+03  0.00000000000E+00 0. -1.
          1   -1    0    0  501    0 -0.00000000000E+00 -0.00000000000E+00 -0.32137395828E+03  0.32137395828E+03  0.00000000000E+00 0. -1.
         25    2    1    2    0    0 -0.82030517326E+02 -0.33108874227E+02 -0.21127383403E+03  0.26093423614E+03  0.12499935728E+03 0.  0.
          2    1    1    2  501    0  0.15604471773E+02 -0.16020394919E+02 -0.80375995049E+02  0.83429330410E+02  0.00000000000E+00 0. -1.
          1    1    1    2  502    0  0.66426045554E+02  0.49129269146E+02  0.50343230929E+03  0.51016683021E+03  0.00000000000E+00 0. -1.
         22    1    3    3    0    0 -0.93620521165E+02 -0.46756468466E+02 -0.89055237778E+02  0.13741107926E+03  0.00000000000E+00 0. -1.
         22    1    3    3    0    0  0.11590003838E+02  0.13647594239E+02 -0.12221859625E+03  0.12352315689E+03  0.00000000000E+00 0. -1.
</event>
<event>
 7    1  0.5622879E-006  0.1282635E+03  0.7818608E-02  0.1242016E+00
          2   -1    0    0  502    0  0.00000000000E+00  0.00000000000E+00  0.23164388858E+03  0.23164388858E+03  0.00000000000E+00 0. -1.
          1   -1    0    0  501    0 -0.00000000000E+00 -0.00000000000E+00 -0.41133163642E+03  0.41133163642E+03  0.00000000000E+00 0. -1.
         25    2    1    2    0    0 -0.42873997862E+02  0.48726582452E+02 -0.17134152675E+02  0.14188407256E+03  0.12500020531E+03 0.  0.
          2    1    1    2  501    0  0.15111405877E+03 -0.14563672317E+02 -0.29189219060E+03  0.32901156552E+03  0.00000000000E+00 0. -1.
          1    1    1    2  502    0 -0.10824006091E+03 -0.34162910135E+02  0.12933859543E+03  0.17207988692E+03  0.00000000000E+00 0. -1.
         22    1    3    3    0    0 -0.40619600736E+02  0.67936135699E+02  0.34799696286E+02  0.86465538564E+02  0.00000000000E+00 0. -1.
         22    1    3    3    0    0 -0.22543971263E+01 -0.19209553247E+02 -0.51933848961E+02  0.55418533996E+02  0.00000000000E+00 0. -1.
</event>
<event>
 7    1  0.5622879E-006  0.1781593E+03  0.7818608E-02  0.1173926E+00
          2   -1    0    0  502    0  0.00000000000E+00  0.00000000000E+00  0.74312859657E+03  0.74312859657E+03  0.00000000000E+00 0. -1.
          1   -1    0    0  501    0 -0.00000000000E+00 -0.00000000000E+00 -0.65287088992E+03  0.65287088992E+03  0.00000000000E+00 0. -1.
         25    2    1    2    0    0  0.30716324402E+02  0.48046470389E+02  0.76188411321E+01  0.13760594917E+03  0.12500157842E+03 0.  0.
          2    1    1    2  501    0 -0.40905917178E+02  0.16457130083E+03 -0.55806195852E+03  0.58325822468E+03  0.00000000000E+00 0. -1.
          1    1    1    2  502    0  0.10189592776E+02 -0.21261777122E+03  0.64070082404E+03  0.67513531263E+03  0.00000000000E+00 0. -1.
         22    1    3    3    0    0 -0.36340820204E+02 -0.10484793967E+00  0.35172923291E+02  0.50574704537E+02  0.00000000000E+00 0. -1.
         22    1    3    3    0    0  0.67057144606E+02  0.48151318329E+02 -0.27554082159E+02  0.87031244637E+02  0.00000000000E+00 0. -1.
</event>
<event>
 7    1  0.5622879E-006  0.6284719E+02  0.7818608E-02  0.1393933E+00
          2   -1    0    0  502    0  0.00000000000E+00  0.00000000000E+00  0.65150542837E+03  0.65150542837E+03  0.00000000000E+00 0. -1.
          1   -1    0    0  501    0 -0.00000000000E+00 -0.00000000000E+00 -0.46495190498E+02  0.46495190498E+02  0.00000000000E+00 0. -1.
         25    2    1    2    0    0 -0.24876848706E+02  0.28877964088E+02  0.13745032983E+03  0.18965820723E+03  0.12499939195E+03 0.  0.
          2    1    1    2  501    0 -0.33422285880E+02 -0.53223306670E+02  0.36500511736E+02  0.72677760858E+02  0.00000000000E+00 0. -1.
          1    1    1    2  502    0  0.58299134586E+02  0.24345342582E+02  0.43105939630E+03  0.43566465078E+03  0.00000000000E+00 0. -1.
         22    1    3    3    0    0  0.53484110765E+01  0.69830086903E+02  0.11358959773E+03  0.13344453248E+03  0.00000000000E+00 0.  1.
         22    1    3    3    0    0 -0.30225259782E+02 -0.40952122815E+02  0.23860732108E+02  0.56213674748E+02  0.00000000000E+00 0.  1.
</event>
<event>
 7    1  0.5622879E-006  0.5491480E+02  0.7818608E-02  0.1466060E+00
          2   -1    0    0  502    0  0.00000000000E+00  0.00000000000E+00  0.11904973208E+03  0.11904973208E+03  0.00000000000E+00 0. -1.
          1   -1    0    0  501    0 -0.00000000000E+00 -0.00000000000E+00 -0.98754619400E+03  0.98754619400E+03  0.00000000000E+00 0. -1.
         25    2    1    2    0    0  0.17749632207E+02  0.47761718940E+02 -0.19087140545E+03  0.23377889539E+03  0.12499778906E+03 0.  0.
          2    1    1    2  501    0  0.31848758901E+02 -0.22730342406E+02 -0.76677507635E+03  0.76777277213E+03  0.00000000000E+00 0. -1.
          1    1    1    2  502    0 -0.49598391108E+02 -0.25031376534E+02  0.89150019883E+02  0.10504425856E+03  0.00000000000E+00 0. -1.
         22    1    3    3    0    0 -0.20137759558E+02  0.78877489400E+02 -0.14677017099E+03  0.16783524894E+03  0.00000000000E+00 0. -1.
         22    1    3    3    0    0  0.37887391764E+02 -0.31115770460E+02 -0.44101234457E+02  0.65943646447E+02  0.00000000000E+00 0. -1.
</event>
<event>
 7    1  0.5622879E-006  0.1180105E+03  0.7818608E-02  0.1363987E+00
          2   -1    0    0  502    0  0.00000000000E+00  0.00000000000E+00  0.45976708010E+03  0.45976708010E+03  0.00000000000E+00 0. -1.
          1   -1    0    0  501    0 -0.00000000000E+00 -0.00000000000E+00 -0.13497045086E+04  0.13497045086E+04  0.00000000000E+00 0. -1.
         25    2    1    2    0    0  0.33682912756E+02 -0.97301163861E+02 -0.11258336908E+03  0.19723617049E+03  0.12500014743E+03 0.  0.
          2    1    1    2  501    0 -0.73733818398E+02  0.93973214021E+02 -0.11908326610E+04  0.11968082835E+04  0.00000000000E+00 0. -1.
          1    1    1    2  502    0  0.40050905642E+02  0.33279498395E+01  0.41347860158E+03  0.41542713471E+03  0.00000000000E+00 0. -1.
         22    1    3    3    0    0  0.35185879497E+02 -0.12721594029E+03 -0.92232600909E+02  0.16102420393E+03  0.00000000000E+00 0. -1.
         22    1    3    3    0    0 -0.15029667412E+01  0.29914776428E+02 -0.20350768168E+02  0.36211966569E+02  0.00000000000E+00 0. -1.
</event>
<event>
 7    1  0.5622879E-006  0.8036708E+02  0.7818608E-02  0.1483711E+00
          2   -1    0    0  502    0  0.00000000000E+00  0.00000000000E+00  0.10798140476E+04  0.10798140476E+04  0.00000000000E+00 0. -1.
          1   -1    0    0  501    0 -0.00000000000E+00 -0.00000000000E+00 -0.34297881853E+02  0.34297881853E+02  0.00000000000E+00 0. -1.
         25    2    1    2    0    0 -0.34621027622E+01 -0.10176360074E+03  0.29379578627E+03  0.33512509217E+03  0.12500018713E+03 0.  0.
          2    1    1    2  501    0  0.15681853875E+01  0.23529056635E+02  0.38245715482E+00  0.23584358907E+02  0.00000000000E+00 0. -1.
          1    1    1    2  502    0  0.18939173747E+01  0.78234544104E+02  0.75133792233E+03  0.75540247838E+03  0.00000000000E+00 0. -1.
         22    1    3    3    0    0 -0.46908018327E+02 -0.78560142492E+00  0.55334231349E+02  0.72545547844E+02  0.00000000000E+00 0. -1.
         22    1    3    3    0    0  0.43445915565E+02 -0.10097799931E+03  0.23846155492E+03  0.26257954433E+03  0.00000000000E+00 0. -1.
</event>
<event>
 7    1  0.5622879E-006  0.1982081E+03  0.7818608E-02  0.1187082E+00
          2   -1    0    0  502    0  0.00000000000E+00  0.00000000000E+00  0.13333799219E+04  0.13333799219E+04  0.00000000000E+00 0. -1.
          1   -1    0    0  501    0 -0.00000000000E+00 -0.00000000000E+00 -0.29238033068E+03  0.29238033068E+03  0.00000000000E+00 0. -1.
         25    2    1    2    0    0  0.58218918961E+02  0.13285339158E+03  0.84117227666E+02  0.20914236719E+03  0.12500142233E+03 0.  0.
          2    1    1    2  501    0  0.12724481208E+03 -0.33142644185E+02 -0.20075601889E+03  0.23998469990E+03  0.00000000000E+00 0. -1.
          1    1    1    2  502    0 -0.18546373104E+03 -0.99710747396E+02  0.11576383824E+04  0.11766331855E+04  0.00000000000E+00 0. -1.
         22    1    3    3    0    0  0.16605978790E+02  0.23810826504E+02  0.87694637337E+02  0.92374582045E+02  0.00000000000E+00 0.  1.
         22    1    3    3    0    0  0.41612940170E+02  0.10904256508E+03 -0.35774096704E+01  0.11676778515E+03  0.00000000000E+00 0.  1.
</event>
<event>
 7    1  0.5622879E-006  0.6191361E+02  0.7818608E-02  0.1406189E+00
          2   -1    0    0  502    0  0.00000000000E+00  0.00000000000E+00  0.80606925668E+02  0.80606925668E+02  0.00000000000E+00 0. -1.
          1   -1    0    0  501    0 -0.00000000000E+00 -0.00000000000E+00 -0.26185893442E+03  0.26185893442E+03  0.00000000000E+00 0. -1.
         25    2    1    2    0    0  0.19643744208E+02  0.72042292126E+02 -0.39626971519E+02  0.15090934149E+03  0.12500945538E+03 0.  0.
          2    1    1    2  501    0  0.31803067948E+02 -0.54261030036E+02 -0.11473774575E+03  0.13084511765E+03  0.00000000000E+00 0. -1.
          1    1    1    2  502    0 -0.51446812156E+02 -0.17781262090E+02 -0.26887291477E+02  0.60711400952E+02  0.00000000000E+00 0. -1.
         22    1    3    3    0    0  0.48661197603E+02  0.56717434959E+01  0.23948096172E+02  0.54530653184E+02  0.00000000000E+00 0. -1.
         22    1    3    3    0    0 -0.29017453395E+02  0.66370548630E+02 -0.63575067691E+02  0.96378688303E+02  0.00000000000E+00 0. -1.
</event>
<event>
 7    1  0.5622879E-006  0.5477141E+02  0.7818608E-02  0.1488862E+00
          2   -1    0    0  502    0  0.00000000000E+00  0.00000000000E+00  0.58671653611E+03  0.58671653611E+03  0.00000000000E+00 0. -1.
          1   -1    0    0  501    0 -0.00000000000E+00 -0.00000000000E+00 -0.35011482599E+03  0.35011482599E+03  0.00000000000E+00 0. -1.
         25    2    1    2    0    0  0.48583260388E+02 -0.27951157558E+02  0.15889867177E+03  0.20979255944E+03  0.12499011844E+03 0.  0.
          2    1    1    2  501    0  0.65920227642E+01  0.32717934415E+02 -0.32189537438E+03  0.32362099754E+03  0.00000000000E+00 0. -1.
          1    1    1    2  502    0 -0.55175283152E+02 -0.47667768570E+01  0.39959841273E+03  0.40341780512E+03  0.00000000000E+00 0. -1.
         22    1    3    3    0    0  0.64256616366E+02  0.34217864579E+02  0.87791786813E+02  0.11404899313E+03  0.00000000000E+00 0. -1.
         22    1    3    3    0    0 -0.15673355978E+02 -0.62169022137E+02  0.71106884953E+02  0.95743566305E+02  0.00000000000E+00 0. -1.
</event>
<event>
 7    1  0.5934532E-006  0.1078752E+03  0.7818608E-02  0.1318955E+00
          2   -1    0    0  502    0  0.00000000000E+00  0.00000000000E+00  0.87511252693E+03  0.87511252693E+03  0.00000000000E+00 0. -1.
          1   -1    0    0  501    0 -0.00000000000E+00 -0.00000000000E+00 -0.15319725318E+04  0.15319725318E+04  0.00000000000E+00 0. -1.
         25    2    1    2    0    0 -0.81769157339E+01 -0.93563702951E+02 -0.20824207585E+03  0.26040650374E+03  0.12500302626E+03 0.  0.
          2    1    1    2  501    0  0.64879974377E+02  0.12345079560E+01 -0.12933746347E+04  0.12950014984E+04  0.00000000000E+00 0. -1.
          1    1    1    2  502    0 -0.56703058643E+02  0.92329194995E+02  0.84475670565E+03  0.85167705666E+03  0.00000000000E+00 0. -1.
         22    1    3    3    0    0 -0.28020783413E+02 -0.62698599589E+02 -0.21263561278E+03  0.22345062658E+03  0.00000000000E+00 0.  1.
         22    1    3    3    0    0  0.19843867679E+02 -0.30865103362E+02  0.43935369331E+01  0.36955877162E+02  0.00000000000E+00 0.  1.
</event>
<event>
 7    1  0.5622879E-006  0.5588322E+02  0.7818608E-02  0.1530292E+00
          2   -1    0    0  502    0  0.00000000000E+00  0.00000000000E+00  0.11480934217E+03  0.11480934217E+03  0.00000000000E+00 0. -1.
          1   -1    0    0  501    0 -0.00000000000E+00 -0.00000000000E+00 -0.55317805549E+03  0.55317805549E+03  0.00000000000E+00 0. -1.
         25    2    1    2    0    0  0.18269067597E+02 -0.33740775468E+02 -0.18099282741E+03  0.22327157523E+03  0.12497837403E+03 0.  0.
          2    1    1    2  501    0 -0.42175849551E+02  0.39939732289E+02 -0.34696052978E+03  0.35178913248E+03  0.00000000000E+00 0. -1.
          1    1    1    2  502    0  0.23906781955E+02 -0.61989568215E+01  0.89584643869E+02  0.92926689956E+02  0.00000000000E+00 0. -1.
         22    1    3    3    0    0 -0.11876360956E+02 -0.73020970478E+02 -0.14248319890E+03  0.16054461078E+03  0.00000000000E+00 0.  1.
         22    1    3    3    0    0  0.30145428553E+02  0.39280195010E+02 -0.38509628504E+02  0.62726964458E+02  0.00000000000E+00 0.  1.
</event>
<event>
 7    1  0.5622879E-006  0.6877794E+02  0.7818608E-02  0.1388767E+00
          2   -1    0    0  502    0  0.00000000000E+00  0.00000000000E+00  0.12304587169E+04  0.12304587169E+04  0.00000000000E+00 0. -1.
          1   -1    0    0  501    0 -0.00000000000E+00 -0.00000000000E+00 -0.35539617366E+02  0.35539617366E+02  0.00000000000E+00 0. -1.
         25    2    1    2    0    0 -0.92060079136E+02  0.40150617162E+02  0.65792719060E+03  0.67718504238E+03  0.12499705304E+03 0.  0.
          2    1    1    2  501    0  0.38012225233E+02 -0.55834236897E+02  0.22414220254E+02  0.71167327803E+02  0.00000000000E+00 0. -1.
          1    1    1    2  502    0  0.54047853903E+02  0.15683619734E+02  0.51457768869E+03  0.51764596409E+03  0.00000000000E+00 0. -1.
         22    1    3    3    0    0 -0.37544742249E+02 -0.89002981132E+01  0.42494959711E+02  0.57398994572E+02  0.00000000000E+00 0. -1.
         22    1    3    3    0    0 -0.54515336887E+02  0.49050915276E+02  0.61543223089E+03  0.61978604781E+03  0.00000000000E+00 0. -1.
</event>
<event>
 7    1  0.5622879E-006  0.1016690E+03  0.7818608E-02  0.1280243E+00
          2   -1    0    0  502    0  0.00000000000E+00  0.00000000000E+00  0.46723136351E+03  0.46723136351E+03  0.00000000000E+00 0. -1.
          1   -1    0    0  501    0 -0.00000000000E+00 -0.00000000000E+00 -0.15305609373E+04  0.15305609373E+04  0.00000000000E+00 0. -1.
         25    2    1    2    0    0 -0.13081179168E+02  0.24545337266E+02 -0.92285667470E+02  0.15784167936E+03  0.12499504187E+03 0.  0.
          2    1    1    2  501    0  0.99871915270E+02  0.28407101751E+02 -0.13975968342E+04  0.14014486341E+04  0.00000000000E+00 0. -1.
          1    1    1    2  502    0 -0.86790736102E+02 -0.52952439017E+02  0.42655292788E+03  0.43850198740E+03  0.00000000000E+00 0. -1.
         22    1    3    3    0    0  0.22124098643E+02  0.68216858239E+02 -0.56580645922E+02  0.91347605233E+02  0.00000000000E+00 0. -1.
         22    1    3    3    0    0 -0.35205277811E+02 -0.43671520974E+02 -0.35705021547E+02  0.66494074124E+02  0.00000000000E+00 0. -1.
</event>
<event>
 7    1  0.5622879E-006  0.9696740E+02  0.7818608E-02  0.1320247E+00
          2   -1    0    0  502    0  0.00000000000E+00  0.00000000000E+00  0.22958510438E+04  0.22958510438E+04  0.00000000000E+00 0. -1.
          1   -1    0    0  501    0 -0.00000000000E+00 -0.00000000000E+00 -0.69442072156E+03  0.69442072156E+03  0.00000000000E+00 0. -1.
         25    2    1    2    0    0  0.20034053963E+02  0.20951370619E+02  0.21644491609E+03  0.25162006361E+03  0.12499572578E+03 0.  0.
          2    1    1    2  501    0 -0.87524598831E+02 -0.44138844305E+02 -0.67266216921E+03  0.67976700925E+03  0.00000000000E+00 0. -1.
          1    1    1    2  502    0  0.67490544867E+02  0.23187473685E+02  0.20576475754E+04  0.20588846925E+04  0.00000000000E+00 0. -1.
         22    1    3    3    0    0 -0.33287438627E+01  0.28404148858E+02 -0.48187061376E+01  0.29001657485E+02  0.00000000000E+00 0. -1.
         22    1    3    3    0    0  0.23362797826E+02 -0.74527782382E+01  0.22126362223E+03  0.22261840613E+03  0.00000000000E+00 0. -1.
</event>
<event>
 7    1  0.5622879E-006  0.6700105E+02  0.7818608E-02  0.1466650E+00
          2   -1    0    0  502    0  0.00000000000E+00  0.00000000000E+00  0.23266245956E+04  0.23266245956E+04  0.00000000000E+00 0. -1.
          1   -1    0    0  501    0 -0.00000000000E+00 -0.00000000000E+00 -0.29145853481E+02  0.29145853481E+02  0.00000000000E+00 0. -1.
         25    2    1    2    0    0  0.47987226240E+02  0.82106034875E+02  0.77910863197E+03  0.79478257872E+03  0.12499964870E+03 0.  0.
          2    1    1    2  501    0 -0.22356936644E+02 -0.22802470961E+02 -0.82650619493E+01  0.32986308479E+02  0.00000000000E+00 0. -1.
          1    1    1    2  502    0 -0.25630289596E+02 -0.59303563914E+02  0.15266351721E+04  0.15280015619E+04  0.00000000000E+00 0. -1.
         22    1    3    3    0    0  0.52392446665E+02  0.36727499100E+02  0.13862880212E+03  0.15268209599E+03  0.00000000000E+00 0. -1.
         22    1    3    3    0    0 -0.44052204246E+01  0.45378535775E+02  0.64047982985E+03  0.64210048273E+03  0.00000000000E+00 0. -1.
</event>
<event>
 7    1  0.5622879E-006  0.7526428E+02  0.7818608E-02  0.1394629E+00
          2   -1    0    0  502    0  0.00000000000E+00  0.00000000000E+00  0.11674841050E+04  0.11674841050E+04  0.00000000000E+00 0. -1.
          1   -1    0    0  501    0 -0.00000000000E+00 -0.00000000000E+00 -0.90400588717E+02  0.90400588717E+02  0.00000000000E+00 0. -1.
         25    2    1    2    0    0 -0.69325941164E+02  0.83003227630E+02  0.13384151589E+03  0.21268453018E+03  0.12500214432E+03 0.  0.
          2    1    1    2  501    0  0.31930201443E+01 -0.48962965297E+02 -0.37428695338E+02  0.61712839693E+02  0.00000000000E+00 0. -1.
          1    1    1    2  502    0  0.66132921019E+02 -0.34040262333E+02  0.98067069576E+03  0.98348732387E+03  0.00000000000E+00 0. -1.
         22    1    3    3    0    0 -0.73832386410E+02  0.96868471222E+02  0.14846657868E+03  0.19203397352E+03  0.00000000000E+00 0.  1.
         22    1    3    3    0    0  0.45064452464E+01 -0.13865243592E+02 -0.14625062792E+02  0.20650556658E+02  0.00000000000E+00 0.  1.
</event>
<event>
 7    1  0.5622879E-006  0.3474129E+02  0.7818608E-02  0.1601094E+00
          2   -1    0    0  502    0  0.00000000000E+00  0.00000000000E+00  0.16954124002E+03  0.16954124002E+03  0.00000000000E+00 0. -1.
          1   -1    0    0  501    0 -0.00000000000E+00 -0.00000000000E+00 -0.14289085760E+04  0.14289085760E+04  0.00000000000E+00 0. -1.
         25    2    1    2    0    0  0.46345162426E+02 -0.36262111455E+02 -0.33439777701E+03  0.36181508853E+03  0.12500188081E+03 0.  0.
          2    1    1    2  501    0 -0.29798106181E+02  0.16937041481E+02 -0.10794899299E+04  0.10800339343E+04  0.00000000000E+00 0. -1.
          1    1    1    2  502    0 -0.16547056245E+02  0.19325069975E+02  0.15452037092E+03  0.15660079320E+03  0.00000000000E+00 0. -1.
         22    1    3    3    0    0 -0.28309508214E+01  0.27857736634E+02 -0.13850380540E+02  0.31239411230E+02  0.00000000000E+00 0. -1.
         22    1    3    3    0    0  0.49176113247E+02 -0.64119848089E+02 -0.32054739647E+03  0.33057567729E+03  0.00000000000E+00 0. -1.
</event>
<event>
 7    1  0.5622879E-006  0.1408975E+03  0.7818608E-02  0.1337014E+00
          2   -1    0    0  502    0  0.00000000000E+00  0.00000000000E+00  0.32567872519E+03  0.32567872519E+03  0.00000000000E+00 0. -1.
          1   -1    0    0  501    0 -0.00000000000E+00 -0.00000000000E+00 -0.37790430757E+03  0.37790430757E+03  0.00000000000E+00 0. -1.
         25    2    1    2    0    0 -0.14981021761E+03  0.77083798343E+02  0.13186329070E+03  0.24778380133E+03  0.12499548593E+03 0.  0.
          2    1    1    2  501    0  0.34393084533E+02 -0.24735613477E+02 -0.28850050649E+03  0.29159437080E+03  0.00000000000E+00 0. -1.
          1    1    1    2  502    0  0.11541713307E+03 -0.52348184867E+02  0.10441163341E+03  0.16420486063E+03  0.00000000000E+00 0. -1.
         22    1    3    3    0    0 -0.14485332356E+03  0.37074573924E+02  0.14200815957E+03  0.20621184923E+03  0.00000000000E+00 0.  1.
         22    1    3    3    0    0 -0.49568940441E+01  0.40009224419E+02 -0.10144868869E+02  0.41571952102E+02  0.00000000000E+00 0.  1.
</event>
<event>
 7    1  0.7482562E-006  0.1375386E+03  0.7818608E-02  0.1307832E+00
          2   -1    0    0  502    0  0.00000000000E+00  0.00000000000E+00  0.37815319769E+04  0.37815319769E+04  0.00000000000E+00 0. -1.
          1   -1    0    0  501    0 -0.00000000000E+00 -0.00000000000E+00 -0.80314542575E+03  0.80314542575E+03  0.00000000000E+00 0. -1.
         25    2    1    2    0    0 -0.20759099348E+02 -0.17123523443E+03 -0.37407335423E+03  0.43049168104E+03  0.12505905559E+03 0.  0.
          2    1    1    2  501    0 -0.33726993473E+02  0.45044545192E+02 -0.39762279925E+03  0.40158487474E+03  0.00000000000E+00 0. -1.
          1    1    1    2  502    0  0.54486092821E+02  0.12619068924E+03  0.37500827047E+04  0.37526008469E+04  0.00000000000E+00 0. -1.
         22    1    3    3    0    0 -0.28601494388E+02 -0.13234683853E+03 -0.36567884269E+03  0.38994197920E+03  0.00000000000E+00 0.  1.
         22    1    3    3    0    0  0.78423950399E+01 -0.38888395900E+02 -0.83945115401E+01  0.40549701844E+02  0.00000000000E+00 0.  1.
</event>
<event>
 7    1  0.5622879E-006  0.1219968E+03  0.7818608E-02  0.1407635E+00
          2   -1    0    0  502    0  0.00000000000E+00  0.00000000000E+00  0.62478363319E+02  0.62478363319E+02  0.00000000000E+00 0. -1.
          1   -1    0    0  501    0 -0.00000000000E+00 -0.00000000000E+00 -0.27743126547E+04  0.27743126547E+04  0.00000000000E+00 0. -1.
         25    2    1    2    0    0 -0.42741847397E+02  0.10640447279E+03 -0.18548383641E+04  0.18625785178E+04  0.12499840295E+03 0.  0.
          2    1    1    2  501    0  0.27596946878E+02 -0.12913470704E+03 -0.90736014575E+03  0.91691864314E+03  0.00000000000E+00 0. -1.
          1    1    1    2  502    0  0.15144900518E+02  0.22730234250E+02  0.50364218444E+02  0.57293857090E+02  0.00000000000E+00 0. -1.
         22    1    3    3    0    0 -0.73531324834E+02  0.58414010384E+02 -0.69199860282E+03  0.69834169190E+03  0.00000000000E+00 0.  1.
         22    1    3    3    0    0  0.30789477438E+02  0.47990462410E+02 -0.11628397613E+04  0.11642368259E+04  0.00000000000E+00 0.  1.
</event>
<event>
 7    1  0.5622879E-006  0.9425449E+02  0.7818608E-02  0.1292928E+00
          2   -1    0    0  502    0  0.00000000000E+00  0.00000000000E+00  0.41390426364E+03  0.41390426364E+03  0.00000000000E+00 0. -1.
          1   -1    0    0  501    0 -0.00000000000E+00 -0.00000000000E+00 -0.12334068320E+04  0.12334068320E+04  0.00000000000E+00 0. -1.
         25    2    1    2    0    0 -0.81198421178E+02 -0.34897669185E+02  0.31302654069E+02  0.15625622992E+03  0.12500048929E+03 0.  0.
          2    1    1    2  501    0  0.86129605449E+01  0.94936634617E+02 -0.11620061749E+04  0.11659097299E+04  0.00000000000E+00 0. -1.
          1    1    1    2  502    0  0.72585460633E+02 -0.60038965431E+02  0.31120095254E+03  0.32514513579E+03  0.00000000000E+00 0. -1.
         22    1    3    3    0    0 -0.45504511561E+02  0.40711744241E+02  0.38746040049E+02  0.72314329915E+02  0.00000000000E+00 0. -1.
         22    1    3    3    0    0 -0.35693909617E+02 -0.75609413426E+02 -0.74433859803E+01  0.83941900010E+02  0.00000000000E+00 0. -1.
</event>
<event>
 7    1  0.5622879E-006  0.8767364E+02  0.7818608E-02  0.1351281E+00
          2   -1    0    0  502    0  0.00000000000E+00  0.00000000000E+00  0.29509055956E+04  0.29509055956E+04  0.00000000000E+00 0. -1.
          1   -1    0    0  501    0 -0.00000000000E+00 -0.00000000000E+00 -0.11452481260E+03  0.11452481260E+03  0.00000000000E+00 0. -1.
         25    2    1    2    0    0 -0.74552073694E+01  0.69680758487E+02  0.18108684616E+03  0.23092970454E+03  0.12500037747E+03 0.  0.
          2    1    1    2  501    0 -0.52530148723E+02 -0.74924733060E+02 -0.65821497462E+02  0.11271912738E+03  0.00000000000E+00 0. -1.
          1    1    1    2  502    0  0.59985356093E+02  0.52439745729E+01  0.27211154343E+04  0.27217815763E+04  0.00000000000E+00 0. -1.
         22    1    3    3    0    0  0.49532357604E+02 -0.95438214668E+00  0.42519615565E+02  0.65286162415E+02  0.00000000000E+00 0. -1.
         22    1    3    3    0    0 -0.56987564974E+02  0.70635140634E+02  0.13856723059E+03  0.16564354212E+03  0.00000000000E+00 0. -1.
</event>
<event>
 7    1  0.5622879E-006  0.1419238E+03  0.7818608E-02  0.1330275E+00
          2   -1    0    0  502    0  0.00000000000E+00  0.00000000000E+00  0.19395975959E+04  0.19395975959E+04  0.00000000000E+00 0. -1.
          1   -1    0    0  501    0 -0.00000000000E+00 -0.00000000000E+00 -0.16375106732E+03  0.16375106732E+03  0.00000000000E+00 0. -1.
         25    2    1    2    0    0  0.44175523661E+02  0.87938989688E+02  0.12775411169E+04  0.12874087149E+04  0.12500060382E+03 0.  0.
          2    1    1    2  501    0 -0.63898789736E+02 -0.12795381468E+03 -0.12565928790E+03  0.19038248516E+03  0.00000000000E+00 0. -1.
          1    1    1    2  502    0  0.19723266075E+02  0.40014824991E+02  0.62396469956E+03  0.62555746318E+03  0.00000000000E+00 0. -1.
         22    1    3    3    0    0  0.57120802647E+02  0.94471464680E+02  0.12591905086E+04  0.12640207200E+04  0.00000000000E+00 0. -1.
         22    1    3    3    0    0 -0.12945278985E+02 -0.65324749922E+01  0.18350608316E+02  0.23387994850E+02  0.00000000000E+00 0. -1.
</event>
<event>
 7    1  0.5622879E-006  0.5248445E+02  0.7818608E-02  0.1451579E+00
          2   -1    0    0  502    0  0.00000000000E+00  0.00000000000E+00  0.19055958663E+04  0.19055958663E+04  0.00000000000E+00 0. -1.
          1   -1    0    0  501    0 -0.00000000000E+00 -0.00000000000E+00 -0.13764641201E+03  0.13764641201E+03  0.00000000000E+00 0. -1.
         25    2    1    2    0    0 -0.43445455294E+02  0.19313383146E+02  0.14020545920E+03  0.19377811197E+03  0.12502748312E+03 0.  0.
          2    1    1    2  501    0  0.32043431143E+02  0.32287821624E+02 -0.10577398582E+03  0.11514087450E+03  0.00000000000E+00 0. -1.
          1    1    1    2  502    0  0.11402024152E+02 -0.51601204770E+02  0.17335179809E+04  0.17343232918E+04  0.00000000000E+00 0. -1.
         22    1    3    3    0    0  0.24540245460E+02  0.22584036053E+00  0.11685341571E+03  0.11940266083E+03  0.00000000000E+00 0.  1.
         22    1    3    3    0    0 -0.67985700754E+02  0.19087542785E+02  0.23352043488E+02  0.74375451136E+02  0.00000000000E+00 0.  1.
</event>
<event>
 7    1  0.5622879E-006  0.8727257E+02  0.7818608E-02  0.1396846E+00
          2   -1    0    0  502    0  0.00000000000E+00  0.00000000000E+00  0.34321453508E+02  0.34321453508E+02  0.00000000000E+00 0. -1.
          1   -1    0    0  501    0 -0.00000000000E+00 -0.00000000000E+00 -0.12166820135E+04  0.12166820135E+04  0.00000000000E+00 0. -1.
         25    2    1    2    0    0  0.52807388074E+02 -0.68083142695E+01 -0.35535005804E+03  0.38043960305E+03  0.12500261775E+03 0.  0.
          2    1    1    2  501    0 -0.93067546180E+02  0.17179887747E+02 -0.82341293945E+03  0.82883387090E+03  0.00000000000E+00 0. -1.
          1    1    1    2  502    0  0.40260158106E+02 -0.10371573478E+02 -0.35975625359E+01  0.41729993091E+02  0.00000000000E+00 0. -1.
         22    1    3    3    0    0 -0.29434365933E+02 -0.37839199015E+02 -0.12165470467E+03  0.13075952756E+03  0.00000000000E+00 0. -1.
         22    1    3    3    0    0  0.82241754007E+02  0.31030884746E+02 -0.23369535337E+03  0.24968007549E+03  0.00000000000E+00 0. -1.
</event>
<event>
 7    1  0.5622879E-006  0.8173865E+02  0.7818608E-02  0.1345534E+00
          2   -1    0    0  502    0  0.00000000000E+00  0.00000000000E+00  0.18160482132E+04  0.18160482132E+04  0.00000000000E+00 0. -1.
          1   -1    0    0  501    0 -0.00000000000E+00 -0.00000000000E+00 -0.64885396993E+03  0.64885396993E+03  0.00000000000E+00 0. -1.
         25    2    1    2    0    0 -0.96636691345E+02 -0.83655293965E+02  0.15534271428E+03  0.23684005265E+03  0.12499997335E+03 0.  0.
          2    1    1    2  501    0  0.67343440346E+02  0.81915237481E+01 -0.60519764702E+03  0.60898803927E+03  0.00000000000E+00 0. -1.
          1    1    1    2  502    0  0.29293251000E+02  0.75463770217E+02  0.16170491760E+04  0.16190740912E+04  0.00000000000E+00 0. -1.
         22    1    3    3    0    0 -0.66675744371E+02 -0.41041435435E+02  0.58288943541E+01  0.78511338795E+02  0.00000000000E+00 0. -1.
         22    1    3    3    0    0 -0.29960946975E+02 -0.42613858530E+02  0.14951381992E+03  0.15832871385E+03  0.00000000000E+00 0. -1.
</event>
<event>
 7    1  0.5622879E-006  0.1277774E+03  0.7818608E-02  0.1298425E+00
          2   -1    0    0  502    0  0.00000000000E+00  0.00000000000E+00  0.87604529791E+03  0.87604529791E+03  0.00000000000E+00 0. -1.
          1   -1    0    0  501    0 -0.00000000000E+00 -0.00000000000E+00 -0.49689062144E+03  0.49689062144E+03  0.00000000000E+00 0. -1.
         25    2    1    2    0    0  0.13218277672E+03  0.77461882023E+02 -0.10308795807E+02  0.19799957895E+03  0.12499972947E+03 0.  0.
          2    1    1    2  501    0 -0.55261102977E+01 -0.65797338196E+02 -0.38473466107E+03  0.39035956123E+03  0.00000000000E+00 0. -1.
          1    1    1    2  502    0 -0.12665666642E+03 -0.11664543827E+02  0.77419813335E+03  0.78457677917E+03  0.00000000000E+00 0. -1.
         22    1    3    3    0    0  0.52622626789E+01 -0.30430263839E+02  0.21204331486E+01  0.30954621668E+02  0.00000000000E+00 0. -1.
         22    1    3    3    0    0  0.12692051404E+03  0.10789214586E+03 -0.12429228956E+02  0.16704495729E+03  0.00000000000E+00 0. -1.
</event>
<event>
 7    1  0.5622879E-006  0.8551308E+02  0.7818608E-02  0.1330530E+00
          2   -1    0    0  502    0  0.00000000000E+00  0.00000000000E+00  0.42084381879E+03  0.42084381879E+03  0.00000000000E+00 0. -1.
          1   -1    0    0  501    0 -0.00000000000E+00 -0.00000000000E+00 -0.55491892174E+03  0.55491892174E+03  0.00000000000E+00 0. -1.
         25    2    1    2    0    0  0.14735667217E+03 -0.35047782310E+02 -0.41247297536E+02  0.20065872309E+03  0.12498098944E+03 0.  0.
          2    1    1    2  501    0 -0.73515939893E+02  0.37293435486E+02 -0.42596801384E+03  0.43387111284E+03  0.00000000000E+00 0. -1.
          1    1    1    2  502    0 -0.73840732281E+02 -0.22456531765E+01  0.33314020843E+03  0.34123290459E+03  0.00000000000E+00 0. -1.
         22    1    3    3    0    0  0.14192481820E+03  0.17104091779E+02 -0.39001538668E+02  0.14817666481E+03  0.00000000000E+00 0. -1.
         22    1    3    3    0    0  0.54318539760E+01 -0.52151874089E+02 -0.22457588682E+01  0.52482058282E+02  0.00000000000E+00 0. -1.
</event>
<event>
 7    1  0.5622879E-006  0.1048679E+03  0.7818608E-02  0.1301729E+00
          2   -1    0    0  502    0  0.00000000000E+00  0.00000000000E+00  0.25104850754E+03  0.25104850754E+03  0.00000000000E+00 0. -1.
          1   -1    0    0  501    0 -0.00000000000E+00 -0.00000000000E+00 -0.58819967679E+03  0.58819967679E+03  0.00000000000E+00 0. -1.
         25    2    1    2    0    0 -0.38811872366E+02  0.11707789089E+03  0.61542464182E+01  0.17571843239E+03  0.12500199503E+03 0.  0.
          2    1    1    2  501    0  0.75907761945E+02 -0.18119601953E+02 -0.48249491736E+03  0.48876543820E+03  0.00000000000E+00 0. -1.
          1    1    1    2  502    0 -0.37095889579E+02 -0.98958288935E+02  0.13918950170E+03  0.17476431374E+03  0.00000000000E+00 0. -1.
         22    1    3    3    0    0 -0.14095331992E+02  0.13399539103E+03 -0.19680055412E+02  0.13616441452E+03  0.00000000000E+00 0.  1.
         22    1    3    3    0    0 -0.24716540375E+02 -0.16917500136E+02  0.25834301830E+02  0.39554017874E+02  0.00000000000E+00 0.  1.
</event>
<event>
 7    1  0.5622879E-006  0.1474983E+03  0.7818608E-02  0.1280238E+00
          2   -1    0    0  502    0  0.00000000000E+00  0.00000000000E+00  0.15685339196E+04  0.15685339196E+04  0.00000000000E+00 0. -1.
          1   -1    0    0  501    0 -0.00000000000E+00 -0.00000000000E+00 -0.27414018604E+04  0.27414018604E+04  0.00000000000E+00 0. -1.
         25    2    1    2    0    0  0.19773507599E+03  0.58855251957E+02 -0.18415034920E+03  0.30347933750E+03  0.12500102488E+03 0.  0.
          2    1    1    2  501    0 -0.13018075055E+03 -0.65017340270E+02 -0.24947034040E+04  0.24989436481E+04  0.00000000000E+00 0. -1.
          1    1    1    2  502    0 -0.67554325441E+02  0.61620883127E+01  0.15059858124E+04  0.15075127945E+04  0.00000000000E+00 0. -1.
         22    1    3    3    0    0  0.47793243341E+02  0.15190453953E+02  0.13156560344E+02  0.51846302476E+02  0.00000000000E+00 0.  1.
         22    1    3    3    0    0  0.14994183265E+03  0.43664798005E+02 -0.19730690954E+03  0.25163303503E+03  0.00000000000E+00 0.  1.
</event>
<event>
 7    1  0.5622879E-006  0.7466372E+02  0.7818608E-02  0.1423774E+00
          2   -1    0    0  502    0  0.00000000000E+00  0.00000000000E+00  0.15129632013E+04  0.15129632013E+04  0.00000000000E+00 0. -1.
          1   -1    0    0  501    0 -0.00000000000E+00 -0.00000000000E+00 -0.80202831191E+02  0.80202831191E+02  0.00000000000E+00 0. -1.
         25    2    1    2    0    0 -0.28086293505E+02  0.28290774749E+02  0.24500771432E+03  0.27792494833E+03  0.12499715601E+03 0.  0.
          2    1    1    2  501    0  0.64057288938E+02 -0.44339879367E+02 -0.39506094984E+02  0.87350401884E+02  0.00000000000E+00 0. -1.
          1    1    1    2  502    0 -0.35970995433E+02  0.16049104619E+02  0.12272587508E+04  0.12278906823E+04  0.00000000000E+00 0. -1.
         22    1    3    3    0    0  0.42611988644E+02  0.35620427543E+02  0.14465743599E+03  0.15495279998E+03  0.00000000000E+00 0.  1.
         22    1    3    3    0    0 -0.70698282149E+02 -0.73296527941E+01  0.10035027832E+03  0.12297214834E+03  0.00000000000E+00 0.  1.
</event>
<event>
 7    1  0.6064835E-006  0.5975263E+02  0.7818608E-02  0.1408413E+00
          2   -1    0    0  502    0  0.00000000000E+00  0.00000000000E+00  0.20385455513E+04  0.20385455513E+04  0.00000000000E+00 0. -1.
          1   -1    0    0  501    0 -0.00000000000E+00 -0.00000000000E+00 -0.33281708315E+03  0.33281708315E+03  0.00000000000E+00 0. -1.
         25    2    1    2    0    0 -0.75258944296E+01 -0.54995825534E+02 -0.17130289151E+03  0.21920379566E+03  0.12499777390E+03 0.  0.
          2    1    1    2  501    0 -0.49657604059E+02  0.37663090249E+02 -0.13003697460E+03  0.14420125094E+03  0.00000000000E+00 0. -1.
          1    1    1    2  502    0  0.57183498489E+02  0.17332735285E+02  0.20070683342E+04  0.20079575878E+04  0.00000000000E+00 0. -1.
         22    1    3    3    0    0  0.65243001041E+01 -0.94381309061E+02 -0.11144651007E+03  0.14618728604E+03  0.00000000000E+00 0. -1.
         22    1    3    3    0    0 -0.14050194534E+02  0.39385483527E+02 -0.59856381440E+02  0.73016509627E+02  0.00000000000E+00 0. -1.
</event>
<event>
 7    1  0.5622879E-006  0.6905504E+02  0.7818608E-02  0.1381514E+00
          2   -1    0    0  502    0  0.00000000000E+00  0.00000000000E+00  0.94741224814E+03  0.94741224814E+03  0.00000000000E+00 0. -1.
          1   -1    0    0  501    0 -0.00000000000E+00 -0.00000000000E+00 -0.33296653471E+03  0.33296653471E+03  0.00000000000E+00 0. -1.
         25    2    1    2    0    0  0.87656692078E+02 -0.59875852286E+02 -0.13364106953E+03  0.21155136784E+03  0.12500092967E+03 0.  0.
          2    1    1    2  501    0 -0.59367391798E+02 -0.29375323059E+01 -0.15350302759E+03  0.16460952519E+03  0.00000000000E+00 0. -1.
          1    1    1    2  502    0 -0.28289300281E+02  0.62813384592E+02  0.90158981054E+03  0.90421788982E+03  0.00000000000E+00 0. -1.
         22    1    3    3    0    0  0.16147057980E+02  0.10098303951E+02  0.20376027766E+02  0.27890602927E+02  0.00000000000E+00 0. -1.
         22    1    3    3    0    0  0.71509634098E+02 -0.69974156237E+02 -0.15401709729E+03  0.18366076491E+03  0.00000000000E+00 0. -1.
</event>
<event>
 7    1  0.5622879E-006  0.2098579E+03  0.7818608E-02  0.1349561E+00
          2   -1    0    0  502    0  0.00000000000E+00  0.00000000000E+00  0.49619434814E+03  0.49619434814E+03  0.00000000000E+00 0. -1.
          1   -1    0    0  501    0 -0.00000000000E+00 -0.00000000000E+00 -0.43804759802E+03  0.43804759802E+03  0.00000000000E+00 0. -1.
         25    2    1    2    0    0 -0.13573233068E+03  0.12948531516E+03 -0.33049002274E+03  0.40004729273E+03  0.12499787542E+03 0.  0.
          2    1    1    2  501    0 -0.10208692207E+02  0.23397365085E+02 -0.45031189367E+02  0.51763520990E+02  0.00000000000E+00 0. -1.
          1    1    1    2  502    0  0.14594102288E+03 -0.15288268024E+03  0.43366796223E+03  0.48243113244E+03  0.00000000000E+00 0. -1.
         22    1    3    3    0    0 -0.28284064765E+02  0.88793823682E+02 -0.22712129827E+03  0.24549626386E+03  0.00000000000E+00 0.  1.
         22    1    3    3    0    0 -0.10744826591E+03  0.40691491476E+02 -0.10336872447E+03  0.15455102887E+03  0.00000000000E+00 0.  1.
</event>
<event>
 7    1  0.5622879E-006  0.1099798E+03  0.7818608E-02  0.1275343E+00
          2   -1    0    0  502    0  0.00000000000E+00  0.00000000000E+00  0.35148119750E+04  0.35148119750E+04  0.00000000000E+00 0. -1.
          1   -1    0    0  501    0 -0.00000000000E+00 -0.00000000000E+00 -0.22642241538E+02  0.22642241538E+02  0.00000000000E+00 0. -1.
         25    2    1    2    0    0  0.31348023749E+02 -0.10318110834E+02  0.12758420041E+04  0.12823754774E+04  0.12499953411E+03 0.  0.
          2    1    1    2  501    0 -0.12116606964E+03 -0.21626685085E+02  0.18920335933E+03  0.22571406939E+03  0.00000000000E+00 0. -1.
          1    1    1    2  502    0  0.89818045892E+02  0.31944795920E+02  0.20271243700E+04  0.20293646698E+04  0.00000000000E+00 0. -1.
         22    1    3    3    0    0  0.45568840620E+01  0.24441399951E+02  0.50900875720E+02  0.56648445460E+02  0.00000000000E+00 0. -1.
         22    1    3    3    0    0  0.26791139687E+02 -0.34759510785E+02  0.12249411284E+04  0.12257270319E+04  0.00000000000E+00 0. -1.
</event>
<event>
 7    1  0.5622879E-006  0.1553889E+03  0.7818608E-02  0.1255345E+00
          2   -1    0    0  502    0  0.00000000000E+00  0.00000000000E+00  0.18647669248E+04  0.18647669248E+04  0.00000000000E+00 0. -1.
          1   -1    0    0  501    0 -0.00000000000E+00 -0.00000000000E+00 -0.37600675655E+03  0.37600675655E+03  0.00000000000E+00 0. -1.
         25    2    1    2    0    0 -0.52657997275E+02  0.10260191999E+03 -0.75781878762E+02  0.18618456118E+03  0.12498711539E+03 0.  0.
          2    1    1    2  501    0  0.27895202518E+02 -0.18075912138E+03 -0.20981318945E+03  0.27834075654E+03  0.00000000000E+00 0. -1.
          1    1    1    2  502    0  0.24762794757E+02  0.78157201396E+02  0.17743552364E+04  0.17762483636E+04  0.00000000000E+00 0. -1.
         22    1    3    3    0    0 -0.96013905058E+01 -0.50992222126E+01 -0.69157445194E+02  0.70006721053E+02  0.00000000000E+00 0. -1.
         22    1    3    3    0    0 -0.43056606769E+02  0.10770114220E+03 -0.66244335678E+01  0.11617784013E+03  0.00000000000E+00 0. -1.
</event>
<event>
 7    1  0.5622879E-006  0.4593817E+02  0.7818608E-02  0.1493311E+00
          2   -1    0    0  502    0  0.00000000000E+00  0.00000000000E+00  0.60646965903E+03  0.60646965903E+03  0.00000000000E+00 0. -1.
          1   -1    0    0  501    0 -0.00000000000E+00 -0.00000000000E+00 -0.39067833059E+03  0.39067833059E+03  0.00000000000E+00 0. -1.
         25    2    1    2    0    0 -0.36505325726E+02 -0.73041129583E+02 -0.66724105969E+02  0.16353670584E+03  0.12499800967E+03 0.  0.
          2    1    1    2  501    0  0.12454944562E+02  0.42874688158E+02 -0.27306601812E+03  0.27669191311E+03  0.00000000000E+00 0. -1.
          1    1    1    2  502    0  0.24050381163E+02  0.30166441425E+02  0.55558145253E+03  0.55691937067E+03  0.00000000000E+00 0. -1.
         22    1    3    3    0    0 -0.46580381098E+02 -0.10866672349E+02 -0.85363928907E+02  0.97850992993E+02  0.00000000000E+00 0.  1.
         22    1    3    3    0    0  0.10075055373E+02 -0.62174457234E+02  0.18639822938E+02  0.65685712847E+02  0.00000000000E+00 0.  1.
</event>
<event>
 7    1  0.5622879E-006  0.1151478E+03  0.7818608E-02  0.1451140E+00
          2   -1    0    0  502    0  0.00000000000E+00  0.00000000000E+00  0.59184711264E+03  0.59184711264E+03  0.00000000000E+00 0. -1.
          1   -1    0    0  501    0 -0.00000000000E+00 -0.00000000000E+00 -0.20362250649E+03  0.20362250649E+03  0.00000000000E+00 0. -1.
         25    2    1    2    0    0 -0.75225381192E+02  0.96217505847E+02 -0.33930446501E+02  0.17802225735E+03  0.12499592996E+03 0.  0.
          2    1    1    2  501    0  0.54533891401E+02 -0.98350218436E+02 -0.64971500215E+02  0.12987689024E+03  0.00000000000E+00 0. -1.
          1    1    1    2  502    0  0.20691489791E+02  0.21327125887E+01  0.48712655286E+03  0.48757047154E+03  0.00000000000E+00 0. -1.
         22    1    3    3    0    0 -0.10982506305E+02  0.10587410878E+03 -0.37768898232E+02  0.11294437581E+03  0.00000000000E+00 0.  1.
         22    1    3    3    0    0 -0.64242874887E+02 -0.96566029303E+01  0.38384517315E+01  0.65077881539E+02  0.00000000000E+00 0.  1.
</event>
<event>
 7    1  0.5622879E-006  0.5067272E+02  0.7818608E-02  0.1484914E+00
          2   -1    0    0  502    0  0.00000000000E+00  0.00000000000E+00  0.97882101791E+02  0.97882101791E+02  0.00000000000E+00 0. -1.
          1   -1    0    0  501    0 -0.00000000000E+00 -0.00000000000E+00 -0.17793143371E+04  0.17793143371E+04  0.00000000000E+00 0. -1.
         25    2    1    2    0    0  0.78405389952E+01  0.18407295049E+02 -0.13091304623E+03  0.18209626141E+03  0.12498207945E+03 0.  0.
          2    1    1    2  501    0  0.11857314366E+02 -0.49828744871E+02 -0.16176213060E+04  0.16184320156E+04  0.00000000000E+00 0. -1.
          1    1    1    2  502    0 -0.19697853362E+02  0.31421449822E+02  0.67102116935E+02  0.76668161796E+02  0.00000000000E+00 0. -1.
         22    1    3    3    0    0  0.31944180870E+02  0.87195112951E+01  0.13210108621E+02  0.35650631670E+02  0.00000000000E+00 0.  1.
         22    1    3    3    0    0 -0.24103641875E+02  0.96877837542E+01 -0.14412315485E+03  0.14644562974E+03  0.00000000000E+00 0.  1.
</event>
<event>
 7    1  0.5622879E-006  0.1485272E+03  0.7818608E-02  0.1231322E+00
          2   -1    0    0  502    0  0.00000000000E+00  0.00000000000E+00  0.13748996013E+04  0.13748996013E+04  0.00000000000E+00 0. -1.
          1   -1    0    0  501    0 -0.00000000000E+00 -0.00000000000E+00 -0.36452819546E+03  0.36452819546E+03  0.00000000000E+00 0. -1.
         25    2    1    2    0    0  0.21823452146E+02  0.76744808214E+02  0.24409556408E+03  0.28561162254E+03  0.12500130350E+03 0.  0.
          2    1    1    2  501    0  0.97304364255E+02  0.49841400166E+02 -0.32804129157E+03  0.34577939998E+03  0.00000000000E+00 0. -1.
          1    1    1    2  502    0 -0.11912781640E+03 -0.12658620838E+03  0.10943171333E+04  0.11080367742E+04  0.00000000000E+00 0. -1.
         22    1    3    3    0    0 -0.38352946080E+02  0.72226768733E+02  0.98613714226E+02  0.12811057422E+03  0.00000000000E+00 0. -1.
         22    1    3    3    0    0  0.60176398226E+02  0.45180394807E+01  0.14548184985E+03  0.15750104831E+03  0.00000000000E+00 0. -1.
</event>
<event>
 7    1  0.5622879E-006  0.4425555E+02  0.7818608E-02  0.1565395E+00
          2   -1    0    0  502    0  0.00000000000E+00  0.00000000000E+00  0.16952162586E+04  0.16952162586E+04  0.00000000000E+00 0. -1.
          1   -1    0    0  501    0 -0.00000000000E+00 -0.00000000000E+00 -0.59020045989E+02  0.59020045989E+02  0.00000000000E+00 0. -1.
         25    2    1    2    0    0  0.49854727802E+02 -0.41856485892E+02  0.14936688831E+03  0.20536089304E+03  0.12500067908E+03 0.  0.
          2    1    1    2  501    0 -0.37501978763E+02  0.20266074478E+02 -0.16228157683E+02  0.45612117773E+02  0.00000000000E+00 0. -1.
          1    1    1    2  502    0 -0.12352749039E+02  0.21590411414E+02  0.15030574820E+04  0.15032632938E+04  0.00000000000E+00 0. -1.
         22    1    3    3    0    0  0.33780019266E+02  0.31156454438E+02  0.11348114892E+03  0.12243277958E+03  0.00000000000E+00 0. -1.
         22    1    3    3    0    0  0.16074708536E+02 -0.73012940330E+02  0.35885739385E+02  0.82928113456E+02  0.00000000000E+00 0. -1.
</event>
<event>
 7    1  0.5622879E-006  0.2308800E+03  0.7818608E-02  0.1251362E+00
          2   -1    0    0  502    0  0.00000000000E+00  0.00000000000E+00  0.20511667644E+03  0.20511667644E+03  0.00000000000E+00 0. -1.
          1   -1    0    0  501    0 -0.00000000000E+00 -0.00000000000E+00 -0.24638342357E+04  0.24638342357E+04  0.00000000000E+00 0. -1.
         25    2    1    2    0    0  0.18743192039E+03 -0.18640594406E+03 -0.63343209133E+03  0.69766681129E+03  0.12499945794E+03 0.  0.
          2    1    1    2  501    0 -0.10874528447E-02  0.57405797617E+02 -0.17227849922E+04  0.17237411508E+04  0.00000000000E+00 0. -1.
          1    1    1    2  502    0 -0.18743083293E+03  0.12900014645E+03  0.97499524232E+02  0.24754295010E+03  0.00000000000E+00 0. -1.
         22    1    3    3    0    0  0.86122106269E+02 -0.10021968260E+03 -0.16879285623E+03  0.21436424675E+03  0.00000000000E+00 0.  1.
         22    1    3    3    0    0  0.10130981412E+03 -0.86186261464E+02 -0.46463923509E+03  0.48330256454E+03  0.00000000000E+00 0.  1.
</event>
<event>
 7    1  0.5622879E-006  0.1743728E+03  0.7818608E-02  0.1212806E+00
          2   -1    0    0  502    0  0.00000000000E+00  0.00000000000E+00  0.75023222024E+03  0.75023222024E+03  0.00000000000E+00 0. -1.
          1   -1    0    0  501    0 -0.00000000000E+00 -0.00000000000E+00 -0.17676363791E+04  0.17676363791E+04  0.00000000000E+00 0. -1.
         25    2    1    2    0    0 -0.93482820104E+02  0.17668496586E+03 -0.64288038435E+03  0.68474584295E+03  0.12500026417E+03 0.  0.
          2    1    1    2  501    0  0.11298156080E+03 -0.32680064583E+01 -0.10904207281E+04  0.10962631423E+04  0.00000000000E+00 0. -1.
          1    1    1    2  502    0 -0.19498740694E+02 -0.17341695940E+03  0.71589695358E+03  0.73685961407E+03  0.00000000000E+00 0. -1.
         22    1    3    3    0    0 -0.52571343729E+02  0.24497436805E+02 -0.32285503901E+03  0.32802324126E+03  0.00000000000E+00 0.  1.
         22    1    3    3    0    0 -0.40911476375E+02  0.15218752905E+03 -0.32002534534E+03  0.35672260169E+03  0.00000000000E+00 0.  1.
</event>
<event>
 7    1  0.5622879E-006  0.5444573E+02  0.7818608E-02  0.1539824E+00
          2   -1    0    0  502    0  0.00000000000E+00  0.00000000000E+00  0.20279092022E+03  0.20279092022E+03  0.00000000000E+00 0. -1.
          1   -1    0    0  501    0 -0.00000000000E+00 -0.00000000000E+00 -0.66130894809E+03  0.66130894809E+03  0.00000000000E+00 0. -1.
         25    2    1    2    0    0  0.80593823092E+01  0.46076737452E+02  0.87241551323E+02  0.15945115679E+03  0.12500225496E+03 0.  0.
          2    1    1    2  501    0  0.14873141362E+02 -0.52498377211E+02 -0.62219822849E+03  0.62458620340E+03  0.00000000000E+00 0. -1.
          1    1    1    2  502    0 -0.22932523671E+02  0.64216397593E+01  0.76438649297E+02  0.80062508114E+02  0.00000000000E+00 0. -1.
         22    1    3    3    0    0 -0.25478401987E+01  0.61604355343E+02 -0.81773468332E+01  0.62196921854E+02  0.00000000000E+00 0.  1.
         22    1    3    3    0    0  0.10607222508E+02 -0.15527617890E+02  0.95418898156E+02  0.97254234931E+02  0.00000000000E+00 0.  1.
</event>
<event>
 7    1  0.5622879E-006  0.7055729E+02  0.7818608E-02  0.1510589E+00
          2   -1    0    0  502    0  0.00000000000E+00  0.00000000000E+00  0.12417043683E+04  0.12417043683E+04  0.00000000000E+00 0. -1.
          1   -1    0    0  501    0 -0.00000000000E+00 -0.00000000000E+00 -0.11188672004E+04  0.11188672004E+04  0.00000000000E+00 0. -1.
         25    2    1    2    0    0 -0.45886021250E+02 -0.75510777703E+02 -0.95039506673E+02  0.18017946971E+03  0.12499891593E+03 0.  0.
          2    1    1    2  501    0  0.45599424357E+02  0.53198729981E+02 -0.97990286938E+03  0.98240472606E+03  0.00000000000E+00 0. -1.
          1    1    1    2  502    0  0.28659689298E+00  0.22312047722E+02  0.11977795440E+04  0.11979873729E+04  0.00000000000E+00 0. -1.
         22    1    3    3    0    0 -0.47493747089E+01  0.31539711824E+02 -0.10667659071E+01  0.31913131648E+02  0.00000000000E+00 0.  1.
         22    1    3    3    0    0 -0.41136646542E+02 -0.10705048953E+03 -0.93972740766E+02  0.14826633807E+03  0.00000000000E+00 0.  1.
</event>
<event>
 7    1  0.5622879E-006  0.7850354E+02  0.7818608E-02  0.1387097E+00
          2   -1    0    0  502    0  0.00000000000E+00  0.00000000000E+00  0.29247943809E+04  0.29247943809E+04  0.00000000000E+00 0. -1.
          1   -1    0    0  501    0 -0.00000000000E+00 -0.00000000000E+00 -0.43708267464E+03  0.43708267464E+03  0.00000000000E+00 0. -1.
         25    2    1    2    0    0 -0.23374281705E+02 -0.10793082418E+03 -0.19163888618E+03  0.25405785333E+03  0.12499804114E+03 0.  0.
          2    1    1    2  501    0 -0.22767360324E+02  0.44485597898E+02 -0.21078054517E+03  0.21662354290E+03  0.00000000000E+00 0. -1.
          1    1    1    2  502    0  0.46141642029E+02  0.63445226284E+02  0.28901311376E+04  0.28911956593E+04  0.00000000000E+00 0. -1.
         22    1    3    3    0    0  0.46646978369E+01  0.86391308086E+01  0.13355751518E+02  0.16576190324E+02  0.00000000000E+00 0. -1.
         22    1    3    3    0    0 -0.28038979542E+02 -0.11656995499E+03 -0.20499463770E+03  0.23748166301E+03  0.00000000000E+00 0. -1.
</event>
<event>
 7    1  0.5622879E-006  0.1005831E+03  0.7818608E-02  0.1336727E+00
          2   -1    0    0  502    0  0.00000000000E+00  0.00000000000E+00  0.14601249396E+04  0.14601249396E+04  0.00000000000E+00 0. -1.
          1   -1    0    0  501    0 -0.00000000000E+00 -0.00000000000E+00 -0.35267151144E+03  0.35267151144E+03  0.00000000000E+00 0. -1.
         25    2    1    2    0    0  0.13582512974E+03 -0.71768656634E+02 -0.34702709647E+02  0.20106770507E+03  0.12499895208E+03 0.  0.
          2    1    1    2  501    0 -0.80928576718E+02  0.48840720506E+02 -0.22459911081E+03  0.24367932018E+03  0.00000000000E+00 0. -1.
          1    1    1    2  502    0 -0.54896553022E+02  0.22927936128E+02  0.13667552487E+04  0.13680494258E+04  0.00000000000E+00 0. -1.
         22    1    3    3    0    0  0.87474535586E+02  0.55548044551E+01 -0.60249706213E+02  0.10636107054E+03  0.00000000000E+00 0.  1.
         22    1    3    3    0    0  0.48350594155E+02 -0.77323461089E+02  0.25546996566E+02  0.94706634527E+02  0.00000000000E+00 0.  1.
</event>
<event>
 7    1  0.5622879E-006  0.7047828E+02  0.7818608E-02  0.1460330E+00
          2   -1    0    0  502    0  0.00000000000E+00  0.00000000000E+00  0.15116906203E+04  0.15116906203E+04  0.00000000000E+00 0. -1.
          1   -1    0    0  501    0 -0.00000000000E+00 -0.00000000000E+00 -0.10110478527E+04  0.10110478527E+04  0.00000000000E+00 0. -1.
         25    2    1    2    0    0 -0.72101675634E+02  0.57789852734E+02  0.19208606183E+02  0.15662868924E+03  0.12500102813E+03 0.  0.
          2    1    1    2  501    0  0.31776414734E+02 -0.26945025435E+00 -0.94120301262E+03  0.94173930793E+03  0.00000000000E+00 0. -1.
          1    1    1    2  502    0  0.40325260900E+02 -0.57520402480E+02  0.14226371741E+04  0.14243704758E+04  0.00000000000E+00 0. -1.
         22    1    3    3    0    0 -0.33302318554E+02  0.48402895135E+02  0.70411229130E+02  0.91704012268E+02  0.00000000000E+00 0.  1.
         22    1    3    3    0    0 -0.38799357080E+02  0.93869575993E+01 -0.51202622948E+02  0.64924676969E+02  0.00000000000E+00 0.  1.
</event>
<event>
 7    1  0.5622879E-006  0.7090907E+02  0.7818608E-02  0.1400708E+00
          2   -1    0    0  502    0  0.00000000000E+00  0.00000000000E+00  0.14719003450E+04  0.14719003450E+04  0.00000000000E+00 0. -1.
          1   -1    0    0  501    0 -0.00000000000E+00 -0.00000000000E+00 -0.48733027961E+02  0.48733027961E+02  0.00000000000E+00 0. -1.
         25    2    1    2    0    0  0.52352579848E+02 -0.66542784107E+02  0.10038715749E+04  0.10151612928E+04  0.12500230756E+03 0.  0.
          2    1    1    2  501    0 -0.29196878261E+01  0.70901810224E+02 -0.11447829883E+02  0.71879371721E+02  0.00000000000E+00 0. -1.
          1    1    1    2  502    0 -0.49432892022E+02 -0.43590261161E+01  0.43074357208E+03  0.43359270844E+03  0.00000000000E+00 0. -1.
         22    1    3    3    0    0  0.14696472224E+02 -0.82969051439E+02  0.34997776921E+03  0.35997817813E+03  0.00000000000E+00 0.  1.
         22    1    3    3    0    0  0.37656107624E+02  0.16426267332E+02  0.65389380567E+03  0.65518311471E+03  0.00000000000E+00 0.  1.
</event>
<event>
 7    1  0.5622879E-006  0.5157067E+02  0.7818608E-02  0.1511902E+00
          2   -1    0    0  502    0  0.00000000000E+00  0.00000000000E+00  0.83842403014E+03  0.83842403014E+03  0.00000000000E+00 0. -1.
          1   -1    0    0  501    0 -0.00000000000E+00 -0.00000000000E+00 -0.51261592767E+02  0.51261592767E+02  0.00000000000E+00 0. -1.
         25    2    1    2    0    0 -0.53285069089E+02  0.14680079384E+02  0.23395448849E+03  0.27095088522E+03  0.12499950479E+03 0.  0.
          2    1    1    2  501    0  0.49607958834E+02  0.15354707939E+02 -0.11523577027E+02  0.53193133608E+02  0.00000000000E+00 0. -1.
          1    1    1    2  502    0  0.36771102551E+01 -0.30034787323E+02  0.56473152590E+03  0.56554160407E+03  0.00000000000E+00 0. -1.
         22    1    3    3    0    0 -0.41836729248E+02 -0.49732191156E+02  0.76084727853E+02  0.10006242334E+03  0.00000000000E+00 0.  1.
         22    1    3    3    0    0 -0.11448339841E+02  0.64412270539E+02  0.15786976064E+03  0.17088846189E+03  0.00000000000E+00 0.  1.
</event>
<event>
 7    1  0.5622879E-006  0.5049050E+02  0.7818608E-02  0.1549203E+00
          2   -1    0    0  502    0  0.00000000000E+00  0.00000000000E+00  0.65581794837E+03  0.65581794837E+03  0.00000000000E+00 0. -1.
          1   -1    0    0  501    0 -0.00000000000E+00 -0.00000000000E+00 -0.16040976339E+03  0.16040976339E+03  0.00000000000E+00 0. -1.
         25    2    1    2    0    0  0.41406529459E+02 -0.32917811656E+02  0.84363491374E+02  0.15981204494E+03  0.12499843209E+03 0.  0.
          2    1    1    2  501    0 -0.21096287515E+02  0.46017192962E+02 -0.11717543581E+03  0.12764293224E+03  0.00000000000E+00 0. -1.
          1    1    1    2  502    0 -0.20310241944E+02 -0.13099381306E+02  0.52822012941E+03  0.52877273458E+03  0.00000000000E+00 0. -1.
         22    1    3    3    0    0 -0.34473941611E+02 -0.53748430620E+01 -0.93526519597E+01  0.36122204900E+02  0.00000000000E+00 0. -1.
         22    1    3    3    0    0  0.75880471069E+02 -0.27542968594E+02  0.93716143334E+02  0.12368984004E+03  0.00000000000E+00 0. -1.
</event>
<event>
 7    1  0.5622879E-006  0.8028342E+02  0.7818608E-02  0.1442884E+00
          2   -1    0    0  502    0  0.00000000000E+00  0.00000000000E+00  0.10808710112E+03  0.10808710112E+03  0.00000000000E+00 0. -1.
          1   -1    0    0  501    0 -0.00000000000E+00 -0.00000000000E+00 -0.19935862240E+04  0.19935862240E+04  0.00000000000E+00 0. -1.
         25    2    1    2    0    0 -0.92270071367E+02 -0.24942760783E+02 -0.29298085967E+02  0.16006306309E+03  0.12500359571E+03 0.  0.
          2    1    1    2  501    0  0.66956926247E+02  0.44047360892E+02 -0.18920501815E+04  0.18937468916E+04  0.00000000000E+00 0. -1.
          1    1    1    2  502    0  0.25313145120E+02 -0.19104600109E+02  0.35849144607E+02  0.47863370444E+02  0.00000000000E+00 0. -1.
         22    1    3    3    0    0  0.11792743035E+02  0.23787702682E+02 -0.36264248417E+02  0.44944624822E+02  0.00000000000E+00 0. -1.
         22    1    3    3    0    0 -0.10406281440E+03 -0.48730463465E+02  0.69661624493E+01  0.11511843827E+03  0.00000000000E+00 0. -1.
</event>
<event>
 7    1  0.5622879E-006  0.8322763E+02  0.7818608E-02  0.1408644E+00
          2   -1    0    0  502    0  0.00000000000E+00  0.00000000000E+00  0.94591633593E+03  0.94591633593E+03  0.00000000000E+00 0. -1.
          1   -1    0    0  501    0 -0.00000000000E+00 -0.00000000000E+00 -0.73040926704E+02  0.73040926704E+02  0.00000000000E+00 0. -1.
         25    2    1    2    0    0 -0.10573714077E+03  0.22075844919E+02  0.23156423946E+03  0.28445503002E+03  0.12499992496E+03 0.  0.
          2    1    1    2  501    0  0.35170997164E+02  0.18461899898E+02 -0.35223828097E+02  0.53090101291E+02  0.00000000000E+00 0. -1.
          1    1    1    2  502    0  0.70566143609E+02 -0.40537744816E+02  0.67653499787E+03  0.68141213132E+03  0.00000000000E+00 0. -1.
         22    1    3    3    0    0 -0.86097679558E+02 -0.29344564198E+02  0.20298651910E+03  0.22243525082E+03  0.00000000000E+00 0.  1.
         22    1    3    3    0    0 -0.19639461216E+02  0.51420409117E+02  0.28577720361E+02  0.62019779197E+02  0.00000000000E+00 0.  1.
</event>
<event>
 7    1  0.5622879E-006  0.1623619E+03  0.7818608E-02  0.1249949E+00
          2   -1    0    0  502    0  0.00000000000E+00  0.00000000000E+00  0.13588926289E+04  0.13588926289E+04  0.00000000000E+00 0. -1.
          1   -1    0    0  501    0 -0.00000000000E+00 -0.00000000000E+00 -0.53061030266E+03  0.53061030266E+03  0.00000000000E+00 0. -1.
         25    2    1    2    0    0 -0.20332539950E+03 -0.69228507464E+02  0.52446867736E+03  0.58036720973E+03  0.12499960106E+03 0.  0.
          2    1    1    2  501    0  0.80692586781E+02 -0.18519823719E+02 -0.49212423702E+03  0.49903961976E+03  0.00000000000E+00 0. -1.
          1    1    1    2  502    0  0.12263281271E+03  0.87748331183E+02  0.79593788586E+03  0.81009610203E+03  0.00000000000E+00 0. -1.
         22    1    3    3    0    0 -0.22721463086E+02  0.23457154996E+02  0.15886848621E+03  0.16219031696E+03  0.00000000000E+00 0.  1.
         22    1    3    3    0    0 -0.18060393641E+03 -0.92685662459E+02  0.36560019116E+03  0.41817689277E+03  0.00000000000E+00 0.  1.
</event>
<event>
 7    1  0.5622879E-006  0.6306091E+02  0.7818608E-02  0.1415426E+00
          2   -1    0    0  502    0  0.00000000000E+00  0.00000000000E+00  0.87001739862E+02  0.87001739862E+02  0.00000000000E+00 0. -1.
          1   -1    0    0  501    0 -0.00000000000E+00 -0.00000000000E+00 -0.73562060528E+03  0.73562060528E+03  0.00000000000E+00 0. -1.
         25    2    1    2    0    0  0.71661858922E+01 -0.17549823797E+02 -0.16030532755E+03  0.20416027118E+03  0.12499707098E+03 0.  0.
          2    1    1    2  501    0 -0.18699430871E+01 -0.49695169761E+02 -0.53443795089E+03  0.53674670929E+03  0.00000000000E+00 0. -1.
          1    1    1    2  502    0 -0.52962428051E+01  0.67244993559E+02  0.46124413021E+02  0.81715364670E+02  0.00000000000E+00 0. -1.
         22    1    3    3    0    0  0.11006438054E+02  0.29861192412E+02  0.49390855672E+01  0.32206009644E+02  0.00000000000E+00 0. -1.
         22    1    3    3    0    0 -0.38402521621E+01 -0.47411016209E+02 -0.16524441312E+03  0.17195426154E+03  0.00000000000E+00 0. -1.
</event>
<event>
 7    1  0.5622879E-006  0.4104621E+02  0.7818608E-02  0.1545078E+00
          2   -1    0    0  502    0  0.00000000000E+00  0.00000000000E+00  0.35443046539E+04  0.35443046539E+04  0.00000000000E+00 0. -1.
          1   -1    0    0  501    0 -0.00000000000E+00 -0.00000000000E+00 -0.12481011197E+04  0.12481011197E+04  0.00000000000E+00 0. -1.
         25    2    1    2    0    0  0.19504016259E+02 -0.23783871973E+02  0.12337728801E+04  0.12404701712E+04  0.12499858729E+03 0.  0.
          2    1    1    2  501    0 -0.24606336656E+02 -0.18072731941E+02 -0.12443725644E+04  0.12447470323E+04  0.00000000000E+00 0. -1.
          1    1    1    2  502    0  0.51023203970E+01  0.41856603914E+02  0.23068032185E+04  0.23071885701E+04  0.00000000000E+00 0. -1.
         22    1    3    3    0    0  0.20543997382E+02  0.46423531550E+02  0.31981798052E+03  0.32382208197E+03  0.00000000000E+00 0.  1.
         22    1    3    3    0    0 -0.10399811227E+01 -0.70207403523E+02  0.91395489955E+03  0.91664808922E+03  0.00000000000E+00 0.  1.
</event>
<event>
 7    1  0.5622879E-006  0.8000166E+02  0.7818608E-02  0.1340288E+00
          2   -1    0    0  502    0  0.00000000000E+00  0.00000000000E+00  0.22856462599E+04  0.22856462599E+04  0.00000000000E+00 0. -1.
          1   -1    0    0  501    0 -0.00000000000E+00 -0.00000000000E+00 -0.23853837707E+03  0.23853837707E+03  0.00000000000E+00 0. -1.
         25    2    1    2    0    0  0.46528036713E+02 -0.75027078753E+02 -0.14416230156E+03  0.21024255382E+03  0.12500096600E+03 0.  0.
          2    1    1    2  501    0  0.32893604896E+02  0.64631625376E+02 -0.38926535068E+02  0.82307419922E+02  0.00000000000E+00 0. -1.
          1    1    1    2  502    0 -0.79421641609E+02  0.10395453377E+02  0.22301967195E+04  0.22316346632E+04  0.00000000000E+00 0. -1.
         22    1    3    3    0    0 -0.19679245037E+02 -0.70675951477E+00  0.13440079883E+02  0.23841307462E+02  0.00000000000E+00 0.  1.
         22    1    3    3    0    0  0.66207281750E+02 -0.74320319238E+02 -0.15760238144E+03  0.18640124636E+03  0.00000000000E+00 0.  1.
</event>
<event>
 7    1  0.5622879E-006  0.8231387E+02  0.7818608E-02  0.1479372E+00
          2   -1    0    0  502    0  0.00000000000E+00  0.00000000000E+00  0.11901249240E+04  0.11901249240E+04  0.00000000000E+00 0. -1.
          1   -1    0    0  501    0 -0.00000000000E+00 -0.00000000000E+00 -0.28637899037E+02  0.28637899037E+02  0.00000000000E+00 0. -1.
         25    2    1    2    0    0 -0.81044027005E+02  0.13373770097E+02  0.51882257047E+03  0.53995291158E+03  0.12500118020E+03 0.  0.
          2    1    1    2  501    0  0.82223523645E+02  0.10335335158E+02  0.78505758788E+02  0.11415200899E+03  0.00000000000E+00 0. -1.
          1    1    1    2  502    0 -0.11794966400E+01 -0.23709105256E+02  0.56415869566E+03  0.56465790243E+03  0.00000000000E+00 0. -1.
         22    1    3    3    0    0 -0.38757484997E+02 -0.23051932637E+02  0.48098912939E+02  0.65932083749E+02  0.00000000000E+00 0.  1.
         22    1    3    3    0    0 -0.42286542008E+02  0.36425702734E+02  0.47072365753E+03  0.47402082783E+03  0.00000000000E+00 0.  1.
</event>
<event>
 7    1  0.5622879E-006  0.7042313E+02  0.7818608E-02  0.1381240E+00
          2   -1    0    0  502    0  0.00000000000E+00  0.00000000000E+00  0.10329180198E+04  0.10329180198E+04  0.00000000000E+00 0. -1.
          1   -1    0    0  501    0 -0.00000000000E+00 -0.00000000000E+00 -0.20929744907E+03  0.20929744907E+03  0.00000000000E+00 0. -1.
         25    2    1    2    0    0  0.70394984161E+02 -0.13124897790E+02  0.42667394936E+03  0.45033667087E+03  0.12499896529E+03 0.  0.
          2    1    1    2  501    0 -0.55840494040E+02 -0.43448557809E+02 -0.18963068577E+03  0.20239993808E+03  0.00000000000E+00 0. -1.
          1    1    1    2  502    0 -0.14554490121E+02  0.56573455599E+02  0.58657730718E+03  0.58947885997E+03  0.00000000000E+00 0. -1.
         22    1    3    3    0    0 -0.21794217509E+02 -0.11351395777E+02  0.15733081299E+02  0.29178278738E+02  0.00000000000E+00 0. -1.
         22    1    3    3    0    0  0.92189201670E+02 -0.17735020127E+01  0.41094086806E+03  0.42115839213E+03  0.00000000000E+00 0. -1.
</event>
<event>
 7    1  0.5622879E-006  0.1235900E+03  0.7818608E-02  0.1434924E+00
          2   -1    0    0  502    0  0.00000000000E+00  0.00000000000E+00  0.28875385683E+03  0.28875385683E+03  0.00000000000E+00 0. -1.
          1   -1    0    0  501    0 -0.00000000000E+00 -0.00000000000E+00 -0.14936751106E+04  0.14936751106E+04  0.00000000000E+00 0. -1.
         25    2    1    2    0    0  0.90959119480E+02  0.62188380701E+02 -0.15858320312E+02  0.16738238496E+03  0.12499768142E+03 0.  0.
          2    1    1    2  501    0  0.21455827025E+02 -0.42124083704E+01 -0.13831826222E+04  0.13833554364E+04  0.00000000000E+00 0. -1.
          1    1    1    2  502    0 -0.11241494650E+03 -0.57975972330E+02  0.19411968882E+03  0.23169114604E+03  0.00000000000E+00 0. -1.
         22    1    3    3    0    0  0.88309168727E+02  0.27635386314E+02  0.40671260688E+02  0.10107608671E+03  0.00000000000E+00 0.  1.
         22    1    3    3    0    0  0.26499507529E+01  0.34552994387E+02 -0.56529581001E+02  0.66306298254E+02  0.00000000000E+00 0.  1.
</event>
<event>
 7    1  0.5622879E-006  0.1044061E+03  0.7818608E-02  0.1359474E+00
          2   -1    0    0  502    0  0.00000000000E+00  0.00000000000E+00  0.30017910839E+04  0.30017910839E+04  0.00000000000E+00 0. -1.
          1   -1    0    0  501    0 -0.00000000000E+00 -0.00000000000E+00 -0.15194203558E+04  0.15194203558E+04  0.00000000000E+00 0. -1.
         25    2    1    2    0    0  0.30044223595E+02  0.12541564268E+03 -0.66433635509E+02  0.19149816049E+03  0.12500551484E+03 0.  0.
          2    1    1    2  501    0  0.11588060988E+02 -0.10322555509E+03 -0.13883247880E+04  0.13922052706E+04  0.00000000000E+00 0. -1.
          1    1    1    2  502    0 -0.41632284583E+02 -0.22190087593E+02  0.29371291516E+04  0.29375080086E+04  0.00000000000E+00 0. -1.
         22    1    3    3    0    0  0.44827701678E+02  0.14544475294E+03 -0.67694730401E+02  0.16657213308E+03  0.00000000000E+00 0. -1.
         22    1    3    3    0    0 -0.14783478083E+02 -0.20029110256E+02  0.12610948919E+01  0.24926027405E+02  0.00000000000E+00 0. -1.
</event>
<event>
 7    1  0.5622879E-006  0.8084822E+02  0.7818608E-02  0.1426674E+00
          2   -1    0    0  502    0  0.00000000000E+00  0.00000000000E+00  0.47684259085E+03  0.47684259085E+03  0.00000000000E+00 0. -1.
          1   -1    0    0  501    0 -0.00000000000E+00 -0.00000000000E+00 -0.18835763305E+04  0.18835763305E+04  0.00000000000E+00 0. -1.
         25    2    1    2    0    0 -0.32689091464E+02  0.71563378732E+02 -0.47346447427E+03  0.49596771132E+03  0.12500187359E+03 0.  0.
          2    1    1    2  501    0  0.34331881839E+02  0.93400928029E+01 -0.13951157137E+04  0.13955693355E+04  0.00000000000E+00 0. -1.
          1    1    1    2  502    0 -0.16427903757E+01 -0.80903471535E+02  0.46184644832E+03  0.46888187456E+03  0.00000000000E+00 0. -1.
         22    1    3    3    0    0 -0.73976362653E+02  0.75757084437E+02 -0.32512776624E+03  0.34193523137E+03  0.00000000000E+00 0.  1.
         22    1    3    3    0    0  0.41287271189E+02 -0.41937057049E+01 -0.14833670803E+03  0.15403247995E+03  0.00000000000E+00 0.  1.
</event>
<event>
 7    1  0.5622879E-006  0.1263465E+03  0.7818608E-02  0.1362408E+00
          2   -1    0    0  502    0  0.00000000000E+00  0.00000000000E+00  0.17547151038E+04  0.17547151038E+04  0.00000000000E+00 0. -1.
          1   -1    0    0  501    0 -0.00000000000E+00 -0.00000000000E+00 -0.12102155874E+04  0.12102155874E+04  0.00000000000E+00 0. -1.
         25    2    1    2    0    0 -0.13126938057E+03 -0.18555212236E+02 -0.54168698264E+03  0.57151183754E+03  0.12500018844E+03 0.  0.
          2    1    1    2  501    0  0.12400002493E+03 -0.18780287282E+02 -0.64738960748E+03  0.65942551455E+03  0.00000000000E+00 0. -1.
          1    1    1    2  502    0  0.72693556355E+01  0.37335499519E+02  0.17335761065E+04  0.17339933391E+04  0.00000000000E+00 0. -1.
         22    1    3    3    0    0 -0.88937132466E+02 -0.71209920805E+02 -0.36399638714E+03  0.38141058743E+03  0.00000000000E+00 0. -1.
         22    1    3    3    0    0 -0.42332248103E+02  0.52654708568E+02 -0.17769059550E+03  0.19010125011E+03  0.00000000000E+00 0. -1.
</event>
<event>
 7    1  0.5622879E-006  0.1789712E+03  0.7818608E-02  0.1335300E+00
          2   -1    0    0  502    0  0.00000000000E+00  0.00000000000E+00  0.19763997189E+03  0.19763997189E+03  0.00000000000E+00 0. -1.
          1   -1    0    0  501    0 -0.00000000000E+00 -0.00000000000E+00 -0.15709147212E+04  0.15709147212E+04  0.00000000000E+00 0. -1.
         25    2    1    2    0    0  0.62953620350E+02 -0.14065622968E+03 -0.42149170695E+02  0.20285266313E+03  0.12500126833E+03 0.  0.
          2    1    1    2  501    0 -0.93824968225E+02  0.15454952696E+03 -0.14401951193E+04  0.14514994532E+04  0.00000000000E+00 0. -1.
          1    1    1    2  502    0  0.30871347874E+02 -0.13893297278E+02  0.10906954070E+03  0.11420257676E+03  0.00000000000E+00 0. -1.
         22    1    3    3    0    0  0.97586645024E+02 -0.88087977969E+02 -0.47245687801E+02  0.13969538348E+03  0.00000000000E+00 0. -1.
         22    1    3    3    0    0 -0.34633024674E+02 -0.52568251716E+02  0.50965171058E+01  0.63157279653E+02  0.00000000000E+00 0. -1.
</event>
<event>
 7    1  0.5622879E-006  0.1237821E+03  0.7818608E-02  0.1353830E+00
          2   -1    0    0  502    0  0.00000000000E+00  0.00000000000E+00  0.12713441322E+04  0.12713441322E+04  0.00000000000E+00 0. -1.
          1   -1    0    0  501    0 -0.00000000000E+00 -0.00000000000E+00 -0.53963048173E+02  0.53963048173E+02  0.00000000000E+00 0. -1.
         25    2    1    2    0    0 -0.11041188671E+03 -0.67824997298E+01  0.15795413433E+03  0.22980624089E+03  0.12499845107E+03 0.  0.
          2    1    1    2  501    0 -0.57630614456E+01 -0.41335137274E+02  0.16272775045E+02  0.44795196822E+02  0.00000000000E+00 0. -1.
          1    1    1    2  502    0  0.11617494815E+03  0.48117637003E+02  0.10431541747E+04  0.10507057427E+04  0.00000000000E+00 0. -1.
         22    1    3    3    0    0 -0.87398270125E+02 -0.21915513126E+02  0.17540887277E+03  0.19719792084E+03  0.00000000000E+00 0. -1.
         22    1    3    3    0    0 -0.23013616581E+02  0.15133013396E+02 -0.17454738439E+02  0.32608320051E+02  0.00000000000E+00 0. -1.
</event>
<event>
 7    1  0.5622879E-006  0.4783559E+02  0.7818608E-02  0.1543971E+00
          2   -1    0    0  502    0  0.00000000000E+00  0.00000000000E+00  0.16081902058E+04  0.16081902058E+04  0.00000000000E+00 0. -1.
          1   -1    0    0  501    0 -0.00000000000E+00 -0.00000000000E+00 -0.14900701082E+04  0.14900701082E+04  0.00000000000E+00 0. -1.
         25    2    1    2    0    0 -0.12266483551E+02  0.18337281816E+02  0.64266479708E+02  0.14227440099E+03  0.12500040895E+03 0.  0.
          2    1    1    2  501    0 -0.19524657429E+02  0.17747422317E+02 -0.14505619381E+04  0.14508018885E+04  0.00000000000E+00 0. -1.
          1    1    1    2  502    0  0.31791140980E+02 -0.36084704132E+02  0.15044155560E+04  0.15051840245E+04  0.00000000000E+00 0. -1.
         22    1    3    3    0    0 -0.39500248885E+02  0.43119569931E+02  0.82549738477E+02  0.10116336439E+03  0.00000000000E+00 0.  1.
         22    1    3    3    0    0  0.27233765334E+02 -0.24782288115E+02 -0.18283258769E+02  0.41111036592E+02  0.00000000000E+00 0.  1.
</event>
<event>
 7    1  0.5622879E-006  0.1139644E+03  0.7818608E-02  0.1266172E+00
          2   -1    0    0  502    0  0.00000000000E+00  0.00000000000E+00  0.16163714283E+04  0.16163714283E+04  0.00000000000E+00 0. -1.
          1   -1    0    0  501    0 -0.00000000000E+00 -0.00000000000E+00 -0.52197883721E+03  0.52197883721E+03  0.00000000000E+00 0. -1.
         25    2    1    2    0    0 -0.89370150911E+02  0.18936120694E+03  0.18264771673E+03  0.30467859622E+03  0.12499667196E+03 0.  0.
          2    1    1    2  501    0  0.61695047888E+02 -0.92729279227E+02 -0.45235935118E+03  0.46586905967E+03  0.00000000000E+00 0. -1.
          1    1    1    2  502    0  0.27675103023E+02 -0.96631927710E+02  0.13641042256E+04  0.13678026097E+04  0.00000000000E+00 0. -1.
         22    1    3    3    0    0 -0.10086365724E+03  0.18941412818E+03  0.13023968363E+03  0.25102502763E+03  0.00000000000E+00 0. -1.
         22    1    3    3    0    0  0.11493506326E+02 -0.52921243435E-01  0.52408033104E+02  0.53653568588E+02  0.00000000000E+00 0. -1.
</event>
<event>
 7    1  0.5622879E-006  0.8057885E+02  0.7818608E-02  0.1391548E+00
          2   -1    0    0  502    0  0.00000000000E+00  0.00000000000E+00  0.11899746532E+04  0.11899746532E+04  0.00000000000E+00 0. -1.
          1   -1    0    0  501    0 -0.00000000000E+00 -0.00000000000E+00 -0.73054419820E+03  0.73054419820E+03  0.00000000000E+00 0. -1.
         25    2    1    2    0    0  0.36255147874E+02  0.91797166921E+02  0.22373977867E+02  0.16083026369E+03  0.12499849291E+03 0.  0.
          2    1    1    2  501    0 -0.61278866515E+02 -0.52043376703E+02 -0.65836737590E+03  0.66325802988E+03  0.00000000000E+00 0. -1.
          1    1    1    2  502    0  0.25023718641E+02 -0.39753790219E+02  0.10954238530E+04  0.10964305578E+04  0.00000000000E+00 0. -1.
         22    1    3    3    0    0 -0.57159622158E+01  0.92681160034E+02 -0.26342261186E+02  0.96521419248E+02  0.00000000000E+00 0. -1.
         22    1    3    3    0    0  0.41971110090E+02 -0.88399311316E+00  0.48716239053E+02  0.64308844442E+02  0.00000000000E+00 0. -1.
</event>
<event>
 7    1  0.5622879E-006  0.6580250E+02  0.7818608E-02  0.1461111E+00
          2   -1    0    0  502    0  0.00000000000E+00  0.00000000000E+00  0.15941377380E+03  0.15941377380E+03  0.00000000000E+00 0. -1.
          1   -1    0    0  501    0 -0.00000000000E+00 -0.00000000000E+00 -0.15245356607E+03  0.15245356607E+03  0.00000000000E+00 0. -1.
         25    2    1    2    0    0  0.74561495332E+02 -0.40486335246E+02 -0.68904648129E+02  0.16604564186E+03  0.12499897887E+03 0.  0.
          2    1    1    2  501    0 -0.40732298364E+02  0.39512183052E+02 -0.61677077604E+01  0.57082163226E+02  0.00000000000E+00 0. -1.
          1    1    1    2  502    0 -0.33829196968E+02  0.97415219366E+00  0.82032563624E+02  0.88739534789E+02  0.00000000000E+00 0. -1.
         22    1    3    3    0    0  0.92703376370E+02  0.11904838850E+02 -0.56555696040E+02  0.10924370889E+03  0.00000000000E+00 0.  1.
         22    1    3    3    0    0 -0.18141881037E+02 -0.52391174096E+02 -0.12348952089E+02  0.56801932964E+02  0.00000000000E+00 0.  1.
</event>
<event>
 7    1  0.5622879E-006  0.5439486E+02  0.7818608E-02  0.1478869E+00
          2   -1    0    0  502    0  0.00000000000E+00  0.00000000000E+00  0.26042883019E+03  0.26042883019E+03  0.00000000000E+00 0. -1.
          1   -1    0    0  501    0 -0.00000000000E+00 -0.00000000000E+00 -0.31106004963E+03  0.31106004963E+03  0.00000000000E+00 0. -1.
         25    2    1    2    0    0 -0.50991269567E+02  0.86881882304E+01 -0.87933062388E+02  0.16134472191E+03  0.12499720653E+03 0.  0.
          2    1    1    2  501    0  0.34406310087E+01 -0.35886207893E+02 -0.18126599987E+03  0.18481618048E+03  0.00000000000E+00 0. -1.
          1    1    1    2  502    0  0.47550638558E+02  0.27198019662E+02  0.21856784282E+03  0.22532797744E+03  0.00000000000E+00 0. -1.
         22    1    3    3    0    0  0.32186656077E+02 -0.28051264205E+02 -0.40222732487E+02  0.58657671806E+02  0.00000000000E+00 0.  1.
         22    1    3    3    0    0 -0.83177925644E+02  0.36739452435E+02 -0.47710329901E+02  0.10268705010E+03  0.00000000000E+00 0.  1.
</event>
<event>
 7    1  0.5622879E-006  0.6655236E+02  0.7818608E-02  0.1400547E+00
          2   -1    0    0  502    0  0.00000000000E+00  0.00000000000E+00  0.50224315570E+03  0.50224315570E+03  0.00000000000E+00 0. -1.
          1   -1    0    0  501    0 -0.00000000000E+00 -0.00000000000E+00 -0.46706128861E+03  0.46706128861E+03  0.00000000000E+00 0. -1.
         25    2    1    2    0    0  0.43296795686E+02  0.98661712429E+02 -0.19355549157E+03  0.25436839865E+03  0.12502322944E+03 0.  0.
          2    1    1    2  501    0 -0.41539411827E+02 -0.45749834674E+02 -0.23765047261E+03  0.24555308436E+03  0.00000000000E+00 0. -1.
          1    1    1    2  502    0 -0.17573838587E+01 -0.52911877755E+02  0.46638783127E+03  0.46938296130E+03  0.00000000000E+00 0. -1.
         22    1    3    3    0    0  0.26230094370E+02  0.11946589631E+03 -0.10301279067E+03  0.15991170462E+03  0.00000000000E+00 0.  1.
         22    1    3    3    0    0  0.17066701315E+02 -0.20804183885E+02 -0.90542700904E+02  0.94456694035E+02  0.00000000000E+00 0.  1.
</event>
<event>
 7    1  0.5622879E-006  0.1055083E+03  0.7818608E-02  0.1332359E+00
          2   -1    0    0  502    0  0.00000000000E+00  0.00000000000E+00  0.19227761718E+03  0.19227761718E+03  0.00000000000E+00 0. -1.
          1   -1    0    0  501    0 -0.00000000000E+00 -0.00000000000E+00 -0.20506213678E+04  0.20506213678E+04  0.00000000000E+00 0. -1.
         25    2    1    2    0    0 -0.14280389928E+03  0.77858385757E+02 -0.14007239633E+03  0.24839508467E+03  0.12499983998E+03 0.  0.
          2    1    1    2  501    0  0.93249911426E+02 -0.45982209420E+02 -0.18485756893E+04  0.18514972289E+04  0.00000000000E+00 0. -1.
          1    1    1    2  502    0  0.49553987849E+02 -0.31876176337E+02  0.13030433504E+03  0.14300667138E+03  0.00000000000E+00 0. -1.
         22    1    3    3    0    0 -0.43475270345E+02 -0.34161966319E+02 -0.41694216502E+02  0.69249886383E+02  0.00000000000E+00 0.  1.
         22    1    3    3    0    0 -0.99328628930E+02  0.11202035208E+03 -0.98378179824E+02  0.17914519829E+03  0.00000000000E+00 0.  1.
</event>
<event>
 7    1  0.5622879E-006  0.8948058E+02  0.7818608E-02  0.1310653E+00
          2   -1    0    0  502    0  0.00000000000E+00  0.00000000000E+00  0.29328753873E+03  0.29328753873E+03  0.00000000000E+00 0. -1.
          1   -1    0    0  501    0 -0.00000000000E+00 -0.00000000000E+00 -0.57949923398E+03  0.57949923398E+03  0.00000000000E+00 0. -1.
         25    2    1    2    0    0  0.13774168947E+03  0.10137974894E+03  0.80823959430E+02  0.22673396065E+03  0.12500059992E+03 0.  0.
          2    1    1    2  501    0 -0.74795867927E+02 -0.45297191464E+02 -0.48956998873E+03  0.49731783728E+03  0.00000000000E+00 0. -1.
          1    1    1    2  502    0 -0.62945821541E+02 -0.56082557479E+02  0.12253433404E+03  0.14873497478E+03  0.00000000000E+00 0. -1.
         22    1    3    3    0    0  0.14588417902E+03  0.76072564192E+02  0.27034684237E+02  0.16673362847E+03  0.00000000000E+00 0. -1.
         22    1    3    3    0    0 -0.81424895499E+01  0.25307184750E+02  0.53789275194E+02  0.60000332182E+02  0.00000000000E+00 0. -1.
</event>
<event>
 7    1  0.5622879E-006  0.7129979E+02  0.7818608E-02  0.1387800E+00
          2   -1    0    0  502    0  0.00000000000E+00  0.00000000000E+00  0.21076350317E+04  0.21076350317E+04  0.00000000000E+00 0. -1.
          1   -1    0    0  501    0 -0.00000000000E+00 -0.00000000000E+00 -0.30756412014E+03  0.30756412014E+03  0.00000000000E+00 0. -1.
         25    2    1    2    0    0  0.86603234467E+02 -0.61349666425E+02  0.81521020056E+02  0.18311035762E+03  0.12497929655E+03 0.  0.
          2    1    1    2  501    0 -0.31911349287E+02  0.62808431473E+02 -0.25155013879E+03  0.26122922042E+03  0.00000000000E+00 0. -1.
          1    1    1    2  502    0 -0.54691885180E+02 -0.14587650486E+01  0.19701000303E+04  0.19708595738E+04  0.00000000000E+00 0. -1.
         22    1    3    3    0    0  0.69263711508E+01 -0.73397259748E+02  0.82265778452E+01  0.74180920315E+02  0.00000000000E+00 0.  1.
         22    1    3    3    0    0  0.79676863317E+02  0.12047593323E+02  0.73294442211E+02  0.10892943731E+03  0.00000000000E+00 0.  1.
</event>
<event>
 7    1  0.5622879E-006  0.9431244E+02  0.7818608E-02  0.1432299E+00
          2   -1    0    0  502    0  0.00000000000E+00  0.00000000000E+00  0.39237516584E+03  0.39237516584E+03  0.00000000000E+00 0. -1.
          1   -1    0    0  501    0 -0.00000000000E+00 -0.00000000000E+00 -0.23754764703E+03  0.23754764703E+03  0.00000000000E+00 0. -1.
         25    2    1    2    0    0 -0.82267477872E+02  0.12077686782E+02 -0.66074187742E+01  0.15026171328E+03  0.12498446328E+03 0.  0.
          2    1    1    2  501    0  0.88311892582E+02 -0.40671900828E+02 -0.14349593033E+03  0.17333284717E+03  0.00000000000E+00 0. -1.
          1    1    1    2  502    0 -0.60444147100E+01  0.28594214046E+02  0.30493086791E+03  0.30632825242E+03  0.00000000000E+00 0. -1.
         22    1    3    3    0    0 -0.11576084867E+03  0.99571637763E+01 -0.73042286660E+00  0.11619058788E+03  0.00000000000E+00 0. -1.
         22    1    3    3    0    0  0.33493370793E+02  0.21205230057E+01 -0.58769959076E+01  0.34071125397E+02  0.00000000000E+00 0. -1.
</event>
<event>
 7    1  0.5622879E-006  0.1089028E+03  0.7818608E-02  0.1353775E+00
          2   -1    0    0  502    0  0.00000000000E+00  0.00000000000E+00  0.23915810754E+03  0.23915810754E+03  0.00000000000E+00 0. -1.
          1   -1    0    0  501    0 -0.00000000000E+00 -0.00000000000E+00 -0.33567971479E+03  0.33567971479E+03  0.00000000000E+00 0. -1.
         25    2    1    2    0    0  0.47939460835E+02 -0.55852243887E+02 -0.16223132004E+03  0.21762853635E+03  0.12500205431E+03 0.  0.
          2    1    1    2  501    0 -0.42814369961E+01 -0.47265776828E+02 -0.12630543265E+03  0.13492756086E+03  0.00000000000E+00 0. -1.
          1    1    1    2  502    0 -0.43658023839E+02  0.10311802072E+03  0.19201514545E+03  0.22228172512E+03  0.00000000000E+00 0. -1.
         22    1    3    3    0    0 -0.10466301134E+02  0.34987061837E+02 -0.49523208989E+02  0.61531993174E+02  0.00000000000E+00 0. -1.
         22    1    3    3    0    0  0.58405761969E+02 -0.90839305725E+02 -0.11270811105E+03  0.15609654318E+03  0.00000000000E+00 0. -1.
</event>
<event>
 7    1  0.5622879E-006  0.1223171E+03  0.7818608E-02  0.1398031E+00
          2   -1    0    0  502    0  0.00000000000E+00  0.00000000000E+00  0.16193957906E+03  0.16193957906E+03  0.00000000000E+00 0. -1.
          1   -1    0    0  501    0 -0.00000000000E+00 -0.00000000000E+00 -0.96833375494E+03  0.96833375494E+03  0.00000000000E+00 0. -1.
         25    2    1    2    0    0 -0.90837574729E+02 -0.45082883475E+02 -0.29545495160E+03  0.33645592629E+03  0.12500012217E+03 0.  0.
          2    1    1    2  501    0 -0.98631883384E+01 -0.27680467740E+02 -0.62468382722E+03  0.62537458756E+03  0.00000000000E+00 0. -1.
          1    1    1    2  502    0  0.10070076307E+03  0.72763351215E+02  0.11374460294E+03  0.16844282015E+03  0.00000000000E+00 0. -1.
         22    1    3    3    0    0  0.15814141026E+02  0.76270789470E+01  0.41704045582E+00  0.17562269568E+02  0.00000000000E+00 0.  1.
         22    1    3    3    0    0 -0.10665171575E+03 -0.52709962422E+02 -0.29587199206E+03  0.31889365672E+03  0.00000000000E+00 0.  1.
</event>
<event>
 7    1  0.5622879E-006  0.6846750E+02  0.7818608E-02  0.1515488E+00
          2   -1    0    0  502    0  0.00000000000E+00  0.00000000000E+00  0.19398928061E+04  0.19398928061E+04  0.00000000000E+00 0. -1.
          1   -1    0    0  501    0 -0.00000000000E+00 -0.00000000000E+00 -0.70582192790E+02  0.70582192790E+02  0.00000000000E+00 0. -1.
         25    2    1    2    0    0 -0.18091976004E+02 -0.85553019094E+02  0.81891427635E+03  0.83300437839E+03  0.12501625389E+03 0.  0.
          2    1    1    2  501    0 -0.91760231276E-01  0.22246708185E+02 -0.60584013798E+02  0.64539500872E+02  0.00000000000E+00 0. -1.
          1    1    1    2  502    0  0.18183736235E+02  0.63306310909E+02  0.11109803508E+04  0.11129311196E+04  0.00000000000E+00 0. -1.
         22    1    3    3    0    0 -0.35090535579E+01 -0.11547319173E+03  0.70207808484E+03  0.71151950689E+03  0.00000000000E+00 0.  1.
         22    1    3    3    0    0 -0.14582922446E+02  0.29920172641E+02  0.11683619151E+03  0.12148487151E+03  0.00000000000E+00 0.  1.
</event>
<event>
 7    1  0.5622879E-006  0.3721987E+02  0.7818608E-02  0.1604982E+00
          2   -1    0    0  502    0  0.00000000000E+00  0.00000000000E+00  0.12736302854E+04  0.12736302854E+04  0.00000000000E+00 0. -1.
          1   -1    0    0  501    0 -0.00000000000E+00 -0.00000000000E+00 -0.25739213640E+02  0.25739213640E+02  0.00000000000E+00 0. -1.
         25    2    1    2    0    0 -0.35815936116E+00  0.58710202512E+02  0.66523782419E+03  0.67942179610E+03  0.12500239249E+03 0.  0.
          2    1    1    2  501    0  0.17785631583E+01 -0.23131874523E+02 -0.10684707940E+02  0.25542315666E+02  0.00000000000E+00 0. -1.
          1    1    1    2  502    0 -0.14204037971E+01 -0.35578327989E+02  0.59333795555E+03  0.59440538731E+03  0.00000000000E+00 0. -1.
         22    1    3    3    0    0  0.32389510763E+02  0.87708685698E+02  0.48709876388E+03  0.49599102787E+03  0.00000000000E+00 0.  1.
         22    1    3    3    0    0 -0.32747670124E+02 -0.28998483186E+02  0.17813906030E+03  0.18343076822E+03  0.00000000000E+00 0.  1.
</event>
<event>
 7    1  0.5622879E-006  0.4054316E+02  0.7818608E-02  0.1539862E+00
          2   -1    0    0  502    0  0.00000000000E+00  0.00000000000E+00  0.20862680367E+04  0.20862680367E+04  0.00000000000E+00 0. -1.
          1   -1    0    0  501    0 -0.00000000000E+00 -0.00000000000E+00 -0.14932887172E+03  0.14932887172E+03  0.00000000000E+00 0. -1.
         25    2    1    2    0    0  0.86274135286E+01  0.17300503475E+01  0.59746797471E+03  0.61046863484E+03  0.12500619178E+03 0.  0.
          2    1    1    2  501    0 -0.40561231613E+02 -0.33090625050E+01 -0.13975341518E+03  0.14555816865E+03  0.00000000000E+00 0. -1.
          1    1    1    2  502    0  0.31933818085E+02  0.15790121574E+01  0.14792246055E+04  0.14795701049E+04  0.00000000000E+00 0. -1.
         22    1    3    3    0    0 -0.25968222224E+02  0.42461192601E+02  0.11849742557E+03  0.12852603359E+03  0.00000000000E+00 0.  1.
         22    1    3    3    0    0  0.34595635752E+02 -0.40731142254E+02  0.47897054914E+03  0.48194260125E+03  0.00000000000E+00 0.  1.
</event>
<event>
 7    1  0.5622879E-006  0.8698091E+02  0.7818608E-02  0.1363391E+00
          2   -1    0    0  502    0  0.00000000000E+00  0.00000000000E+00  0.17721258932E+04  0.17721258932E+04  0.00000000000E+00 0. -1.
          1   -1    0    0  501    0 -0.00000000000E+00 -0.00000000000E+00 -0.25241439785E+02  0.25241439785E+02  0.00000000000E+00 0. -1.
         25    2    1    2    0    0 -0.10540982083E+03  0.29895835027E+02  0.55582121373E+03  0.58014439464E+03  0.12500122286E+03 0.  0.
          2    1    1    2  501    0  0.45206811449E+02  0.30971172729E+02  0.53975612258E+02  0.76917072619E+02  0.00000000000E+00 0. -1.
          1    1    1    2  502    0  0.60203009381E+02 -0.60867007756E+02  0.11370876275E+04  0.11403058658E+04  0.00000000000E+00 0. -1.
         22    1    3    3    0    0  0.66994735373E+01  0.39498570686E+02  0.27028231644E+03  0.27323533924E+03  0.00000000000E+00 0.  1.
         22    1    3    3    0    0 -0.11210929437E+03 -0.96027356593E+01  0.28553889730E+03  0.30690905540E+03  0.00000000000E+00 0.  1.
</event>
<event>
 7    1  0.5622879E-006  0.1596115E+03  0.7818608E-02  0.1275107E+00
          2   -1    0    0  502    0  0.00000000000E+00  0.00000000000E+00  0.31797371009E+04  0.31797371009E+04  0.00000000000E+00 0. -1.
          1   -1    0    0  501    0 -0.00000000000E+00 -0.00000000000E+00 -0.22872619223E+03  0.22872619223E+03  0.00000000000E+00 0. -1.
         25    2    1    2    0    0  0.15054505486E+03  0.48090657961E+02  0.89502761966E+03  0.91742838300E+03  0.12499549213E+03 0.  0.
          2    1    1    2  501    0 -0.15916583725E+03  0.17177451454E+02 -0.18752247880E+03  0.24656339680E+03  0.00000000000E+00 0. -1.
          1    1    1    2  502    0  0.86207823865E+01 -0.65268109415E+02  0.22435057678E+04  0.22444715133E+04  0.00000000000E+00 0. -1.
         22    1    3    3    0    0  0.15796995369E+02  0.27127225276E+02  0.47027524893E+03  0.47132180214E+03  0.00000000000E+00 0. -1.
         22    1    3    3    0    0  0.13474805950E+03  0.20963432685E+02  0.42475237073E+03  0.44610658086E+03  0.00000000000E+00 0. -1.
</event>
<event>
 7    1  0.5622879E-006  0.1362856E+03  0.7818608E-02  0.1223695E+00
          2   -1    0    0  502    0  0.00000000000E+00  0.00000000000E+00  0.12201254127E+04  0.12201254127E+04  0.00000000000E+00 0. -1.
          1   -1    0    0  501    0 -0.00000000000E+00 -0.00000000000E+00 -0.30656652992E+03  0.30656652992E+03  0.00000000000E+00 0. -1.
         25    2    1    2    0    0 -0.41852834956E+02 -0.50788657056E+02  0.15860366791E+02  0.14215307846E+03  0.12499919600E+03 0.  0.
          2    1    1    2  501    0 -0.50002375343E+02  0.15146832288E+03 -0.21266824740E+03  0.26583956408E+03  0.00000000000E+00 0. -1.
          1    1    1    2  502    0  0.91855210299E+02 -0.10067966583E+03  0.11103667634E+04  0.11186993001E+04  0.00000000000E+00 0. -1.
         22    1    3    3    0    0 -0.28654132905E+02  0.22037555429E+02 -0.36593835712E+02  0.51437554315E+02  0.00000000000E+00 0.  1.
         22    1    3    3    0    0 -0.13198702051E+02 -0.72826212485E+02  0.52454202502E+02  0.90715524145E+02  0.00000000000E+00 0.  1.
</event>
<event>
 7    1  0.5622879E-006  0.1230885E+03  0.7818608E-02  0.1350586E+00
          2   -1    0    0  502    0  0.00000000000E+00  0.00000000000E+00  0.13543708464E+04  0.13543708464E+04  0.00000000000E+00 0. -1.
          1   -1    0    0  501    0 -0.00000000000E+00 -0.00000000000E+00 -0.34820334566E+03  0.34820334566E+03  0.00000000000E+00 0. -1.
         25    2    1    2    0    0  0.15341118682E+03  0.39534038245E+02  0.99004807532E+03  0.10104050503E+04  0.12500096757E+03 0.  0.
          2    1    1    2  501    0 -0.12234393685E+03 -0.95968288842E+01 -0.32548476407E+03  0.34785121769E+03  0.00000000000E+00 0. -1.
          1    1    1    2  502    0 -0.31067249974E+02 -0.29937209360E+02  0.34160418944E+03  0.34431792397E+03  0.00000000000E+00 0. -1.
         22    1    3    3    0    0 -0.72824589355E+01 -0.69380294119E+01  0.49595298463E+01  0.11214606394E+02  0.00000000000E+00 0.  1.
         22    1    3    3    0    0  0.16069364576E+03  0.46472067657E+02  0.98508854548E+03  0.99919044395E+03  0.00000000000E+00 0.  1.
</event>
<event>
 7    1  0.5622879E-006  0.6986579E+02  0.7818608E-02  0.1495513E+00
          2   -1    0    0  502    0  0.00000000000E+00  0.00000000000E+00  0.31928320724E+04  0.31928320724E+04  0.00000000000E+00 0. -1.
          1   -1    0    0  501    0 -0.00000000000E+00 -0.00000000000E+00 -0.60775903487E+02  0.60775903487E+02  0.00000000000E+00 0. -1.
         25    2    1    2    0    0  0.59273080516E+02  0.32857138981E+02  0.17856895550E+04  0.17913417089E+04  0.12500016540E+03 0.  0.
          2    1    1    2  501    0 -0.69231808173E+02 -0.99442121622E+01 -0.36691680136E+02  0.78982339859E+02  0.00000000000E+00 0. -1.
          1    1    1    2  502    0  0.99587276563E+01 -0.22912926819E+02  0.13830582941E+04  0.13832839272E+04  0.00000000000E+00 0. -1.
         22    1    3    3    0    0  0.33166063103E+02 -0.47361926275E+02  0.71603348858E+03  0.71836418102E+03  0.00000000000E+00 0.  1.
         22    1    3    3    0    0  0.26107017413E+02  0.80219065256E+02  0.10696560665E+04  0.10729775279E+04  0.00000000000E+00 0.  1.
</event>
<event>
 7    1  0.5622879E-006  0.1208757E+03  0.7818608E-02  0.1429312E+00
          2   -1    0    0  502    0  0.00000000000E+00  0.00000000000E+00  0.54725951613E+03  0.54725951613E+03  0.00000000000E+00 0. -1.
          1   -1    0    0  501    0 -0.00000000000E+00 -0.00000000000E+00 -0.88115583564E+03  0.88115583564E+03  0.00000000000E+00 0. -1.
         25    2    1    2    0    0 -0.93240038510E+02 -0.64606539892E+02  0.26616570440E+02  0.17088339453E+03  0.12499993170E+03 0.  0.
          2    1    1    2  501    0  0.11083770821E+03  0.49297064096E+02 -0.80416711904E+03  0.81326499582E+03  0.00000000000E+00 0. -1.
          1    1    1    2  502    0 -0.17597669696E+02  0.15309475796E+02  0.44365422908E+03  0.44426696142E+03  0.00000000000E+00 0. -1.
         22    1    3    3    0    0 -0.50765694731E+02  0.33513151270E+02  0.18848290579E+02  0.63683162039E+02  0.00000000000E+00 0. -1.
         22    1    3    3    0    0 -0.42474343778E+02 -0.98119691162E+02  0.77682798610E+01  0.10720023249E+03  0.00000000000E+00 0. -1.
</event>
<event>
 7    1  0.5622879E-006  0.1063647E+03  0.7818608E-02  0.1300112E+00
          2   -1    0    0  502    0  0.00000000000E+00  0.00000000000E+00  0.20442173542E+04  0.20442173542E+04  0.00000000000E+00 0. -1.
          1   -1    0    0  501    0 -0.00000000000E+00 -0.00000000000E+00 -0.15326388106E+03  0.15326388106E+03  0.00000000000E+00 0. -1.
         25    2    1    2    0    0  0.36969689307E+02 -0.19797930641E+02  0.22159136721E+03  0.25784912952E+03  0.12499889434E+03 0.  0.
          2    1    1    2  501    0 -0.11317781666E+03  0.27306978403E+01 -0.11041663281E+03  0.15814078441E+03  0.00000000000E+00 0. -1.
          1    1    1    2  502    0  0.76208127354E+02  0.17067232801E+02  0.17797787387E+04  0.17814913213E+04  0.00000000000E+00 0. -1.
         22    1    3    3    0    0  0.63079432829E+02  0.33555738736E+02  0.10508450572E+03  0.12707382024E+03  0.00000000000E+00 0.  1.
         22    1    3    3    0    0 -0.26109743522E+02 -0.53353669377E+02  0.11650686150E+03  0.13077530929E+03  0.00000000000E+00 0.  1.
</event>
<event>
 7    1  0.5622879E-006  0.4424228E+02  0.7818608E-02  0.1552298E+00
          2   -1    0    0  502    0  0.00000000000E+00  0.00000000000E+00  0.19983134262E+03  0.19983134262E+03  0.00000000000E+00 0. -1.
          1   -1    0    0  501    0 -0.00000000000E+00 -0.00000000000E+00 -0.44063749599E+03  0.44063749599E+03  0.00000000000E+00 0. -1.
         25    2    1    2    0    0 -0.10296765462E+02  0.65682223710E+02 -0.23638182668E+03  0.27553861161E+03  0.12499992246E+03 0.  0.
          2    1    1    2  501    0 -0.20828535714E+01 -0.41643544673E+02 -0.18128314808E+03  0.18601640484E+03  0.00000000000E+00 0. -1.
          1    1    1    2  502    0  0.12379619033E+02 -0.24038679036E+02  0.17685882138E+03  0.17891382215E+03  0.00000000000E+00 0. -1.
         22    1    3    3    0    0 -0.19674603401E+02  0.64257668683E+02 -0.25003796970E+03  0.25891142172E+03  0.00000000000E+00 0.  1.
         22    1    3    3    0    0  0.93778379388E+01  0.14245550271E+01  0.13656143024E+02  0.16627189893E+02  0.00000000000E+00 0.  1.
</event>
<event>
 7    1  0.5622879E-006  0.9081947E+02  0.7818608E-02  0.1352088E+00
          2   -1    0    0  502    0  0.00000000000E+00  0.00000000000E+00  0.44543266754E+03  0.44543266754E+03  0.00000000000E+00 0. -1.
          1   -1    0    0  501    0 -0.00000000000E+00 -0.00000000000E+00 -0.11453825326E+03  0.11453825326E+03  0.00000000000E+00 0. -1.
         25    2    1    2    0    0  0.70036423082E+02  0.40126972306E+02  0.32360349055E+02  0.15227371282E+03  0.12499926784E+03 0.  0.
          2    1    1    2  501    0 -0.10142263229E+03  0.83260503452E+01 -0.18852573766E+01  0.10178127358E+03  0.00000000000E+00 0. -1.
          1    1    1    2  502    0  0.31386209212E+02 -0.48453022651E+02  0.30041932259E+03  0.30591593440E+03  0.00000000000E+00 0. -1.
         22    1    3    3    0    0  0.23075195980E+02  0.82178176760E+02  0.24130767001E+02  0.88701811262E+02  0.00000000000E+00 0.  1.
         22    1    3    3    0    0  0.46961227101E+02 -0.42051204454E+02  0.82295820542E+01  0.63571901558E+02  0.00000000000E+00 0.  1.
</event>
<event>
 7    1  0.5622879E-006  0.1281556E+03  0.7818608E-02  0.1359774E+00
          2   -1    0    0  502    0  0.00000000000E+00  0.00000000000E+00  0.13256154827E+04  0.13256154827E+04  0.00000000000E+00 0. -1.
          1   -1    0    0  501    0 -0.00000000000E+00 -0.00000000000E+00 -0.40581794471E+03  0.40581794471E+03  0.00000000000E+00 0. -1.
         25    2    1    2    0    0  0.13808310527E+03 -0.75020625845E+02  0.44717499922E+03  0.49018916423E+03  0.12499959413E+03 0.  0.
          2    1    1    2  501    0 -0.12086033285E+03  0.40769504392E+02 -0.37328126714E+03  0.39447214977E+03  0.00000000000E+00 0. -1.
          1    1    1    2  502    0 -0.17222772428E+02  0.34251121453E+02  0.84590380587E+03  0.84677211338E+03  0.00000000000E+00 0. -1.
         22    1    3    3    0    0 -0.70104203483E+00 -0.20308342769E+02  0.16908140970E+01  0.20390662036E+02  0.00000000000E+00 0. -1.
         22    1    3    3    0    0  0.13878414731E+03 -0.54712283076E+02  0.44548418512E+03  0.46979850219E+03  0.00000000000E+00 0. -1.
</event>
<event>
 7    1  0.5622879E-006  0.2822552E+02  0.7818608E-02  0.1667102E+00
          2   -1    0    0  502    0  0.00000000000E+00  0.00000000000E+00  0.11312003232E+04  0.11312003232E+04  0.00000000000E+00 0. -1.
          1   -1    0    0  501    0 -0.00000000000E+00 -0.00000000000E+00 -0.90243559003E+02  0.90243559003E+02  0.00000000000E+00 0. -1.
         25    2    1    2    0    0  0.13193150615E+02 -0.47433409909E+02  0.14965248259E+03  0.20110877572E+03  0.12499954612E+03 0.  0.
          2    1    1    2  501    0 -0.34244063910E+01  0.21130409190E+02 -0.62527790186E+02  0.66090432721E+02  0.00000000000E+00 0. -1.
          1    1    1    2  502    0 -0.97687442241E+01  0.26303000719E+02  0.95383207179E+03  0.95424467375E+03  0.00000000000E+00 0. -1.
         22    1    3    3    0    0 -0.51003959189E+02  0.51371479145E+01  0.61105090369E+02  0.79759803226E+02  0.00000000000E+00 0. -1.
         22    1    3    3    0    0  0.64197109804E+02 -0.52570557823E+02  0.88547392217E+02  0.12134897249E+03  0.00000000000E+00 0. -1.
</event>
<event>
 7    1  0.5622879E-006  0.1122197E+03  0.7818608E-02  0.1374551E+00
          2   -1    0    0  502    0  0.00000000000E+00  0.00000000000E+00  0.38372500198E+03  0.38372500198E+03  0.00000000000E+00 0. -1.
          1   -1    0    0  501    0 -0.00000000000E+00 -0.00000000000E+00 -0.43754105308E+03  0.43754105308E+03  0.00000000000E+00 0. -1.
         25    2    1    2    0    0  0.78352111555E+02 -0.21435443005E+02  0.42809907688E+02  0.15509870119E+03  0.12499754923E+03 0.  0.
          2    1    1    2  501    0  0.33779079793E+02 -0.18927430131E+02 -0.36786749716E+03  0.36989967466E+03  0.00000000000E+00 0. -1.
          1    1    1    2  502    0 -0.11213119135E+03  0.40362873137E+02  0.27124153838E+03  0.29626767921E+03  0.00000000000E+00 0. -1.
         22    1    3    3    0    0  0.45704150438E+02 -0.74121030633E+02  0.26023729524E+02  0.90884712948E+02  0.00000000000E+00 0.  1.
         22    1    3    3    0    0  0.32647961117E+02  0.52685587628E+02  0.16786178165E+02  0.64213988244E+02  0.00000000000E+00 0.  1.
</event>
<event>
 7    1  0.5622879E-006  0.6080809E+02  0.7818608E-02  0.1417710E+00
          2   -1    0    0  502    0  0.00000000000E+00  0.00000000000E+00  0.17744491952E+03  0.17744491952E+03  0.00000000000E+00 0. -1.
          1   -1    0    0  501    0 -0.00000000000E+00 -0.00000000000E+00 -0.17400257864E+04  0.17400257864E+04  0.00000000000E+00 0. -1.
         25    2    1    2    0    0  0.59243176440E+01 -0.21787643353E+02  0.39271899206E+02  0.13298625194E+03  0.12503304441E+03 0.  0.
          2    1    1    2  501    0  0.10453355672E+01 -0.50659632141E+02 -0.16782228738E+04  0.16789876429E+04  0.00000000000E+00 0. -1.
          1    1    1    2  502    0 -0.69696532112E+01  0.72447275493E+02  0.76370107698E+02  0.10549681105E+03  0.00000000000E+00 0. -1.
         22    1    3    3    0    0 -0.39394213574E+02 -0.46456710482E+02 -0.99006426236E+01  0.61710232023E+02  0.00000000000E+00 0.  1.
         22    1    3    3    0    0  0.45318531218E+02  0.24669067130E+02  0.49172541830E+02  0.71276019914E+02  0.00000000000E+00 0.  1.
</event>
<event>
 7    1  0.5622879E-006  0.2856712E+02  0.7818608E-02  0.1621959E+00
          2   -1    0    0  502    0  0.00000000000E+00  0.00000000000E+00  0.45071552638E+03  0.45071552638E+03  0.00000000000E+00 0. -1.
          1   -1    0    0  501    0 -0.00000000000E+00 -0.00000000000E+00 -0.42113612470E+03  0.42113612470E+03  0.00000000000E+00 0. -1.
         25    2    1    2    0    0 -0.33182004672E+01 -0.20558946563E+02 -0.12141554788E+03  0.17550520675E+03  0.12500664619E+03 0.  0.
          2    1    1    2  501    0  0.26977975966E+02  0.44352168364E+01 -0.27150469621E+03  0.27287777923E+03  0.00000000000E+00 0. -1.
          1    1    1    2  502    0 -0.23659775499E+02  0.16123729726E+02  0.42249964577E+03  0.42346866509E+03  0.00000000000E+00 0. -1.
         22    1    3    3    0    0  0.54162289697E+02 -0.13199490893E+02 -0.21007209595E+02  0.59574180985E+02  0.00000000000E+00 0. -1.
         22    1    3    3    0    0 -0.57480490164E+02 -0.73594556698E+01 -0.10040833829E+03  0.11593102576E+03  0.00000000000E+00 0. -1.
</event>
<event>
 7    1  0.5622879E-006  0.8900703E+02  0.7818608E-02  0.1437767E+00
          2   -1    0    0  502    0  0.00000000000E+00  0.00000000000E+00  0.22285871276E+04  0.22285871276E+04  0.00000000000E+00 0. -1.
          1   -1    0    0  501    0 -0.00000000000E+00 -0.00000000000E+00 -0.83128274410E+02  0.83128274410E+02  0.00000000000E+00 0. -1.
         25    2    1    2    0    0  0.86834126224E+02  0.75284148795E+02  0.25707354208E+03  0.30809033780E+03  0.12499992669E+03 0.  0.
          2    1    1    2  501    0 -0.28080127203E+02 -0.97344003306E+01 -0.52722655482E+02  0.60522148794E+02  0.00000000000E+00 0. -1.
          1    1    1    2  502    0 -0.58753999020E+02 -0.65549748465E+02  0.19411079666E+04  0.19431029154E+04  0.00000000000E+00 0. -1.
         22    1    3    3    0    0  0.18389249890E+02  0.64220925132E+02  0.21906167295E+03  0.22902075952E+03  0.00000000000E+00 0.  1.
         22    1    3    3    0    0  0.68444876334E+02  0.11063223663E+02  0.38011869125E+02  0.79069578275E+02  0.00000000000E+00 0.  1.
</event>
<event>
 7    1  0.5622879E-006  0.2544989E+03  0.7818608E-02  0.1259514E+00
          2   -1    0    0  502    0  0.00000000000E+00  0.00000000000E+00  0.22427089021E+03  0.22427089021E+03  0.00000000000E+00 0. -1.
          1   -1    0    0  501    0 -0.00000000000E+00 -0.00000000000E+00 -0.14011905461E+04  0.14011905461E+04  0.00000000000E+00 0. -1.
         25    2    1    2    0    0 -0.18620352250E+02 -0.21974530385E+03 -0.26727840886E+03  0.36837100005E+03  0.12499891901E+03 0.  0.
          2    1    1    2  501    0  0.14690010345E+02 -0.45738982153E+02 -0.98098375199E+03  0.98215934174E+03  0.00000000000E+00 0. -1.
          1    1    1    2  502    0  0.39303419048E+01  0.26548428600E+03  0.71342504983E+02  0.27493109449E+03  0.00000000000E+00 0. -1.
         22    1    3    3    0    0 -0.24064554947E+02 -0.22048626392E+03 -0.19335552394E+03  0.29424420813E+03  0.00000000000E+00 0. -1.
         22    1    3    3    0    0  0.54442026973E+01  0.74096006830E+00 -0.73922884927E+02  0.74126791923E+02  0.00000000000E+00 0. -1.
</event>
<event>
 7    1  0.5622879E-006  0.1716652E+03  0.7818608E-02  0.1337792E+00
          2   -1    0    0  502    0  0.00000000000E+00  0.00000000000E+00  0.12416371225E+04  0.12416371225E+04  0.00000000000E+00 0. -1.
          1   -1    0    0  501    0 -0.00000000000E+00 -0.00000000000E+00 -0.11522328862E+03  0.11522328862E+03  0.00000000000E+00 0. -1.
         25    2    1    2    0    0 -0.19628956590E+02 -0.14611967931E+03  0.68121423428E+02  0.20494367865E+03  0.12500050588E+03 0.  0.
          2    1    1    2  501    0 -0.26760195068E+02 -0.21832997804E+02 -0.32423130233E+02  0.47371375400E+02  0.00000000000E+00 0. -1.
          1    1    1    2  502    0  0.46389151658E+02  0.16795267712E+03  0.10907155406E+04  0.11045453570E+04  0.00000000000E+00 0. -1.
         22    1    3    3    0    0  0.92126261754E+01 -0.38058646642E+01 -0.28723767105E+02  0.30404142540E+02  0.00000000000E+00 0.  1.
         22    1    3    3    0    0 -0.28841582766E+02 -0.14231381465E+03  0.96845190533E+02  0.17453953611E+03  0.00000000000E+00 0.  1.
</event>
<event>
 7    1  0.5622879E-006  0.1887604E+03  0.7818608E-02  0.1274397E+00
          2   -1    0    0  502    0  0.00000000000E+00  0.00000000000E+00  0.31636048910E+04  0.31636048910E+04  0.00000000000E+00 0. -1.
          1   -1    0    0  501    0 -0.00000000000E+00 -0.00000000000E+00 -0.16853369977E+04  0.16853369977E+04  0.00000000000E+00 0. -1.
         25    2    1    2    0    0  0.13098008569E+03 -0.41585790883E+02 -0.47509129348E+02  0.19174947821E+03  0.12500233667E+03 0.  0.
          2    1    1    2  501    0 -0.18636398058E+03  0.50195760452E+02 -0.15595042189E+04  0.15714020989E+04  0.00000000000E+00 0. -1.
          1    1    1    2  502    0  0.55383894890E+02 -0.86099695689E+01  0.30852812415E+04  0.30857903115E+04  0.00000000000E+00 0. -1.
         22    1    3    3    0    0 -0.16142930434E+02  0.53619722791E+00 -0.34584832906E+02  0.38170569522E+02  0.00000000000E+00 0.  1.
         22    1    3    3    0    0  0.14712301612E+03 -0.42121988111E+02 -0.12924296442E+02  0.15357890869E+03  0.00000000000E+00 0.  1.
</event>
<event>
 7    1  0.5622879E-006  0.1774283E+03  0.7818608E-02  0.1265489E+00
          2   -1    0    0  502    0  0.00000000000E+00  0.00000000000E+00  0.40532889225E+04  0.40532889225E+04  0.00000000000E+00 0. -1.
          1   -1    0    0  501    0 -0.00000000000E+00 -0.00000000000E+00 -0.31169711922E+02  0.31169711922E+02  0.00000000000E+00 0. -1.
         25    2    1    2    0    0  0.82421917867E+02  0.19507772349E+03  0.29958664233E+04  0.30059423907E+04  0.12500135741E+03 0.  0.
          2    1    1    2  501    0 -0.21166095050E+02 -0.17335554012E+03  0.28384399694E+03  0.33326800247E+03  0.00000000000E+00 0. -1.
          1    1    1    2  502    0 -0.61255822818E+02 -0.21722183369E+02  0.74240879041E+03  0.74524824130E+03  0.00000000000E+00 0. -1.
         22    1    3    3    0    0 -0.20601656380E+02  0.11558034596E+02  0.11513488387E+03  0.11753322038E+03  0.00000000000E+00 0. -1.
         22    1    3    3    0    0  0.10302357425E+03  0.18351968890E+03  0.28807315394E+04  0.28884091703E+04  0.00000000000E+00 0. -1.
</event>
<event>
 7    1  0.5622879E-006  0.9060666E+02  0.7818608E-02  0.1425216E+00
          2   -1    0    0  502    0  0.00000000000E+00  0.00000000000E+00  0.87363592767E+03  0.87363592767E+03  0.00000000000E+00 0. -1.
          1   -1    0    0  501    0 -0.00000000000E+00 -0.00000000000E+00 -0.52517824163E+02  0.52517824163E+02  0.00000000000E+00 0. -1.
         25    2    1    2    0    0  0.61235910842E+02 -0.80273508566E+01  0.12086267693E+03  0.18451691473E+03  0.12499772002E+03 0.  0.
          2    1    1    2  501    0  0.30317127734E+02 -0.10557087413E+02 -0.29640741878E+01  0.32239200741E+02  0.00000000000E+00 0. -1.
          1    1    1    2  502    0 -0.91553038576E+02  0.18584438270E+02  0.70321950076E+03  0.70939763635E+03  0.00000000000E+00 0. -1.
         22    1    3    3    0    0 -0.20774563496E+02  0.23207952362E+02  0.83530446770E+02  0.89148903969E+02  0.00000000000E+00 0.  1.
         22    1    3    3    0    0  0.82010474338E+02 -0.31235303218E+02  0.37332230162E+02  0.95368010764E+02  0.00000000000E+00 0.  1.
</event>
<event>
 7    1  0.5622879E-006  0.1635149E+03  0.7818608E-02  0.1330733E+00
          2   -1    0    0  502    0  0.00000000000E+00  0.00000000000E+00  0.23037829533E+03  0.23037829533E+03  0.00000000000E+00 0. -1.
          1   -1    0    0  501    0 -0.00000000000E+00 -0.00000000000E+00 -0.30677125097E+03  0.30677125097E+03  0.00000000000E+00 0. -1.
         25    2    1    2    0    0  0.69334785530E+02 -0.16975427103E+03 -0.11518752832E+03  0.25004214322E+03  0.12501632568E+03 0.  0.
          2    1    1    2  501    0 -0.36087681265E+02  0.13600062848E+02 -0.79529148430E+02  0.88386468979E+02  0.00000000000E+00 0. -1.
          1    1    1    2  502    0 -0.33247104265E+02  0.15615420818E+03  0.11832372110E+03  0.19872093410E+03  0.00000000000E+00 0. -1.
         22    1    3    3    0    0 -0.67688860606E+01 -0.22563039842E+02 -0.76279270718E+02  0.79833800653E+02  0.00000000000E+00 0.  1.
         22    1    3    3    0    0  0.76103671591E+02 -0.14719123119E+03 -0.38908257600E+02  0.17020834256E+03  0.00000000000E+00 0.  1.
</event>
<event>
 7    1  0.5622879E-006  0.2976861E+03  0.7818608E-02  0.1190369E+00
          2   -1    0    0  502    0  0.00000000000E+00  0.00000000000E+00  0.38792479317E+03  0.38792479317E+03  0.00000000000E+00 0. -1.
          1   -1    0    0  501    0 -0.00000000000E+00 -0.00000000000E+00 -0.57572933584E+03  0.57572933584E+03  0.00000000000E+00 0. -1.
         25    2    1    2    0    0  0.63991676701E+02 -0.27104703915E+03 -0.31128650511E+01  0.30528062193E+03  0.12500054431E+03 0.  0.
          2    1    1    2  501    0 -0.14840361295E+03  0.26976553888E+03 -0.35401382728E+03  0.46917253565E+03  0.00000000000E+00 0. -1.
          1    1    1    2  502    0  0.84411936244E+02  0.12815002691E+01  0.16932214966E+03  0.18920097143E+03  0.00000000000E+00 0. -1.
         22    1    3    3    0    0 -0.51005924057E+01 -0.99105002405E+02  0.51891760943E+02  0.11198469716E+03  0.00000000000E+00 0.  1.
         22    1    3    3    0    0  0.69092269107E+02 -0.17194203675E+03 -0.55004625994E+02  0.19329592477E+03  0.00000000000E+00 0.  1.
</event>
<event>
 7    1  0.5622879E-006  0.7427515E+02  0.7818608E-02  0.1403532E+00
          2   -1    0    0  502    0  0.00000000000E+00  0.00000000000E+00  0.78706329877E+03  0.78706329877E+03  0.00000000000E+00 0. -1.
          1   -1    0    0  501    0 -0.00000000000E+00 -0.00000000000E+00 -0.13468704555E+04  0.13468704555E+04  0.00000000000E+00 0. -1.
         25    2    1    2    0    0  0.81701402123E+02 -0.34174048150E+02 -0.51551786564E+03  0.53779861670E+03  0.12500279058E+03 0.  0.
          2    1    1    2  501    0 -0.43156889698E+02  0.59882469560E+02 -0.81785702031E+03  0.82118118157E+03  0.00000000000E+00 0. -1.
          1    1    1    2  502    0 -0.38544512425E+02 -0.25708421410E+02  0.77356772918E+03  0.77495395605E+03  0.00000000000E+00 0. -1.
         22    1    3    3    0    0  0.47169308649E+02 -0.45567383184E+02 -0.93451909824E+02  0.11416912691E+03  0.00000000000E+00 0. -1.
         22    1    3    3    0    0  0.34532093474E+02  0.11393335034E+02 -0.42206595581E+03  0.42362948979E+03  0.00000000000E+00 0. -1.
</event>
<event>
 7    1  0.5622879E-006  0.4579535E+02  0.7818608E-02  0.1513875E+00
          2   -1    0    0  502    0  0.00000000000E+00  0.00000000000E+00  0.32016436109E+03  0.32016436109E+03  0.00000000000E+00 0. -1.
          1   -1    0    0  501    0 -0.00000000000E+00 -0.00000000000E+00 -0.13284493895E+04  0.13284493895E+04  0.00000000000E+00 0. -1.
         25    2    1    2    0    0 -0.26451097719E+02  0.74187560591E+02  0.77542931508E+02  0.16685784624E+03  0.12500071964E+03 0.  0.
          2    1    1    2  501    0  0.10929300771E+02 -0.44360379384E+02 -0.12819542990E+04  0.12827681465E+04  0.00000000000E+00 0. -1.
          1    1    1    2  502    0  0.15521796949E+02 -0.29827181208E+02  0.19612633906E+03  0.19898775790E+03  0.00000000000E+00 0. -1.
         22    1    3    3    0    0 -0.39362279534E+02  0.10542800722E+03  0.49522094362E+02  0.12295076896E+03  0.00000000000E+00 0. -1.
         22    1    3    3    0    0  0.12911181815E+02 -0.31240446631E+02  0.28020837146E+02  0.43907077288E+02  0.00000000000E+00 0. -1.
</event>
<event>
 7    1  0.5622879E-006  0.5737851E+02  0.7818608E-02  0.1496772E+00
          2   -1    0    0  502    0  0.00000000000E+00  0.00000000000E+00  0.22146776386E+04  0.22146776386E+04  0.00000000000E+00 0. -1.
          1   -1    0    0  501    0 -0.00000000000E+00 -0.00000000000E+00 -0.89972903003E+01  0.89972903003E+01  0.00000000000E+00 0. -1.
         25    2    1    2    0    0 -0.23884512374E+02  0.30569788903E+02  0.64479453499E+03  0.65794393320E+03  0.12500097982E+03 0.  0.
          2    1    1    2  501    0 -0.29758966752E+02 -0.48847311685E+01  0.12398843549E+03  0.12760324775E+03  0.00000000000E+00 0. -1.
          1    1    1    2  502    0  0.53643479126E+02 -0.25685057734E+02  0.14368973778E+04  0.14381277479E+04  0.00000000000E+00 0. -1.
         22    1    3    3    0    0 -0.12402160869E+02  0.74603339874E+02  0.26982255630E+03  0.28022077689E+03  0.00000000000E+00 0. -1.
         22    1    3    3    0    0 -0.11482351506E+02 -0.44033550972E+02  0.37497197870E+03  0.37772315631E+03  0.00000000000E+00 0. -1.
</event>
<event>
 7    1  0.5622879E-006  0.9224141E+02  0.7818608E-02  0.1307707E+00
          2   -1    0    0  502    0  0.00000000000E+00  0.00000000000E+00  0.42719623805E+03  0.42719623805E+03  0.00000000000E+00 0. -1.
          1   -1    0    0  501    0 -0.00000000000E+00 -0.00000000000E+00 -0.67365324254E+03  0.67365324254E+03  0.00000000000E+00 0. -1.
         25    2    1    2    0    0 -0.31271780286E+02 -0.59907659023E+02 -0.45925055956E+02  0.14931630433E+03  0.12497758248E+03 0.  0.
          2    1    1    2  501    0  0.81093099822E+02 -0.21908299013E+02 -0.56677713777E+03  0.57296805173E+03  0.00000000000E+00 0. -1.
          1    1    1    2  502    0 -0.49821319536E+02  0.81815958036E+02  0.36624518924E+03  0.37856512453E+03  0.00000000000E+00 0. -1.
         22    1    3    3    0    0 -0.11620616254E+02 -0.54770739124E+02  0.34901190006E+02  0.65977008496E+02  0.00000000000E+00 0.  1.
         22    1    3    3    0    0 -0.19651164032E+02 -0.51369198987E+01 -0.80826245962E+02  0.83339295834E+02  0.00000000000E+00 0.  1.
</event>
<event>
 7    1  0.5622879E-006  0.4401148E+02  0.7818608E-02  0.1514917E+00
          2   -1    0    0  502    0  0.00000000000E+00  0.00000000000E+00  0.11378687186E+04  0.11378687186E+04  0.00000000000E+00 0. -1.
          1   -1    0    0  501    0 -0.00000000000E+00 -0.00000000000E+00 -0.64161835212E+03  0.64161835212E+03  0.00000000000E+00 0. -1.
         25    2    1    2    0    0  0.55681217435E+02  0.32693171458E+01  0.74583987589E+02  0.15585707408E+03  0.12497027617E+03 0.  0.
          2    1    1    2  501    0 -0.19699258678E+02 -0.28617510966E+02 -0.60000549307E+03  0.60101049445E+03  0.00000000000E+00 0. -1.
          1    1    1    2  502    0 -0.35981958757E+02  0.25348193820E+02  0.10216718719E+04  0.10226195021E+04  0.00000000000E+00 0. -1.
         22    1    3    3    0    0 -0.95636464947E+01 -0.34073521618E+02  0.72472329132E+02  0.80651761912E+02  0.00000000000E+00 0.  1.
         22    1    3    3    0    0  0.65244863929E+02  0.37342838764E+02  0.21116584569E+01  0.75205312163E+02  0.00000000000E+00 0.  1.
</event>
<event>
 7    1  0.5622879E-006  0.9880212E+02  0.7818608E-02  0.1389310E+00
          2   -1    0    0  502    0  0.00000000000E+00  0.00000000000E+00  0.12688994684E+04  0.12688994684E+04  0.00000000000E+00 0. -1.
          1   -1    0    0  501    0 -0.00000000000E+00 -0.00000000000E+00 -0.18820191297E+04  0.18820191297E+04  0.00000000000E+00 0. -1.
         25    2    1    2    0    0  0.10212134337E+03  0.30198498271E+02  0.22594363692E+03  0.27931417723E+03  0.12500065788E+03 0.  0.
          2    1    1    2  501    0 -0.77899810747E+02 -0.60771200862E+02 -0.18536435229E+04  0.18562747181E+04  0.00000000000E+00 0. -1.
          1    1    1    2  502    0 -0.24221532625E+02  0.30572702591E+02  0.10145802247E+04  0.10153297026E+04  0.00000000000E+00 0. -1.
         22    1    3    3    0    0  0.39321926098E+02  0.43331759128E+02  0.17283011963E+02  0.61012766891E+02  0.00000000000E+00 0.  1.
         22    1    3    3    0    0  0.62799417274E+02 -0.13133260857E+02  0.20866062496E+03  0.21830141034E+03  0.00000000000E+00 0.  1.
</event>
<event>
 7    1  0.5622879E-006  0.1300140E+03  0.7818608E-02  0.1303063E+00
          2   -1    0    0  502    0  0.00000000000E+00  0.00000000000E+00  0.94301134925E+03  0.94301134925E+03  0.00000000000E+00 0. -1.
          1   -1    0    0  501    0 -0.00000000000E+00 -0.00000000000E+00 -0.72208853337E+03  0.72208853337E+03  0.00000000000E+00 0. -1.
         25    2    1    2    0    0  0.10221496691E+03 -0.35858297717E+02 -0.10602464479E+03  0.19646453389E+03  0.12499348302E+03 0.  0.
          2    1    1    2  501    0  0.27349663408E+02  0.55842345979E+02 -0.56434147908E+03  0.56775670556E+03  0.00000000000E+00 0. -1.
          1    1    1    2  502    0 -0.12956463031E+03 -0.19984048262E+02  0.89128893975E+03  0.90087864318E+03  0.00000000000E+00 0. -1.
         22    1    3    3    0    0 -0.21281986476E+01  0.37651471149E+02 -0.22146118726E+02  0.43733432106E+02  0.00000000000E+00 0. -1.
         22    1    3    3    0    0  0.10434316555E+03 -0.73509768866E+02 -0.83878526068E+02  0.15273110178E+03  0.00000000000E+00 0. -1.
</event>
<event>
 7    1  0.5622879E-006  0.4391973E+02  0.7818608E-02  0.1548186E+00
          2   -1    0    0  502    0  0.00000000000E+00  0.00000000000E+00  0.59109226314E+03  0.59109226314E+03  0.00000000000E+00 0. -1.
          1   -1    0    0  501    0 -0.00000000000E+00 -0.00000000000E+00 -0.47479181264E+02  0.47479181264E+02  0.00000000000E+00 0. -1.
         25    2    1    2    0    0 -0.41524981649E+02 -0.60229709981E+01  0.37938447047E+03  0.40164380403E+03  0.12499827439E+03 0.  0.
          2    1    1    2  501    0  0.88868780080E+01 -0.26516764474E+02 -0.27807691068E+02  0.39438345318E+02  0.00000000000E+00 0. -1.
          1    1    1    2  502    0  0.32638103641E+02  0.32539735473E+02  0.19203630248E+03  0.19748929506E+03  0.00000000000E+00 0. -1.
         22    1    3    3    0    0  0.11432177697E+01 -0.49286370325E+02  0.65763902667E+02  0.82190900595E+02  0.00000000000E+00 0. -1.
         22    1    3    3    0    0 -0.42668199419E+02  0.43263399327E+02  0.31362056780E+03  0.31945290343E+03  0.00000000000E+00 0. -1.
</event>
<event>
 7    1  0.5622879E-006  0.7027321E+02  0.7818608E-02  0.1479047E+00
          2   -1    0    0  502    0  0.00000000000E+00  0.00000000000E+00  0.16035282316E+04  0.16035282316E+04  0.00000000000E+00 0. -1.
          1   -1    0    0  501    0 -0.00000000000E+00 -0.00000000000E+00 -0.23627721156E+03  0.23627721156E+03  0.00000000000E+00 0. -1.
         25    2    1    2    0    0  0.55510743357E+02 -0.61896190165E+02  0.14914730288E+03  0.21163334041E+03  0.12502468489E+03 0.  0.
          2    1    1    2  501    0 -0.27740555058E+02  0.64251767521E+02 -0.19892121173E+03  0.21087312892E+03  0.00000000000E+00 0. -1.
          1    1    1    2  502    0 -0.27770188300E+02 -0.23555773553E+01  0.14170249289E+04  0.14172989738E+04  0.00000000000E+00 0. -1.
         22    1    3    3    0    0  0.48865580530E+02  0.20174956518E+02  0.16271876819E+02  0.55314083254E+02  0.00000000000E+00 0.  1.
         22    1    3    3    0    0  0.66451628275E+01 -0.82071146683E+02  0.13287542606E+03  0.15631925715E+03  0.00000000000E+00 0.  1.
</event>
<event>
 7    1  0.5622879E-006  0.9641543E+02  0.7818608E-02  0.1381147E+00
          2   -1    0    0  502    0  0.00000000000E+00  0.00000000000E+00  0.18905458991E+02  0.18905458991E+02  0.00000000000E+00 0. -1.
          1   -1    0    0  501    0 -0.00000000000E+00 -0.00000000000E+00 -0.16868754236E+04  0.16868754236E+04  0.00000000000E+00 0. -1.
         25    2    1    2    0    0 -0.10582076255E+03  0.50408261455E+02 -0.57639013585E+03  0.60132300452E+03  0.12499896179E+03 0.  0.
          2    1    1    2  501    0  0.41909857788E+02  0.81747214128E+01 -0.77633932264E+03  0.77751270480E+03  0.00000000000E+00 0. -1.
          1    1    1    2  502    0  0.63910904760E+02 -0.58582982868E+02 -0.31524050616E+03  0.32694517331E+03  0.00000000000E+00 0. -1.
         22    1    3    3    0    0 -0.12749101527E+03  0.26126685541E+02 -0.36640004609E+03  0.38882586905E+03  0.00000000000E+00 0. -1.
         22    1    3    3    0    0  0.21670252724E+02  0.24281575915E+02 -0.20999008977E+03  0.21249713547E+03  0.00000000000E+00 0. -1.
</event>
<event>
 7    1  0.5622879E-006  0.1806860E+03  0.7818608E-02  0.1248289E+00
          2   -1    0    0  502    0  0.00000000000E+00  0.00000000000E+00  0.72844305792E+03  0.72844305792E+03  0.00000000000E+00 0. -1.
          1   -1    0    0  501    0 -0.00000000000E+00 -0.00000000000E+00 -0.30512118088E+03  0.30512118088E+03  0.00000000000E+00 0. -1.
         25    2    1    2    0    0  0.12335954826E+03  0.17372017229E+03 -0.17058810256E+03  0.30020364161E+03  0.12500259716E+03 0.  0.
          2    1    1    2  501    0 -0.61820061991E+02 -0.12973853570E+03  0.94483000846E+01  0.14402457459E+03  0.00000000000E+00 0. -1.
          1    1    1    2  502    0 -0.61539486271E+02 -0.43981636587E+02  0.58446167951E+03  0.58933602260E+03  0.00000000000E+00 0. -1.
         22    1    3    3    0    0  0.40389296030E+02  0.72117244727E+02  0.28973601241E+01  0.82707840720E+02  0.00000000000E+00 0.  1.
         22    1    3    3    0    0  0.82970252232E+02  0.10160292756E+03 -0.17348546268E+03  0.21749580089E+03  0.00000000000E+00 0.  1.
</event>
<event>
 7    1  0.5622879E-006  0.2404164E+03  0.7818608E-02  0.1297075E+00
          2   -1    0    0  502    0  0.00000000000E+00  0.00000000000E+00  0.24347273056E+04  0.24347273056E+04  0.00000000000E+00 0. -1.
          1   -1    0    0  501    0 -0.00000000000E+00 -0.00000000000E+00 -0.75438634699E+03  0.75438634699E+03  0.00000000000E+00 0. -1.
         25    2    1    2    0    0  0.13889707974E+03 -0.21570844875E+03  0.13492014701E+01  0.28539324868E+03  0.12499980971E+03 0.  0.
          2    1    1    2  501    0  0.15299736968E+02  0.32071939581E+02 -0.60556859046E+03  0.60661026122E+03  0.00000000000E+00 0. -1.
          1    1    1    2  502    0 -0.15419681671E+03  0.18363650917E+03  0.22845603476E+04  0.22971101427E+04  0.00000000000E+00 0. -1.
         22    1    3    3    0    0  0.86645157204E+02 -0.19440234745E+03  0.40574782076E+02  0.21667018461E+03  0.00000000000E+00 0. -1.
         22    1    3    3    0    0  0.52251922535E+02 -0.21306101303E+02 -0.39225580606E+02  0.68723064070E+02  0.00000000000E+00 0. -1.
</event>
<event>
 7    1  0.5622879E-006  0.8056768E+02  0.7818608E-02  0.1403391E+00
          2   -1    0    0  502    0  0.00000000000E+00  0.00000000000E+00  0.11098897225E+04  0.11098897225E+04  0.00000000000E+00 0. -1.
          1   -1    0    0  501    0 -0.00000000000E+00 -0.00000000000E+00 -0.18361799107E+03  0.18361799107E+03  0.00000000000E+00 0. -1.
         25    2    1    2    0    0  0.43936331867E+02  0.10327132659E+03  0.72416507663E+02  0.18293369682E+03  0.12500087478E+03 0.  0.
          2    1    1    2  501    0 -0.35421604884E+02 -0.23953497038E+02 -0.12312676862E+03  0.13034055878E+03  0.00000000000E+00 0. -1.
          1    1    1    2  502    0 -0.85147269833E+01 -0.79317829552E+02  0.97698199243E+03  0.98023345800E+03  0.00000000000E+00 0. -1.
         22    1    3    3    0    0  0.84403885661E+02  0.65688248488E+02  0.24284914257E+02  0.10967551671E+03  0.00000000000E+00 0. -1.
         22    1    3    3    0    0 -0.40467553794E+02  0.37583078102E+02  0.48131593405E+02  0.73258180113E+02  0.00000000000E+00 0. -1.
</event>
<event>
 7    1  0.6038802E-006  0.6113807E+02  0.7818608E-02  0.1448860E+00
          2   -1    0    0  502    0  0.00000000000E+00  0.00000000000E+00  0.58707311419E+03  0.58707311419E+03  0.00000000000E+00 0. -1.
          1   -1    0    0  501    0 -0.00000000000E+00 -0.00000000000E+00 -0.10975412136E+04  0.10975412136E+04  0.00000000000E+00 0. -1.
         25    2    1    2    0    0  0.95400274879E+02 -0.25793779410E+02 -0.36043551133E+03  0.39408797493E+03  0.12500017063E+03 0.  0.
          2    1    1    2  501    0 -0.39834861914E+02  0.67192148624E+00 -0.71809544979E+03  0.71919979332E+03  0.00000000000E+00 0. -1.
          1    1    1    2  502    0 -0.55565412964E+02  0.25121857923E+02  0.56806286167E+03  0.57132655957E+03  0.00000000000E+00 0. -1.
         22    1    3    3    0    0  0.10979498828E+02 -0.63634127711E+02 -0.18161915346E+03  0.19275727874E+03  0.00000000000E+00 0. -1.
         22    1    3    3    0    0  0.84420776051E+02  0.37840348302E+02 -0.17881635787E+03  0.20133069619E+03  0.00000000000E+00 0. -1.
</event>
<event>
 7    1  0.5622879E-006  0.1031273E+03  0.7818608E-02  0.1287652E+00
          2   -1    0    0  502    0  0.00000000000E+00  0.00000000000E+00  0.60772427819E+03  0.60772427819E+03  0.00000000000E+00 0. -1.
          1   -1    0    0  501    0 -0.00000000000E+00 -0.00000000000E+00 -0.18313100898E+04  0.18313100898E+04  0.00000000000E+00 0. -1.
         25    2    1    2    0    0  0.14222450403E+02  0.94705447674E+02 -0.51302577171E+02  0.16561356363E+03  0.12499799246E+03 0.  0.
          2    1    1    2  501    0  0.73789021538E+02 -0.73835655267E+02 -0.17175416418E+04  0.17207108458E+04  0.00000000000E+00 0. -1.
          1    1    1    2  502    0 -0.88011471941E+02 -0.20869792407E+02  0.54525840737E+03  0.55270995851E+03  0.00000000000E+00 0. -1.
         22    1    3    3    0    0  0.66552568364E+02  0.43539879821E+02 -0.64837834306E+01  0.79793514387E+02  0.00000000000E+00 0.  1.
         22    1    3    3    0    0 -0.52330117961E+02  0.51165567853E+02 -0.44818793741E+02  0.85820049242E+02  0.00000000000E+00 0.  1.
</event>
<event>
 7    1  0.5622879E-006  0.1515364E+03  0.7818608E-02  0.1412368E+00
          2   -1    0    0  502    0  0.00000000000E+00  0.00000000000E+00  0.94661272293E+03  0.94661272293E+03  0.00000000000E+00 0. -1.
          1   -1    0    0  501    0 -0.00000000000E+00 -0.00000000000E+00 -0.10907830499E+04  0.10907830499E+04  0.00000000000E+00 0. -1.
         25    2    1    2    0    0  0.89586242978E+02 -0.13082835032E+03  0.66786057397E+03  0.69771425216E+03  0.12500271689E+03 0.  0.
          2    1    1    2  501    0 -0.68802250048E+02  0.13496659992E+03 -0.10700868087E+04  0.10807569157E+04  0.00000000000E+00 0. -1.
          1    1    1    2  502    0 -0.20783992929E+02 -0.41382496030E+01  0.25805590781E+03  0.25892460491E+03  0.00000000000E+00 0. -1.
         22    1    3    3    0    0 -0.17069806540E+02 -0.85199090418E+01  0.22930117387E+03  0.23009344946E+03  0.00000000000E+00 0.  1.
         22    1    3    3    0    0  0.10665604952E+03 -0.12230844127E+03  0.43855940010E+03  0.46762080270E+03  0.00000000000E+00 0.  1.
</event>
<event>
 7    1  0.5622879E-006  0.7140200E+02  0.7818608E-02  0.1467111E+00
          2   -1    0    0  502    0  0.00000000000E+00  0.00000000000E+00  0.88011879374E+03  0.88011879374E+03  0.00000000000E+00 0. -1.
          1   -1    0    0  501    0 -0.00000000000E+00 -0.00000000000E+00 -0.15517937948E+03  0.15517937948E+03  0.00000000000E+00 0. -1.
         25    2    1    2    0    0  0.26315796885E+01  0.52550071088E+02  0.95315200704E+02  0.16576714168E+03  0.12500129037E+03 0.  0.
          2    1    1    2  501    0 -0.28479848758E+02 -0.67512561473E+02 -0.10843327887E+03  0.13086949113E+03  0.00000000000E+00 0. -1.
          1    1    1    2  502    0  0.25848269069E+02  0.14962490385E+02  0.73805749244E+03  0.73866154040E+03  0.00000000000E+00 0. -1.
         22    1    3    3    0    0 -0.17579074115E+02 -0.37392786196E+02  0.16533219499E+02  0.44503838635E+02  0.00000000000E+00 0. -1.
         22    1    3    3    0    0  0.20210653804E+02  0.89942857284E+02  0.78781981205E+02  0.12126330305E+03  0.00000000000E+00 0. -1.
</event>
<event>
 7    1  0.5622879E-006  0.2454745E+02  0.7818608E-02  0.1674957E+00
          2   -1    0    0  502    0  0.00000000000E+00  0.00000000000E+00  0.89275334072E+03  0.89275334072E+03  0.00000000000E+00 0. -1.
          1   -1    0    0  501    0 -0.00000000000E+00 -0.00000000000E+00 -0.84876710013E+02  0.84876710013E+02  0.00000000000E+00 0. -1.
         25    2    1    2    0    0  0.47077731343E+02  0.35158599163E+00  0.56055297761E+02  0.14485717058E+03  0.12499986824E+03 0.  0.
          2    1    1    2  501    0 -0.23619361387E+02 -0.26698791272E+01 -0.36794651698E+02  0.43804667337E+02  0.00000000000E+00 0. -1.
          1    1    1    2  502    0 -0.23458369956E+02  0.23182931356E+01  0.78861598465E+03  0.78896821282E+03  0.00000000000E+00 0. -1.
         22    1    3    3    0    0 -0.79485863364E+01 -0.15137906012E+00  0.83143475495E+02  0.83522694267E+02  0.00000000000E+00 0. -1.
         22    1    3    3    0    0  0.55026317679E+02  0.50296505175E+00 -0.27088177734E+02  0.61334476309E+02  0.00000000000E+00 0. -1.
</event>
<event>
 7    1  0.5622879E-006  0.5646716E+02  0.7818608E-02  0.1477032E+00
          2   -1    0    0  502    0  0.00000000000E+00  0.00000000000E+00  0.20994656559E+03  0.20994656559E+03  0.00000000000E+00 0. -1.
          1   -1    0    0  501    0 -0.00000000000E+00 -0.00000000000E+00 -0.50601500689E+03  0.50601500689E+03  0.00000000000E+00 0. -1.
         25    2    1    2    0    0 -0.70059571293E+02  0.16427872989E+02 -0.19989412483E+03  0.24649365934E+03  0.12499297744E+03 0.  0.
          2    1    1    2  501    0  0.28103164538E+02  0.21166653377E+02 -0.27743376651E+03  0.27965569880E+03  0.00000000000E+00 0. -1.
          1    1    1    2  502    0  0.41956406755E+02 -0.37594526366E+02  0.18125945005E+03  0.18981221434E+03  0.00000000000E+00 0. -1.
         22    1    3    3    0    0 -0.14415960216E+02 -0.51305741754E+02 -0.10203887893E+03  0.11511746982E+03  0.00000000000E+00 0.  1.
         22    1    3    3    0    0 -0.55643611076E+02  0.67733614743E+02 -0.97855245908E+02  0.13137618952E+03  0.00000000000E+00 0.  1.
</event>
<event>
 7    1  0.5622879E-006  0.1282778E+03  0.7818608E-02  0.1403619E+00
          2   -1    0    0  502    0  0.00000000000E+00  0.00000000000E+00  0.31703212350E+03  0.31703212350E+03  0.00000000000E+00 0. -1.
          1   -1    0    0  501    0 -0.00000000000E+00 -0.00000000000E+00 -0.34591313399E+03  0.34591313399E+03  0.00000000000E+00 0. -1.
         25    2    1    2    0    0 -0.39819640655E+01 -0.10323867101E+03  0.15706877895E+03  0.22575636979E+03  0.12498503090E+03 0.  0.
          2    1    1    2  501    0  0.29051140070E+01  0.13002542882E+03 -0.29632206738E+03  0.32360750833E+03  0.00000000000E+00 0. -1.
          1    1    1    2  502    0  0.10768500584E+01 -0.26786757811E+02  0.11037227795E+03  0.11358137937E+03  0.00000000000E+00 0. -1.
         22    1    3    3    0    0  0.39790153007E+02  0.46329001858E+01  0.68988495097E+02  0.79775513137E+02  0.00000000000E+00 0.  1.
         22    1    3    3    0    0 -0.43772117072E+02 -0.10787157120E+03  0.88080283849E+02  0.14598085665E+03  0.00000000000E+00 0.  1.
</event>
<event>
 7    1  0.5622879E-006  0.8152191E+02  0.7818608E-02  0.1432420E+00
          2   -1    0    0  502    0  0.00000000000E+00  0.00000000000E+00  0.13568510064E+04  0.13568510064E+04  0.00000000000E+00 0. -1.
          1   -1    0    0  501    0 -0.00000000000E+00 -0.00000000000E+00 -0.29421534452E+03  0.29421534452E+03  0.00000000000E+00 0. -1.
         25    2    1    2    0    0  0.10554426718E+03  0.34684468710E+02  0.47118200500E+02  0.17374467812E+03  0.12499793459E+03 0.  0.
          2    1    1    2  501    0 -0.71763523927E+02 -0.34747656401E+02 -0.22378185819E+03  0.23756204042E+03  0.00000000000E+00 0. -1.
          1    1    1    2  502    0 -0.33780743250E+02  0.63187691201E-01  0.12392993196E+04  0.12397596324E+04  0.00000000000E+00 0. -1.
         22    1    3    3    0    0  0.21330490990E+02  0.43865271176E+02  0.70624551516E+02  0.85831108219E+02  0.00000000000E+00 0. -1.
         22    1    3    3    0    0  0.84213776188E+02 -0.91808024659E+01 -0.23506351017E+02  0.87913569896E+02  0.00000000000E+00 0. -1.
</event>
<event>
 7    1  0.5622879E-006  0.5207108E+02  0.7818608E-02  0.1549269E+00
          2   -1    0    0  502    0  0.00000000000E+00  0.00000000000E+00  0.14398329874E+04  0.14398329874E+04  0.00000000000E+00 0. -1.
          1   -1    0    0  501    0 -0.00000000000E+00 -0.00000000000E+00 -0.97326347634E+02  0.97326347634E+02  0.00000000000E+00 0. -1.
         25    2    1    2    0    0 -0.26214510568E+02  0.19036572673E+02  0.63754733112E+02  0.14400981525E+03  0.12499827691E+03 0.  0.
          2    1    1    2  501    0  0.49154401651E+02 -0.23776902958E+02 -0.44040157463E+02  0.70150066182E+02  0.00000000000E+00 0. -1.
          1    1    1    2  502    0 -0.22939891083E+02  0.47403302851E+01  0.13227920641E+04  0.13229994536E+04  0.00000000000E+00 0. -1.
         22    1    3    3    0    0 -0.26659608016E+02  0.47471027215E+02  0.90081602639E+02  0.10525648796E+03  0.00000000000E+00 0.  1.
         22    1    3    3    0    0  0.44509744838E+00 -0.28434454542E+02 -0.26326869527E+02  0.38753327289E+02  0.00000000000E+00 0.  1.
</event>
<event>
 7    1  0.5622879E-006  0.2427387E+03  0.7818608E-02  0.1247127E+00
          2   -1    0    0  502    0  0.00000000000E+00  0.00000000000E+00  0.12817428264E+04  0.12817428264E+04  0.00000000000E+00 0. -1.
          1   -1    0    0  501    0 -0.00000000000E+00 -0.00000000000E+00 -0.18014240391E+04  0.18014240391E+04  0.00000000000E+00 0. -1.
         25    2    1    2    0    0  0.14328637379E+03  0.18445646670E+03  0.16520723852E+02  0.26542769525E+03  0.12499501617E+03 0.  0.
          2    1    1    2  501    0 -0.42390023060E+02  0.38051878080E+02 -0.16633963166E+04  0.16643714026E+04  0.00000000000E+00 0. -1.
          1    1    1    2  502    0 -0.10089635073E+03 -0.22250834478E+03  0.11271943801E+04  0.11533677677E+04  0.00000000000E+00 0. -1.
         22    1    3    3    0    0 -0.11854762520E+01  0.83877457840E+02  0.29483383389E+02  0.88916270635E+02  0.00000000000E+00 0.  1.
         22    1    3    3    0    0  0.14447185004E+03  0.10057900886E+03 -0.12962659537E+02  0.17651142461E+03  0.00000000000E+00 0.  1.
</event>
<event>
 7    1  0.5919491E-006  0.1689375E+03  0.7818608E-02  0.1345071E+00
          2   -1    0    0  502    0  0.00000000000E+00  0.00000000000E+00  0.15257864690E+04  0.15257864690E+04  0.00000000000E+00 0. -1.
          1   -1    0    0  501    0 -0.00000000000E+00 -0.00000000000E+00 -0.26297369936E+04  0.26297369936E+04  0.00000000000E+00 0. -1.
         25    2    1    2    0    0  0.36529932481E+02  0.13165525995E+03 -0.63545810845E+03  0.66189043056E+03  0.12499756412E+03 0.  0.
          2    1    1    2  501    0  0.31193250457E+01  0.32806526892E+02 -0.19761946028E+04  0.19764693538E+04  0.00000000000E+00 0. -1.
          1    1    1    2  502    0 -0.39649257527E+02 -0.16446178684E+03  0.15077021867E+04  0.15171636783E+04  0.00000000000E+00 0. -1.
         22    1    3    3    0    0  0.28290784906E+02  0.18220744175E+02 -0.38903196775E+03  0.39048461680E+03  0.00000000000E+00 0.  1.
         22    1    3    3    0    0  0.82391475746E+01  0.11343451577E+03 -0.24642614070E+03  0.27140581376E+03  0.00000000000E+00 0.  1.
</event>
<event>
 7    1  0.5622879E-006  0.1022729E+03  0.7818608E-02  0.1452059E+00
          2   -1    0    0  502    0  0.00000000000E+00  0.00000000000E+00  0.52624494112E+03  0.52624494112E+03  0.00000000000E+00 0. -1.
          1   -1    0    0  501    0 -0.00000000000E+00 -0.00000000000E+00 -0.75057409956E+02  0.75057409956E+02  0.00000000000E+00 0. -1.
         25    2    1    2    0    0 -0.34291016088E+02 -0.92176532152E+02  0.15449310391E+03  0.22173233068E+03  0.12499888179E+03 0.  0.
          2    1    1    2  501    0 -0.22606022310E+02  0.54849641052E+01 -0.29339985736E+02  0.37442647328E+02  0.00000000000E+00 0. -1.
          1    1    1    2  502    0  0.56897038398E+02  0.86691568047E+02  0.32603441299E+03  0.34212737307E+03  0.00000000000E+00 0. -1.
         22    1    3    3    0    0  0.20443584892E+02 -0.11858097205E+02 -0.13815182370E+02  0.27375425047E+02  0.00000000000E+00 0. -1.
         22    1    3    3    0    0 -0.54734600980E+02 -0.80318434947E+02  0.16830828628E+03  0.19435690563E+03  0.00000000000E+00 0. -1.
</event>
<event>
 7    1  0.5622879E-006  0.4631004E+03  0.7818608E-02  0.1254220E+00
          2   -1    0    0  502    0  0.00000000000E+00  0.00000000000E+00  0.50099631154E+03  0.50099631154E+03  0.00000000000E+00 0. -1.
          1   -1    0    0  501    0 -0.00000000000E+00 -0.00000000000E+00 -0.18482512318E+04  0.18482512318E+04  0.00000000000E+00 0. -1.
         25    2    1    2    0    0  0.26446566280E+03 -0.35605225474E+03 -0.23174969514E+03  0.51579806560E+03  0.12499771347E+03 0.  0.
          2    1    1    2  501    0  0.18803823960E+02 -0.20500260854E+02 -0.13196362319E+04  0.13199294030E+04  0.00000000000E+00 0. -1.
          1    1    1    2  502    0 -0.28326948676E+03  0.37655251559E+03  0.20413100681E+03  0.51352007465E+03  0.00000000000E+00 0. -1.
         22    1    3    3    0    0  0.98276821295E+02 -0.18323266502E+03 -0.16904904833E+03  0.26797411046E+03  0.00000000000E+00 0. -1.
         22    1    3    3    0    0  0.16618884150E+03 -0.17281958972E+03 -0.62700646811E+02  0.24782395514E+03  0.00000000000E+00 0. -1.
</event>
<event>
 7    1  0.5622879E-006  0.7308743E+02  0.7818608E-02  0.1351216E+00
          2   -1    0    0  502    0  0.00000000000E+00  0.00000000000E+00  0.33353952768E+03  0.33353952768E+03  0.00000000000E+00 0. -1.
          1   -1    0    0  501    0 -0.00000000000E+00 -0.00000000000E+00 -0.17115669933E+03  0.17115669933E+03  0.00000000000E+00 0. -1.
         25    2    1    2    0    0  0.24559708077E+02  0.49709129551E+02 -0.71710401398E+02  0.15440635658E+03  0.12499905784E+03 0.  0.
          2    1    1    2  501    0  0.27988764567E+02 -0.10050706534E+03 -0.75238377433E+00  0.10433411334E+03  0.00000000000E+00 0. -1.
          1    1    1    2  502    0 -0.52548472645E+02  0.50797935789E+02  0.23484561352E+03  0.24595575710E+03  0.00000000000E+00 0. -1.
         22    1    3    3    0    0  0.12285473672E+02 -0.24339183702E+02 -0.74462856902E+02  0.79297199097E+02  0.00000000000E+00 0. -1.
         22    1    3    3    0    0  0.12274234405E+02  0.74048313253E+02  0.27524555047E+01  0.75109157478E+02  0.00000000000E+00 0. -1.
</event>
<event>
 7    1  0.5622879E-006  0.5492797E+02  0.7818608E-02  0.1546732E+00
          2   -1    0    0  502    0  0.00000000000E+00  0.00000000000E+00  0.21786873055E+03  0.21786873055E+03  0.00000000000E+00 0. -1.
          1   -1    0    0  501    0 -0.00000000000E+00 -0.00000000000E+00 -0.56359487750E+03  0.56359487750E+03  0.00000000000E+00 0. -1.
         25    2    1    2    0    0 -0.15274504643E+02  0.42938340708E+02 -0.24275489969E+03  0.27682374578E+03  0.12499773322E+03 0.  0.
          2    1    1    2  501    0  0.19087200509E+02  0.12048796788E+02 -0.29959111012E+03  0.30044022366E+03  0.00000000000E+00 0. -1.
          1    1    1    2  502    0 -0.38126958666E+01 -0.54987137496E+02  0.19661986286E+03  0.20419963862E+03  0.00000000000E+00 0. -1.
         22    1    3    3    0    0  0.26459495566E+02  0.56366186907E+02 -0.21748081660E+03  0.22621926868E+03  0.00000000000E+00 0.  1.
         22    1    3    3    0    0 -0.41734000208E+02 -0.13427846199E+02 -0.25274083086E+02  0.50604477102E+02  0.00000000000E+00 0.  1.
</event>
<event>
 7    1  0.5622879E-006  0.4477325E+02  0.7818608E-02  0.1482523E+00
          2   -1    0    0  502    0  0.00000000000E+00  0.00000000000E+00  0.14225244956E+04  0.14225244956E+04  0.00000000000E+00 0. -1.
          1   -1    0    0  501    0 -0.00000000000E+00 -0.00000000000E+00 -0.34940925853E+03  0.34940925853E+03  0.00000000000E+00 0. -1.
         25    2    1    2    0    0 -0.48590364340E+02 -0.31905834625E+02 -0.55800606405E+02  0.14872062851E+03  0.12500044752E+03 0.  0.
          2    1    1    2  501    0  0.40896329524E+02 -0.12219208903E+02 -0.24493810429E+03  0.24862922952E+03  0.00000000000E+00 0. -1.
          1    1    1    2  502    0  0.76940348153E+01  0.44125043529E+02  0.13738539478E+04  0.13745838961E+04  0.00000000000E+00 0. -1.
         22    1    3    3    0    0  0.20242981356E+02  0.30662464901E+02 -0.40094912200E+02  0.54383518021E+02  0.00000000000E+00 0.  1.
         22    1    3    3    0    0 -0.68833345695E+02 -0.62568299526E+02 -0.15705694205E+02  0.94337110491E+02  0.00000000000E+00 0.  1.
</event>
<event>
 7    1  0.5622879E-006  0.1084401E+03  0.7818608E-02  0.1428692E+00
          2   -1    0    0  502    0  0.00000000000E+00  0.00000000000E+00  0.32973600105E+02  0.32973600105E+02  0.00000000000E+00 0. -1.
          1   -1    0    0  501    0 -0.00000000000E+00 -0.00000000000E+00 -0.89641947504E+03  0.89641947504E+03  0.00000000000E+00 0. -1.
         25    2    1    2    0    0  0.47449813169E+01  0.12414711210E+03 -0.51445798011E+03  0.54380796528E+03  0.12500027804E+03 0.  0.
          2    1    1    2  501    0 -0.15996795478E+02 -0.20651603066E+02 -0.21161603798E+03  0.21322226362E+03  0.00000000000E+00 0. -1.
          1    1    1    2  502    0  0.11251814161E+02 -0.10349550903E+03 -0.13737185685E+03  0.17236284625E+03  0.00000000000E+00 0. -1.
         22    1    3    3    0    0 -0.39677838559E+02 -0.44351683472E+01 -0.12986958772E+03  0.13586799257E+03  0.00000000000E+00 0. -1.
         22    1    3    3    0    0  0.44422819876E+02  0.12858228045E+03 -0.38458839239E+03  0.40793997271E+03  0.00000000000E+00 0. -1.
</event>
<event>
 7    1  0.5622879E-006  0.7866643E+02  0.7818608E-02  0.1360046E+00
          2   -1    0    0  502    0  0.00000000000E+00  0.00000000000E+00  0.11633614370E+03  0.11633614370E+03  0.00000000000E+00 0. -1.
          1   -1    0    0  501    0 -0.00000000000E+00 -0.00000000000E+00 -0.15301983108E+04  0.15301983108E+04  0.00000000000E+00 0. -1.
         25    2    1    2    0    0 -0.11257307134E+03 -0.69709867579E+02 -0.18466615706E+03  0.25934393671E+03  0.12500210364E+03 0.  0.
          2    1    1    2  501    0  0.41733464801E+02  0.46273592523E+02 -0.12896522862E+04  0.12911568250E+04  0.00000000000E+00 0. -1.
          1    1    1    2  502    0  0.70839606536E+02  0.23436275056E+02  0.60456276103E+02  0.96033692852E+02  0.00000000000E+00 0. -1.
         22    1    3    3    0    0 -0.29416341705E+02 -0.81840539175E+02 -0.13828262898E+03  0.16335629920E+03  0.00000000000E+00 0.  1.
         22    1    3    3    0    0 -0.83156729632E+02  0.12130671596E+02 -0.46383528082E+02  0.95987637504E+02  0.00000000000E+00 0.  1.
</event>
<event>
 7    1  0.5622879E-006  0.1458572E+03  0.7818608E-02  0.1333404E+00
          2   -1    0    0  502    0  0.00000000000E+00  0.00000000000E+00  0.18663080671E+04  0.18663080671E+04  0.00000000000E+00 0. -1.
          1   -1    0    0  501    0 -0.00000000000E+00 -0.00000000000E+00 -0.11995389245E+03  0.11995389245E+03  0.00000000000E+00 0. -1.
         25    2    1    2    0    0 -0.88853300273E+02  0.84535593723E+02  0.17226756074E+03  0.24564495897E+03  0.12499663118E+03 0.  0.
          2    1    1    2  501    0 -0.40487568620E+02 -0.12016696461E+02 -0.74358983846E+02  0.85515511373E+02  0.00000000000E+00 0. -1.
          1    1    1    2  502    0  0.12934086889E+03 -0.72518897261E+02  0.16484455978E+04  0.16551014892E+04  0.00000000000E+00 0. -1.
         22    1    3    3    0    0 -0.83127937732E+02  0.43572796695E+02  0.31615077323E+02  0.99037143323E+02  0.00000000000E+00 0.  1.
         22    1    3    3    0    0 -0.57253625412E+01  0.40962797027E+02  0.14065248342E+03  0.14660781565E+03  0.00000000000E+00 0.  1.
</event>
<event>
 7    1  0.5622879E-006  0.7052584E+02  0.7818608E-02  0.1365025E+00
          2   -1    0    0  502    0  0.00000000000E+00  0.00000000000E+00  0.15262672086E+04  0.15262672086E+04  0.00000000000E+00 0. -1.
          1   -1    0    0  501    0 -0.00000000000E+00 -0.00000000000E+00 -0.11687261007E+03  0.11687261007E+03  0.00000000000E+00 0. -1.
         25    2    1    2    0    0 -0.45232720235E+02 -0.37178436139E+02  0.87401932563E+03  0.88485191567E+03  0.12499958393E+03 0.  0.
          2    1    1    2  501    0  0.45747034339E+02 -0.48496118224E+02 -0.98339431761E+02  0.11880786368E+03  0.00000000000E+00 0. -1.
          1    1    1    2  502    0 -0.51431410454E+00  0.85674554362E+02  0.63371470471E+03  0.63948003937E+03  0.00000000000E+00 0. -1.
         22    1    3    3    0    0 -0.45000066049E+02  0.66663745495E+01  0.10313990999E+03  0.11272660523E+03  0.00000000000E+00 0.  1.
         22    1    3    3    0    0 -0.23265418558E+00 -0.43844810688E+02  0.77087941564E+03  0.77212531043E+03  0.00000000000E+00 0.  1.
</event>
<event>
 7    1  0.7794106E-006  0.6067645E+02  0.7818608E-02  0.1396154E+00
          2   -1    0    0  502    0  0.00000000000E+00  0.00000000000E+00  0.60631906735E+03  0.60631906735E+03  0.00000000000E+00 0. -1.
          1   -1    0    0  501    0 -0.00000000000E+00 -0.00000000000E+00 -0.16619737320E+04  0.16619737320E+04  0.00000000000E+00 0. -1.
         25    2    1    2    0    0 -0.92310163238E+02  0.77523554473E+02 -0.53867472434E+03  0.56597411739E+03  0.12500070071E+03 0.  0.
          2    1    1    2  501    0  0.44492988335E+02 -0.40444384444E+02 -0.11072870843E+04  0.11089184196E+04  0.00000000000E+00 0. -1.
          1    1    1    2  502    0  0.47817174903E+02 -0.37079170030E+02  0.59030714402E+03  0.59340026234E+03  0.00000000000E+00 0. -1.
         22    1    3    3    0    0  0.14806404044E+02 -0.11639935576E+02 -0.15019288639E+02  0.24089348936E+02  0.00000000000E+00 0. -1.
         22    1    3    3    0    0 -0.10711656728E+03  0.89163490050E+02 -0.52365543570E+03  0.54188476845E+03  0.00000000000E+00 0. -1.
</event>
<event>
 7    1  0.5622879E-006  0.8390333E+02  0.7818608E-02  0.1404281E+00
          2   -1    0    0  502    0  0.00000000000E+00  0.00000000000E+00  0.50883444805E+03  0.50883444805E+03  0.00000000000E+00 0. -1.
          1   -1    0    0  501    0 -0.00000000000E+00 -0.00000000000E+00 -0.80257356792E+03  0.80257356792E+03  0.00000000000E+00 0. -1.
         25    2    1    2    0    0 -0.49850496771E+02  0.77770020294E+02 -0.48402755166E+02  0.16279300483E+03  0.12500195050E+03 0.  0.
          2    1    1    2  501    0  0.40384421048E+02  0.56219477860E+01 -0.69247178222E+03  0.69367115907E+03  0.00000000000E+00 0. -1.
          1    1    1    2  502    0  0.94660757223E+01 -0.83391968080E+02  0.44713541752E+03  0.45494385206E+03  0.00000000000E+00 0. -1.
         22    1    3    3    0    0 -0.36456483821E+02  0.47535395415E+02 -0.90949841021E+02  0.10890621016E+03  0.00000000000E+00 0.  1.
         22    1    3    3    0    0 -0.13394012949E+02  0.30234624879E+02  0.42547085856E+02  0.53886794665E+02  0.00000000000E+00 0.  1.
</event>
<event>
 7    1  0.5622879E-006  0.4381115E+02  0.7818608E-02  0.1559740E+00
          2   -1    0    0  502    0  0.00000000000E+00  0.00000000000E+00  0.22453766350E+03  0.22453766350E+03  0.00000000000E+00 0. -1.
          1   -1    0    0  501    0 -0.00000000000E+00 -0.00000000000E+00 -0.17010322515E+03  0.17010322515E+03  0.00000000000E+00 0. -1.
         25    2    1    2    0    0  0.15599404822E+01 -0.61262097202E+02  0.81238990084E+02  0.16118422798E+03  0.12500041549E+03 0.  0.
          2    1    1    2  501    0 -0.15079018009E+02  0.21230399154E+02 -0.12440583756E+03  0.12710200255E+03  0.00000000000E+00 0. -1.
          1    1    1    2  502    0  0.13519077527E+02  0.40031698048E+02  0.97601285839E+02  0.10635465812E+03  0.00000000000E+00 0. -1.
         22    1    3    3    0    0  0.48407534103E+02 -0.52247535617E+02  0.51957805384E+01  0.71414917709E+02  0.00000000000E+00 0. -1.
         22    1    3    3    0    0 -0.46847593621E+02 -0.90145615856E+01  0.76043209546E+02  0.89769310272E+02  0.00000000000E+00 0. -1.
</event>
<event>
 7    1  0.5928273E-006  0.9620219E+02  0.7818608E-02  0.1369016E+00
          2   -1    0    0  502    0  0.00000000000E+00  0.00000000000E+00  0.28624886669E+04  0.28624886669E+04  0.00000000000E+00 0. -1.
          1   -1    0    0  501    0 -0.00000000000E+00 -0.00000000000E+00 -0.23503783700E+04  0.23503783700E+04  0.00000000000E+00 0. -1.
         25    2    1    2    0    0  0.72472548019E+02 -0.31696469833E+02 -0.27809595136E+03  0.31499092326E+03  0.12499994863E+03 0.  0.
          2    1    1    2  501    0 -0.60011091090E+02  0.77303781444E+02 -0.20524724783E+04  0.20548042437E+04  0.00000000000E+00 0. -1.
          1    1    1    2  502    0 -0.12461456928E+02 -0.45607311612E+02  0.28426787266E+04  0.28430718699E+04  0.00000000000E+00 0. -1.
         22    1    3    3    0    0  0.71733557534E+02  0.33850704591E+01 -0.26944516748E+03  0.27885096424E+03  0.00000000000E+00 0. -1.
         22    1    3    3    0    0  0.73899048460E+00 -0.35081540292E+02 -0.86507838737E+01  0.36139959018E+02  0.00000000000E+00 0. -1.
</event>
<event>
 7    1  0.5622879E-006  0.8785005E+02  0.7818608E-02  0.1416729E+00
          2   -1    0    0  502    0  0.00000000000E+00  0.00000000000E+00  0.17997046004E+04  0.17997046004E+04  0.00000000000E+00 0. -1.
          1   -1    0    0  501    0 -0.00000000000E+00 -0.00000000000E+00 -0.90667187553E+03  0.90667187553E+03  0.00000000000E+00 0. -1.
         25    2    1    2    0    0  0.80955236829E+02  0.88354408244E+02  0.12447501152E+03  0.21325884753E+03  0.12500022292E+03 0.  0.
          2    1    1    2  501    0 -0.14388540035E+02 -0.32278210145E+02 -0.86075579970E+03  0.86148096882E+03  0.00000000000E+00 0. -1.
          1    1    1    2  502    0 -0.66566696794E+02 -0.56076198099E+02  0.16293135131E+04  0.16316366596E+04  0.00000000000E+00 0. -1.
         22    1    3    3    0    0  0.81010960952E+02  0.33387513200E+02  0.13131887343E+03  0.15786750252E+03  0.00000000000E+00 0.  1.
         22    1    3    3    0    0 -0.55724123106E-01  0.54966895044E+02 -0.68438619107E+01  0.55391345008E+02  0.00000000000E+00 0.  1.
</event>
<event>
 7    1  0.5622879E-006  0.2716770E+03  0.7818608E-02  0.1272638E+00
          2   -1    0    0  502    0  0.00000000000E+00  0.00000000000E+00  0.93108653987E+02  0.93108653987E+02  0.00000000000E+00 0. -1.
          1   -1    0    0  501    0 -0.00000000000E+00 -0.00000000000E+00 -0.25418620683E+04  0.25418620683E+04  0.00000000000E+00 0. -1.
         25    2    1    2    0    0  0.13339569389E+03  0.20064645940E+03 -0.11858039494E+04  0.12164767211E+04  0.12502477268E+03 0.  0.
          2    1    1    2  501    0  0.32571315476E+02  0.22535498889E+02 -0.10905480201E+04  0.10912670266E+04  0.00000000000E+00 0. -1.
          1    1    1    2  502    0 -0.16596700937E+03 -0.22318195828E+03 -0.17240144488E+03  0.32722697459E+03  0.00000000000E+00 0. -1.
         22    1    3    3    0    0  0.64328504892E+02  0.18503362297E+03 -0.76088323457E+03  0.78569643935E+03  0.00000000000E+00 0. -1.
         22    1    3    3    0    0  0.69067189001E+02  0.15612836422E+02 -0.42492071481E+03  0.43078028174E+03  0.00000000000E+00 0. -1.
</event>
<event>
 7    1  0.5622879E-006  0.5380848E+02  0.7818608E-02  0.1439577E+00
          2   -1    0    0  502    0  0.00000000000E+00  0.00000000000E+00  0.25750260546E+04  0.25750260546E+04  0.00000000000E+00 0. -1.
          1   -1    0    0  501    0 -0.00000000000E+00 -0.00000000000E+00 -0.20934809124E+03  0.20934809124E+03  0.00000000000E+00 0. -1.
         25    2    1    2    0    0 -0.74852360969E+02 -0.56038960282E+02  0.26173226421E+02  0.15828302044E+03  0.12500094306E+03 0.  0.
          2    1    1    2  501    0  0.50034098649E+02  0.14371447250E+02 -0.13832007640E+03  0.14779172189E+03  0.00000000000E+00 0. -1.
          1    1    1    2  502    0  0.24818262319E+02  0.41667513031E+02  0.24778248133E+04  0.24782994035E+04  0.00000000000E+00 0. -1.
         22    1    3    3    0    0  0.29575779983E+02 -0.40509980707E+02  0.33606682258E+01  0.50270064545E+02  0.00000000000E+00 0.  1.
         22    1    3    3    0    0 -0.10442814095E+03 -0.15528979575E+02  0.22812558195E+02  0.10801295589E+03  0.00000000000E+00 0.  1.
</event>
<event>
 7    1  0.5622879E-006  0.6333532E+02  0.7818608E-02  0.1423114E+00
          2   -1    0    0  502    0  0.00000000000E+00  0.00000000000E+00  0.20297755985E+04  0.20297755985E+04  0.00000000000E+00 0. -1.
          1   -1    0    0  501    0 -0.00000000000E+00 -0.00000000000E+00 -0.28133457859E+02  0.28133457859E+02  0.00000000000E+00 0. -1.
         25    2    1    2    0    0  0.54437080499E+01 -0.10534302407E+03  0.87027145971E+03  0.88550755876E+03  0.12499774543E+03 0.  0.
          2    1    1    2  501    0  0.11760608240E+01  0.46654448976E+02  0.78443810758E+01  0.47323937312E+02  0.00000000000E+00 0. -1.
          1    1    1    2  502    0 -0.66197688739E+01  0.58688575097E+02  0.11235262999E+04  0.11250775603E+04  0.00000000000E+00 0. -1.
         22    1    3    3    0    0  0.42625810011E+01  0.18335411541E+02  0.25316070781E+02  0.31547747193E+02  0.00000000000E+00 0.  1.
         22    1    3    3    0    0  0.11811270488E+01 -0.12367843561E+03  0.84495538893E+03  0.85395981157E+03  0.00000000000E+00 0.  1.
</event>
<event>
 7    1  0.5622879E-006  0.5100464E+02  0.7818608E-02  0.1491902E+00
          2   -1    0    0  502    0  0.00000000000E+00  0.00000000000E+00  0.93959913764E+01  0.93959913764E+01  0.00000000000E+00 0. -1.
          1   -1    0    0  501    0 -0.00000000000E+00 -0.00000000000E+00 -0.16027332244E+04  0.16027332244E+04  0.00000000000E+00 0. -1.
         25    2    1    2    0    0  0.23856190780E+02 -0.37968378961E+02 -0.76562238728E+03  0.77705505538E+03  0.12500481409E+03 0.  0.
          2    1    1    2  501    0 -0.30605815269E+02 -0.17162490933E+02 -0.58643727072E+03  0.58748611858E+03  0.00000000000E+00 0. -1.
          1    1    1    2  502    0  0.67496244887E+01  0.55130869894E+02 -0.24127757499E+03  0.24758804179E+03  0.00000000000E+00 0. -1.
         22    1    3    3    0    0  0.64154614702E+02 -0.57186446183E+02 -0.43269772229E+03  0.44115011400E+03  0.00000000000E+00 0. -1.
         22    1    3    3    0    0 -0.40298423922E+02  0.19218067222E+02 -0.33292466499E+03  0.33590494137E+03  0.00000000000E+00 0. -1.
</event>
<event>
 7    1  0.5622879E-006  0.9152612E+02  0.7818608E-02  0.1376670E+00
          2   -1    0    0  502    0  0.00000000000E+00  0.00000000000E+00  0.51114182547E+04  0.51114182547E+04  0.00000000000E+00 0. -1.
          1   -1    0    0  501    0 -0.00000000000E+00 -0.00000000000E+00 -0.65207108957E+02  0.65207108957E+02  0.00000000000E+00 0. -1.
         25    2    1    2    0    0  0.12059825545E+03 -0.65455520702E+02  0.18117862213E+04  0.18212696099E+04  0.12500126425E+03 0.  0.
          2    1    1    2  501    0 -0.78417769473E+02  0.45515618483E+02 -0.26213866564E+02  0.94383181209E+02  0.00000000000E+00 0. -1.
          1    1    1    2  502    0 -0.42180485977E+02  0.19939902219E+02  0.32606387910E+04  0.32609725725E+04  0.00000000000E+00 0. -1.
         22    1    3    3    0    0 -0.17009487832E+02  0.47921902978E+01  0.56554416576E+02  0.59251074238E+02  0.00000000000E+00 0. -1.
         22    1    3    3    0    0  0.13760774328E+03 -0.70247711000E+02  0.17552318047E+04  0.17620185357E+04  0.00000000000E+00 0. -1.
</event>
<event>
 7    1  0.5622879E-006  0.9877174E+02  0.7818608E-02  0.1431806E+00
          2   -1    0    0  502    0  0.00000000000E+00  0.00000000000E+00  0.12698398690E+04  0.12698398690E+04  0.00000000000E+00 0. -1.
          1   -1    0    0  501    0 -0.00000000000E+00 -0.00000000000E+00 -0.59518959971E+03  0.59518959971E+03  0.00000000000E+00 0. -1.
         25    2    1    2    0    0  0.46598414031E+02  0.10468838145E+03  0.31141400469E+02  0.17241152064E+03  0.12499950490E+03 0.  0.
          2    1    1    2  501    0 -0.26743695255E+02 -0.83297447317E+01 -0.52210681597E+03  0.52285766434E+03  0.00000000000E+00 0. -1.
          1    1    1    2  502    0 -0.19854718776E+02 -0.96358636721E+02  0.11656156848E+04  0.11697602837E+04  0.00000000000E+00 0. -1.
         22    1    3    3    0    0 -0.40772258958E+01  0.39104056662E+02 -0.45076022164E+02  0.59813031962E+02  0.00000000000E+00 0.  1.
         22    1    3    3    0    0  0.50675639927E+02  0.65584324791E+02  0.76217422632E+02  0.11259848868E+03  0.00000000000E+00 0.  1.
</event>
<event>
 7    1  0.5622879E-006  0.7957020E+02  0.7818608E-02  0.1430600E+00
          2   -1    0    0  502    0  0.00000000000E+00  0.00000000000E+00  0.18346410396E+02  0.18346410396E+02  0.00000000000E+00 0. -1.
          1   -1    0    0  501    0 -0.00000000000E+00 -0.00000000000E+00 -0.20532152449E+04  0.20532152449E+04  0.00000000000E+00 0. -1.
         25    2    1    2    0    0 -0.13925643740E+02  0.50372078791E+02 -0.49102122305E+03  0.50936985353E+03  0.12499814530E+03 0.  0.
          2    1    1    2  501    0  0.41510994353E+02 -0.72058289670E+02 -0.15135489333E+04  0.15158317628E+04  0.00000000000E+00 0. -1.
          1    1    1    2  502    0 -0.27585350613E+02  0.21686210879E+02 -0.30298678166E+02  0.46360038927E+02  0.00000000000E+00 0. -1.
         22    1    3    3    0    0 -0.66863881280E+02  0.41023390463E+02 -0.23438986892E+03  0.24716858182E+03  0.00000000000E+00 0. -1.
         22    1    3    3    0    0  0.52938237540E+02  0.93486883275E+01 -0.25663135413E+03  0.26220127172E+03  0.00000000000E+00 0. -1.
</event>
<event>
 7    1  0.5622879E-006  0.7186879E+02  0.7818608E-02  0.1364357E+00
          2   -1    0    0  502    0  0.00000000000E+00  0.00000000000E+00  0.11219893305E+04  0.11219893305E+04  0.00000000000E+00 0. -1.
          1   -1    0    0  501    0 -0.00000000000E+00 -0.00000000000E+00 -0.55513367293E+02  0.55513367293E+02  0.00000000000E+00 0. -1.
         25    2    1    2    0    0 -0.62667557574E+02 -0.63240459329E+02  0.36088180867E+03  0.39215449858E+03  0.12499156956E+03 0.  0.
          2    1    1    2  501    0 -0.10085557113E+02  0.65010471157E+02 -0.95790189444E+01  0.66481857873E+02  0.00000000000E+00 0. -1.
          1    1    1    2  502    0  0.72753114687E+02 -0.17700118272E+01  0.71517317351E+03  0.71886634136E+03  0.00000000000E+00 0. -1.
         22    1    3    3    0    0 -0.93328154610E+02 -0.41846372095E+02  0.32350496645E+03  0.33928855951E+03  0.00000000000E+00 0.  1.
         22    1    3    3    0    0  0.30660597036E+02 -0.21394087235E+02  0.37376842221E+02  0.52865939069E+02  0.00000000000E+00 0.  1.
</event>
<event>
 7    1  0.5622879E-006  0.6430518E+02  0.7818608E-02  0.1515000E+00
          2   -1    0    0  502    0  0.00000000000E+00  0.00000000000E+00  0.25124730690E+04  0.25124730690E+04  0.00000000000E+00 0. -1.
          1   -1    0    0  501    0 -0.00000000000E+00 -0.00000000000E+00 -0.70961222275E+02  0.70961222275E+02  0.00000000000E+00 0. -1.
         25    2    1    2    0    0 -0.76862937704E+01 -0.44888038157E+02  0.10293024605E+04  0.10378646568E+04  0.12500190232E+03 0.  0.
          2    1    1    2  501    0 -0.13616638955E+02 -0.19477033851E+02 -0.63759493439E+02  0.68044402471E+02  0.00000000000E+00 0. -1.
          1    1    1    2  502    0  0.21302932726E+02  0.64365072008E+02  0.14759688797E+04  0.14775252320E+04  0.00000000000E+00 0. -1.
         22    1    3    3    0    0  0.28476421879E+02  0.22406584918E+02  0.64643526063E+03  0.64745000412E+03  0.00000000000E+00 0.  1.
         22    1    3    3    0    0 -0.36162715649E+02 -0.67294623075E+02  0.38286719986E+03  0.39041465268E+03  0.00000000000E+00 0.  1.
</event>
<event>
 7    1  0.5622879E-006  0.2672374E+03  0.7818608E-02  0.1193187E+00
          2   -1    0    0  502    0  0.00000000000E+00  0.00000000000E+00  0.20081969459E+03  0.20081969459E+03  0.00000000000E+00 0. -1.
          1   -1    0    0  501    0 -0.00000000000E+00 -0.00000000000E+00 -0.69513690654E+03  0.69513690654E+03  0.00000000000E+00 0. -1.
         25    2    1    2    0    0  0.87256565301E+02  0.20772801652E+03 -0.11112801732E+03  0.28060134034E+03  0.12499215547E+03 0.  0.
          2    1    1    2  501    0 -0.45323818699E+02 -0.28867793797E+03 -0.42442917278E+03  0.51529537464E+03  0.00000000000E+00 0. -1.
          1    1    1    2  502    0 -0.41932746602E+02  0.80949921445E+02  0.41239978156E+02  0.10005988616E+03  0.00000000000E+00 0. -1.
         22    1    3    3    0    0  0.97452742910E+02  0.73750679024E+02 -0.65770131918E+02  0.13878728331E+03  0.00000000000E+00 0. -1.
         22    1    3    3    0    0 -0.10196177609E+02  0.13397733750E+03 -0.45357885404E+02  0.14181405702E+03  0.00000000000E+00 0. -1.
</event>
<event>
 7    1  0.6600092E-006  0.8848335E+02  0.7818608E-02  0.1333419E+00
          2   -1    0    0  502    0  0.00000000000E+00  0.00000000000E+00  0.22381651009E+04  0.22381651009E+04  0.00000000000E+00 0. -1.
          1   -1    0    0  501    0 -0.00000000000E+00 -0.00000000000E+00 -0.15989728036E+04  0.15989728036E+04  0.00000000000E+00 0. -1.
         25    2    1    2    0    0  0.11648152655E+03 -0.48954417075E+02 -0.10250078341E+03  0.20520339493E+03  0.12505015679E+03 0.  0.
          2    1    1    2  501    0 -0.65594198353E+02 -0.23298762015E+02 -0.14433887573E+04  0.14450662738E+04  0.00000000000E+00 0. -1.
          1    1    1    2  502    0 -0.50887328199E+02  0.72253179090E+02  0.21850818380E+04  0.21868682358E+04  0.00000000000E+00 0. -1.
         22    1    3    3    0    0 -0.61806892254E+01 -0.46711402367E+02 -0.29485783950E+01  0.47210699476E+02  0.00000000000E+00 0. -1.
         22    1    3    3    0    0  0.12266221578E+03 -0.22430147080E+01 -0.99552205014E+02  0.15799269546E+03  0.00000000000E+00 0. -1.
</event>
<event>
 7    1  0.5622879E-006  0.6340039E+02  0.7818608E-02  0.1408406E+00
          2   -1    0    0  502    0  0.00000000000E+00  0.00000000000E+00  0.17628946962E+04  0.17628946962E+04  0.00000000000E+00 0. -1.
          1   -1    0    0  501    0 -0.00000000000E+00 -0.00000000000E+00 -0.24640842830E+03  0.24640842830E+03  0.00000000000E+00 0. -1.
         25    2    1    2    0    0 -0.67036915972E+02 -0.43796562300E+01  0.28127023293E+03  0.31504078064E+03  0.12499848016E+03 0.  0.
          2    1    1    2  501    0  0.40310552153E+02  0.49267022902E+02 -0.22463323411E+03  0.23347862863E+03  0.00000000000E+00 0. -1.
          1    1    1    2  502    0  0.26726363818E+02 -0.44887366672E+02  0.14598492691E+04  0.14607837152E+04  0.00000000000E+00 0. -1.
         22    1    3    3    0    0 -0.51448322546E+02 -0.24695998477E+02  0.33960642281E+02  0.66408941098E+02  0.00000000000E+00 0.  1.
         22    1    3    3    0    0 -0.15588593426E+02  0.20316342247E+02  0.24730959064E+03  0.24863183954E+03  0.00000000000E+00 0.  1.
</event>
<event>
 7    1  0.5622879E-006  0.1715105E+03  0.7818608E-02  0.1307303E+00
          2   -1    0    0  502    0  0.00000000000E+00  0.00000000000E+00  0.15980944788E+04  0.15980944788E+04  0.00000000000E+00 0. -1.
          1   -1    0    0  501    0 -0.00000000000E+00 -0.00000000000E+00 -0.13421584938E+04  0.13421584938E+04  0.00000000000E+00 0. -1.
         25    2    1    2    0    0 -0.11586608821E+03  0.89296853416E+02 -0.21488260918E+03  0.28844100623E+03  0.12499919969E+03 0.  0.
          2    1    1    2  501    0 -0.41175280535E+02 -0.18990804225E+02 -0.10852814490E+04  0.10862282808E+04  0.00000000000E+00 0. -1.
          1    1    1    2  502    0  0.15704136874E+03 -0.70306049191E+02  0.15561000432E+04  0.15655836855E+04  0.00000000000E+00 0. -1.
         22    1    3    3    0    0 -0.13883985490E+03  0.73706886109E+02 -0.20633634633E+03  0.25939139960E+03  0.00000000000E+00 0. -1.
         22    1    3    3    0    0  0.22973766696E+02  0.15589967307E+02 -0.85462628459E+01  0.29049606632E+02  0.00000000000E+00 0. -1.
</event>
<event>
 7    1  0.5622879E-006  0.8414336E+02  0.7818608E-02  0.1325840E+00
          2   -1    0    0  502    0  0.00000000000E+00  0.00000000000E+00  0.48419182365E+03  0.48419182365E+03  0.00000000000E+00 0. -1.
          1   -1    0    0  501    0 -0.00000000000E+00 -0.00000000000E+00 -0.13804531518E+04  0.13804531518E+04  0.00000000000E+00 0. -1.
         25    2    1    2    0    0  0.21408744768E+02 -0.14135314775E+03 -0.12200626353E+03  0.22571890792E+03  0.12499780126E+03 0.  0.
          2    1    1    2  501    0 -0.47275741891E+02  0.62352964468E+02 -0.12013100903E+04  0.12038558140E+04  0.00000000000E+00 0. -1.
          1    1    1    2  502    0  0.25866997123E+02  0.79000183282E+02  0.42705502569E+03  0.43507025348E+03  0.00000000000E+00 0. -1.
         22    1    3    3    0    0 -0.39819695910E+02 -0.11554279553E+02 -0.50609213896E+02  0.65424781921E+02  0.00000000000E+00 0.  1.
         22    1    3    3    0    0  0.61228440678E+02 -0.12979886820E+03 -0.71397049636E+02  0.16029412600E+03  0.00000000000E+00 0.  1.
</event>
<event>
 7    1  0.5622879E-006  0.3079441E+02  0.7818608E-02  0.1656570E+00
          2   -1    0    0  502    0  0.00000000000E+00  0.00000000000E+00  0.18479537167E+04  0.18479537167E+04  0.00000000000E+00 0. -1.
          1   -1    0    0  501    0 -0.00000000000E+00 -0.00000000000E+00 -0.18035249869E+02  0.18035249869E+02  0.00000000000E+00 0. -1.
         25    2    1    2    0    0 -0.24219957571E+02 -0.64172635102E+01  0.57838466289E+03  0.59226787898E+03  0.12499853836E+03 0.  0.
          2    1    1    2  501    0  0.27903273980E+02 -0.14058570976E+02  0.11167852102E+02  0.33180672646E+02  0.00000000000E+00 0. -1.
          1    1    1    2  502    0 -0.36833164093E+01  0.20475834486E+02  0.12403659518E+04  0.12405404149E+04  0.00000000000E+00 0. -1.
         22    1    3    3    0    0 -0.36330157977E+02  0.54139621996E+02  0.32392485057E+03  0.33042137925E+03  0.00000000000E+00 0.  1.
         22    1    3    3    0    0  0.12110200406E+02 -0.60556885506E+02  0.25445981232E+03  0.26184649973E+03  0.00000000000E+00 0.  1.
</event>
<event>
 7    1  0.5622879E-006  0.1560327E+03  0.7818608E-02  0.1216290E+00
          2   -1    0    0  502    0  0.00000000000E+00  0.00000000000E+00  0.11160752357E+04  0.11160752357E+04  0.00000000000E+00 0. -1.
          1   -1    0    0  501    0 -0.00000000000E+00 -0.00000000000E+00 -0.41196343390E+03  0.41196343390E+03  0.00000000000E+00 0. -1.
         25    2    1    2    0    0  0.15442760639E+03  0.42652821305E+02 -0.16555661644E+02  0.20387732536E+03  0.12499890034E+03 0.  0.
          2    1    1    2  501    0 -0.83188163675E+02 -0.14136923842E+03 -0.27547274969E+03  0.32060999356E+03  0.00000000000E+00 0. -1.
          1    1    1    2  502    0 -0.71239442710E+02  0.98716417118E+02  0.99614021318E+03  0.10035513507E+04  0.00000000000E+00 0. -1.
         22    1    3    3    0    0  0.11481508464E+02  0.40954722371E+02 -0.40731680163E+02  0.58891290442E+02  0.00000000000E+00 0.  1.
         22    1    3    3    0    0  0.14294609792E+03  0.16980989341E+01  0.24176018519E+02  0.14498603492E+03  0.00000000000E+00 0.  1.
</event>
<event>
 7    1  0.5622879E-006  0.4628486E+02  0.7818608E-02  0.1478927E+00
          2   -1    0    0  502    0  0.00000000000E+00  0.00000000000E+00  0.53422526685E+03  0.53422526685E+03  0.00000000000E+00 0. -1.
          1   -1    0    0  501    0 -0.00000000000E+00 -0.00000000000E+00 -0.19395460308E+03  0.19395460308E+03  0.00000000000E+00 0. -1.
         25    2    1    2    0    0  0.41016689986E+02  0.64727043866E-01  0.55611517356E+01  0.13167830910E+03  0.12500351047E+03 0.  0.
          2    1    1    2  501    0 -0.26494493207E+02  0.39717508703E+02 -0.12553775741E+03  0.13430996688E+03  0.00000000000E+00 0. -1.
          1    1    1    2  502    0 -0.14522196780E+02 -0.39782235747E+02  0.46024726945E+03  0.46219159395E+03  0.00000000000E+00 0. -1.
         22    1    3    3    0    0 -0.34229236249E+02  0.34603362123E+02  0.44630135477E+01  0.48876904304E+02  0.00000000000E+00 0. -1.
         22    1    3    3    0    0  0.75245926235E+02 -0.34538635079E+02  0.10981381880E+01  0.82801404793E+02  0.00000000000E+00 0. -1.
</event>
<event>
 7    1  0.5622879E-006  0.7848700E+02  0.7818608E-02  0.1410809E+00
          2   -1    0    0  502    0  0.00000000000E+00  0.00000000000E+00  0.23263058455E+03  0.23263058455E+03  0.00000000000E+00 0. -1.
          1   -1    0    0  501    0 -0.00000000000E+00 -0.00000000000E+00 -0.73450965575E+03  0.73450965575E+03  0.00000000000E+00 0. -1.
         25    2    1    2    0    0 -0.69790295141E+02  0.35111512903E+02  0.52081921481E+01  0.14749806642E+03  0.12500020279E+03 0.  0.
          2    1    1    2  501    0  0.26350193763E+02  0.31951596459E+02 -0.65245165083E+03  0.65376478484E+03  0.00000000000E+00 0. -1.
          1    1    1    2  502    0  0.43440101378E+02 -0.67063109362E+02  0.14536438748E+03  0.16587738903E+03  0.00000000000E+00 0. -1.
         22    1    3    3    0    0 -0.93931996966E+02  0.61000343930E+02  0.45455214647E+01  0.11209337081E+03  0.00000000000E+00 0. -1.
         22    1    3    3    0    0  0.24141701825E+02 -0.25888831027E+02  0.66267068340E+00  0.35404695612E+02  0.00000000000E+00 0. -1.
</event>
<event>
 7    1  0.5622879E-006  0.2919480E+02  0.7818608E-02  0.1637473E+00
          2   -1    0    0  502    0  0.00000000000E+00  0.00000000000E+00  0.60425721913E+03  0.60425721913E+03  0.00000000000E+00 0. -1.
          1   -1    0    0  501    0 -0.00000000000E+00 -0.00000000000E+00 -0.10762601358E+03  0.10762601358E+03  0.00000000000E+00 0. -1.
         25    2    1    2    0    0 -0.10032139401E+02  0.37788452313E+01  0.75697584844E+02  0.14652933594E+03  0.12500319375E+03 0.  0.
          2    1    1    2  501    0  0.25839454150E+02  0.14878053868E+02 -0.68814096234E+02  0.74996091353E+02  0.00000000000E+00 0. -1.
          1    1    1    2  502    0 -0.15807314749E+02 -0.18656899100E+02  0.48974771694E+03  0.49035780542E+03  0.00000000000E+00 0. -1.
         22    1    3    3    0    0  0.39199536813E+02  0.39450274390E+02  0.90980699007E+01  0.56353373561E+02  0.00000000000E+00 0.  1.
         22    1    3    3    0    0 -0.49231676213E+02 -0.35671429159E+02  0.66599514944E+02  0.90175962383E+02  0.00000000000E+00 0.  1.
</event>
<event>
 7    1  0.5622879E-006  0.7462828E+02  0.7818608E-02  0.1493101E+00
          2   -1    0    0  502    0  0.00000000000E+00  0.00000000000E+00  0.62937790404E+03  0.62937790404E+03  0.00000000000E+00 0. -1.
          1   -1    0    0  501    0 -0.00000000000E+00 -0.00000000000E+00 -0.47421912378E+03  0.47421912378E+03  0.00000000000E+00 0. -1.
         25    2    1    2    0    0 -0.33335403154E+01  0.59158440498E+02 -0.17070778008E+02  0.13938258186E+03  0.12500103637E+03 0.  0.
          2    1    1    2  501    0 -0.20435135034E+02  0.12167236044E+02 -0.39314467438E+03  0.39386339176E+03  0.00000000000E+00 0. -1.
          1    1    1    2  502    0  0.23768675350E+02 -0.71325676541E+02  0.56537423265E+03  0.57035105418E+03  0.00000000000E+00 0. -1.
         22    1    3    3    0    0  0.42429830267E+02  0.77935193854E+01  0.32984815260E+02  0.54304948933E+02  0.00000000000E+00 0. -1.
         22    1    3    3    0    0 -0.45763370582E+02  0.51364921112E+02 -0.50055593268E+02  0.85077632932E+02  0.00000000000E+00 0. -1.
</event>
<event>
 7    1  0.5622879E-006  0.1611520E+03  0.7818608E-02  0.1224358E+00
          2   -1    0    0  502    0  0.00000000000E+00  0.00000000000E+00  0.35383240556E+03  0.35383240556E+03  0.00000000000E+00 0. -1.
          1   -1    0    0  501    0 -0.00000000000E+00 -0.00000000000E+00 -0.66848261662E+03  0.66848261662E+03  0.00000000000E+00 0. -1.
         25    2    1    2    0    0  0.67348361368E+02  0.13196383672E+03 -0.11170669928E+03  0.22372765293E+03  0.12500168017E+03 0.  0.
          2    1    1    2  501    0  0.86259149224E+02 -0.65487109238E+02 -0.47060290588E+03  0.48290402497E+03  0.00000000000E+00 0. -1.
          1    1    1    2  502    0 -0.15360751059E+03 -0.66476727478E+02  0.26765939410E+03  0.31568334428E+03  0.00000000000E+00 0. -1.
         22    1    3    3    0    0 -0.11120156167E+02  0.73223210184E+02 -0.10082843090E+03  0.12510662996E+03  0.00000000000E+00 0.  1.
         22    1    3    3    0    0  0.78468517535E+02  0.58740626533E+02 -0.10878268381E+02  0.98621022975E+02  0.00000000000E+00 0.  1.
</event>
<event>
 7    1  0.5622879E-006  0.7553179E+02  0.7818608E-02  0.1496092E+00
          2   -1    0    0  502    0  0.00000000000E+00  0.00000000000E+00  0.14887787516E+04  0.14887787516E+04  0.00000000000E+00 0. -1.
          1   -1    0    0  501    0 -0.00000000000E+00 -0.00000000000E+00 -0.46333832855E+03  0.46333832855E+03  0.00000000000E+00 0. -1.
         25    2    1    2    0    0 -0.37778704377E+02 -0.60012891095E+02 -0.54268156691E+02  0.15362006875E+03  0.12500126035E+03 0.  0.
          2    1    1    2  501    0  0.18862716210E+02 -0.13190352001E+02 -0.35803133951E+03  0.35877043847E+03  0.00000000000E+00 0. -1.
          1    1    1    2  502    0  0.18915988167E+02  0.73203243096E+02  0.14377399193E+04  0.14397265730E+04  0.00000000000E+00 0. -1.
         22    1    3    3    0    0 -0.31274617033E+02 -0.58496230678E+02  0.27335501760E+02  0.71743573445E+02  0.00000000000E+00 0. -1.
         22    1    3    3    0    0 -0.65040873444E+01 -0.15166604163E+01 -0.81603658451E+02  0.81876495306E+02  0.00000000000E+00 0. -1.
</event>
<event>
 7    1  0.5622879E-006  0.1085566E+03  0.7818608E-02  0.1326910E+00
          2   -1    0    0  502    0  0.00000000000E+00  0.00000000000E+00  0.47961160389E+03  0.47961160389E+03  0.00000000000E+00 0. -1.
          1   -1    0    0  501    0 -0.00000000000E+00 -0.00000000000E+00 -0.63157113754E+03  0.63157113754E+03  0.00000000000E+00 0. -1.
         25    2    1    2    0    0  0.11144251392E+03  0.75199176195E+02  0.42955660676E+02  0.18852252129E+03  0.12498480803E+03 0.  0.
          2    1    1    2  501    0 -0.10687498991E+03 -0.15293056267E+02 -0.55103297642E+03  0.56151000182E+03  0.00000000000E+00 0. -1.
          1    1    1    2  502    0 -0.45675240175E+01 -0.59906119928E+02  0.35611778209E+03  0.36115021833E+03  0.00000000000E+00 0. -1.
         22    1    3    3    0    0  0.11509694451E+03  0.61784224126E+02  0.77078140096E+02  0.15167609129E+03  0.00000000000E+00 0.  1.
         22    1    3    3    0    0 -0.36544305890E+01  0.13414952069E+02 -0.34122479421E+02  0.36846430000E+02  0.00000000000E+00 0.  1.
</event>
<event>
 7    1  0.5622879E-006  0.8056316E+02  0.7818608E-02  0.1408487E+00
          2   -1    0    0  502    0  0.00000000000E+00  0.00000000000E+00  0.18554865545E+04  0.18554865545E+04  0.00000000000E+00 0. -1.
          1   -1    0    0  501    0 -0.00000000000E+00 -0.00000000000E+00 -0.85123951695E+03  0.85123951695E+03  0.00000000000E+00 0. -1.
         25    2    1    2    0    0  0.44199256703E+02 -0.10034366762E+02  0.94787425605E+03  0.95715232855E+03  0.12498284668E+03 0.  0.
          2    1    1    2  501    0 -0.80002107658E+02 -0.10120902096E+02 -0.84421079503E+03  0.84805343956E+03  0.00000000000E+00 0. -1.
          1    1    1    2  502    0  0.35802850956E+02  0.20155268857E+02  0.90058357658E+03  0.90152030338E+03  0.00000000000E+00 0. -1.
         22    1    3    3    0    0  0.41065896952E+02 -0.65041388672E+02  0.49544080332E+03  0.50137648501E+03  0.00000000000E+00 0.  1.
         22    1    3    3    0    0  0.31333597509E+01  0.55007021910E+02  0.45243345273E+03  0.45577584354E+03  0.00000000000E+00 0.  1.
</event>
<event>
 7    1  0.5622879E-006  0.7627773E+02  0.7818608E-02  0.1450692E+00
          2   -1    0    0  502    0  0.00000000000E+00  0.00000000000E+00  0.11790991498E+04  0.11790991498E+04  0.00000000000E+00 0. -1.
          1   -1    0    0  501    0 -0.00000000000E+00 -0.00000000000E+00 -0.21725989640E+03  0.21725989640E+03  0.00000000000E+00 0. -1.
         25    2    1    2    0    0 -0.29748980114E+01  0.61534906436E+02  0.32849681931E+03  0.35683381033E+03  0.12499925268E+03 0.  0.
          2    1    1    2  501    0 -0.26789389353E+02 -0.71860922213E+02 -0.19554129655E+03  0.21004300079E+03  0.00000000000E+00 0. -1.
          1    1    1    2  502    0  0.29764287365E+02  0.10326015777E+02  0.82888373068E+03  0.82948223513E+03  0.00000000000E+00 0. -1.
         22    1    3    3    0    0 -0.52700845578E+02  0.34104168794E+02  0.78729710154E+02  0.10069181056E+03  0.00000000000E+00 0.  1.
         22    1    3    3    0    0  0.49725947567E+02  0.27430737642E+02  0.24976710915E+03  0.25614199976E+03  0.00000000000E+00 0.  1.
</event>
<event>
 7    1  0.5622879E-006  0.1502008E+03  0.7818608E-02  0.1270177E+00
          2   -1    0    0  502    0  0.00000000000E+00  0.00000000000E+00  0.58887333789E+03  0.58887333789E+03  0.00000000000E+00 0. -1.
          1   -1    0    0  501    0 -0.00000000000E+00 -0.00000000000E+00 -0.31833287917E+04  0.31833287917E+04  0.00000000000E+00 0. -1.
         25    2    1    2    0    0  0.10428201257E+03  0.18685386295E+03 -0.90122522629E+03  0.93467711300E+03  0.12500117127E+03 0.  0.
          2    1    1    2  501    0 -0.78193483073E+02 -0.11828860372E+03 -0.22607956793E+04  0.22652380709E+04  0.00000000000E+00 0. -1.
          1    1    1    2  502    0 -0.26088529494E+02 -0.68565259237E+02  0.56756545175E+03  0.57228694566E+03  0.00000000000E+00 0. -1.
         22    1    3    3    0    0 -0.29047553541E+02  0.38526080651E+02 -0.18762779266E+03  0.19373230973E+03  0.00000000000E+00 0.  1.
         22    1    3    3    0    0  0.13332956611E+03  0.14832778230E+03 -0.71359743364E+03  0.74094480327E+03  0.00000000000E+00 0.  1.
</event>
<event>
 7    1  0.5622879E-006  0.3090454E+03  0.7818608E-02  0.1236651E+00
          2   -1    0    0  502    0  0.00000000000E+00  0.00000000000E+00  0.30564145050E+04  0.30564145050E+04  0.00000000000E+00 0. -1.
          1   -1    0    0  501    0 -0.00000000000E+00 -0.00000000000E+00 -0.87759086807E+03  0.87759086807E+03  0.00000000000E+00 0. -1.
         25    2    1    2    0    0 -0.32445453700E+03  0.33574483119E+02  0.12689757293E+04  0.13161772308E+04  0.12500043501E+03 0.  0.
          2    1    1    2  501    0  0.29914645984E+03 -0.76403991575E+02 -0.82571593412E+03  0.88155146090E+03  0.00000000000E+00 0. -1.
          1    1    1    2  502    0  0.25308077160E+02  0.42829508456E+02  0.17355638417E+04  0.17362766813E+04  0.00000000000E+00 0. -1.
         22    1    3    3    0    0 -0.14085039571E+03  0.77026124276E+02  0.59956365931E+03  0.62068384815E+03  0.00000000000E+00 0.  1.
         22    1    3    3    0    0 -0.18360414129E+03 -0.43451641157E+02  0.66941207003E+03  0.69549338266E+03  0.00000000000E+00 0.  1.
</event>
<event>
 7    1  0.5622879E-006  0.9191355E+02  0.7818608E-02  0.1454441E+00
          2   -1    0    0  502    0  0.00000000000E+00  0.00000000000E+00  0.48895864558E+03  0.48895864558E+03  0.00000000000E+00 0. -1.
          1   -1    0    0  501    0 -0.00000000000E+00 -0.00000000000E+00 -0.23102627471E+03  0.23102627471E+03  0.00000000000E+00 0. -1.
         25    2    1    2    0    0  0.61372650051E+02  0.33001149230E+02  0.58848811704E+02  0.15473579870E+03  0.12499722691E+03 0.  0.
          2    1    1    2  501    0  0.24518718824E+02  0.67679875265E+01 -0.17629541010E+03  0.17812087146E+03  0.00000000000E+00 0. -1.
          1    1    1    2  502    0 -0.85891368875E+02 -0.39769136756E+02  0.37537896926E+03  0.38712825013E+03  0.00000000000E+00 0. -1.
         22    1    3    3    0    0 -0.14480449869E+02 -0.26885332381E+02 -0.14115298470E+02  0.33641435411E+02  0.00000000000E+00 0. -1.
         22    1    3    3    0    0  0.75853099920E+02  0.59886481611E+02  0.72964110174E+02  0.12109436329E+03  0.00000000000E+00 0. -1.
</event>
<event>
 7    1  0.5622879E-006  0.1267202E+03  0.7818608E-02  0.1290790E+00
          2   -1    0    0  502    0  0.00000000000E+00  0.00000000000E+00  0.29437490295E+04  0.29437490295E+04  0.00000000000E+00 0. -1.
          1   -1    0    0  501    0 -0.00000000000E+00 -0.00000000000E+00 -0.51816292909E+03  0.51816292909E+03  0.00000000000E+00 0. -1.
         25    2    1    2    0    0 -0.73776090658E+02  0.40273574334E+02  0.47384741526E+02  0.15790905690E+03  0.12500033672E+03 0.  0.
          2    1    1    2  501    0  0.98441154901E+01  0.70796038222E+02 -0.45868629701E+03  0.46422204245E+03  0.00000000000E+00 0. -1.
          1    1    1    2  502    0  0.63931975168E+02 -0.11106961256E+03  0.28368876559E+04  0.28397808592E+04  0.00000000000E+00 0. -1.
         22    1    3    3    0    0 -0.82281663295E+02  0.81836837110E+01  0.77321045140E+02  0.11320684085E+03  0.00000000000E+00 0.  1.
         22    1    3    3    0    0  0.85055726365E+01  0.32089890623E+02 -0.29936303614E+02  0.44702216054E+02  0.00000000000E+00 0.  1.
</event>
<event>
 7    1  0.5622879E-006  0.9027595E+02  0.7818608E-02  0.1344598E+00
          2   -1    0    0  502    0  0.00000000000E+00  0.00000000000E+00  0.15618020526E+04  0.15618020526E+04  0.00000000000E+00 0. -1.
          1   -1    0    0  501    0 -0.00000000000E+00 -0.00000000000E+00 -0.37965492016E+02  0.37965492016E+02  0.00000000000E+00 0. -1.
         25    2    1    2    0    0  0.31336455144E+02 -0.11064648780E+03  0.49013463419E+03  0.51873036625E+03  0.12499845819E+03 0.  0.
          2    1    1    2  501    0  0.24999335162E+02  0.84947621973E+02  0.63749578028E+02  0.10911037502E+03  0.00000000000E+00 0. -1.
          1    1    1    2  502    0 -0.56335790306E+02  0.25698865832E+02  0.96995234832E+03  0.97192680331E+03  0.00000000000E+00 0. -1.
         22    1    3    3    0    0  0.84065166028E+01 -0.26522152442E+02  0.82488027662E+01  0.29019594047E+02  0.00000000000E+00 0. -1.
         22    1    3    3    0    0  0.22929938541E+02 -0.84124335363E+02  0.48188583143E+03  0.48971077220E+03  0.00000000000E+00 0. -1.
</event>
<event>
 7    1  0.5622879E-006  0.1522013E+03  0.7818608E-02  0.1286375E+00
          2   -1    0    0  502    0  0.00000000000E+00  0.00000000000E+00  0.14120831624E+04  0.14120831624E+04  0.00000000000E+00 0. -1.
          1   -1    0    0  501    0 -0.00000000000E+00 -0.00000000000E+00 -0.15455274393E+04  0.15455274393E+04  0.00000000000E+00 0. -1.
         25    2    1    2    0    0 -0.12389790415E+03  0.12233856867E+03  0.61681426584E+03  0.65299439707E+03  0.12499771208E+03 0.  0.
          2    1    1    2  501    0  0.63896364679E+02 -0.13806740529E+03 -0.15224022779E+04  0.15299849834E+04  0.00000000000E+00 0. -1.
          1    1    1    2  502    0  0.60001539470E+02  0.15728836624E+02  0.77214373517E+03  0.77463122116E+03  0.00000000000E+00 0. -1.
         22    1    3    3    0    0 -0.11402370702E+03  0.90094925053E+02  0.59578669072E+03  0.61325384803E+03  0.00000000000E+00 0. -1.
         22    1    3    3    0    0 -0.98741971250E+01  0.32243643618E+02  0.21027575117E+02  0.39740549039E+02  0.00000000000E+00 0. -1.
</event>
<event>
 7    1  0.5622879E-006  0.5875178E+02  0.7818608E-02  0.1430123E+00
          2   -1    0    0  502    0  0.00000000000E+00  0.00000000000E+00  0.33899620057E+04  0.33899620057E+04  0.00000000000E+00 0. -1.
          1   -1    0    0  501    0 -0.00000000000E+00 -0.00000000000E+00 -0.20273578019E+03  0.20273578019E+03  0.00000000000E+00 0. -1.
         25    2    1    2    0    0 -0.77010709095E+02  0.71461407301E+02  0.45799027727E+02  0.16958729375E+03  0.12499966884E+03 0.  0.
          2    1    1    2  501    0  0.39855169095E+02 -0.26198211840E+02 -0.13653478101E+03  0.14462547229E+03  0.00000000000E+00 0. -1.
          1    1    1    2  502    0  0.37155540001E+02 -0.45263195460E+02  0.32779619788E+04  0.32784850199E+04  0.00000000000E+00 0. -1.
         22    1    3    3    0    0 -0.20719024048E+02  0.81174848478E+02 -0.16151510658E+02  0.85320016875E+02  0.00000000000E+00 0.  1.
         22    1    3    3    0    0 -0.56291685047E+02 -0.97134411777E+01  0.61950538386E+02  0.84267276871E+02  0.00000000000E+00 0.  1.
</event>
<event>
 7    1  0.5622879E-006  0.7551283E+02  0.7818608E-02  0.1368479E+00
          2   -1    0    0  502    0  0.00000000000E+00  0.00000000000E+00  0.66335726904E+03  0.66335726904E+03  0.00000000000E+00 0. -1.
          1   -1    0    0  501    0 -0.00000000000E+00 -0.00000000000E+00 -0.19454699726E+03  0.19454699726E+03  0.00000000000E+00 0. -1.
         25    2    1    2    0    0  0.53107621869E+02  0.11494233907E+03  0.51325056034E+02  0.18517627582E+03  0.12499532366E+03 0.  0.
          2    1    1    2  501    0 -0.12148777599E+02 -0.70413427310E+02 -0.11577337579E+03  0.13604821971E+03  0.00000000000E+00 0. -1.
          1    1    1    2  502    0 -0.40958844270E+02 -0.44528911764E+02  0.53325859154E+03  0.53667977078E+03  0.00000000000E+00 0. -1.
         22    1    3    3    0    0 -0.38764292493E+01  0.32263878545E+02  0.75236916634E+02  0.81954732548E+02  0.00000000000E+00 0. -1.
         22    1    3    3    0    0  0.56984051118E+02  0.82678460529E+02 -0.23911860600E+02  0.10322154327E+03  0.00000000000E+00 0. -1.
</event>
<event>
 7    1  0.5622879E-006  0.1346242E+03  0.7818608E-02  0.1337715E+00
          2   -1    0    0  502    0  0.00000000000E+00  0.00000000000E+00  0.13861731667E+04  0.13861731667E+04  0.00000000000E+00 0. -1.
          1   -1    0    0  501    0 -0.00000000000E+00 -0.00000000000E+00 -0.84094968823E+03  0.84094968823E+03  0.00000000000E+00 0. -1.
         25    2    1    2    0    0  0.13264333712E+03 -0.10328204693E+03  0.11111994951E+03  0.23714282427E+03  0.12501055886E+03 0.  0.
          2    1    1    2  501    0 -0.11861004287E+03  0.61507292152E+02 -0.77179600335E+03  0.78327553265E+03  0.00000000000E+00 0. -1.
          1    1    1    2  502    0 -0.14033294254E+02  0.41774754776E+02  0.12058995324E+04  0.12067044980E+04  0.00000000000E+00 0. -1.
         22    1    3    3    0    0  0.14687951704E+03 -0.97272439502E+02  0.63803526584E+02  0.18736704624E+03  0.00000000000E+00 0. -1.
         22    1    3    3    0    0 -0.14236179925E+02 -0.60096074262E+01  0.47316422921E+02  0.49775778029E+02  0.00000000000E+00 0. -1.
</event>
<event>
 7    1  0.5622879E-006  0.7183197E+02  0.7818608E-02  0.1453175E+00
          2   -1    0    0  502    0  0.00000000000E+00  0.00000000000E+00  0.14002231831E+04  0.14002231831E+04  0.00000000000E+00 0. -1.
          1   -1    0    0  501    0 -0.00000000000E+00 -0.00000000000E+00 -0.17129827616E+02  0.17129827616E+02  0.00000000000E+00 0. -1.
         25    2    1    2    0    0 -0.23680761982E+02 -0.83404221193E+02  0.51679040736E+03  0.53871523239E+03  0.12499893550E+03 0.  0.
          2    1    1    2  501    0  0.39690599939E+02  0.54719782997E+02  0.19231198385E+03  0.20384675006E+03  0.00000000000E+00 0. -1.
          1    1    1    2  502    0 -0.16009837957E+02  0.28684438196E+02  0.67399096428E+03  0.67479102828E+03  0.00000000000E+00 0. -1.
         22    1    3    3    0    0 -0.38199937174E+02  0.16633071033E+02  0.77983746211E+02  0.88415829608E+02  0.00000000000E+00 0. -1.
         22    1    3    3    0    0  0.14519175193E+02 -0.10003729223E+03  0.43880666114E+03  0.45029940279E+03  0.00000000000E+00 0. -1.
</event>
<event>
 7    1  0.5622879E-006  0.8510923E+02  0.7818608E-02  0.1414567E+00
          2   -1    0    0  502    0  0.00000000000E+00  0.00000000000E+00  0.51287038744E+03  0.51287038744E+03  0.00000000000E+00 0. -1.
          1   -1    0    0  501    0 -0.00000000000E+00 -0.00000000000E+00 -0.27228408579E+03  0.27228408579E+03  0.00000000000E+00 0. -1.
         25    2    1    2    0    0  0.11572621808E+03 -0.14745092484E+02 -0.62360687036E+01  0.17109825524E+03  0.12500299632E+03 0.  0.
          2    1    1    2  501    0 -0.35728179694E+02 -0.99713058052E+01 -0.17761090622E+03  0.18144300420E+03  0.00000000000E+00 0. -1.
          1    1    1    2  502    0 -0.79998038384E+02  0.24716398290E+02  0.42443327657E+03  0.43261321379E+03  0.00000000000E+00 0. -1.
         22    1    3    3    0    0  0.13812225594E+03 -0.16985587095E+02  0.15232059068E+02  0.13999386908E+03  0.00000000000E+00 0.  1.
         22    1    3    3    0    0 -0.22396037867E+02  0.22404946108E+01 -0.21468127772E+02  0.31104386158E+02  0.00000000000E+00 0.  1.
</event>
<event>
 7    1  0.5622879E-006  0.5907824E+02  0.7818608E-02  0.1535469E+00
          2   -1    0    0  502    0  0.00000000000E+00  0.00000000000E+00  0.31253366741E+03  0.31253366741E+03  0.00000000000E+00 0. -1.
          1   -1    0    0  501    0 -0.00000000000E+00 -0.00000000000E+00 -0.39508010133E+03  0.39508010133E+03  0.00000000000E+00 0. -1.
         25    2    1    2    0    0 -0.97953833948E+01  0.52448866612E+02  0.20567405239E+03  0.24653543495E+03  0.12502428451E+03 0.  0.
          2    1    1    2  501    0 -0.12110431072E+02 -0.57926591310E+02 -0.37078697991E+03  0.37547987562E+03  0.00000000000E+00 0. -1.
          1    1    1    2  502    0  0.21905814466E+02  0.54777246979E+01  0.82566493608E+02  0.85598458176E+02  0.00000000000E+00 0. -1.
         22    1    3    3    0    0 -0.21249932832E+02  0.59394245103E+02  0.29127274077E+02  0.69481177969E+02  0.00000000000E+00 0. -1.
         22    1    3    3    0    0  0.11454549437E+02 -0.69453784910E+01  0.17654677831E+03  0.17705425698E+03  0.00000000000E+00 0. -1.
</event>
<event>
 7    1  0.5622879E-006  0.9524941E+02  0.7818608E-02  0.1296044E+00
          2   -1    0    0  502    0  0.00000000000E+00  0.00000000000E+00  0.38176098157E+04  0.38176098157E+04  0.00000000000E+00 0. -1.
          1   -1    0    0  501    0 -0.00000000000E+00 -0.00000000000E+00 -0.30213545738E+03  0.30213545738E+03  0.00000000000E+00 0. -1.
         25    2    1    2    0    0  0.34279474625E+01  0.79050163762E+02  0.39773173742E+03  0.42435468543E+03  0.12500273949E+03 0.  0.
          2    1    1    2  501    0  0.83867026758E+02 -0.34147884584E+02 -0.28100029792E+03  0.29523028915E+03  0.00000000000E+00 0. -1.
          1    1    1    2  502    0 -0.87294974221E+02 -0.44902279177E+02  0.33987429188E+04  0.34001602985E+04  0.00000000000E+00 0. -1.
         22    1    3    3    0    0 -0.78538254658E+01  0.11076331316E+03  0.33823995790E+03  0.35600065061E+03  0.00000000000E+00 0.  1.
         22    1    3    3    0    0  0.11281772928E+02 -0.31713149398E+02  0.59491779521E+02  0.68354034817E+02  0.00000000000E+00 0.  1.
</event>
<event>
 7    1  0.5622879E-006  0.1383094E+03  0.7818608E-02  0.1356103E+00
          2   -1    0    0  502    0  0.00000000000E+00  0.00000000000E+00  0.10639342512E+04  0.10639342512E+04  0.00000000000E+00 0. -1.
          1   -1    0    0  501    0 -0.00000000000E+00 -0.00000000000E+00 -0.58732649833E+03  0.58732649833E+03  0.00000000000E+00 0. -1.
         25    2    1    2    0    0  0.10274500039E+03  0.14075462163E+03 -0.21198829911E+03  0.30155080891E+03  0.12500181111E+03 0.  0.
          2    1    1    2  501    0 -0.20490095013E+02 -0.30374174408E+02 -0.32487406728E+03  0.32693362332E+03  0.00000000000E+00 0. -1.
          1    1    1    2  502    0 -0.82254905373E+02 -0.11038044722E+03  0.10134701193E+04  0.10227763173E+04  0.00000000000E+00 0. -1.
         22    1    3    3    0    0  0.86519974788E+02  0.34139384821E+02 -0.46404717422E+02  0.10394518475E+03  0.00000000000E+00 0. -1.
         22    1    3    3    0    0  0.16225025598E+02  0.10661523681E+03 -0.16558358169E+03  0.19760562416E+03  0.00000000000E+00 0. -1.
</event>
<event>
 7    1  0.5622879E-006  0.1754022E+03  0.7818608E-02  0.1251631E+00
          2   -1    0    0  502    0  0.00000000000E+00  0.00000000000E+00  0.16122226356E+04  0.16122226356E+04  0.00000000000E+00 0. -1.
          1   -1    0    0  501    0 -0.00000000000E+00 -0.00000000000E+00 -0.10942460554E+04  0.10942460554E+04  0.00000000000E+00 0. -1.
         25    2    1    2    0    0 -0.23088395366E+03 -0.41353971617E+02 -0.12265479457E+03  0.29272105260E+03  0.12499545983E+03 0.  0.
          2    1    1    2  501    0  0.70537917021E+02 -0.26525552296E+02 -0.87997927497E+03  0.88320027573E+03  0.00000000000E+00 0. -1.
          1    1    1    2  502    0  0.16034603664E+03  0.67879523912E+02  0.15206106497E+04  0.15305473627E+04  0.00000000000E+00 0. -1.
         22    1    3    3    0    0  0.10642587946E+01  0.21848233415E+02  0.19170609692E+01  0.21957984263E+02  0.00000000000E+00 0.  1.
         22    1    3    3    0    0 -0.23194821246E+03 -0.63202205032E+02 -0.12457185554E+03  0.27076306834E+03  0.00000000000E+00 0.  1.
</event>
<event>
 7    1  0.5622879E-006  0.1365316E+03  0.7818608E-02  0.1379527E+00
          2   -1    0    0  502    0  0.00000000000E+00  0.00000000000E+00  0.73072928669E+03  0.73072928669E+03  0.00000000000E+00 0. -1.
          1   -1    0    0  501    0 -0.00000000000E+00 -0.00000000000E+00 -0.10257666404E+04  0.10257666404E+04  0.00000000000E+00 0. -1.
         25    2    1    2    0    0  0.35964649065E+02 -0.10504420268E+03 -0.78311720619E+03  0.80076545949E+03  0.12500008793E+03 0.  0.
          2    1    1    2  501    0  0.25215828864E+02 -0.17255053492E+02 -0.22631348194E+03  0.22836673796E+03  0.00000000000E+00 0. -1.
          1    1    1    2  502    0 -0.61180477929E+02  0.12229925617E+03  0.71439333442E+03  0.72736372965E+03  0.00000000000E+00 0. -1.
         22    1    3    3    0    0  0.57152230019E+01  0.36243627352E+01  0.24075631535E+01  0.71830452828E+01  0.00000000000E+00 0.  1.
         22    1    3    3    0    0  0.30249426063E+02 -0.10866856542E+03 -0.78552476934E+03  0.79358241420E+03  0.00000000000E+00 0.  1.
</event>
<event>
 7    1  0.5622879E-006  0.3867174E+02  0.7818608E-02  0.1553579E+00
          2   -1    0    0  502    0  0.00000000000E+00  0.00000000000E+00  0.12423869904E+04  0.12423869904E+04  0.00000000000E+00 0. -1.
          1   -1    0    0  501    0 -0.00000000000E+00 -0.00000000000E+00 -0.17020156067E+04  0.17020156067E+04  0.00000000000E+00 0. -1.
         25    2    1    2    0    0 -0.52571281441E+02  0.44802583139E+02  0.55443452128E+03  0.57253131421E+03  0.12499382497E+03 0.  0.
          2    1    1    2  501    0  0.31298593546E+02 -0.22693328445E+02 -0.16923997048E+04  0.16928412063E+04  0.00000000000E+00 0. -1.
          1    1    1    2  502    0  0.21272687895E+02 -0.22109254694E+02  0.67833656722E+03  0.67903007652E+03  0.00000000000E+00 0. -1.
         22    1    3    3    0    0  0.10823593097E+02  0.67562713063E+02  0.19049071720E+03  0.20240697543E+03  0.00000000000E+00 0.  1.
         22    1    3    3    0    0 -0.63394874538E+02 -0.22760129924E+02  0.36394380408E+03  0.37012433878E+03  0.00000000000E+00 0.  1.
</event>
<event>
 7    1  0.5622879E-006  0.1155480E+03  0.7818608E-02  0.1285259E+00
          2   -1    0    0  502    0  0.00000000000E+00  0.00000000000E+00  0.22714655764E+04  0.22714655764E+04  0.00000000000E+00 0. -1.
          1   -1    0    0  501    0 -0.00000000000E+00 -0.00000000000E+00 -0.43418772579E+03  0.43418772579E+03  0.00000000000E+00 0. -1.
         25    2    1    2    0    0 -0.21937067685E+02 -0.16502365941E+03  0.42765144310E+03  0.47563069639E+03  0.12499903783E+03 0.  0.
          2    1    1    2  501    0 -0.38183799883E+02  0.10842666800E+03 -0.40118518428E+03  0.41732948254E+03  0.00000000000E+00 0. -1.
          1    1    1    2  502    0  0.60120867568E+02  0.56596991410E+02  0.18108115918E+04  0.18126931232E+04  0.00000000000E+00 0. -1.
         22    1    3    3    0    0 -0.52228859756E+02 -0.86659526433E+02  0.12126137670E+03  0.15793051888E+03  0.00000000000E+00 0. -1.
         22    1    3    3    0    0  0.30291792070E+02 -0.78364132982E+02  0.30639006640E+03  0.31770017751E+03  0.00000000000E+00 0. -1.
</event>
<event>
 7    1  0.5622879E-006  0.1366113E+03  0.7818608E-02  0.1234545E+00
          2   -1    0    0  502    0  0.00000000000E+00  0.00000000000E+00  0.52336935458E+03  0.52336935458E+03  0.00000000000E+00 0. -1.
          1   -1    0    0  501    0 -0.00000000000E+00 -0.00000000000E+00 -0.21062304729E+04  0.21062304729E+04  0.00000000000E+00 0. -1.
         25    2    1    2    0    0 -0.59040772356E+02  0.23607182220E+03 -0.68067398586E+02  0.28191164828E+03  0.12500115457E+03 0.  0.
          2    1    1    2  501    0  0.43136473813E+02 -0.10659356045E+03 -0.19192617828E+04  0.19227034960E+04  0.00000000000E+00 0. -1.
          1    1    1    2  502    0  0.15904298543E+02 -0.12947826175E+03  0.40446806304E+03  0.42498468325E+03  0.00000000000E+00 0. -1.
         22    1    3    3    0    0 -0.52656735322E+02  0.28651062590E+02 -0.41019112812E+02  0.72637337356E+02  0.00000000000E+00 0. -1.
         22    1    3    3    0    0 -0.63840370342E+01  0.20742075961E+03 -0.27048285774E+02  0.20927431092E+03  0.00000000000E+00 0. -1.
</event>
<event>
 7    1  0.5622879E-006  0.1175914E+03  0.7818608E-02  0.1322428E+00
          2   -1    0    0  502    0  0.00000000000E+00  0.00000000000E+00  0.70695246564E+02  0.70695246564E+02  0.00000000000E+00 0. -1.
          1   -1    0    0  501    0 -0.00000000000E+00 -0.00000000000E+00 -0.95749246025E+03  0.95749246025E+03  0.00000000000E+00 0. -1.
         25    2    1    2    0    0 -0.14488556505E+03  0.61375138647E+02 -0.73418532496E+03  0.76119170798E+03  0.12500396120E+03 0.  0.
          2    1    1    2  501    0  0.30882378947E+02 -0.48755705155E+02 -0.14021546880E+03  0.15162855208E+03  0.00000000000E+00 0. -1.
          1    1    1    2  502    0  0.11400318610E+03 -0.12619433492E+02 -0.12396419926E+02  0.11536744675E+03  0.00000000000E+00 0. -1.
         22    1    3    3    0    0 -0.27722116066E+02  0.36100063204E+02 -0.54443957161E+02  0.70963897539E+02  0.00000000000E+00 0. -1.
         22    1    3    3    0    0 -0.11716344898E+03  0.25275075443E+02 -0.67974136780E+03  0.69022781044E+03  0.00000000000E+00 0. -1.
</event>
<event>
 7    1  0.5622879E-006  0.6269047E+02  0.7818608E-02  0.1481664E+00
          2   -1    0    0  502    0  0.00000000000E+00  0.00000000000E+00  0.43844482241E+02  0.43844482241E+02  0.00000000000E+00 0. -1.
          1   -1    0    0  501    0 -0.00000000000E+00 -0.00000000000E+00 -0.76371707473E+03  0.76371707473E+03  0.00000000000E+00 0. -1.
         25    2    1    2    0    0  0.31095607595E+01  0.34367102036E+02 -0.42695597357E+03  0.44621409714E+03  0.12499940020E+03 0.  0.
          2    1    1    2  501    0 -0.44266626890E+01  0.30347710699E+02 -0.29499591787E+03  0.29658585679E+03  0.00000000000E+00 0. -1.
          1    1    1    2  502    0  0.13171019295E+01 -0.64714812735E+02  0.20792989466E+01  0.64761603044E+02  0.00000000000E+00 0. -1.
         22    1    3    3    0    0  0.62915333028E+02  0.29866419764E+02 -0.22286553744E+03  0.23349387559E+03  0.00000000000E+00 0.  1.
         22    1    3    3    0    0 -0.59805772268E+02  0.45006822718E+01 -0.20409043613E+03  0.21272022155E+03  0.00000000000E+00 0.  1.
</event>
<event>
 7    1  0.5622879E-006  0.6817347E+02  0.7818608E-02  0.1512960E+00
          2   -1    0    0  502    0  0.00000000000E+00  0.00000000000E+00  0.11717968440E+03  0.11717968440E+03  0.00000000000E+00 0. -1.
          1   -1    0    0  501    0 -0.00000000000E+00 -0.00000000000E+00 -0.55143959077E+03  0.55143959077E+03  0.00000000000E+00 0. -1.
         25    2    1    2    0    0  0.51785828745E+01  0.89173181894E+02 -0.20500370380E+03  0.25619247809E+03  0.12501757145E+03 0.  0.
          2    1    1    2  501    0 -0.52045891689E+01 -0.22122852695E+02 -0.30809458996E+03  0.30893168294E+03  0.00000000000E+00 0. -1.
          1    1    1    2  502    0  0.26006294416E-01 -0.67050329199E+02  0.78838387395E+02  0.10349511413E+03  0.00000000000E+00 0. -1.
         22    1    3    3    0    0 -0.36314362581E+02 -0.23006810881E+01 -0.11740965709E+03  0.12291889050E+03  0.00000000000E+00 0.  1.
         22    1    3    3    0    0  0.41492945456E+02  0.91473862982E+02 -0.87594046708E+02  0.13327358759E+03  0.00000000000E+00 0.  1.
</event>
<event>
 7    1  0.5622879E-006  0.5866400E+02  0.7818608E-02  0.1534838E+00
          2   -1    0    0  502    0  0.00000000000E+00  0.00000000000E+00  0.80569593722E+02  0.80569593722E+02  0.00000000000E+00 0. -1.
          1   -1    0    0  501    0 -0.00000000000E+00 -0.00000000000E+00 -0.69999227069E+03  0.69999227069E+03  0.00000000000E+00 0. -1.
         25    2    1    2    0    0  0.31366390711E+02 -0.54959952210E+02 -0.18859967304E+03  0.23494469557E+03  0.12499890596E+03 0.  0.
          2    1    1    2  501    0 -0.22635381797E+02 -0.30040467339E+01 -0.47290628489E+03  0.47345721992E+03  0.00000000000E+00 0. -1.
          1    1    1    2  502    0 -0.87310089135E+01  0.57963998944E+02  0.42083280971E+02  0.72159948916E+02  0.00000000000E+00 0. -1.
         22    1    3    3    0    0 -0.42098176419E+02 -0.29445695880E+02 -0.12265812915E+03  0.13298241279E+03  0.00000000000E+00 0. -1.
         22    1    3    3    0    0  0.73464567130E+02 -0.25514256330E+02 -0.65941543891E+02  0.10196228278E+03  0.00000000000E+00 0. -1.
</event>
<event>
 7    1  0.5622879E-006  0.2175545E+03  0.7818608E-02  0.1226552E+00
          2   -1    0    0  502    0  0.00000000000E+00  0.00000000000E+00  0.23801023607E+04  0.23801023607E+04  0.00000000000E+00 0. -1.
          1   -1    0    0  501    0 -0.00000000000E+00 -0.00000000000E+00 -0.13658296925E+04  0.13658296925E+04  0.00000000000E+00 0. -1.
         25    2    1    2    0    0  0.13276672146E+03 -0.47301116622E+02  0.54358221778E+03  0.57530078784E+03  0.12499988417E+03 0.  0.
          2    1    1    2  501    0 -0.20976729276E+03  0.62121017808E+02 -0.13402529981E+04  0.13579909561E+04  0.00000000000E+00 0. -1.
          1    1    1    2  502    0  0.77000571299E+02 -0.14819901186E+02  0.18109434484E+04  0.18126403093E+04  0.00000000000E+00 0. -1.
         22    1    3    3    0    0  0.13430681409E+02  0.29010482211E+02  0.35184947698E+02  0.47539160970E+02  0.00000000000E+00 0.  1.
         22    1    3    3    0    0  0.11933604005E+03 -0.76311598833E+02  0.50839727008E+03  0.52776162687E+03  0.00000000000E+00 0.  1.
</event>
<event>
 7    1  0.5622879E-006  0.6214399E+02  0.7818608E-02  0.1460098E+00
          2   -1    0    0  502    0  0.00000000000E+00  0.00000000000E+00  0.26985194273E+04  0.26985194273E+04  0.00000000000E+00 0. -1.
          1   -1    0    0  501    0 -0.00000000000E+00 -0.00000000000E+00 -0.34461665903E+03  0.34461665903E+03  0.00000000000E+00 0. -1.
         25    2    1    2    0    0 -0.59130428942E+02 -0.77565045680E+02  0.22743160559E+03  0.27724129752E+03  0.12499943155E+03 0.  0.
          2    1    1    2  501    0  0.23976744769E+02  0.26987694894E+02 -0.31830362343E+03  0.32034421589E+03  0.00000000000E+00 0. -1.
          1    1    1    2  502    0  0.35153684173E+02  0.50577350786E+02  0.24447747861E+04  0.24455505729E+04  0.00000000000E+00 0. -1.
         22    1    3    3    0    0  0.20488321899E+02 -0.33344153784E+02  0.15784665916E+03  0.16262586428E+03  0.00000000000E+00 0.  1.
         22    1    3    3    0    0 -0.79618750841E+02 -0.44220891896E+02  0.69584946432E+02  0.11461543323E+03  0.00000000000E+00 0.  1.
</event>
<event>
 7    1  0.5622879E-006  0.2888514E+03  0.7818608E-02  0.1247339E+00
          2   -1    0    0  502    0  0.00000000000E+00  0.00000000000E+00  0.13904271580E+04  0.13904271580E+04  0.00000000000E+00 0. -1.
          1   -1    0    0  501    0 -0.00000000000E+00 -0.00000000000E+00 -0.15775478430E+04  0.15775478430E+04  0.00000000000E+00 0. -1.
         25    2    1    2    0    0 -0.10653662658E+03 -0.24928769058E+03  0.11386139582E+04  0.11770982891E+04  0.12499692361E+03 0.  0.
          2    1    1    2  501    0  0.15407604496E+03  0.24461641578E+03 -0.15422718442E+04  0.15691332193E+04  0.00000000000E+00 0. -1.
          1    1    1    2  502    0 -0.47539418372E+02  0.46712747977E+01  0.21653720097E+03  0.22174349260E+03  0.00000000000E+00 0. -1.
         22    1    3    3    0    0 -0.71867861586E+02 -0.10576654631E+03  0.76056363512E+03  0.77123835156E+03  0.00000000000E+00 0.  1.
         22    1    3    3    0    0 -0.34668764998E+02 -0.14352114427E+03  0.37805032307E+03  0.40585993753E+03  0.00000000000E+00 0.  1.
</event>
<event>
 7    1  0.7545959E-006  0.1114283E+03  0.7818608E-02  0.1315848E+00
          2   -1    0    0  502    0  0.00000000000E+00  0.00000000000E+00  0.29542362010E+04  0.29542362010E+04  0.00000000000E+00 0. -1.
          1   -1    0    0  501    0 -0.00000000000E+00 -0.00000000000E+00 -0.11283557445E+04  0.11283557445E+04  0.00000000000E+00 0. -1.
         25    2    1    2    0    0 -0.75589662789E+02  0.40361957391E+02 -0.59066087867E+03  0.60979314480E+03  0.12499808446E+03 0.  0.
          2    1    1    2  501    0  0.94065437018E+02 -0.10226137511E+03 -0.51862847438E+03  0.53691823373E+03  0.00000000000E+00 0. -1.
          1    1    1    2  502    0 -0.18475774229E+02  0.61899417716E+02  0.29351698096E+04  0.29358805669E+04  0.00000000000E+00 0. -1.
         22    1    3    3    0    0  0.22961918455E+02  0.19728107266E+02 -0.31261949899E+03  0.31408183498E+03  0.00000000000E+00 0.  1.
         22    1    3    3    0    0 -0.98551581244E+02  0.20633850126E+02 -0.27804137969E+03  0.29571130982E+03  0.00000000000E+00 0.  1.
</event>
<event>
 7    1  0.5622879E-006  0.4791571E+02  0.7818608E-02  0.1528173E+00
          2   -1    0    0  502    0  0.00000000000E+00  0.00000000000E+00  0.92902961177E+03  0.92902961177E+03  0.00000000000E+00 0. -1.
          1   -1    0    0  501    0 -0.00000000000E+00 -0.00000000000E+00 -0.20226949759E+03  0.20226949759E+03  0.00000000000E+00 0. -1.
         25    2    1    2    0    0 -0.16235781704E+02  0.51440936661E+02  0.24010009620E+03  0.27601146296E+03  0.12499800365E+03 0.  0.
          2    1    1    2  501    0  0.36816218256E+02 -0.30712456455E+02 -0.18087110898E+03  0.18711773558E+03  0.00000000000E+00 0. -1.
          1    1    1    2  502    0 -0.20580436552E+02 -0.20728480206E+02  0.66753112696E+03  0.66816991082E+03  0.00000000000E+00 0. -1.
         22    1    3    3    0    0 -0.46599792263E+02  0.81165435909E+02  0.16881634782E+03  0.19302416407E+03  0.00000000000E+00 0. -1.
         22    1    3    3    0    0  0.30364010559E+02 -0.29724499247E+02  0.71283748381E+02  0.82987298884E+02  0.00000000000E+00 0. -1.
</event>
<event>
 7    1  0.5622879E-006  0.9245758E+02  0.7818608E-02  0.1481360E+00
          2   -1    0    0  502    0  0.00000000000E+00  0.00000000000E+00  0.60878144047E+03  0.60878144047E+03  0.00000000000E+00 0. -1.
          1   -1    0    0  501    0 -0.00000000000E+00 -0.00000000000E+00 -0.28423782397E+04  0.28423782397E+04  0.00000000000E+00 0. -1.
         25    2    1    2    0    0  0.26676363977E+02 -0.93520802766E+02  0.15268203897E+03  0.21998195565E+03  0.12498994697E+03 0.  0.
          2    1    1    2  501    0 -0.43682331821E+02  0.81475835766E+02 -0.28077100390E+04  0.28092315891E+04  0.00000000000E+00 0. -1.
          1    1    1    2  502    0  0.17005967844E+02  0.12044967000E+02  0.42143120082E+03  0.42194613542E+03  0.00000000000E+00 0. -1.
         22    1    3    3    0    0  0.66045151681E+02 -0.15148646957E+02  0.87698474338E+02  0.11082628734E+03  0.00000000000E+00 0.  1.
         22    1    3    3    0    0 -0.39368787704E+02 -0.78372155809E+02  0.64983564636E+02  0.10915566831E+03  0.00000000000E+00 0.  1.
</event>
<event>
 7    1  0.5622879E-006  0.1113912E+03  0.7818608E-02  0.1330055E+00
          2   -1    0    0  502    0  0.00000000000E+00  0.00000000000E+00  0.87375848084E+03  0.87375848084E+03  0.00000000000E+00 0. -1.
          1   -1    0    0  501    0 -0.00000000000E+00 -0.00000000000E+00 -0.75287444731E+03  0.75287444731E+03  0.00000000000E+00 0. -1.
         25    2    1    2    0    0  0.13696879431E+03  0.91478907343E+02 -0.22446808593E+02  0.20798945603E+03  0.12500765376E+03 0.  0.
          2    1    1    2  501    0 -0.52892821015E+02 -0.21110068747E+02 -0.63252283607E+03  0.63508143074E+03  0.00000000000E+00 0. -1.
          1    1    1    2  502    0 -0.84075973294E+02 -0.70368838595E+02  0.77585367819E+03  0.78356204138E+03  0.00000000000E+00 0. -1.
         22    1    3    3    0    0  0.13467447066E+03  0.91344883563E+02 -0.57703432196E+02  0.17265800557E+03  0.00000000000E+00 0.  1.
         22    1    3    3    0    0  0.22943236486E+01  0.13402377952E+00  0.35256623602E+02  0.35331450455E+02  0.00000000000E+00 0.  1.
</event>
<event>
 7    1  0.5622879E-006  0.1487660E+03  0.7818608E-02  0.1386738E+00
          2   -1    0    0  502    0  0.00000000000E+00  0.00000000000E+00  0.71528056845E+03  0.71528056845E+03  0.00000000000E+00 0. -1.
          1   -1    0    0  501    0 -0.00000000000E+00 -0.00000000000E+00 -0.76877965527E+03  0.76877965527E+03  0.00000000000E+00 0. -1.
         25    2    1    2    0    0 -0.14337160280E+03  0.73067511963E+02  0.37588135646E+03  0.42755866805E+03  0.12500137081E+03 0.  0.
          2    1    1    2  501    0  0.25776987127E+02  0.59173678697E+01 -0.72668877440E+03  0.72716988603E+03  0.00000000000E+00 0. -1.
          1    1    1    2  502    0  0.11759461567E+03 -0.78984879833E+02  0.29730833112E+03  0.32933166965E+03  0.00000000000E+00 0. -1.
         22    1    3    3    0    0 -0.36436316638E+02  0.64253603587E+02  0.63995676339E+02  0.97732171439E+02  0.00000000000E+00 0. -1.
         22    1    3    3    0    0 -0.10693528616E+03  0.88139083755E+01  0.31188568012E+03  0.32982649662E+03  0.00000000000E+00 0. -1.
</event>
<event>
 7    1  0.5622879E-006  0.7056914E+02  0.7818608E-02  0.1425462E+00
          2   -1    0    0  502    0  0.00000000000E+00  0.00000000000E+00  0.10863137617E+04  0.10863137617E+04  0.00000000000E+00 0. -1.
          1   -1    0    0  501    0 -0.00000000000E+00 -0.00000000000E+00 -0.21976229161E+02  0.21976229161E+02  0.00000000000E+00 0. -1.
         25    2    1    2    0    0 -0.43372698837E+02 -0.82939626046E+02  0.87367650098E+03  0.88752316816E+03  0.12500629212E+03 0.  0.
          2    1    1    2  501    0  0.29025860643E+02  0.29155546217E+02  0.30514361179E+02  0.51221799065E+02  0.00000000000E+00 0. -1.
          1    1    1    2  502    0  0.14346838195E+02  0.53784079829E+02  0.16014667041E+03  0.16954502367E+03  0.00000000000E+00 0. -1.
         22    1    3    3    0    0 -0.75718585115E+02 -0.29481197867E+02  0.31297054746E+03  0.32334657681E+03  0.00000000000E+00 0.  1.
         22    1    3    3    0    0  0.32345886278E+02 -0.53458428179E+02  0.56070595353E+03  0.56417659135E+03  0.00000000000E+00 0.  1.
</event>
<event>
 7    1  0.5622879E-006  0.9121580E+02  0.7818608E-02  0.1430661E+00
          2   -1    0    0  502    0  0.00000000000E+00  0.00000000000E+00  0.41464170317E+03  0.41464170317E+03  0.00000000000E+00 0. -1.
          1   -1    0    0  501    0 -0.00000000000E+00 -0.00000000000E+00 -0.77976594925E+03  0.77976594925E+03  0.00000000000E+00 0. -1.
         25    2    1    2    0    0 -0.38370668341E+02 -0.50530911369E+02 -0.38397806550E+02  0.14534321081E+03  0.12499830474E+03 0.  0.
          2    1    1    2  501    0 -0.10164336645E+02 -0.28857216606E+02 -0.68155343729E+03  0.68223979697E+03  0.00000000000E+00 0. -1.
          1    1    1    2  502    0  0.48535004986E+02  0.79388127974E+02  0.35482699776E+03  0.36682464464E+03  0.00000000000E+00 0. -1.
         22    1    3    3    0    0  0.25115257331E+02 -0.43998723512E+02  0.24024682308E+02  0.56070038179E+02  0.00000000000E+00 0. -1.
         22    1    3    3    0    0 -0.63485925672E+02 -0.65321878569E+01 -0.62422488857E+02  0.89273172632E+02  0.00000000000E+00 0. -1.
</event>
<event>
 7    1  0.5622879E-006  0.1138632E+03  0.7818608E-02  0.1299434E+00
          2   -1    0    0  502    0  0.00000000000E+00  0.00000000000E+00  0.46076223325E+03  0.46076223325E+03  0.00000000000E+00 0. -1.
          1   -1    0    0  501    0 -0.00000000000E+00 -0.00000000000E+00 -0.23707629408E+04  0.23707629408E+04  0.00000000000E+00 0. -1.
         25    2    1    2    0    0  0.53811220225E+02  0.10546536106E+02 -0.32468358678E+03  0.35220950818E+03  0.12500091712E+03 0.  0.
          2    1    1    2  501    0 -0.12053375829E+03  0.20067433656E+02 -0.20274504416E+04  0.20311293366E+04  0.00000000000E+00 0. -1.
          1    1    1    2  502    0  0.66722538064E+02 -0.30613969762E+02  0.44213332091E+03  0.44818632921E+03  0.00000000000E+00 0. -1.
         22    1    3    3    0    0  0.57792106683E+02  0.59537990620E+02 -0.15844052880E+03  0.17885217664E+03  0.00000000000E+00 0. -1.
         22    1    3    3    0    0 -0.39808864573E+01 -0.48991454514E+02 -0.16624305798E+03  0.17335733155E+03  0.00000000000E+00 0. -1.
</event>
<event>
 7    1  0.5622879E-006  0.5602174E+02  0.7818608E-02  0.1493434E+00
          2   -1    0    0  502    0  0.00000000000E+00  0.00000000000E+00  0.10132153077E+03  0.10132153077E+03  0.00000000000E+00 0. -1.
          1   -1    0    0  501    0 -0.00000000000E+00 -0.00000000000E+00 -0.19254729989E+04  0.19254729989E+04  0.00000000000E+00 0. -1.
         25    2    1    2    0    0 -0.37536574528E+02 -0.19506960191E+01 -0.22371505776E+03  0.25901213327E+03  0.12500423382E+03 0.  0.
          2    1    1    2  501    0 -0.95519147182E+01 -0.30131294640E+02 -0.16742426969E+04  0.16745410542E+04  0.00000000000E+00 0. -1.
          1    1    1    2  502    0  0.47088489246E+02  0.32081990659E+02  0.73806286603E+02  0.93241342151E+02  0.00000000000E+00 0. -1.
         22    1    3    3    0    0  0.37527357099E+02 -0.89615439368E-02 -0.21373723484E+02  0.43187251206E+02  0.00000000000E+00 0.  1.
         22    1    3    3    0    0 -0.75063931626E+02 -0.19417344751E+01 -0.20234133427E+03  0.21582488207E+03  0.00000000000E+00 0.  1.
</event>
<event>
 7    1  0.5622879E-006  0.9463771E+02  0.7818608E-02  0.1308179E+00
          2   -1    0    0  502    0  0.00000000000E+00  0.00000000000E+00  0.30719141135E+03  0.30719141135E+03  0.00000000000E+00 0. -1.
          1   -1    0    0  501    0 -0.00000000000E+00 -0.00000000000E+00 -0.10595831696E+04  0.10595831696E+04  0.00000000000E+00 0. -1.
         25    2    1    2    0    0 -0.54520832862E+02  0.11700214860E+03 -0.16266850957E+03  0.24238052555E+03  0.12500100466E+03 0.  0.
          2    1    1    2  501    0  0.84616089299E+02 -0.41237849753E+02 -0.84817891683E+03  0.85338614810E+03  0.00000000000E+00 0. -1.
          1    1    1    2  502    0 -0.30095256436E+02 -0.75764298850E+02  0.25845566813E+03  0.27100790732E+03  0.00000000000E+00 0. -1.
         22    1    3    3    0    0  0.35392291407E+02  0.57500895426E+01 -0.42122269011E+02  0.55316935629E+02  0.00000000000E+00 0.  1.
         22    1    3    3    0    0 -0.89913124269E+02  0.11125205906E+03 -0.12054624056E+03  0.18706358992E+03  0.00000000000E+00 0.  1.
</event>
<event>
 7    1  0.5622879E-006  0.7597946E+02  0.7818608E-02  0.1422141E+00
          2   -1    0    0  502    0  0.00000000000E+00  0.00000000000E+00  0.73770660332E+03  0.73770660332E+03  0.00000000000E+00 0. -1.
          1   -1    0    0  501    0 -0.00000000000E+00 -0.00000000000E+00 -0.11443053334E+03  0.11443053334E+03  0.00000000000E+00 0. -1.
         25    2    1    2    0    0 -0.33173090442E+02 -0.39596975461E+02 -0.28371931644E+02  0.13820825337E+03  0.12501272095E+03 0.  0.
          2    1    1    2  501    0  0.16798186705E+02 -0.35411885853E+02 -0.15668773544E+02  0.42210084110E+02  0.00000000000E+00 0. -1.
          1    1    1    2  502    0  0.16374903737E+02  0.75008861314E+02  0.66731677517E+03  0.67171879918E+03  0.00000000000E+00 0. -1.
         22    1    3    3    0    0 -0.76133946835E+02 -0.28995318111E+02  0.67025194281E+01  0.81743685382E+02  0.00000000000E+00 0. -1.
         22    1    3    3    0    0  0.42960856394E+02 -0.10601657351E+02 -0.35074451072E+02  0.56464567993E+02  0.00000000000E+00 0. -1.
</event>
<event>
 7    1  0.8047615E-006  0.7638556E+02  0.7818608E-02  0.1433016E+00
          2   -1    0    0  502    0  0.00000000000E+00  0.00000000000E+00  0.20171251659E+04  0.20171251659E+04  0.00000000000E+00 0. -1.
          1   -1    0    0  501    0 -0.00000000000E+00 -0.00000000000E+00 -0.87605749417E+03  0.87605749417E+03  0.00000000000E+00 0. -1.
         25    2    1    2    0    0  0.20081371747E+02  0.88537661788E+02 -0.46615846173E+03  0.49109102028E+03  0.12499799883E+03 0.  0.
          2    1    1    2  501    0 -0.33326692786E+02 -0.13320572482E+02 -0.39589326879E+03  0.39751677496E+03  0.00000000000E+00 0. -1.
          1    1    1    2  502    0  0.13245321039E+02 -0.75217089306E+02  0.20031194022E+04  0.20045748648E+04  0.00000000000E+00 0. -1.
         22    1    3    3    0    0 -0.72444322773E+01  0.10746934967E+03 -0.24754133816E+03  0.26996084349E+03  0.00000000000E+00 0.  1.
         22    1    3    3    0    0  0.27325804025E+02 -0.18931687881E+02 -0.21861712357E+03  0.22113017679E+03  0.00000000000E+00 0.  1.
</event>
<event>
 7    1  0.5622879E-006  0.6981789E+02  0.7818608E-02  0.1460082E+00
          2   -1    0    0  502    0  0.00000000000E+00  0.00000000000E+00  0.38452548487E+03  0.38452548487E+03  0.00000000000E+00 0. -1.
          1   -1    0    0  501    0 -0.00000000000E+00 -0.00000000000E+00 -0.67901321257E+02  0.67901321257E+02  0.00000000000E+00 0. -1.
         25    2    1    2    0    0 -0.47424709460E+02  0.45028576440E+02  0.25822606078E+03  0.29424991735E+03  0.12500255849E+03 0.  0.
          2    1    1    2  501    0 -0.24746683566E+02 -0.20501622253E+02 -0.28239302486E+02  0.42780522057E+02  0.00000000000E+00 0. -1.
          1    1    1    2  502    0  0.72171393026E+02 -0.24526954187E+02  0.86637405320E+02  0.11539636673E+03  0.00000000000E+00 0. -1.
         22    1    3    3    0    0 -0.85162534697E+02  0.44096450666E+02  0.22244545265E+03  0.24223776270E+03  0.00000000000E+00 0. -1.
         22    1    3    3    0    0  0.37737825237E+02  0.93212577441E+00  0.35780608137E+02  0.52012154644E+02  0.00000000000E+00 0. -1.
</event>
<event>
 7    1  0.1014881E-005  0.9660975E+02  0.7818608E-02  0.1347089E+00
          2   -1    0    0  502    0  0.00000000000E+00  0.00000000000E+00  0.21759744641E+04  0.21759744641E+04  0.00000000000E+00 0. -1.
          1   -1    0    0  501    0 -0.00000000000E+00 -0.00000000000E+00 -0.56929305903E+03  0.56929305903E+03  0.00000000000E+00 0. -1.
         25    2    1    2    0    0 -0.31000330408E+02  0.10687473703E+03 -0.24008252166E+03  0.29265446506E+03  0.12499515515E+03 0.  0.
          2    1    1    2  501    0  0.55051811399E+02 -0.13303584889E+02 -0.29918091434E+03  0.30449451032E+03  0.00000000000E+00 0. -1.
          1    1    1    2  502    0 -0.24051480990E+02 -0.93571152140E+02  0.21459448411E+04  0.21481185477E+04  0.00000000000E+00 0. -1.
         22    1    3    3    0    0 -0.25041749114E+02 -0.14306108150E+02 -0.11434297236E+03  0.11792399780E+03  0.00000000000E+00 0. -1.
         22    1    3    3    0    0 -0.59585812945E+01  0.12118084518E+03 -0.12573954930E+03  0.17473046726E+03  0.00000000000E+00 0. -1.
</event>
<event>
 7    1  0.5622879E-006  0.3185331E+02  0.7818608E-02  0.1594265E+00
          2   -1    0    0  502    0  0.00000000000E+00  0.00000000000E+00  0.43204349947E+03  0.43204349947E+03  0.00000000000E+00 0. -1.
          1   -1    0    0  501    0 -0.00000000000E+00 -0.00000000000E+00 -0.89836808011E+03  0.89836808011E+03  0.00000000000E+00 0. -1.
         25    2    1    2    0    0 -0.66782256657E+01  0.39883500003E+01  0.62750855778E+02  0.14008174507E+03  0.12499887906E+03 0.  0.
          2    1    1    2  501    0 -0.77773773941E+00 -0.31925856251E+02 -0.85877306978E+03  0.85936665665E+03  0.00000000000E+00 0. -1.
          1    1    1    2  502    0  0.74559634051E+01  0.27937506250E+02  0.32969763337E+03  0.33096317786E+03  0.00000000000E+00 0. -1.
         22    1    3    3    0    0  0.26246610179E+02  0.13060655637E+01  0.92172309996E+02  0.95845318525E+02  0.00000000000E+00 0. -1.
         22    1    3    3    0    0 -0.32924835845E+02  0.26822844366E+01 -0.29421454219E+02  0.44236426546E+02  0.00000000000E+00 0. -1.
</event>
<event>
 7    1  0.5622879E-006  0.9197520E+02  0.7818608E-02  0.1362208E+00
          2   -1    0    0  502    0  0.00000000000E+00  0.00000000000E+00  0.39564505511E+02  0.39564505511E+02  0.00000000000E+00 0. -1.
          1   -1    0    0  501    0 -0.00000000000E+00 -0.00000000000E+00 -0.26135211702E+04  0.26135211702E+04  0.00000000000E+00 0. -1.
         25    2    1    2    0    0  0.36440598593E+02  0.30652435799E+02 -0.56583118311E+03  0.58142711738E+03  0.12500030398E+03 0.  0.
          2    1    1    2  501    0  0.49939333006E+02  0.15664097604E+02 -0.19630998737E+04  0.19637974476E+04  0.00000000000E+00 0. -1.
          1    1    1    2  502    0 -0.86379931598E+02 -0.46316533403E+02 -0.45025607859E+02  0.10786111075E+03  0.00000000000E+00 0. -1.
         22    1    3    3    0    0  0.71703646404E+02  0.15994085319E+02 -0.49961940543E+03  0.50499185534E+03  0.00000000000E+00 0.  1.
         22    1    3    3    0    0 -0.35263047811E+02  0.14658350480E+02 -0.66211777683E+02  0.76435262043E+02  0.00000000000E+00 0.  1.
</event>
<event>
 7    1  0.5622879E-006  0.7695557E+02  0.7818608E-02  0.1370989E+00
          2   -1    0    0  502    0  0.00000000000E+00  0.00000000000E+00  0.43352299820E+04  0.43352299820E+04  0.00000000000E+00 0. -1.
          1   -1    0    0  501    0 -0.00000000000E+00 -0.00000000000E+00 -0.34561503416E+03  0.34561503416E+03  0.00000000000E+00 0. -1.
         25    2    1    2    0    0  0.36707816224E+02 -0.13612144609E+02  0.60983227790E+03  0.62373932436E+03  0.12499033298E+03 0.  0.
          2    1    1    2  501    0 -0.69104398425E+02 -0.34672734189E+02 -0.33401828500E+03  0.34284957502E+03  0.00000000000E+00 0. -1.
          1    1    1    2  502    0  0.32396582202E+02  0.48284878798E+02  0.37138009549E+04  0.37142561167E+04  0.00000000000E+00 0. -1.
         22    1    3    3    0    0  0.28385029994E+02  0.44648513370E+02  0.13064348463E+03  0.14095006119E+03  0.00000000000E+00 0.  1.
         22    1    3    3    0    0  0.83227862292E+01 -0.58260657979E+02  0.47918879327E+03  0.48278926317E+03  0.00000000000E+00 0.  1.
</event>
<event>
 7    1  0.5622879E-006  0.9442176E+02  0.7818608E-02  0.1357516E+00
          2   -1    0    0  502    0  0.00000000000E+00  0.00000000000E+00  0.51343503633E+03  0.51343503633E+03  0.00000000000E+00 0. -1.
          1   -1    0    0  501    0 -0.00000000000E+00 -0.00000000000E+00 -0.36512067382E+03  0.36512067382E+03  0.00000000000E+00 0. -1.
         25    2    1    2    0    0  0.10611391005E+02  0.51076360377E+02 -0.34135752606E+02  0.13968170863E+03  0.12499733562E+03 0.  0.
          2    1    1    2  501    0 -0.44009925599E+02 -0.92271124081E+02 -0.26720970953E+03  0.28609764550E+03  0.00000000000E+00 0. -1.
          1    1    1    2  502    0  0.33398534594E+02  0.41194763704E+02  0.44965982465E+03  0.45277635602E+03  0.00000000000E+00 0. -1.
         22    1    3    3    0    0  0.43572104584E+02  0.68502085905E+02 -0.53933914532E+02  0.97467590552E+02  0.00000000000E+00 0.  1.
         22    1    3    3    0    0 -0.32960713579E+02 -0.17425725528E+02  0.19798161926E+02  0.42214118082E+02  0.00000000000E+00 0.  1.
</event>
<event>
 7    1  0.5622879E-006  0.6220871E+02  0.7818608E-02  0.1453309E+00
          2   -1    0    0  502    0  0.00000000000E+00  0.00000000000E+00  0.47511479478E+03  0.47511479478E+03  0.00000000000E+00 0. -1.
          1   -1    0    0  501    0 -0.00000000000E+00 -0.00000000000E+00 -0.16846345567E+04  0.16846345567E+04  0.00000000000E+00 0. -1.
         25    2    1    2    0    0  0.38379893659E+02 -0.16774584754E+02 -0.27899726578E+03  0.30857528366E+03  0.12499931376E+03 0.  0.
          2    1    1    2  501    0 -0.62306788228E+02 -0.12610172607E+02 -0.13893403971E+04  0.13907939787E+04  0.00000000000E+00 0. -1.
          1    1    1    2  502    0  0.23926894568E+02  0.29384757362E+02  0.45881790092E+03  0.46038008912E+03  0.00000000000E+00 0. -1.
         22    1    3    3    0    0  0.55314750953E+02  0.21027939198E+02 -0.25264026455E+03  0.25947832120E+03  0.00000000000E+00 0.  1.
         22    1    3    3    0    0 -0.16934857293E+02 -0.37802523952E+02 -0.26357001223E+02  0.49096962454E+02  0.00000000000E+00 0.  1.
</event>
<event>
 7    1  0.5622879E-006  0.9492310E+02  0.7818608E-02  0.1441280E+00
          2   -1    0    0  502    0  0.00000000000E+00  0.00000000000E+00  0.59373914834E+03  0.59373914834E+03  0.00000000000E+00 0. -1.
          1   -1    0    0  501    0 -0.00000000000E+00 -0.00000000000E+00 -0.31190612379E+03  0.31190612379E+03  0.00000000000E+00 0. -1.
         25    2    1    2    0    0 -0.76385046040E+02 -0.43982928823E+02  0.21864405379E+02  0.15450284010E+03  0.12499560829E+03 0.  0.
          2    1    1    2  501    0 -0.16552457236E+02  0.21514165056E+02 -0.24029500940E+03  0.24182335430E+03  0.00000000000E+00 0. -1.
          1    1    1    2  502    0  0.92937503277E+02  0.22468763767E+02  0.50026362858E+03  0.50931907773E+03  0.00000000000E+00 0. -1.
         22    1    3    3    0    0 -0.10357559244E+03 -0.47002526586E+02  0.41231027048E+02  0.12098404211E+03  0.00000000000E+00 0. -1.
         22    1    3    3    0    0  0.27190546395E+02  0.30195977630E+01 -0.19366621669E+02  0.33518797992E+02  0.00000000000E+00 0. -1.
</event>
<event>
 7    1  0.5622879E-006  0.1605051E+03  0.7818608E-02  0.1368448E+00
          2   -1    0    0  502    0  0.00000000000E+00  0.00000000000E+00  0.55431326158E+03  0.55431326158E+03  0.00000000000E+00 0. -1.
          1   -1    0    0  501    0 -0.00000000000E+00 -0.00000000000E+00 -0.30355790456E+03  0.30355790456E+03  0.00000000000E+00 0. -1.
         25    2    1    2    0    0  0.44368878585E+02 -0.12945318582E+03  0.16530421019E+03  0.24834899683E+03  0.12500007045E+03 0.  0.
          2    1    1    2  501    0 -0.42435258579E+02  0.15785912264E+03 -0.23585164172E+03  0.28696036429E+03  0.00000000000E+00 0. -1.
          1    1    1    2  502    0 -0.19336200057E+01 -0.28405936812E+02  0.32130278856E+03  0.32256180503E+03  0.00000000000E+00 0. -1.
         22    1    3    3    0    0  0.61709400192E+02 -0.10834457991E+03  0.57806145257E+02  0.13743416059E+03  0.00000000000E+00 0. -1.
         22    1    3    3    0    0 -0.17340521607E+02 -0.21108605910E+02  0.10749806493E+03  0.11091483623E+03  0.00000000000E+00 0. -1.
</event>
<event>
 7    1  0.5622879E-006  0.1764371E+03  0.7818608E-02  0.1224937E+00
          2   -1    0    0  502    0  0.00000000000E+00  0.00000000000E+00  0.93662501032E+03  0.93662501032E+03  0.00000000000E+00 0. -1.
          1   -1    0    0  501    0 -0.00000000000E+00 -0.00000000000E+00 -0.56611866256E+03  0.56611866256E+03  0.00000000000E+00 0. -1.
         25    2    1    2    0    0  0.11271409274E+03  0.55764439851E+02 -0.50624922055E+02  0.18438616608E+03  0.12498494331E+03 0.  0.
          2    1    1    2  501    0 -0.12166501442E+03 -0.15368107799E+03 -0.42421617222E+03  0.46731104228E+03  0.00000000000E+00 0. -1.
          1    1    1    2  502    0  0.89509216723E+01  0.97916638143E+02  0.84534744203E+03  0.85104646452E+03  0.00000000000E+00 0. -1.
         22    1    3    3    0    0 -0.94473970973E+01  0.50728054731E+02  0.11431622095E+01  0.51612940902E+02  0.00000000000E+00 0.  1.
         22    1    3    3    0    0  0.12216148984E+03  0.50363851192E+01 -0.51768084265E+02  0.13277322518E+03  0.00000000000E+00 0.  1.
</event>
<event>
 7    1  0.5622879E-006  0.1670497E+03  0.7818608E-02  0.1233047E+00
          2   -1    0    0  502    0  0.00000000000E+00  0.00000000000E+00  0.48298213373E+03  0.48298213373E+03  0.00000000000E+00 0. -1.
          1   -1    0    0  501    0 -0.00000000000E+00 -0.00000000000E+00 -0.20143529997E+04  0.20143529997E+04  0.00000000000E+00 0. -1.
         25    2    1    2    0    0 -0.10851708360E+03  0.90124981488E+02  0.22196546183E+03  0.29119217204E+03  0.12500298033E+03 0.  0.
          2    1    1    2  501    0  0.65002047791E+01  0.95273980801E+02 -0.19288516580E+04  0.19312141525E+04  0.00000000000E+00 0. -1.
          1    1    1    2  502    0  0.10201687882E+03 -0.18539896229E+03  0.17551533027E+03  0.27492880886E+03  0.00000000000E+00 0. -1.
         22    1    3    3    0    0 -0.76700720724E+02  0.38131912990E+02  0.31589681931E+02  0.91295954742E+02  0.00000000000E+00 0.  1.
         22    1    3    3    0    0 -0.31816362877E+02  0.51993068498E+02  0.19037577990E+03  0.19989621730E+03  0.00000000000E+00 0.  1.
</event>
<event>
 7    1  0.5622879E-006  0.1921876E+03  0.7818608E-02  0.1370471E+00
          2   -1    0    0  502    0  0.00000000000E+00  0.00000000000E+00  0.48375166142E+03  0.48375166142E+03  0.00000000000E+00 0. -1.
          1   -1    0    0  501    0 -0.00000000000E+00 -0.00000000000E+00 -0.12762555834E+04  0.12762555834E+04  0.00000000000E+00 0. -1.
         25    2    1    2    0    0  0.17106414828E+03  0.25507633243E+02 -0.41711048945E+03  0.46852931947E+03  0.12499992247E+03 0.  0.
          2    1    1    2  501    0  0.21360153783E+02 -0.95128705175E+01 -0.81291102123E+03  0.81324724365E+03  0.00000000000E+00 0. -1.
          1    1    1    2  502    0 -0.19242430206E+03 -0.15994762725E+02  0.43751758872E+03  0.47823068168E+03  0.00000000000E+00 0. -1.
         22    1    3    3    0    0  0.11035598735E+03  0.33025811537E+02 -0.37978280071E+03  0.39686789223E+03  0.00000000000E+00 0.  1.
         22    1    3    3    0    0  0.60708160920E+02 -0.75181782941E+01 -0.37327688746E+02  0.71661427242E+02  0.00000000000E+00 0.  1.
</event>
<event>
 7    1  0.5622879E-006  0.5746186E+02  0.7818608E-02  0.1546067E+00
          2   -1    0    0  502    0  0.00000000000E+00  0.00000000000E+00  0.25601891043E+03  0.25601891043E+03  0.00000000000E+00 0. -1.
          1   -1    0    0  501    0 -0.00000000000E+00 -0.00000000000E+00 -0.78370891742E+02  0.78370891742E+02  0.00000000000E+00 0. -1.
         25    2    1    2    0    0 -0.72922641554E+02  0.20617780632E+02  0.18312629163E+03  0.23432559475E+03  0.12502176266E+03 0.  0.
          2    1    1    2  501    0  0.51345112102E+02 -0.22612568220E+02 -0.32958132037E+02  0.65068327515E+02  0.00000000000E+00 0. -1.
          1    1    1    2  502    0  0.21577529453E+02  0.19947875880E+01  0.27479859097E+02  0.34995879912E+02  0.00000000000E+00 0. -1.
         22    1    3    3    0    0 -0.47689811480E+02  0.54560080281E+02  0.17742052125E+03  0.19164853727E+03  0.00000000000E+00 0.  1.
         22    1    3    3    0    0 -0.25232830074E+02 -0.33942299649E+02  0.57057703838E+01  0.42677057474E+02  0.00000000000E+00 0.  1.
</event>
<event>
 7    1  0.5622879E-006  0.9105109E+02  0.7818608E-02  0.1304299E+00
          2   -1    0    0  502    0  0.00000000000E+00  0.00000000000E+00  0.17366616201E+04  0.17366616201E+04  0.00000000000E+00 0. -1.
          1   -1    0    0  501    0 -0.00000000000E+00 -0.00000000000E+00 -0.14384803130E+04  0.14384803130E+04  0.00000000000E+00 0. -1.
         25    2    1    2    0    0 -0.86017091244E+01  0.29066230832E+02  0.56336227117E+02  0.14041910628E+03  0.12499967899E+03 0.  0.
          2    1    1    2  501    0  0.92282901136E+02 -0.25274798040E+01 -0.13937346741E+04  0.13967887685E+04  0.00000000000E+00 0. -1.
          1    1    1    2  502    0 -0.83681192011E+02 -0.26538751028E+02  0.16355797541E+04  0.16379340583E+04  0.00000000000E+00 0. -1.
         22    1    3    3    0    0 -0.39027966810E+02  0.40601337816E+01 -0.27417059857E+02  0.47868173674E+02  0.00000000000E+00 0. -1.
         22    1    3    3    0    0  0.30426257686E+02  0.25006097050E+02  0.83753286975E+02  0.92550932602E+02  0.00000000000E+00 0. -1.
</event>
<event>
 7    1  0.5622879E-006  0.1162520E+03  0.7818608E-02  0.1290238E+00
          2   -1    0    0  502    0  0.00000000000E+00  0.00000000000E+00  0.35789985488E+03  0.35789985488E+03  0.00000000000E+00 0. -1.
          1   -1    0    0  501    0 -0.00000000000E+00 -0.00000000000E+00 -0.45546335935E+03  0.45546335935E+03  0.00000000000E+00 0. -1.
         25    2    1    2    0    0 -0.47813479490E+02  0.18340086042E+02  0.50017858190E+02  0.14405292678E+03  0.12500788774E+03 0.  0.
          2    1    1    2  501    0  0.88608714503E+02 -0.85193484518E+02 -0.39295991938E+03  0.41173648409E+03  0.00000000000E+00 0. -1.
          1    1    1    2  502    0 -0.40795235013E+02  0.66853398476E+02  0.24537855671E+03  0.25757380337E+03  0.00000000000E+00 0. -1.
         22    1    3    3    0    0  0.15474404181E+02 -0.43701447506E+02  0.19882583319E+02  0.50443937379E+02  0.00000000000E+00 0. -1.
         22    1    3    3    0    0 -0.63287883671E+02  0.62041533547E+02  0.30135274872E+02  0.93608989398E+02  0.00000000000E+00 0. -1.
</event>
<event>
 7    1  0.5622879E-006  0.1066917E+03  0.7818608E-02  0.1392199E+00
          2   -1    0    0  502    0  0.00000000000E+00  0.00000000000E+00  0.14221519582E+04  0.14221519582E+04  0.00000000000E+00 0. -1.
          1   -1    0    0  501    0 -0.00000000000E+00 -0.00000000000E+00 -0.53933174565E+02  0.53933174565E+02  0.00000000000E+00 0. -1.
         25    2    1    2    0    0 -0.67635656894E+02  0.75332547068E+02  0.59402914100E+03  0.61542177115E+03  0.12499504514E+03 0.  0.
          2    1    1    2  501    0  0.94357289529E+02 -0.52277682760E+02  0.25113440524E+02  0.11075621471E+03  0.00000000000E+00 0. -1.
          1    1    1    2  502    0 -0.26721632635E+02 -0.23054864308E+02  0.74907620211E+03  0.74990714691E+03  0.00000000000E+00 0. -1.
         22    1    3    3    0    0  0.20108172784E+01 -0.28809682463E+02  0.56116187779E+02  0.63111549819E+02  0.00000000000E+00 0. -1.
         22    1    3    3    0    0 -0.69646474173E+02  0.10414222953E+03  0.53791295322E+03  0.55231022133E+03  0.00000000000E+00 0. -1.
</event>
<event>
 7    1  0.5622879E-006  0.1315448E+03  0.7818608E-02  0.1306853E+00
          2   -1    0    0  502    0  0.00000000000E+00  0.00000000000E+00  0.32681223912E+03  0.32681223912E+03  0.00000000000E+00 0. -1.
          1   -1    0    0  501    0 -0.00000000000E+00 -0.00000000000E+00 -0.36352669493E+03  0.36352669493E+03  0.00000000000E+00 0. -1.
         25    2    1    2    0    0  0.31058815627E+02 -0.79969332611E+02  0.30397191531E+01  0.15163746757E+03  0.12499974997E+03 0.  0.
          2    1    1    2  501    0  0.30214997218E+02 -0.51097804442E+02 -0.26468283428E+03  0.27125805876E+03  0.00000000000E+00 0. -1.
          1    1    1    2  502    0 -0.61273812845E+02  0.13106713705E+03  0.22492865932E+03  0.26744340773E+03  0.00000000000E+00 0. -1.
         22    1    3    3    0    0  0.59939367018E+02 -0.99281050818E+02  0.92670775802E+01  0.11634145219E+03  0.00000000000E+00 0. -1.
         22    1    3    3    0    0 -0.28880551391E+02  0.19311718208E+02 -0.62273584271E+01  0.35296015380E+02  0.00000000000E+00 0. -1.
</event>
<event>
 7    1  0.5622879E-006  0.1036460E+03  0.7818608E-02  0.1361922E+00
          2   -1    0    0  502    0  0.00000000000E+00  0.00000000000E+00  0.17131289816E+03  0.17131289816E+03  0.00000000000E+00 0. -1.
          1   -1    0    0  501    0 -0.00000000000E+00 -0.00000000000E+00 -0.16629071012E+03  0.16629071012E+03  0.00000000000E+00 0. -1.
         25    2    1    2    0    0  0.40922467921E+02 -0.91802256042E+02 -0.46215821665E+01  0.16046305773E+03  0.12499892511E+03 0.  0.
          2    1    1    2  501    0 -0.43650446383E+02 -0.16190543352E+02 -0.37004997829E+02  0.59471548052E+02  0.00000000000E+00 0. -1.
          1    1    1    2  502    0  0.27279784611E+01  0.10799279939E+03  0.46648768036E+02  0.11766900249E+03  0.00000000000E+00 0. -1.
         22    1    3    3    0    0  0.38678810244E+02  0.96551880955E+01  0.33484501454E+02  0.52062317051E+02  0.00000000000E+00 0. -1.
         22    1    3    3    0    0  0.22436576773E+01 -0.10145744414E+03 -0.38106083620E+02  0.10840074068E+03  0.00000000000E+00 0. -1.
</event>
<event>
 7    1  0.5622879E-006  0.1113531E+03  0.7818608E-02  0.1269002E+00
          2   -1    0    0  502    0  0.00000000000E+00  0.00000000000E+00  0.23712955116E+04  0.23712955116E+04  0.00000000000E+00 0. -1.
          1   -1    0    0  501    0 -0.00000000000E+00 -0.00000000000E+00 -0.87420919869E+02  0.87420919869E+02  0.00000000000E+00 0. -1.
         25    2    1    2    0    0 -0.42402925666E+02  0.42609259884E+02  0.13762936812E+03  0.19539497507E+03  0.12499518464E+03 0.  0.
          2    1    1    2  501    0 -0.69456060800E+02 -0.72063232094E+02 -0.13047163793E+02  0.10093305843E+03  0.00000000000E+00 0. -1.
          1    1    1    2  502    0  0.11185898647E+03  0.29453972210E+02  0.21592923875E+04  0.21623883980E+04  0.00000000000E+00 0. -1.
         22    1    3    3    0    0 -0.52550476806E+02 -0.17768958503E+02  0.13658994510E+02  0.57130172674E+02  0.00000000000E+00 0. -1.
         22    1    3    3    0    0  0.10147551139E+02  0.60378218387E+02  0.12397037361E+03  0.13826480240E+03  0.00000000000E+00 0. -1.
</event>
<event>
 7    1  0.5622879E-006  0.2719517E+02  0.7818608E-02  0.1681870E+00
          2   -1    0    0  502    0  0.00000000000E+00  0.00000000000E+00  0.26980969025E+03  0.26980969025E+03  0.00000000000E+00 0. -1.
          1   -1    0    0  501    0 -0.00000000000E+00 -0.00000000000E+00 -0.44233678898E+02  0.44233678898E+02  0.00000000000E+00 0. -1.
         25    2    1    2    0    0 -0.17382276186E+02  0.21078542012E+02  0.15716107279E+03  0.20265967340E+03  0.12499956786E+03 0.  0.
          2    1    1    2  501    0  0.19352240232E+02  0.67348739802E+01 -0.13710096311E+02  0.24654299227E+02  0.00000000000E+00 0. -1.
          1    1    1    2  502    0 -0.19699640457E+01 -0.27813415993E+02  0.82125034875E+02  0.86729396520E+02  0.00000000000E+00 0. -1.
         22    1    3    3    0    0 -0.69489266118E+02  0.25641054993E+02  0.76161655123E+02  0.10623944427E+03  0.00000000000E+00 0. -1.
         22    1    3    3    0    0  0.52106989932E+02 -0.45625129810E+01  0.80999417669E+02  0.96420229139E+02  0.00000000000E+00 0. -1.
</event>
<event>
 7    1  0.5622879E-006  0.1001667E+03  0.7818608E-02  0.1384948E+00
          2   -1    0    0  502    0  0.00000000000E+00  0.00000000000E+00  0.15550790672E+04  0.15550790672E+04  0.00000000000E+00 0. -1.
          1   -1    0    0  501    0 -0.00000000000E+00 -0.00000000000E+00 -0.24993908073E+03  0.24993908073E+03  0.00000000000E+00 0. -1.
         25    2    1    2    0    0  0.82063819213E+02 -0.69692775589E+01  0.16279443639E+03  0.22114908890E+03  0.12498739835E+03 0.  0.
          2    1    1    2  501    0  0.87051119984E+01 -0.38889256837E+02 -0.21704835710E+03  0.22067655651E+03  0.00000000000E+00 0. -1.
          1    1    1    2  502    0 -0.90768931211E+02  0.45858534396E+02  0.13593939072E+04  0.13631925026E+04  0.00000000000E+00 0. -1.
         22    1    3    3    0    0  0.91274682627E+02 -0.39067729260E+02  0.67196030130E+02  0.11988603598E+03  0.00000000000E+00 0. -1.
         22    1    3    3    0    0 -0.92108634141E+01  0.32098451701E+02  0.95598406260E+02  0.10126305292E+03  0.00000000000E+00 0. -1.
</event>
<event>
 7    1  0.5622879E-006  0.8887226E+02  0.7818608E-02  0.1371183E+00
          2   -1    0    0  502    0  0.00000000000E+00  0.00000000000E+00  0.77802063849E+03  0.77802063849E+03  0.00000000000E+00 0. -1.
          1   -1    0    0  501    0 -0.00000000000E+00 -0.00000000000E+00 -0.13311545455E+04  0.13311545455E+04  0.00000000000E+00 0. -1.
         25    2    1    2    0    0  0.66458851717E+02  0.72753830022E+02  0.31880333900E+03  0.35632928413E+03  0.12500036405E+03 0.  0.
          2    1    1    2  501    0 -0.48126681190E+02  0.14517970118E+02 -0.13073898224E+04  0.13083558754E+04  0.00000000000E+00 0. -1.
          1    1    1    2  502    0 -0.18332170527E+02 -0.87271800140E+02  0.43545257640E+03  0.44449002449E+03  0.00000000000E+00 0. -1.
         22    1    3    3    0    0  0.28445468943E+02  0.97232045752E+02  0.27625225728E+03  0.29424228975E+03  0.00000000000E+00 0.  1.
         22    1    3    3    0    0  0.38013382773E+02 -0.24478215730E+02  0.42551081722E+02  0.62086994378E+02  0.00000000000E+00 0.  1.
</event>
<event>
 7    1  0.1014779E-005  0.7372449E+02  0.7818608E-02  0.1397446E+00
          2   -1    0    0  502    0  0.00000000000E+00  0.00000000000E+00  0.20538271422E+04  0.20538271422E+04  0.00000000000E+00 0. -1.
          1   -1    0    0  501    0 -0.00000000000E+00 -0.00000000000E+00 -0.79078867793E+03  0.79078867793E+03  0.00000000000E+00 0. -1.
         25    2    1    2    0    0  0.74847275111E+02  0.73265979098E+02 -0.12459764259E+03  0.20522589556E+03  0.12499230930E+03 0.  0.
          2    1    1    2  501    0 -0.26187309758E+02 -0.67673082368E+02 -0.62347450564E+03  0.62768294581E+03  0.00000000000E+00 0. -1.
          1    1    1    2  502    0 -0.48659965353E+02 -0.55928967302E+01  0.20111106125E+04  0.20117069788E+04  0.00000000000E+00 0. -1.
         22    1    3    3    0    0 -0.11759014207E+02 -0.13791464778E+02 -0.67335509389E+02  0.69731985061E+02  0.00000000000E+00 0.  1.
         22    1    3    3    0    0  0.86606289317E+02  0.87057443875E+02 -0.57262133197E+02  0.13549391050E+03  0.00000000000E+00 0.  1.
</event>
<event>
 7    1  0.5622879E-006  0.1008704E+03  0.7818608E-02  0.1373553E+00
          2   -1    0    0  502    0  0.00000000000E+00  0.00000000000E+00  0.81543348003E+03  0.81543348003E+03  0.00000000000E+00 0. -1.
          1   -1    0    0  501    0 -0.00000000000E+00 -0.00000000000E+00 -0.13441243853E+03  0.13441243853E+03  0.00000000000E+00 0. -1.
         25    2    1    2    0    0  0.11051463772E+03  0.64790104090E+02  0.19552136825E+03  0.26507045672E+03  0.12498999496E+03 0.  0.
          2    1    1    2  501    0 -0.42958183150E+02  0.63984332393E+01 -0.90549018338E+02  0.10042644159E+03  0.00000000000E+00 0. -1.
          1    1    1    2  502    0 -0.67556454575E+02 -0.71188537329E+02  0.57604869159E+03  0.58434902026E+03  0.00000000000E+00 0. -1.
         22    1    3    3    0    0  0.28840994847E+02 -0.37164099161E+02  0.38316601927E+02  0.60672359715E+02  0.00000000000E+00 0. -1.
         22    1    3    3    0    0  0.81673642878E+02  0.10195420325E+03  0.15720476633E+03  0.20439809700E+03  0.00000000000E+00 0. -1.
</event>
<event>
 7    1  0.5622879E-006  0.1030645E+03  0.7818608E-02  0.1318405E+00
          2   -1    0    0  502    0  0.00000000000E+00  0.00000000000E+00  0.14881993456E+03  0.14881993456E+03  0.00000000000E+00 0. -1.
          1   -1    0    0  501    0 -0.00000000000E+00 -0.00000000000E+00 -0.50213211990E+03  0.50213211990E+03  0.00000000000E+00 0. -1.
         25    2    1    2    0    0 -0.66984613555E+02 -0.43085515722E+02 -0.13317234780E+03  0.19927552496E+03  0.12503023838E+03 0.  0.
          2    1    1    2  501    0  0.11382745448E+03 -0.65595781915E+01 -0.31489287761E+03  0.33489885313E+03  0.00000000000E+00 0. -1.
          1    1    1    2  502    0 -0.46842840922E+02  0.49645093913E+02  0.94753040072E+02  0.11677767637E+03  0.00000000000E+00 0. -1.
         22    1    3    3    0    0  0.19635444137E+02  0.28677043502E+02 -0.41757398763E+02  0.54328665011E+02  0.00000000000E+00 0. -1.
         22    1    3    3    0    0 -0.86620057692E+02 -0.71762559224E+02 -0.91414949036E+02  0.14494685995E+03  0.00000000000E+00 0. -1.
</event>
<event>
 7    1  0.5622879E-006  0.1854716E+03  0.7818608E-02  0.1349201E+00
          2   -1    0    0  502    0  0.00000000000E+00  0.00000000000E+00  0.85500041685E+03  0.85500041685E+03  0.00000000000E+00 0. -1.
          1   -1    0    0  501    0 -0.00000000000E+00 -0.00000000000E+00 -0.29018871897E+03  0.29018871897E+03  0.00000000000E+00 0. -1.
         25    2    1    2    0    0  0.81323311609E+02  0.15110958182E+03 -0.59791005169E+02  0.22056284837E+03  0.12500167620E+03 0.  0.
          2    1    1    2  501    0 -0.16339294837E+02  0.23926194383E+02 -0.13722626039E+03  0.14025149508E+03  0.00000000000E+00 0. -1.
          1    1    1    2  502    0 -0.64984016772E+02 -0.17503577620E+03  0.76182896343E+03  0.78437479237E+03  0.00000000000E+00 0. -1.
         22    1    3    3    0    0  0.95076178113E+02  0.14247992140E+03 -0.84499075212E+02  0.19099764752E+03  0.00000000000E+00 0. -1.
         22    1    3    3    0    0 -0.13752866504E+02  0.86296604237E+01  0.24708070043E+02  0.29565200851E+02  0.00000000000E+00 0. -1.
</event>
<event>
 7    1  0.5622879E-006  0.6697815E+02  0.7818608E-02  0.1442500E+00
          2   -1    0    0  502    0  0.00000000000E+00  0.00000000000E+00  0.92374636651E+02  0.92374636651E+02  0.00000000000E+00 0. -1.
          1   -1    0    0  501    0 -0.00000000000E+00 -0.00000000000E+00 -0.10837526452E+04  0.10837526452E+04  0.00000000000E+00 0. -1.
         25    2    1    2    0    0 -0.47067151333E+02 -0.59947958277E+02 -0.15201288729E+03  0.21105277276E+03  0.12500512211E+03 0.  0.
          2    1    1    2  501    0  0.94823979096E+01  0.66326282182E+02 -0.89506985826E+03  0.89757403190E+03  0.00000000000E+00 0. -1.
          1    1    1    2  502    0  0.37584753424E+02 -0.63783239051E+01  0.55704736959E+02  0.67500477224E+02  0.00000000000E+00 0. -1.
         22    1    3    3    0    0 -0.73868293585E+02  0.36782496510E+01 -0.10112352603E+03  0.12528376525E+03  0.00000000000E+00 0.  1.
         22    1    3    3    0    0  0.26801142251E+02 -0.63626207928E+02 -0.50889361251E+02  0.85769007513E+02  0.00000000000E+00 0.  1.
</event>
<event>
 7    1  0.5622879E-006  0.3759483E+03  0.7818608E-02  0.1184059E+00
          2   -1    0    0  502    0  0.00000000000E+00  0.00000000000E+00  0.19630790895E+04  0.19630790895E+04  0.00000000000E+00 0. -1.
          1   -1    0    0  501    0 -0.00000000000E+00 -0.00000000000E+00 -0.17419823350E+03  0.17419823350E+03  0.00000000000E+00 0. -1.
         25    2    1    2    0    0 -0.11607656097E+03  0.33622214717E+03  0.10146993600E+04  0.10824770166E+04  0.12499039937E+03 0.  0.
          2    1    1    2  501    0  0.37245069813E+02  0.61263582412E+02 -0.81178454801E+02  0.10830680163E+03  0.00000000000E+00 0. -1.
          1    1    1    2  502    0  0.78831491154E+02 -0.39748572959E+03  0.85535995079E+03  0.94649350481E+03  0.00000000000E+00 0. -1.
         22    1    3    3    0    0 -0.86357306932E+02  0.32170224517E+03  0.82139480511E+03  0.88636298708E+03  0.00000000000E+00 0. -1.
         22    1    3    3    0    0 -0.29719254035E+02  0.14519901999E+02  0.19330455492E+03  0.19611402950E+03  0.00000000000E+00 0. -1.
</event>
<event>
 7    1  0.5622879E-006  0.7866223E+02  0.7818608E-02  0.1456456E+00
          2   -1    0    0  502    0  0.00000000000E+00  0.00000000000E+00  0.71168876542E+03  0.71168876542E+03  0.00000000000E+00 0. -1.
          1   -1    0    0  501    0 -0.00000000000E+00 -0.00000000000E+00 -0.71404625928E+02  0.71404625928E+02  0.00000000000E+00 0. -1.
         25    2    1    2    0    0  0.36391752204E+02 -0.54143816739E+02  0.17391140198E+03  0.22388856015E+03  0.12499999643E+03 0.  0.
          2    1    1    2  501    0 -0.20866383613E+02  0.78975666076E+02 -0.96753738045E+01  0.82256760546E+02  0.00000000000E+00 0. -1.
          1    1    1    2  502    0 -0.15525368591E+02 -0.24831849337E+02  0.47604811131E+03  0.47694807065E+03  0.00000000000E+00 0. -1.
         22    1    3    3    0    0 -0.65977262429E+01 -0.83255975442E+02  0.13601669563E+03  0.15961086720E+03  0.00000000000E+00 0. -1.
         22    1    3    3    0    0  0.42989478447E+02  0.29112158703E+02  0.37894706350E+02  0.64277692949E+02  0.00000000000E+00 0. -1.
</event>
<event>
 7    1  0.5622879E-006  0.6016464E+02  0.7818608E-02  0.1461395E+00
          2   -1    0    0  502    0  0.00000000000E+00  0.00000000000E+00  0.12388101259E+04  0.12388101259E+04  0.00000000000E+00 0. -1.
          1   -1    0    0  501    0 -0.00000000000E+00 -0.00000000000E+00 -0.31718397834E+03  0.31718397834E+03  0.00000000000E+00 0. -1.
         25    2    1    2    0    0  0.61823068746E+02 -0.22820133158E+02  0.23522448761E+03  0.27439943821E+03  0.12498656652E+03 0.  0.
          2    1    1    2  501    0 -0.58582803461E+02 -0.13975835135E+02 -0.29419806581E+03  0.30029946846E+03  0.00000000000E+00 0. -1.
          1    1    1    2  502    0 -0.32402652849E+01  0.36795968293E+02  0.98059972573E+03  0.98129519754E+03  0.00000000000E+00 0. -1.
         22    1    3    3    0    0  0.16450541448E+02 -0.53513134936E+02  0.33218698061E+02  0.65098063147E+02  0.00000000000E+00 0.  1.
         22    1    3    3    0    0  0.45372527299E+02  0.30693001777E+02  0.20200578955E+03  0.20930137507E+03  0.00000000000E+00 0.  1.
</event>
<event>
 7    1  0.5622879E-006  0.5569331E+02  0.7818608E-02  0.1427905E+00
          2   -1    0    0  502    0  0.00000000000E+00  0.00000000000E+00  0.85669165379E+03  0.85669165379E+03  0.00000000000E+00 0. -1.
          1   -1    0    0  501    0 -0.00000000000E+00 -0.00000000000E+00 -0.14762127427E+03  0.14762127427E+03  0.00000000000E+00 0. -1.
         25    2    1    2    0    0 -0.41731015867E+01  0.49484068758E+02  0.15930835327E+02  0.13543945798E+03  0.12499586964E+03 0.  0.
          2    1    1    2  501    0 -0.45545609383E+02 -0.23319187910E+02 -0.79309900154E+02  0.94383511914E+02  0.00000000000E+00 0. -1.
          1    1    1    2  502    0  0.49718710969E+02 -0.26164880847E+02  0.77244944435E+03  0.77448995816E+03  0.00000000000E+00 0. -1.
         22    1    3    3    0    0 -0.23220482486E+02  0.51010180262E+02 -0.44813916838E+02  0.71760131269E+02  0.00000000000E+00 0. -1.
         22    1    3    3    0    0  0.19047380899E+02 -0.15261115048E+01  0.60744752165E+02  0.63679326716E+02  0.00000000000E+00 0. -1.
</event>
<event>
 7    1  0.5622879E-006  0.3345780E+02  0.7818608E-02  0.1583027E+00
          2   -1    0    0  502    0  0.00000000000E+00  0.00000000000E+00  0.88708377506E+03  0.88708377506E+03  0.00000000000E+00 0. -1.
          1   -1    0    0  501    0 -0.00000000000E+00 -0.00000000000E+00 -0.11666462990E+04  0.11666462990E+04  0.00000000000E+00 0. -1.
         25    2    1    2    0    0 -0.77063031036E+01 -0.39621923504E+02  0.67621654906E+02  0.14774348605E+03  0.12500466202E+03 0.  0.
          2    1    1    2  501    0  0.26869318467E+02  0.12138021829E+02 -0.11260322488E+04  0.11264181804E+04  0.00000000000E+00 0. -1.
          1    1    1    2  502    0 -0.19163015363E+02  0.27483901675E+02  0.77884806997E+03  0.77956840758E+03  0.00000000000E+00 0. -1.
         22    1    3    3    0    0 -0.22666295892E+02 -0.15669888765E+02 -0.33139871954E+02  0.43099390906E+02  0.00000000000E+00 0.  1.
         22    1    3    3    0    0  0.14959992788E+02 -0.23952034740E+02  0.10076152686E+03  0.10464409514E+03  0.00000000000E+00 0.  1.
</event>
<event>
 7    1  0.5622879E-006  0.9170469E+02  0.7818608E-02  0.1299194E+00
          2   -1    0    0  502    0  0.00000000000E+00  0.00000000000E+00  0.11269095332E+04  0.11269095332E+04  0.00000000000E+00 0. -1.
          1   -1    0    0  501    0 -0.00000000000E+00 -0.00000000000E+00 -0.60108192176E+03  0.60108192176E+03  0.00000000000E+00 0. -1.
         25    2    1    2    0    0  0.65545416272E+02  0.10910274563E+02  0.10049239162E+03  0.17360510886E+03  0.12499910945E+03 0.  0.
          2    1    1    2  501    0 -0.21645983945E+02 -0.91022008126E+02 -0.55851851924E+03  0.56630070715E+03  0.00000000000E+00 0. -1.
          1    1    1    2  502    0 -0.43899432326E+02  0.80111733563E+02  0.98385373903E+03  0.98808563891E+03  0.00000000000E+00 0. -1.
         22    1    3    3    0    0  0.69272649819E+02  0.46037309227E+02  0.10915599768E+03  0.13723398152E+03  0.00000000000E+00 0.  1.
         22    1    3    3    0    0 -0.37272335474E+01 -0.35127034663E+02 -0.86636060620E+01  0.36371127342E+02  0.00000000000E+00 0.  1.
</event>
<event>
 7    1  0.5622879E-006  0.2298547E+02  0.7818608E-02  0.1710570E+00
          2   -1    0    0  502    0  0.00000000000E+00  0.00000000000E+00  0.16053432410E+03  0.16053432410E+03  0.00000000000E+00 0. -1.
          1   -1    0    0  501    0 -0.00000000000E+00 -0.00000000000E+00 -0.66601093380E+03  0.66601093380E+03  0.00000000000E+00 0. -1.
         25    2    1    2    0    0  0.37171082576E+02 -0.17298958309E+02 -0.52135974967E+02  0.14150347110E+03  0.12499651639E+03 0.  0.
          2    1    1    2  501    0 -0.14493603851E+02  0.14921886469E+02 -0.56787696581E+03  0.56825784248E+03  0.00000000000E+00 0. -1.
          1    1    1    2  502    0 -0.22677478725E+02  0.23770718397E+01  0.11453633108E+03  0.11678394431E+03  0.00000000000E+00 0. -1.
         22    1    3    3    0    0  0.13036488758E+02  0.34640370480E+02 -0.71940441361E+02  0.80903228670E+02  0.00000000000E+00 0. -1.
         22    1    3    3    0    0  0.24134593818E+02 -0.51939328788E+02  0.19804466394E+02  0.60600242433E+02  0.00000000000E+00 0. -1.
</event>
<event>
 7    1  0.5622879E-006  0.1722974E+03  0.7818608E-02  0.1359957E+00
          2   -1    0    0  502    0  0.00000000000E+00  0.00000000000E+00  0.10215946806E+04  0.10215946806E+04  0.00000000000E+00 0. -1.
          1   -1    0    0  501    0 -0.00000000000E+00 -0.00000000000E+00 -0.14574718229E+04  0.14574718229E+04  0.00000000000E+00 0. -1.
         25    2    1    2    0    0 -0.73655253184E+02 -0.12592540837E+03  0.36086357987E+02  0.19547476900E+03  0.12500342111E+03 0.  0.
          2    1    1    2  501    0  0.81213410277E+02  0.15337561088E+03 -0.13720863657E+04  0.13830186879E+04  0.00000000000E+00 0. -1.
          1    1    1    2  502    0 -0.75581570927E+01 -0.27450202518E+02  0.90012286542E+03  0.90057304657E+03  0.00000000000E+00 0. -1.
         22    1    3    3    0    0  0.16997493022E+01 -0.86001820077E+02 -0.26145732290E+02  0.89904402124E+02  0.00000000000E+00 0. -1.
         22    1    3    3    0    0 -0.75355002486E+02 -0.39923588289E+02  0.62232090277E+02  0.10557036687E+03  0.00000000000E+00 0. -1.
</event>
<event>
 7    1  0.5622879E-006  0.6898561E+02  0.7818608E-02  0.1381048E+00
          2   -1    0    0  502    0  0.00000000000E+00  0.00000000000E+00  0.66394908180E+03  0.66394908180E+03  0.00000000000E+00 0. -1.
          1   -1    0    0  501    0 -0.00000000000E+00 -0.00000000000E+00 -0.38212139176E+03  0.38212139176E+03  0.00000000000E+00 0. -1.
         25    2    1    2    0    0 -0.99476918060E+01 -0.14234964788E+00 -0.14134362610E+03  0.18895549382E+03  0.12500872438E+03 0.  0.
          2    1    1    2  501    0 -0.59705219856E+02  0.15774703112E+01 -0.21091728916E+03  0.21921063970E+03  0.00000000000E+00 0. -1.
          1    1    1    2  502    0  0.69652911662E+02 -0.14351206634E+01  0.63408860529E+03  0.63790434004E+03  0.00000000000E+00 0. -1.
         22    1    3    3    0    0 -0.11256452771E+02  0.26893148414E+02 -0.15563848152E+03  0.15834546438E+03  0.00000000000E+00 0.  1.
         22    1    3    3    0    0  0.13087609654E+01 -0.27035498062E+02  0.14294855421E+02  0.30610029438E+02  0.00000000000E+00 0.  1.
</event>
<event>
 7    1  0.5622879E-006  0.7836231E+02  0.7818608E-02  0.1426653E+00
          2   -1    0    0  502    0  0.00000000000E+00  0.00000000000E+00  0.22280054390E+04  0.22280054390E+04  0.00000000000E+00 0. -1.
          1   -1    0    0  501    0 -0.00000000000E+00 -0.00000000000E+00 -0.96966369309E+02  0.96966369309E+02  0.00000000000E+00 0. -1.
         25    2    1    2    0    0  0.23976817120E+02 -0.44147695615E+02  0.11110382364E+03  0.17462063823E+03  0.12499760350E+03 0.  0.
          2    1    1    2  501    0 -0.13276878868E+02 -0.34229619570E+02 -0.59227665672E+02  0.69683992059E+02  0.00000000000E+00 0. -1.
          1    1    1    2  502    0 -0.10699938252E+02  0.78377315185E+02  0.20791629117E+04  0.20806671780E+04  0.00000000000E+00 0. -1.
         22    1    3    3    0    0  0.29225187355E+02  0.10701224268E+02 -0.16789869163E+02  0.35362798013E+02  0.00000000000E+00 0.  1.
         22    1    3    3    0    0 -0.52483702349E+01 -0.54848919883E+02  0.12789369281E+03  0.13925784022E+03  0.00000000000E+00 0.  1.
</event>
<event>
 7    1  0.5622879E-006  0.4025940E+02  0.7818608E-02  0.1547489E+00
          2   -1    0    0  502    0  0.00000000000E+00  0.00000000000E+00  0.94359982959E+03  0.94359982959E+03  0.00000000000E+00 0. -1.
          1   -1    0    0  501    0 -0.00000000000E+00 -0.00000000000E+00 -0.19255858124E+03  0.19255858124E+03  0.00000000000E+00 0. -1.
         25    2    1    2    0    0  0.33523003404E+02 -0.19705164937E+02  0.20315845253E+03  0.24168311890E+03  0.12500115138E+03 0.  0.
          2    1    1    2  501    0  0.57599960831E+01  0.30100170247E+02 -0.17136336683E+03  0.17408216823E+03  0.00000000000E+00 0. -1.
          1    1    1    2  502    0 -0.39282999487E+02 -0.10395005310E+02  0.71924616265E+03  0.72039312370E+03  0.00000000000E+00 0. -1.
         22    1    3    3    0    0 -0.27271370879E+02  0.24078118418E+01  0.16355844744E+03  0.16583392583E+03  0.00000000000E+00 0.  1.
         22    1    3    3    0    0  0.60794374283E+02 -0.22112976779E+02  0.39600005085E+02  0.75849193069E+02  0.00000000000E+00 0.  1.
</event>
<event>
 7    1  0.5622879E-006  0.1005766E+03  0.7818608E-02  0.1368999E+00
          2   -1    0    0  502    0  0.00000000000E+00  0.00000000000E+00  0.13967519335E+04  0.13967519335E+04  0.00000000000E+00 0. -1.
          1   -1    0    0  501    0 -0.00000000000E+00 -0.00000000000E+00 -0.76632361307E+02  0.76632361307E+02  0.00000000000E+00 0. -1.
         25    2    1    2    0    0  0.49026238354E+02  0.44966758921E+02  0.80261085745E+03  0.81500656169E+03  0.12500370253E+03 0.  0.
          2    1    1    2  501    0 -0.94023265625E+02 -0.40389264850E+02 -0.31840030139E+02  0.10717021374E+03  0.00000000000E+00 0. -1.
          1    1    1    2  502    0  0.44997027270E+02 -0.45774940706E+01  0.54934874492E+03  0.55120751941E+03  0.00000000000E+00 0. -1.
         22    1    3    3    0    0 -0.39447386689E+02  0.28679145499E+02  0.20881373986E+03  0.21443359732E+03  0.00000000000E+00 0.  1.
         22    1    3    3    0    0  0.88473625044E+02  0.16287613422E+02  0.59379711759E+03  0.60057296437E+03  0.00000000000E+00 0.  1.
</event>
<event>
 7    1  0.5622879E-006  0.7707053E+02  0.7818608E-02  0.1347589E+00
          2   -1    0    0  502    0  0.00000000000E+00  0.00000000000E+00  0.94392910965E+02  0.94392910965E+02  0.00000000000E+00 0. -1.
          1   -1    0    0  501    0 -0.00000000000E+00 -0.00000000000E+00 -0.99740167411E+03  0.99740167411E+03  0.00000000000E+00 0. -1.
         25    2    1    2    0    0  0.27939518924E+02 -0.15693333727E+02 -0.35900959155E+03  0.38149565125E+03  0.12499659057E+03 0.  0.
          2    1    1    2  501    0 -0.28543109028E+02 -0.64673204458E+02 -0.60517874489E+03  0.60929356283E+03  0.00000000000E+00 0. -1.
          1    1    1    2  502    0  0.60359010389E+00  0.80366538185E+02  0.61179573294E+02  0.10100537099E+03  0.00000000000E+00 0. -1.
         22    1    3    3    0    0  0.35718973731E+02  0.40336275826E+02 -0.77683253232E+02  0.94538606212E+02  0.00000000000E+00 0. -1.
         22    1    3    3    0    0 -0.77794548063E+01 -0.56029609553E+02 -0.28132633832E+03  0.28695704504E+03  0.00000000000E+00 0. -1.
</event>
<event>
 7    1  0.5622879E-006  0.5528608E+02  0.7818608E-02  0.1424585E+00
          2   -1    0    0  502    0  0.00000000000E+00  0.00000000000E+00  0.74814790829E+03  0.74814790829E+03  0.00000000000E+00 0. -1.
          1   -1    0    0  501    0 -0.00000000000E+00 -0.00000000000E+00 -0.70170135065E+03  0.70170135065E+03  0.00000000000E+00 0. -1.
         25    2    1    2    0    0 -0.31860552271E+02  0.65661083230E+02  0.55615414802E+03  0.57468159924E+03  0.12500012599E+03 0.  0.
          2    1    1    2  501    0  0.50684531565E+02 -0.15029910204E+02 -0.68740835940E+03  0.68943822966E+03  0.00000000000E+00 0. -1.
          1    1    1    2  502    0 -0.18823979294E+02 -0.50631173027E+02  0.17770076902E+03  0.18572943005E+03  0.00000000000E+00 0. -1.
         22    1    3    3    0    0  0.12054207264E+02 -0.33513756085E+02  0.16260102703E+03  0.16645590933E+03  0.00000000000E+00 0. -1.
         22    1    3    3    0    0 -0.43914759535E+02  0.99174839315E+02  0.39355312099E+03  0.40822568991E+03  0.00000000000E+00 0. -1.
</event>
<event>
 7    1  0.5622879E-006  0.3336931E+02  0.7818608E-02  0.1573305E+00
          2   -1    0    0  502    0  0.00000000000E+00  0.00000000000E+00  0.13002148153E+04  0.13002148153E+04  0.00000000000E+00 0. -1.
          1   -1    0    0  501    0 -0.00000000000E+00 -0.00000000000E+00 -0.62231484850E+03  0.62231484850E+03  0.00000000000E+00 0. -1.
         25    2    1    2    0    0  0.52853428712E+02 -0.11488318945E+02  0.13018339613E+03  0.18840926251E+03  0.12499946870E+03 0.  0.
          2    1    1    2  501    0 -0.31333264241E+02 -0.11370991795E+02 -0.59251742285E+03  0.59345426890E+03  0.00000000000E+00 0. -1.
          1    1    1    2  502    0 -0.21520164471E+02  0.22859310740E+02  0.11402339935E+04  0.11406661324E+04  0.00000000000E+00 0. -1.
         22    1    3    3    0    0  0.41185895629E+02 -0.32597336080E+02  0.14889192825E+03  0.15788499173E+03  0.00000000000E+00 0. -1.
         22    1    3    3    0    0  0.11667533083E+02  0.21109017134E+02 -0.18708532117E+02  0.30524270779E+02  0.00000000000E+00 0. -1.
</event>
<event>
 7    1  0.5622879E-006  0.5472268E+02  0.7818608E-02  0.1483302E+00
          2   -1    0    0  502    0  0.00000000000E+00  0.00000000000E+00  0.14896807752E+04  0.14896807752E+04  0.00000000000E+00 0. -1.
          1   -1    0    0  501    0 -0.00000000000E+00 -0.00000000000E+00 -0.22443107754E+04  0.22443107754E+04  0.00000000000E+00 0. -1.
         25    2    1    2    0    0 -0.18515434337E+02  0.29418873779E+02 -0.79076260466E+02  0.15194356464E+03  0.12500200168E+03 0.  0.
          2    1    1    2  501    0 -0.33039445562E+02 -0.10709270033E+02 -0.21281416603E+04  0.21284250562E+04  0.00000000000E+00 0. -1.
          1    1    1    2  502    0  0.51554879899E+02 -0.18709603746E+02  0.14525879206E+04  0.14536229297E+04  0.00000000000E+00 0. -1.
         22    1    3    3    0    0  0.30332828415E+02  0.61798427688E+02 -0.56794350940E+02  0.89245304880E+02  0.00000000000E+00 0. -1.
         22    1    3    3    0    0 -0.48848262752E+02 -0.32379553910E+02 -0.22281909526E+02  0.62698259764E+02  0.00000000000E+00 0. -1.
</event>
<event>
 7    1  0.5622879E-006  0.5017807E+02  0.7818608E-02  0.1463844E+00
          2   -1    0    0  502    0  0.00000000000E+00  0.00000000000E+00  0.16360974023E+04  0.16360974023E+04  0.00000000000E+00 0. -1.
          1   -1    0    0  501    0 -0.00000000000E+00 -0.00000000000E+00 -0.52520701224E+02  0.52520701224E+02  0.00000000000E+00 0. -1.
         25    2    1    2    0    0  0.36882250557E+02  0.50768972798E+01  0.52554395456E+03  0.54148933960E+03  0.12501272508E+03 0.  0.
          2    1    1    2  501    0 -0.22041903766E+02 -0.45979718375E+02 -0.29378109212E+02  0.58847712992E+02  0.00000000000E+00 0. -1.
          1    1    1    2  502    0 -0.14840346791E+02  0.40902821096E+02  0.10874108557E+04  0.10882810509E+04  0.00000000000E+00 0. -1.
         22    1    3    3    0    0 -0.10872420912E+02  0.57563310430E+02  0.20644222701E+03  0.21459295733E+03  0.00000000000E+00 0.  1.
         22    1    3    3    0    0  0.47754671469E+02 -0.52486413150E+02  0.31910172755E+03  0.32689638227E+03  0.00000000000E+00 0.  1.
</event>
<event>
 7    1  0.5622879E-006  0.4534975E+02  0.7818608E-02  0.1566600E+00
          2   -1    0    0  502    0  0.00000000000E+00  0.00000000000E+00  0.78325624548E+03  0.78325624548E+03  0.00000000000E+00 0. -1.
          1   -1    0    0  501    0 -0.00000000000E+00 -0.00000000000E+00 -0.31987053150E+04  0.31987053150E+04  0.00000000000E+00 0. -1.
         25    2    1    2    0    0  0.28421100918E+02  0.40674004282E+02 -0.19833898086E+02  0.13593699602E+03  0.12499339892E+03 0.  0.
          2    1    1    2  501    0 -0.47414764267E+01 -0.45106654790E+02 -0.31204549520E+04  0.31207845487E+04  0.00000000000E+00 0. -1.
          1    1    1    2  502    0 -0.23679624492E+02  0.44326505078E+01  0.72483978056E+03  0.72524001578E+03  0.00000000000E+00 0. -1.
         22    1    3    3    0    0  0.56937753846E+02  0.89808239359E+00 -0.52208897187E+02  0.77255959709E+02  0.00000000000E+00 0. -1.
         22    1    3    3    0    0 -0.28516652928E+02  0.39775921888E+02  0.32374999101E+02  0.58681036315E+02  0.00000000000E+00 0. -1.
</event>
<event>
 7    1  0.5622879E-006  0.5726103E+02  0.7818608E-02  0.1415848E+00
          2   -1    0    0  502    0  0.00000000000E+00  0.00000000000E+00  0.31748801798E+03  0.31748801798E+03  0.00000000000E+00 0. -1.
          1   -1    0    0  501    0 -0.00000000000E+00 -0.00000000000E+00 -0.54584737797E+02  0.54584737797E+02  0.00000000000E+00 0. -1.
         25    2    1    2    0    0  0.38768213168E+02 -0.20358936786E+02  0.14061860413E+03  0.19317453364E+03  0.12500139184E+03 0.  0.
          2    1    1    2  501    0 -0.53243897834E+02 -0.35042151193E+02  0.30369119204E+02  0.70605583476E+02  0.00000000000E+00 0. -1.
          1    1    1    2  502    0  0.14475684667E+02  0.55401087979E+02  0.91915556848E+02  0.10829263865E+03  0.00000000000E+00 0. -1.
         22    1    3    3    0    0  0.64248468368E+02 -0.52069680631E+02  0.12440187959E+03  0.14938187632E+03  0.00000000000E+00 0. -1.
         22    1    3    3    0    0 -0.25480255201E+02  0.31710743844E+02  0.16216724537E+02  0.43792657318E+02  0.00000000000E+00 0. -1.
</event>
<event>
 7    1  0.5622879E-006  0.1857597E+03  0.7818608E-02  0.1295906E+00
          2   -1    0    0  502    0  0.00000000000E+00  0.00000000000E+00  0.19275392010E+04  0.19275392010E+04  0.00000000000E+00 0. -1.
          1   -1    0    0  501    0 -0.00000000000E+00 -0.00000000000E+00 -0.23632889884E+03  0.23632889884E+03  0.00000000000E+00 0. -1.
         25    2    1    2    0    0 -0.40083428468E+02 -0.13601553073E+03  0.15126228014E+04  0.15243882985E+04  0.12500015862E+03 0.  0.
          2    1    1    2  501    0  0.65232938583E+02  0.17511655583E+03 -0.19086403287E+03  0.26711462604E+03  0.00000000000E+00 0. -1.
          1    1    1    2  502    0 -0.25149510115E+02 -0.39101025102E+02  0.36945153371E+03  0.37236517531E+03  0.00000000000E+00 0. -1.
         22    1    3    3    0    0  0.30073812291E+02 -0.72783531471E+02  0.39450161753E+03  0.40228522577E+03  0.00000000000E+00 0.  1.
         22    1    3    3    0    0 -0.70157240759E+02 -0.63231999256E+02  0.11181211838E+04  0.11221030728E+04  0.00000000000E+00 0.  1.
</event>
<event>
 7    1  0.5622879E-006  0.6078177E+02  0.7818608E-02  0.1448717E+00
          2   -1    0    0  502    0  0.00000000000E+00  0.00000000000E+00  0.75261230005E+02  0.75261230005E+02  0.00000000000E+00 0. -1.
          1   -1    0    0  501    0 -0.00000000000E+00 -0.00000000000E+00 -0.69778844114E+03  0.69778844114E+03  0.00000000000E+00 0. -1.
         25    2    1    2    0    0 -0.88732247409E+02  0.77893511207E+01 -0.35963902965E+03  0.39102368141E+03  0.12500080822E+03 0.  0.
          2    1    1    2  501    0  0.31387436461E+02 -0.24982860894E+02 -0.30576703643E+03  0.30838741069E+03  0.00000000000E+00 0. -1.
          1    1    1    2  502    0  0.57344810948E+02  0.17193509773E+02  0.42878854949E+02  0.73638579038E+02  0.00000000000E+00 0. -1.
         22    1    3    3    0    0  0.60793406111E+01  0.16936437092E+02 -0.22707714046E+03  0.22778900106E+03  0.00000000000E+00 0.  1.
         22    1    3    3    0    0 -0.94811588020E+02 -0.91470859713E+01 -0.13256188919E+03  0.16323468035E+03  0.00000000000E+00 0.  1.
</event>
<event>
 7    1  0.5622879E-006  0.1142960E+03  0.7818608E-02  0.1338262E+00
          2   -1    0    0  502    0  0.00000000000E+00  0.00000000000E+00  0.17085615500E+04  0.17085615500E+04  0.00000000000E+00 0. -1.
          1   -1    0    0  501    0 -0.00000000000E+00 -0.00000000000E+00 -0.12896893408E+03  0.12896893408E+03  0.00000000000E+00 0. -1.
         25    2    1    2    0    0 -0.48807897883E+02  0.78887225807E+02  0.97524383768E+02  0.18368913556E+03  0.12500115120E+03 0.  0.
          2    1    1    2  501    0  0.36759422618E+02  0.36298162804E+02 -0.75769212037E+02  0.91704881369E+02  0.00000000000E+00 0. -1.
          1    1    1    2  502    0  0.12048475265E+02 -0.11518538861E+03  0.15578374442E+04  0.15621364672E+04  0.00000000000E+00 0. -1.
         22    1    3    3    0    0  0.34162548710E+02 -0.59795392250E+01  0.36060156828E+02  0.50031685302E+02  0.00000000000E+00 0.  1.
         22    1    3    3    0    0 -0.82970446593E+02  0.84866765032E+02  0.61464226940E+02  0.13365745025E+03  0.00000000000E+00 0.  1.
</event>
<event>
 7    1  0.5622879E-006  0.8007777E+02  0.7818608E-02  0.1406355E+00
          2   -1    0    0  502    0  0.00000000000E+00  0.00000000000E+00  0.14561591898E+03  0.14561591898E+03  0.00000000000E+00 0. -1.
          1   -1    0    0  501    0 -0.00000000000E+00 -0.00000000000E+00 -0.14689505069E+04  0.14689505069E+04  0.00000000000E+00 0. -1.
         25    2    1    2    0    0  0.55117248690E+02  0.91945393792E+02 -0.14066236633E+03  0.21657171175E+03  0.12500215392E+03 0.  0.
          2    1    1    2  501    0 -0.61363454508E+02 -0.50381014533E+02 -0.12849587192E+04  0.12874092707E+04  0.00000000000E+00 0. -1.
          1    1    1    2  502    0  0.62462058178E+01 -0.41564379258E+02  0.10228649761E+03  0.11058544345E+03  0.00000000000E+00 0. -1.
         22    1    3    3    0    0  0.82387280731E+02  0.15946558314E+02 -0.70275465129E+02  0.10945591691E+03  0.00000000000E+00 0. -1.
         22    1    3    3    0    0 -0.27270032041E+02  0.75998835478E+02 -0.70386901202E+02  0.10711579483E+03  0.00000000000E+00 0. -1.
</event>
<event>
 7    1  0.5622879E-006  0.7335718E+02  0.7818608E-02  0.1501589E+00
          2   -1    0    0  502    0  0.00000000000E+00  0.00000000000E+00  0.90395831143E+03  0.90395831143E+03  0.00000000000E+00 0. -1.
          1   -1    0    0  501    0 -0.00000000000E+00 -0.00000000000E+00 -0.92215928949E+02  0.92215928949E+02  0.00000000000E+00 0. -1.
         25    2    1    2    0    0 -0.79498999347E+00 -0.70858013548E+02  0.35802449217E+03  0.38578145559E+03  0.12499721754E+03 0.  0.
          2    1    1    2  501    0 -0.22016789058E+02  0.70260571558E+02 -0.60727402805E+02  0.95441628064E+02  0.00000000000E+00 0. -1.
          1    1    1    2  502    0  0.22811779051E+02  0.59744199060E+00  0.51444529312E+03  0.51495115672E+03  0.00000000000E+00 0. -1.
         22    1    3    3    0    0  0.94284562856E+01 -0.98839147668E+02  0.33096183923E+03  0.34553409661E+03  0.00000000000E+00 0. -1.
         22    1    3    3    0    0 -0.10223446279E+02  0.27981134119E+02  0.27062652944E+02  0.40247358979E+02  0.00000000000E+00 0. -1.
</event>
<event>
 7    1  0.5622879E-006  0.6740431E+02  0.7818608E-02  0.1530050E+00
          2   -1    0    0  502    0  0.00000000000E+00  0.00000000000E+00  0.19596959626E+04  0.19596959626E+04  0.00000000000E+00 0. -1.
          1   -1    0    0  501    0 -0.00000000000E+00 -0.00000000000E+00 -0.26380138672E+03  0.26380138672E+03  0.00000000000E+00 0. -1.
         25    2    1    2    0    0 -0.52176352945E+02 -0.18007671670E+02 -0.18183326669E+03  0.22744936730E+03  0.12499291885E+03 0.  0.
          2    1    1    2  501    0 -0.15139547122E+02  0.13834747382E+02 -0.56777151465E+02  0.60367632475E+02  0.00000000000E+00 0. -1.
          1    1    1    2  502    0  0.67315900066E+02  0.41729242886E+01  0.19345049940E+04  0.19356803495E+04  0.00000000000E+00 0. -1.
         22    1    3    3    0    0  0.38681832386E+02 -0.90615171610E+01 -0.87883100215E+02  0.96446018857E+02  0.00000000000E+00 0. -1.
         22    1    3    3    0    0 -0.90858185330E+02 -0.89461545094E+01 -0.93950166473E+02  0.13100334844E+03  0.00000000000E+00 0. -1.
</event>
<event>
 7    1  0.5622879E-006  0.8285014E+02  0.7818608E-02  0.1347034E+00
          2   -1    0    0  502    0  0.00000000000E+00  0.00000000000E+00  0.21160266313E+03  0.21160266313E+03  0.00000000000E+00 0. -1.
          1   -1    0    0  501    0 -0.00000000000E+00 -0.00000000000E+00 -0.24272532290E+03  0.24272532290E+03  0.00000000000E+00 0. -1.
         25    2    1    2    0    0  0.91761929098E+02  0.84862718562E+02 -0.32323923453E+02  0.17969852439E+03  0.12499916402E+03 0.  0.
          2    1    1    2  501    0 -0.65315157074E+02 -0.99826006334E+01 -0.11574033932E+03  0.13327245854E+03  0.00000000000E+00 0. -1.
          1    1    1    2  502    0 -0.26446772024E+02 -0.74880117928E+02  0.11694160300E+03  0.14135700310E+03  0.00000000000E+00 0. -1.
         22    1    3    3    0    0  0.11312188153E+03  0.86036137933E+02 -0.51305232741E+02  0.15109931839E+03  0.00000000000E+00 0.  1.
         22    1    3    3    0    0 -0.21359952437E+02 -0.11734193713E+01  0.18981309288E+02  0.28599205993E+02  0.00000000000E+00 0.  1.
</event>
<event>
 7    1  0.5622879E-006  0.2606218E+02  0.7818608E-02  0.1666161E+00
          2   -1    0    0  502    0  0.00000000000E+00  0.00000000000E+00  0.43652787835E+03  0.43652787835E+03  0.00000000000E+00 0. -1.
          1   -1    0    0  501    0 -0.00000000000E+00 -0.00000000000E+00 -0.88247472475E+03  0.88247472475E+03  0.00000000000E+00 0. -1.
         25    2    1    2    0    0  0.45584745612E+02  0.18590057717E+02 -0.82808295497E+02  0.15781954531E+03  0.12500494310E+03 0.  0.
          2    1    1    2  501    0 -0.23976515283E+02 -0.98630839901E+01 -0.76159978728E+03  0.76204093702E+03  0.00000000000E+00 0. -1.
          1    1    1    2  502    0 -0.21608230329E+02 -0.87269737274E+01  0.39846123637E+03  0.39914212077E+03  0.00000000000E+00 0. -1.
         22    1    3    3    0    0 -0.11294923321E+02  0.77451390448E+01 -0.97194697897E+02  0.98154835698E+02  0.00000000000E+00 0. -1.
         22    1    3    3    0    0  0.56879668933E+02  0.10844918673E+02  0.14386402400E+02  0.59664709611E+02  0.00000000000E+00 0. -1.
</event>
<event>
 7    1  0.5622879E-006  0.8623206E+02  0.7818608E-02  0.1371857E+00
          2   -1    0    0  502    0  0.00000000000E+00  0.00000000000E+00  0.79432022306E+03  0.79432022306E+03  0.00000000000E+00 0. -1.
          1   -1    0    0  501    0 -0.00000000000E+00 -0.00000000000E+00 -0.33528022966E+04  0.33528022966E+04  0.00000000000E+00 0. -1.
         25    2    1    2    0    0  0.51296523548E+02  0.10157000408E+03  0.10685571489E+03  0.19997670632E+03  0.12499896083E+03 0.  0.
          2    1    1    2  501    0  0.15749042119E+02 -0.49054032374E+02 -0.33032108154E+04  0.33036125713E+04  0.00000000000E+00 0. -1.
          1    1    1    2  502    0 -0.67045565667E+02 -0.52515971711E+02  0.63787302692E+03  0.64353324206E+03  0.00000000000E+00 0. -1.
         22    1    3    3    0    0  0.91545270308E+02  0.76493861717E+02  0.60906826225E+02  0.13394584307E+03  0.00000000000E+00 0.  1.
         22    1    3    3    0    0 -0.40248746760E+02  0.25076142368E+02  0.45948888664E+02  0.66030863248E+02  0.00000000000E+00 0.  1.
</event>
<event>
 7    1  0.5622879E-006  0.5626292E+02  0.7818608E-02  0.1487759E+00
          2   -1    0    0  502    0  0.00000000000E+00  0.00000000000E+00  0.74017212671E+03  0.74017212671E+03  0.00000000000E+00 0. -1.
          1   -1    0    0  501    0 -0.00000000000E+00 -0.00000000000E+00 -0.23685074549E+04  0.23685074549E+04  0.00000000000E+00 0. -1.
         25    2    1    2    0    0  0.70087249291E+02  0.54245880439E+02 -0.14731725297E+03  0.21255495668E+03  0.12498959369E+03 0.  0.
          2    1    1    2  501    0 -0.27462796226E+02 -0.17827451155E+02 -0.21873380699E+04  0.21875831082E+04  0.00000000000E+00 0. -1.
          1    1    1    2  502    0 -0.42624453065E+02 -0.36418429284E+02  0.70631999470E+03  0.70854151671E+03  0.00000000000E+00 0. -1.
         22    1    3    3    0    0 -0.39637378818E+01  0.42788043201E+02 -0.12821778561E+03  0.13522695148E+03  0.00000000000E+00 0. -1.
         22    1    3    3    0    0  0.74050987173E+02  0.11457837238E+02 -0.19099467360E+02  0.77328005204E+02  0.00000000000E+00 0. -1.
</event>
<event>
 7    1  0.5622879E-006  0.9366490E+02  0.7818608E-02  0.1331966E+00
          2   -1    0    0  502    0  0.00000000000E+00  0.00000000000E+00  0.17013034611E+03  0.17013034611E+03  0.00000000000E+00 0. -1.
          1   -1    0    0  501    0 -0.00000000000E+00 -0.00000000000E+00 -0.49410485747E+03  0.49410485747E+03  0.00000000000E+00 0. -1.
         25    2    1    2    0    0  0.21235198916E+02  0.34686097993E+02 -0.75745771136E+02  0.15171748606E+03  0.12500685846E+03 0.  0.
          2    1    1    2  501    0 -0.78798170594E+02 -0.68183710329E+02 -0.36418333187E+03  0.37879766269E+03  0.00000000000E+00 0. -1.
          1    1    1    2  502    0  0.57562971678E+02  0.33497612336E+02  0.11595459165E+03  0.13372005484E+03  0.00000000000E+00 0. -1.
         22    1    3    3    0    0  0.16490566814E+01 -0.87662363030E+01 -0.98499242277E+02  0.98902310468E+02  0.00000000000E+00 0.  1.
         22    1    3    3    0    0  0.19586142234E+02  0.43452334296E+02  0.22753471140E+02  0.52815175587E+02  0.00000000000E+00 0.  1.
</event>
<event>
 7    1  0.5622879E-006  0.7387089E+02  0.7818608E-02  0.1363840E+00
          2   -1    0    0  502    0  0.00000000000E+00  0.00000000000E+00  0.36214431402E+03  0.36214431402E+03  0.00000000000E+00 0. -1.
          1   -1    0    0  501    0 -0.00000000000E+00 -0.00000000000E+00 -0.21328973503E+03  0.21328973503E+03  0.00000000000E+00 0. -1.
         25    2    1    2    0    0 -0.12877870148E+02 -0.13194606221E+03  0.20359510144E+02  0.18334789450E+03  0.12500535145E+03 0.  0.
          2    1    1    2  501    0  0.11031364965E+02  0.67690924225E+02 -0.11847124033E+03  0.13689115027E+03  0.00000000000E+00 0. -1.
          1    1    1    2  502    0  0.18465051835E+01  0.64255137989E+02  0.24696630918E+03  0.25519500428E+03  0.00000000000E+00 0. -1.
         22    1    3    3    0    0  0.15869885629E+02 -0.14595091479E+03  0.27386019296E+01  0.14683672136E+03  0.00000000000E+00 0.  1.
         22    1    3    3    0    0 -0.28747755777E+02  0.14004852580E+02  0.17620908214E+02  0.36511173143E+02  0.00000000000E+00 0.  1.
</event>
<event>
 7    1  0.5622879E-006  0.1383648E+03  0.7818608E-02  0.1228908E+00
          2   -1    0    0  502    0  0.00000000000E+00  0.00000000000E+00  0.28021473984E+04  0.28021473984E+04  0.00000000000E+00 0. -1.
          1   -1    0    0  501    0 -0.00000000000E+00 -0.00000000000E+00 -0.53077649025E+03  0.53077649025E+03  0.00000000000E+00 0. -1.
         25    2    1    2    0    0 -0.38987179962E+02  0.17677338351E+02  0.87411504117E+01  0.13239415933E+03  0.12497726682E+03 0.  0.
          2    1    1    2  501    0 -0.86351944389E+02 -0.83783535829E+02 -0.45935912975E+03  0.47485487179E+03  0.00000000000E+00 0. -1.
          1    1    1    2  502    0  0.12533912435E+03  0.66106197478E+02  0.27219888875E+04  0.27256748576E+04  0.00000000000E+00 0. -1.
         22    1    3    3    0    0  0.43004219512E+02  0.17764789458E+02  0.17983521249E+02  0.49883440908E+02  0.00000000000E+00 0.  1.
         22    1    3    3    0    0 -0.81991399474E+02 -0.87451106577E-01 -0.92423708373E+01  0.82510718419E+02  0.00000000000E+00 0.  1.
</event>
<event>
 7    1  0.5622879E-006  0.1501595E+03  0.7818608E-02  0.1372377E+00
          2   -1    0    0  502    0  0.00000000000E+00  0.00000000000E+00  0.23239820350E+04  0.23239820350E+04  0.00000000000E+00 0. -1.
          1   -1    0    0  501    0 -0.00000000000E+00 -0.00000000000E+00 -0.35687692471E+02  0.35687692471E+02  0.00000000000E+00 0. -1.
         25    2    1    2    0    0 -0.71522621904E+02 -0.11437825855E+03  0.65990132052E+03  0.68504920135E+03  0.12499913591E+03 0.  0.
          2    1    1    2  501    0 -0.29273912111E+02 -0.33056027146E+01 -0.83018016442E+01  0.30607333274E+02  0.00000000000E+00 0. -1.
          1    1    1    2  502    0  0.10079653402E+03  0.11768386126E+03  0.16366948237E+04  0.16440131929E+04  0.00000000000E+00 0. -1.
         22    1    3    3    0    0 -0.80194240670E+02 -0.60880882229E+02  0.22149350570E+03  0.24330427683E+03  0.00000000000E+00 0. -1.
         22    1    3    3    0    0  0.86716187664E+01 -0.53497376320E+02  0.43840781482E+03  0.44174492452E+03  0.00000000000E+00 0. -1.
</event>
<event>
 7    1  0.5622879E-006  0.7802684E+02  0.7818608E-02  0.1413656E+00
          2   -1    0    0  502    0  0.00000000000E+00  0.00000000000E+00  0.15375349692E+04  0.15375349692E+04  0.00000000000E+00 0. -1.
          1   -1    0    0  501    0 -0.00000000000E+00 -0.00000000000E+00 -0.24388667648E+03  0.24388667648E+03  0.00000000000E+00 0. -1.
         25    2    1    2    0    0 -0.38002772464E+02 -0.10037225935E+03  0.39764914186E+02  0.16947897484E+03  0.12499229316E+03 0.  0.
          2    1    1    2  501    0  0.54384233710E+01  0.75879380304E+02 -0.17064372736E+03  0.18683291597E+03  0.00000000000E+00 0. -1.
          1    1    1    2  502    0  0.32564349093E+02  0.24492879048E+02  0.14245271059E+04  0.14251097549E+04  0.00000000000E+00 0. -1.
         22    1    3    3    0    0 -0.58740629644E+02 -0.94798858742E+02 -0.13224385090E+02  0.11230391601E+03  0.00000000000E+00 0.  1.
         22    1    3    3    0    0  0.20737857180E+02 -0.55734006104E+01  0.52989299276E+02  0.57175058833E+02  0.00000000000E+00 0.  1.
</event>
<event>
 7    1  0.5622879E-006  0.1100320E+03  0.7818608E-02  0.1280845E+00
          2   -1    0    0  502    0  0.00000000000E+00  0.00000000000E+00  0.22575223653E+04  0.22575223653E+04  0.00000000000E+00 0. -1.
          1   -1    0    0  501    0 -0.00000000000E+00 -0.00000000000E+00 -0.41079268878E+03  0.41079268878E+03  0.00000000000E+00 0. -1.
         25    2    1    2    0    0 -0.66776739108E+02  0.13222589343E+03 -0.92628813523E+02  0.21482079474E+03  0.12500022792E+03 0.  0.
          2    1    1    2  501    0  0.87120403019E+02 -0.24163025760E+02 -0.24769456810E+03  0.26367862163E+03  0.00000000000E+00 0. -1.
          1    1    1    2  502    0 -0.20343663910E+02 -0.10806286767E+03  0.21870530581E+04  0.21898156377E+04  0.00000000000E+00 0. -1.
         22    1    3    3    0    0 -0.10092012492E+03  0.82393646843E+02 -0.44796113753E+02  0.13776892415E+03  0.00000000000E+00 0.  1.
         22    1    3    3    0    0  0.34143385811E+02  0.49832246587E+02 -0.47832699770E+02  0.77051870593E+02  0.00000000000E+00 0.  1.
</event>
<event>
 7    1  0.5622879E-006  0.6566646E+02  0.7818608E-02  0.1423294E+00
          2   -1    0    0  502    0  0.00000000000E+00  0.00000000000E+00  0.61884646598E+02  0.61884646598E+02  0.00000000000E+00 0. -1.
          1   -1    0    0  501    0 -0.00000000000E+00 -0.00000000000E+00 -0.90077147532E+03  0.90077147532E+03  0.00000000000E+00 0. -1.
         25    2    1    2    0    0  0.51439364543E+02  0.45983056352E+02 -0.61340358923E+02  0.15538849000E+03  0.12498997358E+03 0.  0.
          2    1    1    2  501    0 -0.10772416353E+02 -0.65134160166E+02 -0.75331375208E+03  0.75620110609E+03  0.00000000000E+00 0. -1.
          1    1    1    2  502    0 -0.40666948191E+02  0.19151103813E+02 -0.24232717723E+02  0.51066525833E+02  0.00000000000E+00 0. -1.
         22    1    3    3    0    0 -0.16070207149E+02  0.62347220483E+02 -0.26333429333E+01  0.64438823350E+02  0.00000000000E+00 0. -1.
         22    1    3    3    0    0  0.67509571692E+02 -0.16364164131E+02 -0.58707015990E+02  0.90949666652E+02  0.00000000000E+00 0. -1.
</event>
<event>
 7    1  0.5622879E-006  0.1571351E+03  0.7818608E-02  0.1247140E+00
          2   -1    0    0  502    0  0.00000000000E+00  0.00000000000E+00  0.18666365520E+04  0.18666365520E+04  0.00000000000E+00 0. -1.
          1   -1    0    0  501    0 -0.00000000000E+00 -0.00000000000E+00 -0.12384322515E+04  0.12384322515E+04  0.00000000000E+00 0. -1.
         25    2    1    2    0    0  0.80739527900E+02  0.79080497561E+02  0.50910157447E+02  0.17603774922E+03  0.12499939423E+03 0.  0.
          2    1    1    2  501    0 -0.42546290905E+02  0.77014540513E+02 -0.11705313704E+04  0.11738335127E+04  0.00000000000E+00 0. -1.
          1    1    1    2  502    0 -0.38193236995E+02 -0.15609503807E+03  0.17478255135E+04  0.17551975416E+04  0.00000000000E+00 0. -1.
         22    1    3    3    0    0  0.39365747133E+01 -0.45771204983E+01 -0.33814697793E+02  0.34349387758E+02  0.00000000000E+00 0.  1.
         22    1    3    3    0    0  0.76802953186E+02  0.83657618059E+02  0.84724855240E+02  0.14168836146E+03  0.00000000000E+00 0.  1.
</event>
<event>
 7    1  0.5622879E-006  0.1896204E+03  0.7818608E-02  0.1298194E+00
          2   -1    0    0  502    0  0.00000000000E+00  0.00000000000E+00  0.17725347527E+04  0.17725347527E+04  0.00000000000E+00 0. -1.
          1   -1    0    0  501    0 -0.00000000000E+00 -0.00000000000E+00 -0.18609988957E+03  0.18609988957E+03  0.00000000000E+00 0. -1.
         25    2    1    2    0    0 -0.97739675212E+02  0.18485754781E+03  0.27274236440E+03  0.36570380981E+03  0.12500208828E+03 0.  0.
          2    1    1    2  501    0  0.53594938663E+02 -0.17857699377E+03 -0.76857478839E+02  0.20166614046E+03  0.00000000000E+00 0. -1.
          1    1    1    2  502    0  0.44144736549E+02 -0.62805540438E+01  0.13905499775E+04  0.13912646920E+04  0.00000000000E+00 0. -1.
         22    1    3    3    0    0 -0.26116674555E+02  0.13024209716E+02  0.12408150176E+03  0.12746736762E+03  0.00000000000E+00 0.  1.
         22    1    3    3    0    0 -0.71623000656E+02  0.17183333810E+03  0.14866086264E+03  0.23823644218E+03  0.00000000000E+00 0.  1.
</event>
<event>
 7    1  0.5622879E-006  0.4188314E+02  0.7818608E-02  0.1510713E+00
          2   -1    0    0  502    0  0.00000000000E+00  0.00000000000E+00  0.90749120684E+03  0.90749120684E+03  0.00000000000E+00 0. -1.
          1   -1    0    0  501    0 -0.00000000000E+00 -0.00000000000E+00 -0.47154024466E+02  0.47154024466E+02  0.00000000000E+00 0. -1.
         25    2    1    2    0    0 -0.12553224589E+01 -0.13889264555E+02  0.58068456684E+03  0.59415031471E+03  0.12500217119E+03 0.  0.
          2    1    1    2  501    0  0.41161871842E+02 -0.77393611741E+01 -0.27436352042E+02  0.50069459936E+02  0.00000000000E+00 0. -1.
          1    1    1    2  502    0 -0.39906549383E+02  0.21628625729E+02  0.30708896758E+03  0.31042545666E+03  0.00000000000E+00 0. -1.
         22    1    3    3    0    0 -0.26698951257E+02 -0.56738083104E+02  0.44889588335E+03  0.45325440776E+03  0.00000000000E+00 0. -1.
         22    1    3    3    0    0  0.25443628798E+02  0.42848818549E+02  0.13178868349E+03  0.14089590694E+03  0.00000000000E+00 0. -1.
</event>
<event>
 7    1  0.5622879E-006  0.4547037E+02  0.7818608E-02  0.1590379E+00
          2   -1    0    0  502    0  0.00000000000E+00  0.00000000000E+00  0.60439670347E+03  0.60439670347E+03  0.00000000000E+00 0. -1.
          1   -1    0    0  501    0 -0.00000000000E+00 -0.00000000000E+00 -0.14963966731E+03  0.14963966731E+03  0.00000000000E+00 0. -1.
         25    2    1    2    0    0  0.46924808671E+02  0.15494040680E+02  0.56886225442E+02  0.14595604715E+03  0.12500048835E+03 0.  0.
          2    1    1    2  501    0 -0.45194327483E+02  0.51735943679E+01 -0.99956728330E+02  0.10982094907E+03  0.00000000000E+00 0. -1.
          1    1    1    2  502    0 -0.17304811883E+01 -0.20667635047E+02  0.49782753905E+03  0.49825937456E+03  0.00000000000E+00 0. -1.
         22    1    3    3    0    0  0.16256344923E+02  0.37039657016E+01  0.94530464161E+02  0.95989565926E+02  0.00000000000E+00 0. -1.
         22    1    3    3    0    0  0.30668463748E+02  0.11790074978E+02 -0.37644238720E+02  0.49966481219E+02  0.00000000000E+00 0. -1.
</event>
<event>
 7    1  0.5622879E-006  0.1376151E+03  0.7818608E-02  0.1262747E+00
          2   -1    0    0  502    0  0.00000000000E+00  0.00000000000E+00  0.10697684394E+04  0.10697684394E+04  0.00000000000E+00 0. -1.
          1   -1    0    0  501    0 -0.00000000000E+00 -0.00000000000E+00 -0.20918470691E+04  0.20918470691E+04  0.00000000000E+00 0. -1.
         25    2    1    2    0    0  0.80861573562E+02  0.17546329464E+03 -0.88133907121E+02  0.24641110013E+03  0.12499953134E+03 0.  0.
          2    1    1    2  501    0 -0.42174327128E+01 -0.13630090556E+03 -0.19202825519E+04  0.19251183867E+04  0.00000000000E+00 0. -1.
          1    1    1    2  502    0 -0.76644140849E+02 -0.39162389081E+02  0.98633782929E+03  0.99008602179E+03  0.00000000000E+00 0. -1.
         22    1    3    3    0    0  0.95033349904E+02  0.18080896153E+03 -0.99755341448E+02  0.22731992062E+03  0.00000000000E+00 0.  1.
         22    1    3    3    0    0 -0.14171776342E+02 -0.53456668852E+01  0.11621434326E+02  0.19091179506E+02  0.00000000000E+00 0.  1.
</event>
<event>
 7    1  0.5622879E-006  0.4984776E+02  0.7818608E-02  0.1465239E+00
          2   -1    0    0  502    0  0.00000000000E+00  0.00000000000E+00  0.64037257379E+03  0.64037257379E+03  0.00000000000E+00 0. -1.
          1   -1    0    0  501    0 -0.00000000000E+00 -0.00000000000E+00 -0.33236280404E+03  0.33236280404E+03  0.00000000000E+00 0. -1.
         25    2    1    2    0    0 -0.27076360944E+02  0.67339244459E+02  0.95516124292E+02  0.17325129352E+03  0.12499991016E+03 0.  0.
          2    1    1    2  501    0 -0.14746909071E+02 -0.40776707922E+02 -0.29067026627E+03  0.29388673826E+03  0.00000000000E+00 0. -1.
          1    1    1    2  502    0  0.41823270015E+02 -0.26562536538E+02  0.50316391173E+03  0.50559734604E+03  0.00000000000E+00 0. -1.
         22    1    3    3    0    0  0.36280068035E+02 -0.16122542577E+02  0.28430961413E+02  0.48831335048E+02  0.00000000000E+00 0. -1.
         22    1    3    3    0    0 -0.63356428979E+02  0.83461787036E+02  0.67085162880E+02  0.12441995847E+03  0.00000000000E+00 0. -1.
</event>
<event>
 7    1  0.5622879E-006  0.8912989E+02  0.7818608E-02  0.1358384E+00
          2   -1    0    0  502    0  0.00000000000E+00  0.00000000000E+00  0.22673308128E+04  0.22673308128E+04  0.00000000000E+00 0. -1.
          1   -1    0    0  501    0 -0.00000000000E+00 -0.00000000000E+00 -0.24104999509E+03  0.24104999509E+03  0.00000000000E+00 0. -1.
         25    2    1    2    0    0  0.84240355608E+02 -0.10913082755E+03  0.27749643773E+03  0.33411800919E+03  0.12499838428E+03 0.  0.
          2    1    1    2  501    0 -0.47120718260E+02  0.29835419750E+02 -0.20808816744E+03  0.21543258758E+03  0.00000000000E+00 0. -1.
          1    1    1    2  502    0 -0.37119637348E+02  0.79295407804E+02  0.19568725474E+04  0.19588302111E+04  0.00000000000E+00 0. -1.
         22    1    3    3    0    0  0.53144618674E+02 -0.95227415417E+02  0.84020357004E+02  0.13766637764E+03  0.00000000000E+00 0. -1.
         22    1    3    3    0    0  0.31095736934E+02 -0.13903412137E+02  0.19347608073E+03  0.19645163155E+03  0.00000000000E+00 0. -1.
</event>
<event>
 7    1  0.5622879E-006  0.1011581E+03  0.7818608E-02  0.1347615E+00
          2   -1    0    0  502    0  0.00000000000E+00  0.00000000000E+00  0.26995703159E+04  0.26995703159E+04  0.00000000000E+00 0. -1.
          1   -1    0    0  501    0 -0.00000000000E+00 -0.00000000000E+00 -0.78868880305E+02  0.78868880305E+02  0.00000000000E+00 0. -1.
         25    2    1    2    0    0 -0.31788169803E+02 -0.62037455601E+01  0.11061816391E+02  0.12960259825E+03  0.12500198196E+03 0.  0.
          2    1    1    2  501    0  0.12321567166E+03 -0.37085622428E+02  0.20478944858E+03  0.24185980109E+03  0.00000000000E+00 0. -1.
          1    1    1    2  502    0 -0.91427501858E+02  0.43289367988E+02  0.24048501706E+04  0.24069767969E+04  0.00000000000E+00 0. -1.
         22    1    3    3    0    0 -0.54407507266E+02  0.79873513583E+01 -0.42668417316E+02  0.69602934312E+02  0.00000000000E+00 0. -1.
         22    1    3    3    0    0  0.22619337463E+02 -0.14191096918E+02  0.53730233707E+02  0.59999663943E+02  0.00000000000E+00 0. -1.
</event>
<event>
 7    1  0.5622879E-006  0.8766803E+02  0.7818608E-02  0.1343438E+00
          2   -1    0    0  502    0  0.00000000000E+00  0.00000000000E+00  0.28943926062E+03  0.28943926062E+03  0.00000000000E+00 0. -1.
          1   -1    0    0  501    0 -0.00000000000E+00 -0.00000000000E+00 -0.10369567444E+04  0.10369567444E+04  0.00000000000E+00 0. -1.
         25    2    1    2    0    0 -0.13682506459E+03 -0.27052408280E+01 -0.64295875852E+03  0.66914176683E+03  0.12500528920E+03 0.  0.
          2    1    1    2  501    0  0.73605455529E+02 -0.95792560738E+01 -0.37345151953E+03  0.38075656615E+03  0.00000000000E+00 0. -1.
          1    1    1    2  502    0  0.63219609066E+02  0.12284496902E+02  0.26889279426E+03  0.27649767204E+03  0.00000000000E+00 0. -1.
         22    1    3    3    0    0 -0.69106717086E+02  0.23346090801E+02 -0.11474211800E+03  0.13596518652E+03  0.00000000000E+00 0. -1.
         22    1    3    3    0    0 -0.67718347509E+02 -0.26051331629E+02 -0.52821664052E+03  0.53317658031E+03  0.00000000000E+00 0. -1.
</event>
<event>
 7    1  0.5622879E-006  0.6410462E+02  0.7818608E-02  0.1451948E+00
          2   -1    0    0  502    0  0.00000000000E+00  0.00000000000E+00  0.17807178646E+03  0.17807178646E+03  0.00000000000E+00 0. -1.
          1   -1    0    0  501    0 -0.00000000000E+00 -0.00000000000E+00 -0.94075050832E+03  0.94075050832E+03  0.00000000000E+00 0. -1.
         25    2    1    2    0    0  0.30650311283E+02  0.62497351260E+02 -0.97058179080E+02  0.17288587501E+03  0.12499550054E+03 0.  0.
          2    1    1    2  501    0  0.64645179660E+01 -0.63936660471E+02 -0.80200971041E+03  0.80458017757E+03  0.00000000000E+00 0. -1.
          1    1    1    2  502    0 -0.37114829249E+02  0.14393092112E+01  0.13638916763E+03  0.14135624220E+03  0.00000000000E+00 0. -1.
         22    1    3    3    0    0  0.74627557104E+02  0.11991769197E+02 -0.58770689153E+02  0.95744810362E+02  0.00000000000E+00 0.  1.
         22    1    3    3    0    0 -0.43977245821E+02  0.50505582063E+02 -0.38287489927E+02  0.77141064644E+02  0.00000000000E+00 0.  1.
</event>
<event>
 7    1  0.5622879E-006  0.5277317E+02  0.7818608E-02  0.1500121E+00
          2   -1    0    0  502    0  0.00000000000E+00  0.00000000000E+00  0.98256921247E+02  0.98256921247E+02  0.00000000000E+00 0. -1.
          1   -1    0    0  501    0 -0.00000000000E+00 -0.00000000000E+00 -0.15544826940E+04  0.15544826940E+04  0.00000000000E+00 0. -1.
         25    2    1    2    0    0 -0.71874764152E+01  0.57346188169E+02 -0.11276400209E+04  0.11360178640E+04  0.12499730155E+03 0.  0.
          2    1    1    2  501    0 -0.27060727237E+02 -0.17157506552E+02 -0.41457683575E+03  0.41581319812E+03  0.00000000000E+00 0. -1.
          1    1    1    2  502    0  0.34248203652E+02 -0.40188681617E+02  0.85991083920E+02  0.10090855314E+03  0.00000000000E+00 0. -1.
         22    1    3    3    0    0 -0.93531025036E+00  0.90488019493E+02 -0.55006032196E+03  0.55745431586E+03  0.00000000000E+00 0. -1.
         22    1    3    3    0    0 -0.62521661648E+01 -0.33141831323E+02 -0.57757969898E+03  0.57856354814E+03  0.00000000000E+00 0. -1.
</event>
<event>
 7    1  0.5622879E-006  0.1096050E+03  0.7818608E-02  0.1375015E+00
          2   -1    0    0  502    0  0.00000000000E+00  0.00000000000E+00  0.12648062348E+04  0.12648062348E+04  0.00000000000E+00 0. -1.
          1   -1    0    0  501    0 -0.00000000000E+00 -0.00000000000E+00 -0.68736061513E+03  0.68736061513E+03  0.00000000000E+00 0. -1.
         25    2    1    2    0    0  0.43437861481E+02  0.11944192385E+03 -0.84917824074E+02  0.19745929371E+03  0.12500365933E+03 0.  0.
          2    1    1    2  501    0 -0.65292080666E+02 -0.86546683836E+02 -0.54046488424E+03  0.55123105444E+03  0.00000000000E+00 0. -1.
          1    1    1    2  502    0  0.21854219184E+02 -0.32895240015E+02  0.12028283280E+04  0.12034765018E+04  0.00000000000E+00 0. -1.
         22    1    3    3    0    0  0.36245071645E+02  0.14503242676E+03 -0.60193417900E+02  0.16115631415E+03  0.00000000000E+00 0. -1.
         22    1    3    3    0    0  0.71927898363E+01 -0.25590502911E+02 -0.24724406174E+02  0.36302979568E+02  0.00000000000E+00 0. -1.
</event>
<event>
 7    1  0.5622879E-006  0.4971455E+02  0.7818608E-02  0.1478390E+00
          2   -1    0    0  502    0  0.00000000000E+00  0.00000000000E+00  0.11952048012E+03  0.11952048012E+03  0.00000000000E+00 0. -1.
          1   -1    0    0  501    0 -0.00000000000E+00 -0.00000000000E+00 -0.25086014783E+03  0.25086014783E+03  0.00000000000E+00 0. -1.
         25    2    1    2    0    0 -0.27768042866E+02 -0.80661470838E+02 -0.16120425402E+03  0.22110881541E+03  0.12499983862E+03 0.  0.
          2    1    1    2  501    0  0.22621251107E+02  0.32476573122E+02 -0.45102853977E+02  0.60005968372E+02  0.00000000000E+00 0. -1.
          1    1    1    2  502    0  0.51467917596E+01  0.48184897716E+02  0.74967440287E+02  0.89265844176E+02  0.00000000000E+00 0. -1.
         22    1    3    3    0    0 -0.69644854329E+01 -0.92672043460E+02 -0.46502570822E+02  0.10391872204E+03  0.00000000000E+00 0. -1.
         22    1    3    3    0    0 -0.20803557433E+02  0.12010572622E+02 -0.11470168319E+03  0.11719009337E+03  0.00000000000E+00 0. -1.
</event>
<event>
 7    1  0.5622879E-006  0.6374113E+02  0.7818608E-02  0.1410105E+00
          2   -1    0    0  502    0  0.00000000000E+00  0.00000000000E+00  0.50020909441E+03  0.50020909441E+03  0.00000000000E+00 0. -1.
          1   -1    0    0  501    0 -0.00000000000E+00 -0.00000000000E+00 -0.13920535878E+04  0.13920535878E+04  0.00000000000E+00 0. -1.
         25    2    1    2    0    0 -0.42959730577E+02  0.96861936211E+02 -0.90807723945E+03  0.92274376788E+03  0.12499606080E+03 0.  0.
          2    1    1    2  501    0  0.22396311511E+02 -0.49888849806E+02 -0.47373221659E+03  0.47687808205E+03  0.00000000000E+00 0. -1.
          1    1    1    2  502    0  0.20563419066E+02 -0.46973086405E+02  0.48996496263E+03  0.49264083231E+03  0.00000000000E+00 0. -1.
         22    1    3    3    0    0 -0.81729738811E+01  0.40975610180E+02 -0.75446005369E+03  0.75561615305E+03  0.00000000000E+00 0. -1.
         22    1    3    3    0    0 -0.34786756696E+02  0.55886326031E+02 -0.15361718576E+03  0.16712761483E+03  0.00000000000E+00 0. -1.
</event>
<event>
 7    1  0.5622879E-006  0.5008214E+03  0.7818608E-02  0.1247340E+00
          2   -1    0    0  502    0  0.00000000000E+00  0.00000000000E+00  0.19938585603E+03  0.19938585603E+03  0.00000000000E+00 0. -1.
          1   -1    0    0  501    0 -0.00000000000E+00 -0.00000000000E+00 -0.22559162456E+04  0.22559162456E+04  0.00000000000E+00 0. -1.
         25    2    1    2    0    0  0.50986196759E+03  0.72047169847E+02 -0.61800023345E+03  0.81406357073E+03  0.12500075189E+03 0.  0.
          2    1    1    2  501    0 -0.24206567851E+02 -0.13155214278E+02 -0.94818719277E+03  0.94858735503E+03  0.00000000000E+00 0. -1.
          1    1    1    2  502    0 -0.48565539974E+03 -0.58891955569E+02 -0.49034296334E+03  0.69265117586E+03  0.00000000000E+00 0. -1.
         22    1    3    3    0    0  0.44785610281E+03  0.91973547451E+02 -0.58043749303E+03  0.73887881657E+03  0.00000000000E+00 0.  1.
         22    1    3    3    0    0  0.62005864777E+02 -0.19926377604E+02 -0.37562740423E+02  0.75184754167E+02  0.00000000000E+00 0.  1.
</event>
<event>
 7    1  0.5622879E-006  0.9462948E+02  0.7818608E-02  0.1348720E+00
          2   -1    0    0  502    0  0.00000000000E+00  0.00000000000E+00  0.21185522308E+04  0.21185522308E+04  0.00000000000E+00 0. -1.
          1   -1    0    0  501    0 -0.00000000000E+00 -0.00000000000E+00 -0.10636814527E+04  0.10636814527E+04  0.00000000000E+00 0. -1.
         25    2    1    2    0    0  0.52973001049E+02  0.37072977895E+02  0.12263585346E+04  0.12344071694E+04  0.12500103999E+03 0.  0.
          2    1    1    2  501    0 -0.94685212470E+02  0.18036711299E+01 -0.10566220383E+04  0.10608575185E+04  0.00000000000E+00 0. -1.
          1    1    1    2  502    0  0.41712211421E+02 -0.38876649025E+02  0.88513428175E+03  0.88696899560E+03  0.00000000000E+00 0. -1.
         22    1    3    3    0    0  0.40656939971E+02 -0.43313611798E+02  0.52142126144E+03  0.52479442415E+03  0.00000000000E+00 0.  1.
         22    1    3    3    0    0  0.12316061078E+02  0.80386589693E+02  0.70493727319E+03  0.70961274530E+03  0.00000000000E+00 0.  1.
</event>
<event>
 7    1  0.5622879E-006  0.5731960E+02  0.7818608E-02  0.1422457E+00
          2   -1    0    0  502    0  0.00000000000E+00  0.00000000000E+00  0.10712722435E+04  0.10712722435E+04  0.00000000000E+00 0. -1.
          1   -1    0    0  501    0 -0.00000000000E+00 -0.00000000000E+00 -0.18803909385E+03  0.18803909385E+03  0.00000000000E+00 0. -1.
         25    2    1    2    0    0  0.30006669111E+02  0.32374365803E+02  0.21231206196E+03  0.25029963684E+03  0.12499998718E+03 0.  0.
          2    1    1    2  501    0 -0.45563072859E+02  0.24699926885E+02 -0.16400160166E+03  0.17199594571E+03  0.00000000000E+00 0. -1.
          1    1    1    2  502    0  0.15556403749E+02 -0.57074292688E+02  0.83492268940E+03  0.83701575484E+03  0.00000000000E+00 0. -1.
         22    1    3    3    0    0  0.68754503915E+02 -0.13082024281E+02  0.88473674388E+02  0.11280918503E+03  0.00000000000E+00 0. -1.
         22    1    3    3    0    0 -0.38747834805E+02  0.45456390084E+02  0.12383838757E+03  0.13749045180E+03  0.00000000000E+00 0. -1.
</event>
<event>
 7    1  0.5622879E-006  0.1660985E+03  0.7818608E-02  0.1280899E+00
          2   -1    0    0  502    0  0.00000000000E+00  0.00000000000E+00  0.24015027560E+04  0.24015027560E+04  0.00000000000E+00 0. -1.
          1   -1    0    0  501    0 -0.00000000000E+00 -0.00000000000E+00 -0.77180884739E+03  0.77180884739E+03  0.00000000000E+00 0. -1.
         25    2    1    2    0    0  0.14451844293E+03 -0.14783646313E+03  0.70127890354E+03  0.74172714358E+03  0.12500341914E+03 0.  0.
          2    1    1    2  501    0 -0.58161938126E+02  0.14162324114E+02 -0.74661530087E+03  0.74901120817E+03  0.00000000000E+00 0. -1.
          1    1    1    2  502    0 -0.86356504800E+02  0.13367413902E+03  0.16750303059E+04  0.16825732516E+04  0.00000000000E+00 0. -1.
         22    1    3    3    0    0  0.15233788995E+03 -0.14803110360E+03  0.54025154711E+03  0.58050992628E+03  0.00000000000E+00 0. -1.
         22    1    3    3    0    0 -0.78194470274E+01  0.19464046879E+00  0.16102735643E+03  0.16121721731E+03  0.00000000000E+00 0. -1.
</event>
<event>
 7    1  0.5622879E-006  0.4960108E+02  0.7818608E-02  0.1548384E+00
          2   -1    0    0  502    0  0.00000000000E+00  0.00000000000E+00  0.14668264321E+02  0.14668264321E+02  0.00000000000E+00 0. -1.
          1   -1    0    0  501    0 -0.00000000000E+00 -0.00000000000E+00 -0.21480877033E+04  0.21480877033E+04  0.00000000000E+00 0. -1.
         25    2    1    2    0    0 -0.39267885424E+02  0.52601838913E+02 -0.64471680295E+03  0.65999555851E+03  0.12500184383E+03 0.  0.
          2    1    1    2  501    0  0.23620158692E+02 -0.73304667888E+01 -0.14127428525E+04  0.14129593111E+04  0.00000000000E+00 0. -1.
          1    1    1    2  502    0  0.15647726732E+02 -0.45271372124E+02 -0.75959783597E+02  0.89801098044E+02  0.00000000000E+00 0. -1.
         22    1    3    3    0    0 -0.84870719128E+02  0.40266880810E+02 -0.42546044500E+03  0.43570752910E+03  0.00000000000E+00 0.  1.
         22    1    3    3    0    0  0.45602833704E+02  0.12334958103E+02 -0.21925635795E+03  0.22428802940E+03  0.00000000000E+00 0.  1.
</event>
