<event>
 7    1  0.6067783E-006  0.5969615E+02  0.7818608E-02  0.1432394E+00
          2   -1    0    0  502    0  0.00000000000E+00  0.00000000000E+00  0.70401425724E+03  0.70401425724E+03  0.00000000000E+00 0. -1.
          1   -1    0    0  501    0 -0.00000000000E+00 -0.00000000000E+00 -0.81145238912E+02  0.81145238912E+02  0.00000000000E+00 0. -1.
         25    2    1    2    0    0 -0.41940662419E+02 -0.61607496696E+02  0.32129135138E+03  0.35271539848E+03  0.12500206814E+03 0.  0.
          2    1    1    2  501    0 -0.14798525745E+02  0.43702755416E+02 -0.54512242605E+02  0.71417867435E+02  0.00000000000E+00 0. -1.
          1    1    1    2  502    0  0.56739188164E+02  0.17904741279E+02  0.35608990955E+03  0.36102623024E+03  0.00000000000E+00 0. -1.
         22    1    3    3    0    0  0.31602814599E+02 -0.47377285792E+02  0.68620246341E+02  0.89174454343E+02  0.00000000000E+00 0.  1.
         22    1    3    3    0    0 -0.73543477018E+02 -0.14230210904E+02  0.25267110504E+03  0.26354094413E+03  0.00000000000E+00 0.  1.
</event>
<event>
 7    1  0.6067783E-006  0.7102797E+02  0.7818608E-02  0.1465419E+00
          2   -1    0    0  502    0  0.00000000000E+00  0.00000000000E+00  0.11318548554E+04  0.11318548554E+04  0.00000000000E+00 0. -1.
          1   -1    0    0  501    0 -0.00000000000E+00 -0.00000000000E+00 -0.15191863130E+04  0.15191863130E+04  0.00000000000E+00 0. -1.
         25    2    1    2    0    0  0.35272701523E+02  0.48162548869E+02  0.23959983291E+03  0.27675766524E+03  0.12499172274E+03 0.  0.
          2    1    1    2  501    0 -0.20304943479E+02  0.22613522758E+02 -0.14989556074E+04  0.14992636776E+04  0.00000000000E+00 0. -1.
          1    1    1    2  502    0 -0.14967758044E+02 -0.70776071627E+02  0.87202431685E+03  0.87501982565E+03  0.00000000000E+00 0. -1.
         22    1    3    3    0    0 -0.41458795836E+02  0.53636725104E+01  0.36608514380E+02  0.55567832962E+02  0.00000000000E+00 0. -1.
         22    1    3    3    0    0  0.76731497359E+02  0.42798876359E+02  0.20299131854E+03  0.22118983228E+03  0.00000000000E+00 0. -1.
</event>
<event>
 7    1  0.6067783E-006  0.7294938E+02  0.7818608E-02  0.1418560E+00
          2   -1    0    0  502    0  0.00000000000E+00  0.00000000000E+00  0.91453956525E+02  0.91453956525E+02  0.00000000000E+00 0. -1.
          1   -1    0    0  501    0 -0.00000000000E+00 -0.00000000000E+00 -0.93458582685E+03  0.93458582685E+03  0.00000000000E+00 0. -1.
         25    2    1    2    0    0  0.11087187946E+03 -0.15561981562E+02 -0.23979168144E+03  0.29267597900E+03  0.12499771707E+03 0.  0.
          2    1    1    2  501    0 -0.41854729843E+02  0.29882256774E+01 -0.64854924694E+03  0.64990528049E+03  0.00000000000E+00 0. -1.
          1    1    1    2  502    0 -0.69017149613E+02  0.12573755884E+02  0.45209058057E+02  0.83458523879E+02  0.00000000000E+00 0. -1.
         22    1    3    3    0    0  0.72253530244E+02 -0.69561931684E+02 -0.16050821136E+03  0.18926785487E+03  0.00000000000E+00 0.  1.
         22    1    3    3    0    0  0.38618349211E+02  0.53999950122E+02 -0.79283470078E+02  0.10340812413E+03  0.00000000000E+00 0.  1.
</event>
<event>
 7    1  0.6067783E-006  0.5864425E+02  0.7818608E-02  0.1413431E+00
          2   -1    0    0  502    0  0.00000000000E+00  0.00000000000E+00  0.59825178846E+03  0.59825178846E+03  0.00000000000E+00 0. -1.
          1   -1    0    0  501    0 -0.00000000000E+00 -0.00000000000E+00 -0.15926205863E+04  0.15926205863E+04  0.00000000000E+00 0. -1.
         25    2    1    2    0    0 -0.91970101889E+02  0.61198221792E+02  0.42397265416E+03  0.45561128778E+03  0.12500044835E+03 0.  0.
          2    1    1    2  501    0  0.41365352337E+02 -0.41482943883E+02 -0.15715860035E+04  0.15726774918E+04  0.00000000000E+00 0. -1.
          1    1    1    2  502    0  0.50604749552E+02 -0.19715277908E+02  0.15324455147E+03  0.16258359516E+03  0.00000000000E+00 0. -1.
         22    1    3    3    0    0  0.22774749981E+02  0.17117022581E+02  0.18190225388E+03  0.18411982964E+03  0.00000000000E+00 0. -1.
         22    1    3    3    0    0 -0.11474485187E+03  0.44081199210E+02  0.24207040028E+03  0.27149145814E+03  0.00000000000E+00 0. -1.
</event>
<event>
 7    1  0.6067783E-006  0.1715862E+03  0.7818608E-02  0.1263591E+00
          2   -1    0    0  502    0  0.00000000000E+00  0.00000000000E+00  0.32533409196E+03  0.32533409196E+03  0.00000000000E+00 0. -1.
          1   -1    0    0  501    0 -0.00000000000E+00 -0.00000000000E+00 -0.22859167833E+04  0.22859167833E+04  0.00000000000E+00 0. -1.
         25    2    1    2    0    0 -0.20492693268E+03 -0.92996571771E+02 -0.37129454087E+03  0.45181938154E+03  0.12505081908E+03 0.  0.
          2    1    1    2  501    0  0.40653147731E+02  0.55085857467E+02 -0.18487444135E+04  0.18500116315E+04  0.00000000000E+00 0. -1.
          1    1    1    2  502    0  0.16427378495E+03  0.37910714304E+02  0.25945626307E+03  0.30941986221E+03  0.00000000000E+00 0. -1.
         22    1    3    3    0    0 -0.19203035376E+03 -0.74841224143E+02 -0.23020925153E+03  0.30898732189E+03  0.00000000000E+00 0.  1.
         22    1    3    3    0    0 -0.12896578919E+02 -0.18155347628E+02 -0.14108528934E+03  0.14283205965E+03  0.00000000000E+00 0.  1.
</event>
<event>
 7    1  0.6067783E-006  0.9864275E+02  0.7818608E-02  0.1468229E+00
          2   -1    0    0  502    0  0.00000000000E+00  0.00000000000E+00  0.67820048282E+02  0.67820048282E+02  0.00000000000E+00 0. -1.
          1   -1    0    0  501    0 -0.00000000000E+00 -0.00000000000E+00 -0.28807353925E+04  0.28807353925E+04  0.00000000000E+00 0. -1.
         25    2    1    2    0    0 -0.28398730835E+02 -0.93919449978E+02 -0.16703295003E+04  0.16778716297E+04  0.12500086042E+03 0.  0.
          2    1    1    2  501    0  0.20966748326E+02 -0.45068273222E+01 -0.11684485642E+04  0.11686453539E+04  0.00000000000E+00 0. -1.
          1    1    1    2  502    0  0.74319825092E+01  0.98426277300E+02  0.25862720358E+02  0.10203845712E+03  0.00000000000E+00 0. -1.
         22    1    3    3    0    0 -0.65509737639E+02 -0.42725132001E+02 -0.12859462150E+04  0.12883224093E+04  0.00000000000E+00 0. -1.
         22    1    3    3    0    0  0.37111006804E+02 -0.51194317977E+02 -0.38438328536E+03  0.38954922036E+03  0.00000000000E+00 0. -1.
</event>
<event>
 7    1  0.6067783E-006  0.7191686E+02  0.7818608E-02  0.1491990E+00
          2   -1    0    0  502    0  0.00000000000E+00  0.00000000000E+00  0.39974746494E+03  0.39974746494E+03  0.00000000000E+00 0. -1.
          1   -1    0    0  501    0 -0.00000000000E+00 -0.00000000000E+00 -0.40088318818E+03  0.40088318818E+03  0.00000000000E+00 0. -1.
         25    2    1    2    0    0  0.73193328244E+02  0.57574237079E+02 -0.10000310247E+03  0.18519696693E+03  0.12500095992E+03 0.  0.
          2    1    1    2  501    0 -0.11139664485E+02 -0.22236621292E+02 -0.25410044191E+03  0.25531469607E+03  0.00000000000E+00 0. -1.
          1    1    1    2  502    0 -0.62053663759E+02 -0.35337615787E+02  0.35296782115E+03  0.36011899012E+03  0.00000000000E+00 0. -1.
         22    1    3    3    0    0 -0.15861090522E+02  0.19438843817E+00  0.19735864242E+02  0.25320274816E+02  0.00000000000E+00 0. -1.
         22    1    3    3    0    0  0.89054418765E+02  0.57379848640E+02 -0.11973896672E+03  0.15987669212E+03  0.00000000000E+00 0. -1.
</event>
<event>
 7    1  0.6067783E-006  0.4765382E+02  0.7818608E-02  0.1498957E+00
          2   -1    0    0  502    0  0.00000000000E+00  0.00000000000E+00  0.55685407653E+03  0.55685407653E+03  0.00000000000E+00 0. -1.
          1   -1    0    0  501    0 -0.00000000000E+00 -0.00000000000E+00 -0.29436122700E+03  0.29436122700E+03  0.00000000000E+00 0. -1.
         25    2    1    2    0    0  0.61891193114E+01  0.28003223950E+02  0.10470788540E+03  0.16556427347E+03  0.12500120653E+03 0.  0.
          2    1    1    2  501    0  0.35671535837E+02 -0.26341448574E+01 -0.26129015992E+03  0.26372702717E+03  0.00000000000E+00 0. -1.
          1    1    1    2  502    0 -0.41860655149E+02 -0.25369079092E+02  0.41907512404E+03  0.42192400289E+03  0.00000000000E+00 0. -1.
         22    1    3    3    0    0  0.33583066054E+02 -0.38260229387E+02  0.20284914580E+02  0.54800960191E+02  0.00000000000E+00 0.  1.
         22    1    3    3    0    0 -0.27393946743E+02  0.66263453337E+02  0.84422970823E+02  0.11076331328E+03  0.00000000000E+00 0.  1.
</event>
<event>
 7    1  0.6067783E-006  0.1154917E+03  0.7818608E-02  0.1259338E+00
          2   -1    0    0  502    0  0.00000000000E+00  0.00000000000E+00  0.35302286908E+03  0.35302286908E+03  0.00000000000E+00 0. -1.
          1   -1    0    0  501    0 -0.00000000000E+00 -0.00000000000E+00 -0.16093895914E+04  0.16093895914E+04  0.00000000000E+00 0. -1.
         25    2    1    2    0    0  0.47496852702E+02  0.10856475038E+03 -0.24247378756E+03  0.29742234396E+03  0.12499702793E+03 0.  0.
          2    1    1    2  501    0  0.58458275305E+02 -0.10417299069E+03 -0.13280530661E+04  0.13334145373E+04  0.00000000000E+00 0. -1.
          1    1    1    2  502    0 -0.10595512801E+03 -0.43917596909E+01  0.31416013126E+03  0.33157557929E+03  0.00000000000E+00 0. -1.
         22    1    3    3    0    0  0.98915687209E+01  0.10419125319E+03 -0.83171051069E+02  0.13368277417E+03  0.00000000000E+00 0. -1.
         22    1    3    3    0    0  0.37605283982E+02  0.43734971847E+01 -0.15930273649E+03  0.16373956979E+03  0.00000000000E+00 0. -1.
</event>
<event>
 7    1  0.6067783E-006  0.1235684E+03  0.7818608E-02  0.1330048E+00
          2   -1    0    0  502    0  0.00000000000E+00  0.00000000000E+00  0.10801921250E+04  0.10801921250E+04  0.00000000000E+00 0. -1.
          1   -1    0    0  501    0 -0.00000000000E+00 -0.00000000000E+00 -0.25589578884E+03  0.25589578884E+03  0.00000000000E+00 0. -1.
         25    2    1    2    0    0 -0.67418835020E+02  0.14687106976E+03  0.91161341882E+02  0.22372271258E+03  0.12500020568E+03 0.  0.
          2    1    1    2  501    0  0.43151395199E+02 -0.27817721370E+02 -0.18204956329E+03  0.18915050099E+03  0.00000000000E+00 0. -1.
          1    1    1    2  502    0  0.24267439820E+02 -0.11905334839E+03  0.91518455756E+03  0.92321470027E+03  0.00000000000E+00 0. -1.
         22    1    3    3    0    0 -0.45791097774E+02  0.47512943118E+02 -0.23887566219E+02  0.70177775819E+02  0.00000000000E+00 0.  1.
         22    1    3    3    0    0 -0.21627737246E+02  0.99358126646E+02  0.11504890810E+03  0.15354493676E+03  0.00000000000E+00 0.  1.
</event>
<event>
 7    1  0.6067783E-006  0.2176172E+02  0.7818608E-02  0.1716141E+00
          2   -1    0    0  502    0  0.00000000000E+00  0.00000000000E+00  0.11319809118E+04  0.11319809118E+04  0.00000000000E+00 0. -1.
          1   -1    0    0  501    0 -0.00000000000E+00 -0.00000000000E+00 -0.45017183272E+03  0.45017183272E+03  0.00000000000E+00 0. -1.
         25    2    1    2    0    0 -0.94919261975E+01 -0.18426641712E+02 -0.33585929237E+03  0.35896551021E+03  0.12500054186E+03 0.  0.
          2    1    1    2  501    0 -0.11817576566E+02  0.19597152485E+02 -0.10138232458E+03  0.10393305171E+03  0.00000000000E+00 0. -1.
          1    1    1    2  502    0  0.21309502763E+02 -0.11705107729E+01  0.11190506960E+04  0.11192541826E+04  0.00000000000E+00 0. -1.
         22    1    3    3    0    0  0.46294012694E+02 -0.22909604940E+02 -0.25775733060E+03  0.26288177397E+03  0.00000000000E+00 0. -1.
         22    1    3    3    0    0 -0.55785938892E+02  0.44829632280E+01 -0.78101961766E+02  0.96083736236E+02  0.00000000000E+00 0. -1.
</event>
<event>
 7    1  0.6067783E-006  0.7884216E+02  0.7818608E-02  0.1393943E+00
          2   -1    0    0  502    0  0.00000000000E+00  0.00000000000E+00  0.11340376145E+04  0.11340376145E+04  0.00000000000E+00 0. -1.
          1   -1    0    0  501    0 -0.00000000000E+00 -0.00000000000E+00 -0.73697069224E+02  0.73697069224E+02  0.00000000000E+00 0. -1.
         25    2    1    2    0    0 -0.58869537956E+02 -0.96417406901E+01  0.63270452401E+02  0.15227757365E+03  0.12500689432E+03 0.  0.
          2    1    1    2  501    0 -0.12616814282E+02  0.45375918960E+02 -0.75192247025E+01  0.47693781191E+02  0.00000000000E+00 0. -1.
          1    1    1    2  502    0  0.71486352238E+02 -0.35734178270E+02  0.10045893176E+04  0.10077633289E+04  0.00000000000E+00 0. -1.
         22    1    3    3    0    0 -0.50900450951E+02  0.50769995965E+02  0.55555025108E+02  0.90855980607E+02  0.00000000000E+00 0.  1.
         22    1    3    3    0    0 -0.79690870049E+01 -0.60411736656E+02  0.77154272932E+01  0.61421593041E+02  0.00000000000E+00 0.  1.
</event>
<event>
 7    1  0.6067783E-006  0.1227210E+03  0.7818608E-02  0.1385565E+00
          2   -1    0    0  502    0  0.00000000000E+00  0.00000000000E+00  0.69671124987E+03  0.69671124987E+03  0.00000000000E+00 0. -1.
          1   -1    0    0  501    0 -0.00000000000E+00 -0.00000000000E+00 -0.70501841550E+03  0.70501841550E+03  0.00000000000E+00 0. -1.
         25    2    1    2    0    0  0.11361738102E+02 -0.15296154844E+03  0.13402106396E+03  0.23898198414E+03  0.12499767504E+03 0.  0.
          2    1    1    2  501    0 -0.15262647726E+02  0.12083175964E+03 -0.64633144403E+03  0.65770631599E+03  0.00000000000E+00 0. -1.
          1    1    1    2  502    0  0.39009096241E+01  0.32129788798E+02  0.50400321445E+03  0.50504136523E+03  0.00000000000E+00 0. -1.
         22    1    3    3    0    0 -0.17948899264E+02 -0.44597982708E+02 -0.16838881239E+02  0.50938109190E+02  0.00000000000E+00 0.  1.
         22    1    3    3    0    0  0.29310637366E+02 -0.10836356573E+03  0.15085994520E+03  0.18804387495E+03  0.00000000000E+00 0.  1.
</event>
<event>
 7    1  0.6067783E-006  0.8797381E+02  0.7818608E-02  0.1409830E+00
          2   -1    0    0  502    0  0.00000000000E+00  0.00000000000E+00  0.97122581498E+03  0.97122581498E+03  0.00000000000E+00 0. -1.
          1   -1    0    0  501    0 -0.00000000000E+00 -0.00000000000E+00 -0.10834882831E+04  0.10834882831E+04  0.00000000000E+00 0. -1.
         25    2    1    2    0    0 -0.13570591743E+02  0.67431183434E+02  0.56363448408E+02  0.15340606535E+03  0.12500182842E+03 0.  0.
          2    1    1    2  501    0 -0.36719978985E+02  0.61554821592E+01 -0.10323380499E+04  0.10330092430E+04  0.00000000000E+00 0. -1.
          1    1    1    2  502    0  0.50290570728E+02 -0.73586665593E+02  0.86371213340E+03  0.86829878972E+03  0.00000000000E+00 0. -1.
         22    1    3    3    0    0 -0.30440118335E+02 -0.24116470454E+02 -0.87441542211E+01  0.39807853301E+02  0.00000000000E+00 0.  1.
         22    1    3    3    0    0  0.16869526592E+02  0.91547653888E+02  0.65107602629E+02  0.11359821205E+03  0.00000000000E+00 0.  1.
</event>
<event>
 7    1  0.6067783E-006  0.4581596E+02  0.7818608E-02  0.1537261E+00
          2   -1    0    0  502    0  0.00000000000E+00  0.00000000000E+00  0.35222078183E+03  0.35222078183E+03  0.00000000000E+00 0. -1.
          1   -1    0    0  501    0 -0.00000000000E+00 -0.00000000000E+00 -0.15760758466E+03  0.15760758466E+03  0.00000000000E+00 0. -1.
         25    2    1    2    0    0 -0.35358189476E+02 -0.17920209804E+02  0.12719724447E+02  0.13174517335E+03  0.12499465520E+03 0.  0.
          2    1    1    2  501    0  0.15821258352E+02 -0.24037922257E+02 -0.94014454858E+02  0.98320148721E+02  0.00000000000E+00 0. -1.
          1    1    1    2  502    0  0.19536931124E+02  0.41958132060E+02  0.27590792758E+03  0.27976304442E+03  0.00000000000E+00 0. -1.
         22    1    3    3    0    0 -0.13612964162E+02  0.54115380634E+02  0.31104306815E+01  0.55887941396E+02  0.00000000000E+00 0. -1.
         22    1    3    3    0    0 -0.21745225314E+02 -0.72035590438E+02  0.96092937659E+01  0.75857231958E+02  0.00000000000E+00 0. -1.
</event>
<event>
 7    1  0.6067783E-006  0.1488617E+03  0.7818608E-02  0.1232561E+00
          2   -1    0    0  502    0  0.00000000000E+00  0.00000000000E+00  0.18294111060E+04  0.18294111060E+04  0.00000000000E+00 0. -1.
          1   -1    0    0  501    0 -0.00000000000E+00 -0.00000000000E+00 -0.79506192349E+02  0.79506192349E+02  0.00000000000E+00 0. -1.
         25    2    1    2    0    0  0.51800981760E+02 -0.35109782350E+02  0.68761872763E+02  0.15578663333E+03  0.12500096580E+03 0.  0.
          2    1    1    2  501    0  0.16301052631E+02 -0.10645868162E+03  0.57848754119E+02  0.12225241741E+03  0.00000000000E+00 0. -1.
          1    1    1    2  502    0 -0.68102034391E+02  0.14156846397E+03  0.16232942868E+04  0.16308782476E+04  0.00000000000E+00 0. -1.
         22    1    3    3    0    0  0.80044021564E+02 -0.32657486906E+02  0.56903673216E+01  0.86636811573E+02  0.00000000000E+00 0.  1.
         22    1    3    3    0    0 -0.28243039805E+02 -0.24522954434E+01  0.63071505441E+02  0.69149821757E+02  0.00000000000E+00 0.  1.
</event>
<event>
 7    1  0.6067783E-006  0.4562166E+02  0.7818608E-02  0.1513254E+00
          2   -1    0    0  502    0  0.00000000000E+00  0.00000000000E+00  0.10600590113E+04  0.10600590113E+04  0.00000000000E+00 0. -1.
          1   -1    0    0  501    0 -0.00000000000E+00 -0.00000000000E+00 -0.82084146499E+03  0.82084146499E+03  0.00000000000E+00 0. -1.
         25    2    1    2    0    0  0.42224892648E+02 -0.51714910282E+01 -0.16627030636E+03  0.21232525024E+03  0.12500604479E+03 0.  0.
          2    1    1    2  501    0 -0.36529504998E+02 -0.28240438744E+02 -0.63042221255E+03  0.63211082351E+03  0.00000000000E+00 0. -1.
          1    1    1    2  502    0 -0.56953876491E+01  0.33411929772E+02  0.10359100653E+04  0.10364644026E+04  0.00000000000E+00 0. -1.
         22    1    3    3    0    0  0.21795124399E+02  0.35199937143E+02 -0.14708521020E+01  0.41427363280E+02  0.00000000000E+00 0.  1.
         22    1    3    3    0    0  0.20429768249E+02 -0.40371428171E+02 -0.16479945426E+03  0.17089788696E+03  0.00000000000E+00 0.  1.
</event>
<event>
 7    1  0.6067783E-006  0.1400886E+03  0.7818608E-02  0.1250978E+00
          2   -1    0    0  502    0  0.00000000000E+00  0.00000000000E+00  0.96222399310E+03  0.96222399310E+03  0.00000000000E+00 0. -1.
          1   -1    0    0  501    0 -0.00000000000E+00 -0.00000000000E+00 -0.44373829281E+03  0.44373829281E+03  0.00000000000E+00 0. -1.
         25    2    1    2    0    0 -0.82417430236E+02  0.53294750565E+02  0.15826644333E+03  0.22429041431E+03  0.12499983849E+03 0.  0.
          2    1    1    2  501    0 -0.71158876361E+02 -0.62899751095E+02 -0.39739633402E+03  0.40858758016E+03  0.00000000000E+00 0. -1.
          1    1    1    2  502    0  0.15357630660E+03  0.96050005298E+01  0.75761559098E+03  0.77308429144E+03  0.00000000000E+00 0. -1.
         22    1    3    3    0    0 -0.20723480406E+02 -0.39710889897E+02  0.28320704719E+02  0.52995091587E+02  0.00000000000E+00 0. -1.
         22    1    3    3    0    0 -0.61693949830E+02  0.93005640463E+02  0.12994573861E+03  0.17129532272E+03  0.00000000000E+00 0. -1.
</event>
<event>
 7    1  0.6067783E-006  0.5383185E+02  0.7818608E-02  0.1462304E+00
          2   -1    0    0  502    0  0.00000000000E+00  0.00000000000E+00  0.36363179083E+04  0.36363179083E+04  0.00000000000E+00 0. -1.
          1   -1    0    0  501    0 -0.00000000000E+00 -0.00000000000E+00 -0.14150569713E+03  0.14150569713E+03  0.00000000000E+00 0. -1.
         25    2    1    2    0    0 -0.26334228203E+02 -0.32026786955E+01  0.30131925904E+04  0.30159009880E+04  0.12500173555E+03 0.  0.
          2    1    1    2  501    0  0.40848871863E+02 -0.35155759047E+02 -0.13426303572E+03  0.14467591537E+03  0.00000000000E+00 0. -1.
          1    1    1    2  502    0 -0.14514643660E+02  0.38358437742E+02  0.61588265657E+03  0.61724670213E+03  0.00000000000E+00 0. -1.
         22    1    3    3    0    0 -0.43223430056E+02  0.29098306299E+02  0.27134587999E+04  0.27139590334E+04  0.00000000000E+00 0. -1.
         22    1    3    3    0    0  0.16889201853E+02 -0.32300984995E+02  0.29973379046E+03  0.30194195455E+03  0.00000000000E+00 0. -1.
</event>
<event>
 7    1  0.6067783E-006  0.2047448E+03  0.7818608E-02  0.1311451E+00
          2   -1    0    0  502    0  0.00000000000E+00  0.00000000000E+00  0.13530776036E+04  0.13530776036E+04  0.00000000000E+00 0. -1.
          1   -1    0    0  501    0 -0.00000000000E+00 -0.00000000000E+00 -0.57865787624E+03  0.57865787624E+03  0.00000000000E+00 0. -1.
         25    2    1    2    0    0  0.19410778793E+03 -0.17191196430E+00 -0.53988760051E+02  0.23710084618E+03  0.12499664858E+03 0.  0.
          2    1    1    2  501    0 -0.20528901184E+03  0.35000057837E+02 -0.40779383552E+03  0.45789124770E+03  0.00000000000E+00 0. -1.
          1    1    1    2  502    0  0.11181223907E+02 -0.34828145872E+02  0.12362023230E+04  0.12367433860E+04  0.00000000000E+00 0. -1.
         22    1    3    3    0    0  0.19504954886E+03 -0.21643652933E+02 -0.72021867302E+02  0.20904526685E+03  0.00000000000E+00 0. -1.
         22    1    3    3    0    0 -0.94176093138E+00  0.21471740969E+02  0.18033107251E+02  0.28055579321E+02  0.00000000000E+00 0. -1.
</event>
<event>
 7    1  0.6067783E-006  0.5462174E+02  0.7818608E-02  0.1492226E+00
          2   -1    0    0  502    0  0.00000000000E+00  0.00000000000E+00  0.68194859025E+03  0.68194859025E+03  0.00000000000E+00 0. -1.
          1   -1    0    0  501    0 -0.00000000000E+00 -0.00000000000E+00 -0.28890583945E+03  0.28890583945E+03  0.00000000000E+00 0. -1.
         25    2    1    2    0    0 -0.81876378171E+02 -0.18740824222E+02 -0.20442885292E+01  0.15061340885E+03  0.12500104006E+03 0.  0.
          2    1    1    2  501    0  0.53266811917E+02  0.29207335841E+01 -0.20878097892E+03  0.21548870294E+03  0.00000000000E+00 0. -1.
          1    1    1    2  502    0  0.28609566254E+02  0.15820090638E+02  0.60386801825E+03  0.60475231790E+03  0.00000000000E+00 0. -1.
         22    1    3    3    0    0 -0.10368403620E+03  0.11414477444E+02  0.21599423651E+02  0.10652325924E+03  0.00000000000E+00 0.  1.
         22    1    3    3    0    0  0.21807658026E+02 -0.30155301666E+02 -0.23643712180E+02  0.44090149612E+02  0.00000000000E+00 0.  1.
</event>
<event>
 7    1  0.6067783E-006  0.1295407E+03  0.7818608E-02  0.1269463E+00
          2   -1    0    0  502    0  0.00000000000E+00  0.00000000000E+00  0.13416944943E+04  0.13416944943E+04  0.00000000000E+00 0. -1.
          1   -1    0    0  501    0 -0.00000000000E+00 -0.00000000000E+00 -0.20458199133E+04  0.20458199133E+04  0.00000000000E+00 0. -1.
         25    2    1    2    0    0  0.33035850268E+02 -0.21060856300E+03 -0.73756983080E+02  0.25789882063E+03  0.12499749965E+03 0.  0.
          2    1    1    2  501    0 -0.19243116363E+02  0.83461021116E+02 -0.18757398739E+04  0.18776943612E+04  0.00000000000E+00 0. -1.
          1    1    1    2  502    0 -0.13792733905E+02  0.12714754188E+03  0.12453714380E+04  0.12519212257E+04  0.00000000000E+00 0. -1.
         22    1    3    3    0    0  0.36477608289E+01 -0.21690234434E+03 -0.67584274980E+02  0.22721700501E+03  0.00000000000E+00 0. -1.
         22    1    3    3    0    0  0.29388089439E+02  0.62937813470E+01 -0.61727081004E+01  0.30681815622E+02  0.00000000000E+00 0. -1.
</event>
<event>
 7    1  0.6067783E-006  0.3856170E+02  0.7818608E-02  0.1576981E+00
          2   -1    0    0  502    0  0.00000000000E+00  0.00000000000E+00  0.41111430116E+02  0.41111430116E+02  0.00000000000E+00 0. -1.
          1   -1    0    0  501    0 -0.00000000000E+00 -0.00000000000E+00 -0.24983304875E+04  0.24983304875E+04  0.00000000000E+00 0. -1.
         25    2    1    2    0    0 -0.35785353404E+02 -0.93719671456E+01 -0.59699884765E+03  0.61106369729E+03  0.12499117074E+03 0.  0.
          2    1    1    2  501    0  0.34859331809E+02 -0.17166325347E+02 -0.18888960731E+04  0.18892956970E+04  0.00000000000E+00 0. -1.
          1    1    1    2  502    0  0.92602159504E+00  0.26538292493E+02  0.28675863403E+02  0.39082523285E+02  0.00000000000E+00 0. -1.
         22    1    3    3    0    0 -0.75829161918E+02 -0.59691947579E+01 -0.50463726422E+03  0.51033759564E+03  0.00000000000E+00 0.  1.
         22    1    3    3    0    0  0.40043808514E+02 -0.34027723877E+01 -0.92361583435E+02  0.10072610166E+03  0.00000000000E+00 0.  1.
</event>
<event>
 7    1  0.6067783E-006  0.1230185E+03  0.7818608E-02  0.1412387E+00
          2   -1    0    0  502    0  0.00000000000E+00  0.00000000000E+00  0.40176967100E+04  0.40176967100E+04  0.00000000000E+00 0. -1.
          1   -1    0    0  501    0 -0.00000000000E+00 -0.00000000000E+00 -0.61326054218E+02  0.61326054218E+02  0.00000000000E+00 0. -1.
         25    2    1    2    0    0 -0.11551002035E+03  0.43642823155E+00  0.70462468272E+03  0.72488840424E+03  0.12499799931E+03 0.  0.
          2    1    1    2  501    0 -0.60967130438E+01 -0.25378699323E+02 -0.46622149550E+02  0.53431012698E+02  0.00000000000E+00 0. -1.
          1    1    1    2  502    0  0.12160673339E+03  0.24942271091E+02  0.32983681226E+04  0.33007033473E+04  0.00000000000E+00 0. -1.
         22    1    3    3    0    0 -0.75898110999E+02  0.45689322376E+02  0.23004378322E+03  0.24651202735E+03  0.00000000000E+00 0.  1.
         22    1    3    3    0    0 -0.39611909351E+02 -0.45252894144E+02  0.47458089950E+03  0.47837637688E+03  0.00000000000E+00 0.  1.
</event>
<event>
 7    1  0.6067783E-006  0.1019074E+03  0.7818608E-02  0.1399156E+00
          2   -1    0    0  502    0  0.00000000000E+00  0.00000000000E+00  0.42197328392E+03  0.42197328392E+03  0.00000000000E+00 0. -1.
          1   -1    0    0  501    0 -0.00000000000E+00 -0.00000000000E+00 -0.32523352559E+03  0.32523352559E+03  0.00000000000E+00 0. -1.
         25    2    1    2    0    0  0.74663948176E+02  0.92728504333E+01  0.13403955723E+02  0.14651048119E+03  0.12499985663E+03 0.  0.
          2    1    1    2  501    0 -0.10544102617E+03  0.73028255655E+01 -0.24692290109E+03  0.26859274067E+03  0.00000000000E+00 0. -1.
          1    1    1    2  502    0  0.30777077990E+02 -0.16575675999E+02  0.33025870369E+03  0.33210358764E+03  0.00000000000E+00 0. -1.
         22    1    3    3    0    0  0.74795821525E+02 -0.26342354830E+02 -0.34781405272E+02  0.86591458749E+02  0.00000000000E+00 0. -1.
         22    1    3    3    0    0 -0.13187334873E+00  0.35615205264E+02  0.48185360995E+02  0.59919022445E+02  0.00000000000E+00 0. -1.
</event>
<event>
 7    1  0.6067783E-006  0.1285193E+03  0.7818608E-02  0.1368871E+00
          2   -1    0    0  502    0  0.00000000000E+00  0.00000000000E+00  0.22408312016E+03  0.22408312016E+03  0.00000000000E+00 0. -1.
          1   -1    0    0  501    0 -0.00000000000E+00 -0.00000000000E+00 -0.26824020234E+04  0.26824020234E+04  0.00000000000E+00 0. -1.
         25    2    1    2    0    0  0.11996660937E+03  0.65248024740E+02 -0.59953153339E+01  0.18523178828E+03  0.12500231793E+03 0.  0.
          2    1    1    2  501    0  0.35160999421E+01 -0.35258009727E+02 -0.25566167182E+04  0.25568622438E+04  0.00000000000E+00 0. -1.
          1    1    1    2  502    0 -0.12348270931E+03 -0.29990015013E+02  0.10429313029E+03  0.16439111145E+03  0.00000000000E+00 0. -1.
         22    1    3    3    0    0  0.12483012496E+03  0.75998707125E+02  0.28391102341E+02  0.14887719192E+03  0.00000000000E+00 0. -1.
         22    1    3    3    0    0 -0.48635155939E+01 -0.10750682385E+02 -0.34386417675E+02  0.36354596356E+02  0.00000000000E+00 0. -1.
</event>
<event>
 7    1  0.6067783E-006  0.1464042E+03  0.7818608E-02  0.1393510E+00
          2   -1    0    0  502    0  0.00000000000E+00  0.00000000000E+00  0.20666673622E+04  0.20666673622E+04  0.00000000000E+00 0. -1.
          1   -1    0    0  501    0 -0.00000000000E+00 -0.00000000000E+00 -0.38268256056E+03  0.38268256056E+03  0.00000000000E+00 0. -1.
         25    2    1    2    0    0 -0.11523534425E+03 -0.39172547714E+02 -0.10186738602E+03  0.20203153475E+03  0.12500441448E+03 0.  0.
          2    1    1    2  501    0 -0.25155839215E+02 -0.38648359374E+01 -0.22734901616E+03  0.22876915953E+03  0.00000000000E+00 0. -1.
          1    1    1    2  502    0  0.14039118347E+03  0.43037383651E+02  0.20132012038E+04  0.20185492284E+04  0.00000000000E+00 0. -1.
         22    1    3    3    0    0  0.19104017848E+02  0.83352537398E+01  0.77671172189E+01  0.22243382448E+02  0.00000000000E+00 0. -1.
         22    1    3    3    0    0 -0.13433936210E+03 -0.47507801454E+02 -0.10963450324E+03  0.17978815230E+03  0.00000000000E+00 0. -1.
</event>
<event>
 7    1  0.6067783E-006  0.1492831E+03  0.7818608E-02  0.1309951E+00
          2   -1    0    0  502    0  0.00000000000E+00  0.00000000000E+00  0.15981804095E+04  0.15981804095E+04  0.00000000000E+00 0. -1.
          1   -1    0    0  501    0 -0.00000000000E+00 -0.00000000000E+00 -0.53057077877E+03  0.53057077877E+03  0.00000000000E+00 0. -1.
         25    2    1    2    0    0  0.10975832144E+03  0.14423601628E+03 -0.51862664320E+02  0.22619925036E+03  0.12500178958E+03 0.  0.
          2    1    1    2  501    0 -0.11082124021E+03 -0.93391583528E+02 -0.37768254771E+03  0.40453361047E+03  0.00000000000E+00 0. -1.
          1    1    1    2  502    0  0.10629187699E+01 -0.50844432747E+02  0.14971548427E+04  0.14980183274E+04  0.00000000000E+00 0. -1.
         22    1    3    3    0    0  0.88693439602E+02  0.15171419667E+03 -0.77601904225E+02  0.19210876929E+03  0.00000000000E+00 0.  1.
         22    1    3    3    0    0  0.21064881841E+02 -0.74781803900E+01  0.25739239906E+02  0.34090481074E+02  0.00000000000E+00 0.  1.
</event>
<event>
 7    1  0.6067783E-006  0.1830832E+03  0.7818608E-02  0.1266978E+00
          2   -1    0    0  502    0  0.00000000000E+00  0.00000000000E+00  0.20811249154E+04  0.20811249154E+04  0.00000000000E+00 0. -1.
          1   -1    0    0  501    0 -0.00000000000E+00 -0.00000000000E+00 -0.10557577468E+04  0.10557577468E+04  0.00000000000E+00 0. -1.
         25    2    1    2    0    0  0.96564145666E+02  0.17763039721E+03  0.33907460720E+02  0.24010746972E+03  0.12499875553E+03 0.  0.
          2    1    1    2  501    0 -0.13157804858E+03 -0.12636640446E+03 -0.94342155435E+03  0.96089826738E+03  0.00000000000E+00 0. -1.
          1    1    1    2  502    0  0.35013902911E+02 -0.51263992754E+02  0.19348812622E+04  0.19358769251E+04  0.00000000000E+00 0. -1.
         22    1    3    3    0    0  0.12554948274E+03  0.16104161349E+03  0.31623256431E+02  0.20663277630E+03  0.00000000000E+00 0.  1.
         22    1    3    3    0    0 -0.28985337078E+02  0.16588783722E+02  0.22842042898E+01  0.33474693429E+02  0.00000000000E+00 0.  1.
</event>
<event>
 7    1  0.6067783E-006  0.8261506E+02  0.7818608E-02  0.1425908E+00
          2   -1    0    0  502    0  0.00000000000E+00  0.00000000000E+00  0.22490660028E+03  0.22490660028E+03  0.00000000000E+00 0. -1.
          1   -1    0    0  501    0 -0.00000000000E+00 -0.00000000000E+00 -0.21007512268E+04  0.21007512268E+04  0.00000000000E+00 0. -1.
         25    2    1    2    0    0 -0.95825254139E+02 -0.63567206248E+02 -0.14447015629E+03  0.22297860315E+03  0.12499824944E+03 0.  0.
          2    1    1    2  501    0  0.73132072172E+02  0.36891484597E+02 -0.19144915930E+04  0.19162430277E+04  0.00000000000E+00 0. -1.
          1    1    1    2  502    0  0.22693181968E+02  0.26675721650E+02  0.18311712273E+03  0.18643619625E+03  0.00000000000E+00 0. -1.
         22    1    3    3    0    0 -0.30749016621E+01  0.27615360259E+02  0.10480276365E+01  0.27805781851E+02  0.00000000000E+00 0. -1.
         22    1    3    3    0    0 -0.92750352477E+02 -0.91182566506E+02 -0.14551818393E+03  0.19517282130E+03  0.00000000000E+00 0. -1.
</event>
<event>
 7    1  0.6067783E-006  0.1897031E+03  0.7818608E-02  0.1168440E+00
          2   -1    0    0  502    0  0.00000000000E+00  0.00000000000E+00  0.66892566429E+02  0.66892566429E+02  0.00000000000E+00 0. -1.
          1   -1    0    0  501    0 -0.00000000000E+00 -0.00000000000E+00 -0.29983339508E+04  0.29983339508E+04  0.00000000000E+00 0. -1.
         25    2    1    2    0    0 -0.12731359267E+03  0.10155664532E+02 -0.47857900810E+03  0.51085635199E+03  0.12499782786E+03 0.  0.
          2    1    1    2  501    0  0.15806355490E+03  0.15658284141E+03 -0.23403108746E+04  0.23508630891E+04  0.00000000000E+00 0. -1.
          1    1    1    2  502    0 -0.30749962223E+02 -0.16673850594E+03 -0.11255150167E+03  0.20350707621E+03  0.00000000000E+00 0. -1.
         22    1    3    3    0    0 -0.15231230166E+02 -0.28303111405E+01 -0.29478295931E+03  0.29518975954E+03  0.00000000000E+00 0.  1.
         22    1    3    3    0    0 -0.11208236251E+03  0.12985975673E+02 -0.18379604879E+03  0.21566659245E+03  0.00000000000E+00 0.  1.
</event>
<event>
 7    1  0.6067783E-006  0.6088388E+02  0.7818608E-02  0.1444131E+00
          2   -1    0    0  502    0  0.00000000000E+00  0.00000000000E+00  0.16664217974E+04  0.16664217974E+04  0.00000000000E+00 0. -1.
          1   -1    0    0  501    0 -0.00000000000E+00 -0.00000000000E+00 -0.34138815520E+03  0.34138815520E+03  0.00000000000E+00 0. -1.
         25    2    1    2    0    0 -0.30916329164E+02 -0.18745030731E+02 -0.59960177472E+02  0.14327025888E+03  0.12499579438E+03 0.  0.
          2    1    1    2  501    0  0.12524380348E+02 -0.39494159153E+02 -0.23740419516E+03  0.24099253223E+03  0.00000000000E+00 0. -1.
          1    1    1    2  502    0  0.18391948816E+02  0.58239189884E+02  0.16223980149E+04  0.16235471615E+04  0.00000000000E+00 0. -1.
         22    1    3    3    0    0  0.26290808308E+02 -0.49271628407E+02 -0.54767917596E+02  0.78220360298E+02  0.00000000000E+00 0.  1.
         22    1    3    3    0    0 -0.57207137472E+02  0.30526597676E+02 -0.51922598752E+01  0.65049898586E+02  0.00000000000E+00 0.  1.
</event>
<event>
 7    1  0.6067783E-006  0.2527056E+03  0.7818608E-02  0.1128940E+00
          2   -1    0    0  502    0  0.00000000000E+00  0.00000000000E+00  0.26499027550E+04  0.26499027550E+04  0.00000000000E+00 0. -1.
          1   -1    0    0  501    0 -0.00000000000E+00 -0.00000000000E+00 -0.10115248681E+04  0.10115248681E+04  0.00000000000E+00 0. -1.
         25    2    1    2    0    0 -0.13626520599E+03 -0.18619017468E+03  0.78126758276E+02  0.27379152556E+03  0.12499208615E+03 0.  0.
          2    1    1    2  501    0  0.26147911669E+03  0.25796545880E+02 -0.89049899140E+03  0.92845314579E+03  0.00000000000E+00 0. -1.
          1    1    1    2  502    0 -0.12521391070E+03  0.16039362880E+03  0.24507501200E+04  0.24591829518E+04  0.00000000000E+00 0. -1.
         22    1    3    3    0    0 -0.11740158053E+03 -0.19162586304E+03  0.98616195536E+02  0.24541547734E+03  0.00000000000E+00 0.  1.
         22    1    3    3    0    0 -0.18863625452E+02  0.54356883622E+01 -0.20489437259E+02  0.28376048216E+02  0.00000000000E+00 0.  1.
</event>
<event>
 7    1  0.6067783E-006  0.9979604E+02  0.7818608E-02  0.1346862E+00
          2   -1    0    0  502    0  0.00000000000E+00  0.00000000000E+00  0.10762553017E+04  0.10762553017E+04  0.00000000000E+00 0. -1.
          1   -1    0    0  501    0 -0.00000000000E+00 -0.00000000000E+00 -0.54472938475E+03  0.54472938475E+03  0.00000000000E+00 0. -1.
         25    2    1    2    0    0  0.24978784173E+02  0.14230189595E+03  0.15317187495E+03  0.24486824149E+03  0.12500025268E+03 0.  0.
          2    1    1    2  501    0  0.81392592000E+01 -0.98472114124E+02 -0.49311537624E+03  0.50291726863E+03  0.00000000000E+00 0. -1.
          1    1    1    2  502    0 -0.33118043373E+02 -0.43829781824E+02  0.87146941825E+03  0.87319917631E+03  0.00000000000E+00 0. -1.
         22    1    3    3    0    0  0.71483202481E+02  0.91914417391E+02  0.12473669042E+03  0.17063806814E+03  0.00000000000E+00 0. -1.
         22    1    3    3    0    0 -0.46504418309E+02  0.50387478557E+02  0.28435184529E+02  0.74230173358E+02  0.00000000000E+00 0. -1.
</event>
<event>
 7    1  0.6067783E-006  0.2138048E+03  0.7818608E-02  0.1314825E+00
          2   -1    0    0  502    0  0.00000000000E+00  0.00000000000E+00  0.28157672227E+04  0.28157672227E+04  0.00000000000E+00 0. -1.
          1   -1    0    0  501    0 -0.00000000000E+00 -0.00000000000E+00 -0.98279486280E+03  0.98279486280E+03  0.00000000000E+00 0. -1.
         25    2    1    2    0    0 -0.58292580330E+02  0.17802485682E+03  0.52495037482E+03  0.57121748841E+03  0.12500259386E+03 0.  0.
          2    1    1    2  501    0  0.45529784458E+02 -0.20951452363E+03 -0.94755636110E+03  0.97151034701E+03  0.00000000000E+00 0. -1.
          1    1    1    2  502    0  0.12762795872E+02  0.31489666805E+02  0.22555783462E+04  0.22558342501E+04  0.00000000000E+00 0. -1.
         22    1    3    3    0    0 -0.78576268441E+02  0.44829078892E+02  0.21311372462E+03  0.23151962314E+03  0.00000000000E+00 0.  1.
         22    1    3    3    0    0  0.20283688111E+02  0.13319577793E+03  0.31183665019E+03  0.33969786527E+03  0.00000000000E+00 0.  1.
</event>
<event>
 7    1  0.6067783E-006  0.4886503E+02  0.7818608E-02  0.1457750E+00
          2   -1    0    0  502    0  0.00000000000E+00  0.00000000000E+00  0.32582716331E+04  0.32582716331E+04  0.00000000000E+00 0. -1.
          1   -1    0    0  501    0 -0.00000000000E+00 -0.00000000000E+00 -0.83453639325E+02  0.83453639325E+02  0.00000000000E+00 0. -1.
         25    2    1    2    0    0 -0.43345027503E+02 -0.11546714350E+02  0.19959098264E+03  0.23973645111E+03  0.12499955047E+03 0.  0.
          2    1    1    2  501    0  0.36088046937E+02 -0.34586894767E+02 -0.53317314552E+02  0.73084447405E+02  0.00000000000E+00 0. -1.
          1    1    1    2  502    0  0.72569805661E+01  0.46133609118E+02  0.30285443257E+04  0.30289043739E+04  0.00000000000E+00 0. -1.
         22    1    3    3    0    0 -0.40515915013E+02  0.47440465880E+02  0.53587808151E+02  0.82242266231E+02  0.00000000000E+00 0.  1.
         22    1    3    3    0    0 -0.28291124900E+01 -0.58987180231E+02  0.14600317449E+03  0.15749418488E+03  0.00000000000E+00 0.  1.
</event>
<event>
 7    1  0.6067783E-006  0.6384716E+02  0.7818608E-02  0.1433457E+00
          2   -1    0    0  502    0  0.00000000000E+00  0.00000000000E+00  0.12168910229E+03  0.12168910229E+03  0.00000000000E+00 0. -1.
          1   -1    0    0  501    0 -0.00000000000E+00 -0.00000000000E+00 -0.10155550267E+04  0.10155550267E+04  0.00000000000E+00 0. -1.
         25    2    1    2    0    0 -0.77728613508E+02  0.56475132200E+02 -0.26713727642E+03  0.31019128150E+03  0.12500051499E+03 0.  0.
          2    1    1    2  501    0  0.17225920349E+02 -0.39175788766E+02 -0.71630509876E+03  0.71758237804E+03  0.00000000000E+00 0. -1.
          1    1    1    2  502    0  0.60502693159E+02 -0.17299343434E+02  0.89576450744E+02  0.10947046949E+03  0.00000000000E+00 0. -1.
         22    1    3    3    0    0 -0.14827844899E+02  0.61566947621E+02 -0.22637216577E+03  0.23506320737E+03  0.00000000000E+00 0. -1.
         22    1    3    3    0    0 -0.62900768609E+02 -0.50918154203E+01 -0.40765110651E+02  0.75128074128E+02  0.00000000000E+00 0. -1.
</event>
<event>
 7    1  0.6067783E-006  0.5470823E+02  0.7818608E-02  0.1477001E+00
          2   -1    0    0  502    0  0.00000000000E+00  0.00000000000E+00  0.13551050550E+04  0.13551050550E+04  0.00000000000E+00 0. -1.
          1   -1    0    0  501    0 -0.00000000000E+00 -0.00000000000E+00 -0.13556316360E+04  0.13556316360E+04  0.00000000000E+00 0. -1.
         25    2    1    2    0    0  0.65540027961E+02  0.54337228613E+02  0.85317288826E+03  0.86647243130E+03  0.12498986862E+03 0.  0.
          2    1    1    2  501    0 -0.50354833163E+02 -0.21342146035E+02 -0.13477606032E+04  0.13488698010E+04  0.00000000000E+00 0. -1.
          1    1    1    2  502    0 -0.15185194799E+02 -0.32995082578E+02  0.49406113393E+03  0.49539445867E+03  0.00000000000E+00 0. -1.
         22    1    3    3    0    0 -0.24342123328E+02  0.18075342729E+02  0.58302019150E+02  0.65714400399E+02  0.00000000000E+00 0.  1.
         22    1    3    3    0    0  0.89882151289E+02  0.36261885884E+02  0.79487086911E+03  0.80075803090E+03  0.00000000000E+00 0.  1.
</event>
<event>
 7    1  0.6067783E-006  0.5826635E+02  0.7818608E-02  0.1529769E+00
          2   -1    0    0  502    0  0.00000000000E+00  0.00000000000E+00  0.12074343805E+03  0.12074343805E+03  0.00000000000E+00 0. -1.
          1   -1    0    0  501    0 -0.00000000000E+00 -0.00000000000E+00 -0.24707418807E+03  0.24707418807E+03  0.00000000000E+00 0. -1.
         25    2    1    2    0    0  0.11424780717E+02  0.51514024599E+02 -0.17436496883E+03  0.22093568177E+03  0.12500085112E+03 0.  0.
          2    1    1    2  501    0  0.83310080477E+01 -0.64730517649E+02 -0.25143876960E+02  0.69940404336E+02  0.00000000000E+00 0. -1.
          1    1    1    2  502    0 -0.19755788765E+02  0.13216493049E+02  0.73178095777E+02  0.76941540015E+02  0.00000000000E+00 0. -1.
         22    1    3    3    0    0 -0.38681549522E+02 -0.23596860799E+02 -0.54709074154E+02  0.71036306969E+02  0.00000000000E+00 0. -1.
         22    1    3    3    0    0  0.50106330239E+02  0.75110885399E+02 -0.11965589468E+03  0.14989937480E+03  0.00000000000E+00 0. -1.
</event>
<event>
 7    1  0.6067783E-006  0.8216113E+02  0.7818608E-02  0.1333708E+00
          2   -1    0    0  502    0  0.00000000000E+00  0.00000000000E+00  0.11128344554E+04  0.11128344554E+04  0.00000000000E+00 0. -1.
          1   -1    0    0  501    0 -0.00000000000E+00 -0.00000000000E+00 -0.59288157604E+03  0.59288157604E+03  0.00000000000E+00 0. -1.
         25    2    1    2    0    0 -0.13264697190E+03 -0.16315656834E+02  0.10985897233E+03  0.21343776191E+03  0.12500105837E+03 0.  0.
          2    1    1    2  501    0  0.57847359195E+02  0.47382975782E+02 -0.53677156876E+03  0.54195496158E+03  0.00000000000E+00 0. -1.
          1    1    1    2  502    0  0.74799612709E+02 -0.31067318949E+02  0.94686547582E+03  0.95032330797E+03  0.00000000000E+00 0. -1.
         22    1    3    3    0    0 -0.17675296291E+02 -0.52608045656E+02  0.63331832411E+02  0.84207740519E+02  0.00000000000E+00 0.  1.
         22    1    3    3    0    0 -0.11497167561E+03  0.36292388823E+02  0.46527139915E+02  0.12923002139E+03  0.00000000000E+00 0.  1.
</event>
<event>
 7    1  0.6067783E-006  0.2739583E+03  0.7818608E-02  0.1218747E+00
          2   -1    0    0  502    0  0.00000000000E+00  0.00000000000E+00  0.96329988515E+03  0.96329988515E+03  0.00000000000E+00 0. -1.
          1   -1    0    0  501    0 -0.00000000000E+00 -0.00000000000E+00 -0.15989547113E+03  0.15989547113E+03  0.00000000000E+00 0. -1.
         25    2    1    2    0    0  0.20051504565E+03  0.16627946399E+03  0.48521009281E+03  0.56472085759E+03  0.12500267661E+03 0.  0.
          2    1    1    2  501    0 -0.16699897437E+03 -0.22494226824E+03  0.53404507022E+02  0.28520119714E+03  0.00000000000E+00 0. -1.
          1    1    1    2  502    0 -0.33516071281E+02  0.58662804253E+02  0.26478981419E+03  0.27327330155E+03  0.00000000000E+00 0. -1.
         22    1    3    3    0    0  0.18517096325E+03  0.18650785773E+03  0.45283990214E+03  0.52358136292E+03  0.00000000000E+00 0.  1.
         22    1    3    3    0    0  0.15344082395E+02 -0.20228393741E+02  0.32370190664E+02  0.41139494667E+02  0.00000000000E+00 0.  1.
</event>
<event>
 7    1  0.6067783E-006  0.9291137E+02  0.7818608E-02  0.1481779E+00
          2   -1    0    0  502    0  0.00000000000E+00  0.00000000000E+00  0.32535360349E+03  0.32535360349E+03  0.00000000000E+00 0. -1.
          1   -1    0    0  501    0 -0.00000000000E+00 -0.00000000000E+00 -0.18678076437E+03  0.18678076437E+03  0.00000000000E+00 0. -1.
         25    2    1    2    0    0 -0.67666560865E+02  0.33895060679E+02 -0.76727945838E+02  0.16504368909E+03  0.12499841214E+03 0.  0.
          2    1    1    2  501    0 -0.11199992566E+02  0.17380432152E+02 -0.56132104655E+02  0.59819164390E+02  0.00000000000E+00 0. -1.
          1    1    1    2  502    0  0.78866553432E+02 -0.51275492831E+02  0.27143288961E+03  0.28727151439E+03  0.00000000000E+00 0. -1.
         22    1    3    3    0    0  0.16252243778E+00 -0.37626536658E+02 -0.50622976605E+02  0.63075101544E+02  0.00000000000E+00 0.  1.
         22    1    3    3    0    0 -0.67829083303E+02  0.71521597337E+02 -0.26104969233E+02  0.10196858755E+03  0.00000000000E+00 0.  1.
</event>
<event>
 7    1  0.6067783E-006  0.4139872E+02  0.7818608E-02  0.1507947E+00
          2   -1    0    0  502    0  0.00000000000E+00  0.00000000000E+00  0.10885312302E+02  0.10885312302E+02  0.00000000000E+00 0. -1.
          1   -1    0    0  501    0 -0.00000000000E+00 -0.00000000000E+00 -0.10922813347E+04  0.10922813347E+04  0.00000000000E+00 0. -1.
         25    2    1    2    0    0  0.20197184765E+02  0.28072666394E+02 -0.65559575240E+03  0.66830157030E+03  0.12500078972E+03 0.  0.
          2    1    1    2  501    0  0.23087994745E+02 -0.34362748021E+02 -0.26533910405E+03  0.26854923961E+03  0.00000000000E+00 0. -1.
          1    1    1    2  502    0 -0.43285179510E+02  0.62900816277E+01 -0.16046116591E+03  0.16631583706E+03  0.00000000000E+00 0. -1.
         22    1    3    3    0    0  0.11711140533E+02 -0.40242683552E+01 -0.61808417406E+03  0.61820821069E+03  0.00000000000E+00 0.  1.
         22    1    3    3    0    0  0.84860442323E+01  0.32096934749E+02 -0.37511578344E+02  0.50093359608E+02  0.00000000000E+00 0.  1.
</event>
<event>
 7    1  0.6067783E-006  0.1182630E+03  0.7818608E-02  0.1309469E+00
          2   -1    0    0  502    0  0.00000000000E+00  0.00000000000E+00  0.23805919438E+04  0.23805919438E+04  0.00000000000E+00 0. -1.
          1   -1    0    0  501    0 -0.00000000000E+00 -0.00000000000E+00 -0.16510348181E+04  0.16510348181E+04  0.00000000000E+00 0. -1.
         25    2    1    2    0    0  0.10605077884E+03 -0.14731029059E+03  0.10705278758E+04  0.10929787664E+04  0.12500224595E+03 0.  0.
          2    1    1    2  501    0 -0.61028977985E+02  0.10115559956E+03 -0.16368790012E+04  0.16411367573E+04  0.00000000000E+00 0. -1.
          1    1    1    2  502    0 -0.45021800854E+02  0.46154691030E+02  0.12959082511E+04  0.12975112382E+04  0.00000000000E+00 0. -1.
         22    1    3    3    0    0  0.35352155533E+02 -0.10804356878E+03  0.85950502016E+03  0.86699023485E+03  0.00000000000E+00 0. -1.
         22    1    3    3    0    0  0.70698623306E+02 -0.39266721810E+02  0.21102285564E+03  0.22598853153E+03  0.00000000000E+00 0. -1.
</event>
<event>
 7    1  0.6067783E-006  0.4900561E+02  0.7818608E-02  0.1466328E+00
          2   -1    0    0  502    0  0.00000000000E+00  0.00000000000E+00  0.19018304844E+04  0.19018304844E+04  0.00000000000E+00 0. -1.
          1   -1    0    0  501    0 -0.00000000000E+00 -0.00000000000E+00 -0.15339617063E+02  0.15339617063E+02  0.00000000000E+00 0. -1.
         25    2    1    2    0    0 -0.49963439435E+01 -0.15571100151E+02  0.95815783382E+03  0.96641542084E+03  0.12499963410E+03 0.  0.
          2    1    1    2  501    0  0.47538797665E+02 -0.11900090413E+02  0.46782071306E+02  0.67750362589E+02  0.00000000000E+00 0. -1.
          1    1    1    2  502    0 -0.42542453721E+02  0.27471190564E+02  0.88155096220E+03  0.88300431801E+03  0.00000000000E+00 0. -1.
         22    1    3    3    0    0  0.54352099077E+02 -0.24175210513E+02  0.63175019337E+03  0.63454463854E+03  0.00000000000E+00 0. -1.
         22    1    3    3    0    0 -0.59348443020E+02  0.86041103625E+01  0.32640764044E+03  0.33187078230E+03  0.00000000000E+00 0. -1.
</event>
<event>
 7    1  0.6067783E-006  0.5635193E+02  0.7818608E-02  0.1480928E+00
          2   -1    0    0  502    0  0.00000000000E+00  0.00000000000E+00  0.21563072554E+04  0.21563072554E+04  0.00000000000E+00 0. -1.
          1   -1    0    0  501    0 -0.00000000000E+00 -0.00000000000E+00 -0.41393956670E+03  0.41393956670E+03  0.00000000000E+00 0. -1.
         25    2    1    2    0    0  0.41299847365E+01  0.82088252345E+02  0.62932073355E+03  0.64685895610E+03  0.12500554169E+03 0.  0.
          2    1    1    2  501    0 -0.18470030929E+02 -0.28897727423E+02 -0.40394382060E+03  0.40539712739E+03  0.00000000000E+00 0. -1.
          1    1    1    2  502    0  0.14340046192E+02 -0.53190524922E+02  0.15169907757E+04  0.15179907386E+04  0.00000000000E+00 0. -1.
         22    1    3    3    0    0  0.46928957718E+01  0.13602317973E+02  0.50267204912E+03  0.50287795268E+03  0.00000000000E+00 0.  1.
         22    1    3    3    0    0 -0.56291103534E+00  0.68485934372E+02  0.12664868444E+03  0.14398100342E+03  0.00000000000E+00 0.  1.
</event>
<event>
 7    1  0.6067783E-006  0.2899244E+03  0.7818608E-02  0.1206886E+00
          2   -1    0    0  502    0  0.00000000000E+00  0.00000000000E+00  0.16851752469E+04  0.16851752469E+04  0.00000000000E+00 0. -1.
          1   -1    0    0  501    0 -0.00000000000E+00 -0.00000000000E+00 -0.19700915959E+04  0.19700915959E+04  0.00000000000E+00 0. -1.
         25    2    1    2    0    0 -0.18214596667E+03 -0.26168893184E+03 -0.64583759169E+03  0.73102177564E+03  0.12501356483E+03 0.  0.
          2    1    1    2  501    0  0.10978344088E+03  0.25888287172E+03 -0.12654226045E+04  0.12962897489E+04  0.00000000000E+00 0. -1.
          1    1    1    2  502    0  0.72362525785E+02  0.28060601228E+01  0.16263438472E+04  0.16279553183E+04  0.00000000000E+00 0. -1.
         22    1    3    3    0    0  0.70960588881E+00 -0.58603081454E+02 -0.19702935363E+03  0.20556116095E+03  0.00000000000E+00 0. -1.
         22    1    3    3    0    0 -0.18285557255E+03 -0.20308585039E+03 -0.44880823806E+03  0.52546061469E+03  0.00000000000E+00 0. -1.
</event>
<event>
 7    1  0.6067783E-006  0.1983728E+03  0.7818608E-02  0.1297314E+00
          2   -1    0    0  502    0  0.00000000000E+00  0.00000000000E+00  0.90775208104E+03  0.90775208104E+03  0.00000000000E+00 0. -1.
          1   -1    0    0  501    0 -0.00000000000E+00 -0.00000000000E+00 -0.82879102555E+03  0.82879102555E+03  0.00000000000E+00 0. -1.
         25    2    1    2    0    0  0.40007568486E+02 -0.19657043525E+03  0.30737532465E+03  0.38774525245E+03  0.12500499606E+03 0.  0.
          2    1    1    2  501    0  0.29224472218E+01  0.19843229212E+03 -0.77526457742E+03  0.80026188230E+03  0.00000000000E+00 0. -1.
          1    1    1    2  502    0 -0.42930015708E+02 -0.18618568704E+01  0.54685030826E+03  0.54853597184E+03  0.00000000000E+00 0. -1.
         22    1    3    3    0    0  0.40441774491E+01 -0.10664657224E+03  0.25764642219E+03  0.27887546613E+03  0.00000000000E+00 0. -1.
         22    1    3    3    0    0  0.35963391037E+02 -0.89923863010E+02  0.49728902466E+02  0.10886978632E+03  0.00000000000E+00 0. -1.
</event>
<event>
 7    1  0.6067783E-006  0.2201958E+03  0.7818608E-02  0.1142792E+00
          2   -1    0    0  502    0  0.00000000000E+00  0.00000000000E+00  0.27488315406E+04  0.27488315406E+04  0.00000000000E+00 0. -1.
          1   -1    0    0  501    0 -0.00000000000E+00 -0.00000000000E+00 -0.30033257363E+03  0.30033257363E+03  0.00000000000E+00 0. -1.
         25    2    1    2    0    0  0.52214164615E+02  0.31318021627E+02  0.14229473730E+03  0.19894631250E+03  0.12499882210E+03 0.  0.
          2    1    1    2  501    0  0.14071342482E+03  0.13836932050E+03 -0.22884238869E+03  0.30218400957E+03  0.00000000000E+00 0. -1.
          1    1    1    2  502    0 -0.19292758943E+03 -0.16968734212E+03  0.25350466183E+04  0.25480337922E+04  0.00000000000E+00 0. -1.
         22    1    3    3    0    0  0.37534499363E+02  0.79746684058E+02  0.84066250875E+02  0.12180109522E+03  0.00000000000E+00 0.  1.
         22    1    3    3    0    0  0.14679665252E+02 -0.48428662431E+02  0.58228486429E+02  0.77145217276E+02  0.00000000000E+00 0.  1.
</event>
<event>
 7    1  0.6067783E-006  0.7145043E+02  0.7818608E-02  0.1442019E+00
          2   -1    0    0  502    0  0.00000000000E+00  0.00000000000E+00  0.22807671227E+04  0.22807671227E+04  0.00000000000E+00 0. -1.
          1   -1    0    0  501    0 -0.00000000000E+00 -0.00000000000E+00 -0.91014583027E+03  0.91014583027E+03  0.00000000000E+00 0. -1.
         25    2    1    2    0    0 -0.49917378970E+01 -0.50655893829E+02  0.11555477594E+04  0.11634041771E+04  0.12501087134E+03 0.  0.
          2    1    1    2  501    0  0.23846870694E+02 -0.26787548085E+02 -0.90444532946E+03  0.90515611910E+03  0.00000000000E+00 0. -1.
          1    1    1    2  502    0 -0.18855132797E+02  0.77443441915E+02  0.11195188625E+04  0.11223526568E+04  0.00000000000E+00 0. -1.
         22    1    3    3    0    0 -0.49470838938E+02 -0.15576222072E+02  0.21558698374E+03  0.22173797635E+03  0.00000000000E+00 0.  1.
         22    1    3    3    0    0  0.44479101041E+02 -0.35079671757E+02  0.93996077570E+03  0.94166620076E+03  0.00000000000E+00 0.  1.
</event>
<event>
 7    1  0.6067783E-006  0.7358296E+02  0.7818608E-02  0.1371862E+00
          2   -1    0    0  502    0  0.00000000000E+00  0.00000000000E+00  0.34183186941E+04  0.34183186941E+04  0.00000000000E+00 0. -1.
          1   -1    0    0  501    0 -0.00000000000E+00 -0.00000000000E+00 -0.14616398639E+04  0.14616398639E+04  0.00000000000E+00 0. -1.
         25    2    1    2    0    0  0.33144186071E+01  0.10922604305E+03  0.22286719169E+03  0.27791213701E+03  0.12499622760E+03 0.  0.
          2    1    1    2  501    0 -0.40279641550E+02 -0.61490716979E+02 -0.14328874954E+04  0.14347718049E+04  0.00000000000E+00 0. -1.
          1    1    1    2  502    0  0.36965222943E+02 -0.47735326075E+02  0.31666991339E+04  0.31672746161E+04  0.00000000000E+00 0. -1.
         22    1    3    3    0    0 -0.35272095789E+02  0.54291380253E+02  0.25748383719E+02  0.69675346969E+02  0.00000000000E+00 0.  1.
         22    1    3    3    0    0  0.38586514396E+02  0.54934662800E+02  0.19711880797E+03  0.20823679004E+03  0.00000000000E+00 0.  1.
</event>
<event>
 7    1  0.6067783E-006  0.2223901E+03  0.7818608E-02  0.1216460E+00
          2   -1    0    0  502    0  0.00000000000E+00  0.00000000000E+00  0.21365232846E+04  0.21365232846E+04  0.00000000000E+00 0. -1.
          1   -1    0    0  501    0 -0.00000000000E+00 -0.00000000000E+00 -0.70694444742E+03  0.70694444742E+03  0.00000000000E+00 0. -1.
         25    2    1    2    0    0 -0.41468626578E+01 -0.25443606981E+03 -0.10724854704E+03  0.30312081047E+03  0.12500025922E+03 0.  0.
          2    1    1    2  501    0 -0.71789307392E+02  0.45993394404E+02 -0.49204753172E+03  0.49937948542E+03  0.00000000000E+00 0. -1.
          1    1    1    2  502    0  0.75936170050E+02  0.20844267541E+03  0.20288749159E+04  0.20409674361E+04  0.00000000000E+00 0. -1.
         22    1    3    3    0    0 -0.36985375792E+02 -0.42457976153E+02 -0.62262614483E+02  0.83947786890E+02  0.00000000000E+00 0. -1.
         22    1    3    3    0    0  0.32838513134E+02 -0.21197809366E+03 -0.44985932552E+02  0.21917302358E+03  0.00000000000E+00 0. -1.
</event>
<event>
 7    1  0.6067783E-006  0.1335302E+03  0.7818608E-02  0.1288071E+00
          2   -1    0    0  502    0  0.00000000000E+00  0.00000000000E+00  0.12732757798E+03  0.12732757798E+03  0.00000000000E+00 0. -1.
          1   -1    0    0  501    0 -0.00000000000E+00 -0.00000000000E+00 -0.34577196382E+03  0.34577196382E+03  0.00000000000E+00 0. -1.
         25    2    1    2    0    0  0.70871513840E+02 -0.57599023806E+02 -0.15061500531E+02  0.15553772132E+03  0.12499885974E+03 0.  0.
          2    1    1    2  501    0 -0.14032486187E+03  0.53355285392E+02 -0.19700544466E+03  0.24768729997E+03  0.00000000000E+00 0. -1.
          1    1    1    2  502    0  0.69453348028E+02  0.42437384141E+01 -0.63774406476E+01  0.69874520515E+02  0.00000000000E+00 0. -1.
         22    1    3    3    0    0  0.24007664643E+02 -0.83421009079E+02 -0.41084313573E+02  0.96038292046E+02  0.00000000000E+00 0. -1.
         22    1    3    3    0    0  0.46863849197E+02  0.25821985274E+02  0.26022813042E+02  0.59499429271E+02  0.00000000000E+00 0. -1.
</event>
<event>
 7    1  0.6067783E-006  0.8514959E+02  0.7818608E-02  0.1387268E+00
          2   -1    0    0  502    0  0.00000000000E+00  0.00000000000E+00  0.12103574239E+04  0.12103574239E+04  0.00000000000E+00 0. -1.
          1   -1    0    0  501    0 -0.00000000000E+00 -0.00000000000E+00 -0.48687041557E+02  0.48687041557E+02  0.00000000000E+00 0. -1.
         25    2    1    2    0    0  0.75223553922E+02 -0.63685561196E+02  0.24527178536E+03  0.29240083166E+03  0.12500225555E+03 0.  0.
          2    1    1    2  501    0  0.76761325376E+01  0.45364543475E+02 -0.31151772266E+00  0.46010453799E+02  0.00000000000E+00 0. -1.
          1    1    1    2  502    0 -0.82899686459E+02  0.18321017720E+02  0.91671011471E+03  0.92063318000E+03  0.00000000000E+00 0. -1.
         22    1    3    3    0    0  0.79261518420E+02 -0.19421042511E+02  0.23212049629E+03  0.24604773925E+03  0.00000000000E+00 0.  1.
         22    1    3    3    0    0 -0.40379644979E+01 -0.44264518684E+02  0.13151289072E+02  0.46353092409E+02  0.00000000000E+00 0.  1.
</event>
<event>
 7    1  0.6067783E-006  0.6138367E+02  0.7818608E-02  0.1398763E+00
          2   -1    0    0  502    0  0.00000000000E+00  0.00000000000E+00  0.78141797115E+03  0.78141797115E+03  0.00000000000E+00 0. -1.
          1   -1    0    0  501    0 -0.00000000000E+00 -0.00000000000E+00 -0.46717095644E+02  0.46717095644E+02  0.00000000000E+00 0. -1.
         25    2    1    2    0    0 -0.30846465875E+02  0.21379843058E+02  0.23431454889E+03  0.26820997117E+03  0.12499871467E+03 0.  0.
          2    1    1    2  501    0 -0.21304809664E+02 -0.57567870631E+02  0.62193773219E+01  0.61697935930E+02  0.00000000000E+00 0. -1.
          1    1    1    2  502    0  0.52151275539E+02  0.36188027572E+02  0.49416694930E+03  0.49822715970E+03  0.00000000000E+00 0. -1.
         22    1    3    3    0    0 -0.50124382075E+02  0.44083610183E+02  0.55151565477E+02  0.86588183603E+02  0.00000000000E+00 0. -1.
         22    1    3    3    0    0  0.19277916200E+02 -0.22703767124E+02  0.17916298341E+03  0.18162178757E+03  0.00000000000E+00 0. -1.
</event>
<event>
 7    1  0.6067783E-006  0.8177287E+02  0.7818608E-02  0.1414571E+00
          2   -1    0    0  502    0  0.00000000000E+00  0.00000000000E+00  0.31850671902E+04  0.31850671902E+04  0.00000000000E+00 0. -1.
          1   -1    0    0  501    0 -0.00000000000E+00 -0.00000000000E+00 -0.25072728227E+03  0.25072728227E+03  0.00000000000E+00 0. -1.
         25    2    1    2    0    0 -0.36804176008E+02 -0.85746171282E+02  0.12944729338E+04  0.13038377139E+04  0.12500261829E+03 0.  0.
          2    1    1    2  501    0 -0.22861777846E+02  0.31108344161E+02 -0.24365682180E+03  0.24669624394E+03  0.00000000000E+00 0. -1.
          1    1    1    2  502    0  0.59665953854E+02  0.54637827121E+02  0.18835237959E+04  0.18852605146E+04  0.00000000000E+00 0. -1.
         22    1    3    3    0    0 -0.42159822834E+02  0.13699039993E+02  0.67083505310E+03  0.67229813538E+03  0.00000000000E+00 0. -1.
         22    1    3    3    0    0  0.53556468256E+01 -0.99445211275E+02  0.62363788070E+03  0.63153957853E+03  0.00000000000E+00 0. -1.
</event>
<event>
 7    1  0.6067783E-006  0.9329233E+02  0.7818608E-02  0.1315526E+00
          2   -1    0    0  502    0  0.00000000000E+00  0.00000000000E+00  0.24195372271E+02  0.24195372271E+02  0.00000000000E+00 0. -1.
          1   -1    0    0  501    0 -0.00000000000E+00 -0.00000000000E+00 -0.13766298963E+04  0.13766298963E+04  0.00000000000E+00 0. -1.
         25    2    1    2    0    0  0.23152682966E+02  0.24922647232E+02 -0.40152038221E+03  0.42190205941E+03  0.12500218131E+03 0.  0.
          2    1    1    2  501    0  0.92370850659E+02 -0.13079949076E+02 -0.64493899942E+03  0.65165157261E+03  0.00000000000E+00 0. -1.
          1    1    1    2  502    0 -0.11552353362E+03 -0.11842698156E+02 -0.30597514244E+03  0.32727163658E+03  0.00000000000E+00 0. -1.
         22    1    3    3    0    0  0.44014308585E+02  0.59374371202E+02 -0.15047391195E+03  0.16764538017E+03  0.00000000000E+00 0. -1.
         22    1    3    3    0    0 -0.20861625619E+02 -0.34451723969E+02 -0.25104647026E+03  0.25425667924E+03  0.00000000000E+00 0. -1.
</event>
<event>
 7    1  0.6067783E-006  0.1334211E+03  0.7818608E-02  0.1353872E+00
          2   -1    0    0  502    0  0.00000000000E+00  0.00000000000E+00  0.17677114297E+04  0.17677114297E+04  0.00000000000E+00 0. -1.
          1   -1    0    0  501    0 -0.00000000000E+00 -0.00000000000E+00 -0.52941990512E+03  0.52941990512E+03  0.00000000000E+00 0. -1.
         25    2    1    2    0    0  0.10414178658E+03  0.13578445321E+03  0.81427102188E+03  0.84139538874E+03  0.12500389461E+03 0.  0.
          2    1    1    2  501    0 -0.85685043757E+02 -0.10176237204E+03 -0.50687212198E+03  0.52403898245E+03  0.00000000000E+00 0. -1.
          1    1    1    2  502    0 -0.18456742821E+02 -0.34022081173E+02  0.93089262468E+03  0.93169696364E+03  0.00000000000E+00 0. -1.
         22    1    3    3    0    0  0.67703317591E+02  0.12246145360E+03  0.76964504416E+03  0.78226213051E+03  0.00000000000E+00 0.  1.
         22    1    3    3    0    0  0.36438468987E+02  0.13322999618E+02  0.44625977717E+02  0.59133258224E+02  0.00000000000E+00 0.  1.
</event>
<event>
 7    1  0.6067783E-006  0.7235733E+02  0.7818608E-02  0.1411756E+00
          2   -1    0    0  502    0  0.00000000000E+00  0.00000000000E+00  0.10345313616E+03  0.10345313616E+03  0.00000000000E+00 0. -1.
          1   -1    0    0  501    0 -0.00000000000E+00 -0.00000000000E+00 -0.12520553398E+04  0.12520553398E+04  0.00000000000E+00 0. -1.
         25    2    1    2    0    0 -0.24189232000E+02 -0.29223124077E+02 -0.17268255885E+03  0.21652739765E+03  0.12500295146E+03 0.  0.
          2    1    1    2  501    0  0.15752608088E+02  0.73011467065E+02 -0.10499250987E+04  0.10525785158E+04  0.00000000000E+00 0. -1.
          1    1    1    2  502    0  0.84366239125E+01 -0.43788342987E+02  0.74005453916E+02  0.86402562542E+02  0.00000000000E+00 0. -1.
         22    1    3    3    0    0 -0.47625683101E+02  0.21933724436E+01 -0.93840656695E+01  0.48590917485E+02  0.00000000000E+00 0. -1.
         22    1    3    3    0    0  0.23436451101E+02 -0.31416496521E+02 -0.16329849318E+03  0.16793648016E+03  0.00000000000E+00 0. -1.
</event>
<event>
 7    1  0.6067783E-006  0.1734995E+03  0.7818608E-02  0.1194879E+00
          2   -1    0    0  502    0  0.00000000000E+00  0.00000000000E+00  0.10564518787E+04  0.10564518787E+04  0.00000000000E+00 0. -1.
          1   -1    0    0  501    0 -0.00000000000E+00 -0.00000000000E+00 -0.19827243316E+03  0.19827243316E+03  0.00000000000E+00 0. -1.
         25    2    1    2    0    0  0.91060856877E+02  0.13933891108E+03  0.34115995840E+02  0.21093555554E+03  0.12498998209E+03 0.  0.
          2    1    1    2  501    0 -0.13337564501E+03  0.34791726036E+02 -0.53692780017E+02  0.14792714933E+03  0.00000000000E+00 0. -1.
          1    1    1    2  502    0  0.42314788132E+02 -0.17413063712E+03  0.87775622976E+03  0.89586160704E+03  0.00000000000E+00 0. -1.
         22    1    3    3    0    0  0.68756338511E+01  0.22061814256E+02  0.59975594075E+02  0.64273399426E+02  0.00000000000E+00 0. -1.
         22    1    3    3    0    0  0.84185223026E+02  0.11727709683E+03 -0.25859598235E+02  0.14666215612E+03  0.00000000000E+00 0. -1.
</event>
<event>
 7    1  0.6067783E-006  0.4196693E+02  0.7818608E-02  0.1599885E+00
          2   -1    0    0  502    0  0.00000000000E+00  0.00000000000E+00  0.25964836873E+04  0.25964836873E+04  0.00000000000E+00 0. -1.
          1   -1    0    0  501    0 -0.00000000000E+00 -0.00000000000E+00 -0.12547275562E+03  0.12547275562E+03  0.00000000000E+00 0. -1.
         25    2    1    2    0    0  0.55877376828E+02  0.22355969659E+02  0.10023175264E+04  0.10118737717E+04  0.12500414200E+03 0.  0.
          2    1    1    2  501    0 -0.15666100527E+02 -0.14305081910E+02 -0.11949566545E+03  0.12136422923E+03  0.00000000000E+00 0. -1.
          1    1    1    2  502    0 -0.40211276300E+02 -0.80508877495E+01  0.15881890708E+04  0.15887184420E+04  0.00000000000E+00 0. -1.
         22    1    3    3    0    0  0.28812177007E+01 -0.47096756959E+02  0.47851797526E+03  0.48083870329E+03  0.00000000000E+00 0.  1.
         22    1    3    3    0    0  0.52996159127E+02  0.69452726618E+02  0.52379955113E+03  0.53103506841E+03  0.00000000000E+00 0.  1.
</event>
<event>
 7    1  0.6067783E-006  0.6073633E+02  0.7818608E-02  0.1425364E+00
          2   -1    0    0  502    0  0.00000000000E+00  0.00000000000E+00  0.41721285070E+03  0.41721285070E+03  0.00000000000E+00 0. -1.
          1   -1    0    0  501    0 -0.00000000000E+00 -0.00000000000E+00 -0.31591668917E+03  0.31591668917E+03  0.00000000000E+00 0. -1.
         25    2    1    2    0    0 -0.38497240864E+02  0.22301028467E+02  0.60736159265E+02  0.14592675538E+03  0.12500545375E+03 0.  0.
          2    1    1    2  501    0  0.10320996286E+02 -0.60959025336E+02 -0.26795799767E+03  0.27499820772E+03  0.00000000000E+00 0. -1.
          1    1    1    2  502    0  0.28176244578E+02  0.38657996870E+02  0.30851799993E+03  0.31220457678E+03  0.00000000000E+00 0. -1.
         22    1    3    3    0    0  0.35037953589E+02  0.13785755567E+02 -0.14528591921E+02  0.40358211450E+02  0.00000000000E+00 0. -1.
         22    1    3    3    0    0 -0.73535194453E+02  0.85152729003E+01  0.75264751185E+02  0.10556854393E+03  0.00000000000E+00 0. -1.
</event>
<event>
 7    1  0.6067783E-006  0.1275485E+03  0.7818608E-02  0.1248136E+00
          2   -1    0    0  502    0  0.00000000000E+00  0.00000000000E+00  0.23523914844E+04  0.23523914844E+04  0.00000000000E+00 0. -1.
          1   -1    0    0  501    0 -0.00000000000E+00 -0.00000000000E+00 -0.51099457450E+03  0.51099457450E+03  0.00000000000E+00 0. -1.
         25    2    1    2    0    0  0.44113821221E+02 -0.37126291241E+02 -0.56814651611E+02  0.14891932740E+03  0.12499868284E+03 0.  0.
          2    1    1    2  501    0  0.80632127853E+02  0.70819815293E+02 -0.39922583259E+03  0.41339841762E+03  0.00000000000E+00 0. -1.
          1    1    1    2  502    0 -0.12474594907E+03 -0.33693524052E+02  0.22974373941E+04  0.23010683139E+04  0.00000000000E+00 0. -1.
         22    1    3    3    0    0  0.51846910731E+02 -0.71587506986E+02 -0.68383122930E+02  0.11175475297E+03  0.00000000000E+00 0. -1.
         22    1    3    3    0    0 -0.77330895101E+01  0.34461215745E+02  0.11568471318E+02  0.37164574431E+02  0.00000000000E+00 0. -1.
</event>
<event>
 7    1  0.6067783E-006  0.1037270E+03  0.7818608E-02  0.1330805E+00
          2   -1    0    0  502    0  0.00000000000E+00  0.00000000000E+00  0.14085061539E+03  0.14085061539E+03  0.00000000000E+00 0. -1.
          1   -1    0    0  501    0 -0.00000000000E+00 -0.00000000000E+00 -0.27047593432E+04  0.27047593432E+04  0.00000000000E+00 0. -1.
         25    2    1    2    0    0  0.52746608228E+02  0.25060949180E+02 -0.70459352779E+00  0.13796581479E+03  0.12499525489E+03 0.  0.
          2    1    1    2  501    0 -0.60360872008E+02 -0.85337940263E+02 -0.26214176315E+04  0.26235007905E+04  0.00000000000E+00 0. -1.
          1    1    1    2  502    0  0.76142637799E+01  0.60276991083E+02  0.58213497150E+02  0.84143353376E+02  0.00000000000E+00 0. -1.
         22    1    3    3    0    0  0.58018719574E+02  0.60047220994E+02  0.32351033395E+02  0.89545686283E+02  0.00000000000E+00 0. -1.
         22    1    3    3    0    0 -0.52721113466E+01 -0.34986271814E+02 -0.33055626923E+02  0.48420128508E+02  0.00000000000E+00 0. -1.
</event>
<event>
 7    1  0.6067783E-006  0.1018185E+03  0.7818608E-02  0.1414245E+00
          2   -1    0    0  502    0  0.00000000000E+00  0.00000000000E+00  0.18792791977E+03  0.18792791977E+03  0.00000000000E+00 0. -1.
          1   -1    0    0  501    0 -0.00000000000E+00 -0.00000000000E+00 -0.16983454982E+04  0.16983454982E+04  0.00000000000E+00 0. -1.
         25    2    1    2    0    0 -0.59999733386E+02  0.39865621582E+02 -0.13899183616E+01  0.14428168162E+03  0.12500414388E+03 0.  0.
          2    1    1    2  501    0  0.81064150044E+02 -0.62723555011E+02 -0.16217889529E+04  0.16250246301E+04  0.00000000000E+00 0. -1.
          1    1    1    2  502    0 -0.21064416658E+02  0.22857933429E+02  0.11276129285E+03  0.11696710621E+03  0.00000000000E+00 0. -1.
         22    1    3    3    0    0 -0.52314274797E+02 -0.33299636709E+02  0.23942179603E+02  0.66474635137E+02  0.00000000000E+00 0.  1.
         22    1    3    3    0    0 -0.76854585896E+01  0.73165258291E+02 -0.25332097965E+02  0.77807046479E+02  0.00000000000E+00 0.  1.
</event>
<event>
 7    1  0.6067783E-006  0.5772365E+02  0.7818608E-02  0.1474413E+00
          2   -1    0    0  502    0  0.00000000000E+00  0.00000000000E+00  0.25082038452E+03  0.25082038452E+03  0.00000000000E+00 0. -1.
          1   -1    0    0  501    0 -0.00000000000E+00 -0.00000000000E+00 -0.13089269593E+04  0.13089269593E+04  0.00000000000E+00 0. -1.
         25    2    1    2    0    0 -0.53739690553E+02  0.37337239828E+02 -0.34277713272E+03  0.37067966536E+03  0.12500091111E+03 0.  0.
          2    1    1    2  501    0 -0.39527952896E+01 -0.34839484833E+02 -0.94835023827E+03  0.94899820269E+03  0.00000000000E+00 0. -1.
          1    1    1    2  502    0  0.57692485842E+02 -0.24977549947E+01  0.23302079624E+03  0.24006947574E+03  0.00000000000E+00 0. -1.
         22    1    3    3    0    0  0.20299590547E+02  0.27050035410E+02 -0.19851984406E+02  0.39215801368E+02  0.00000000000E+00 0.  1.
         22    1    3    3    0    0 -0.74039281099E+02  0.10287204417E+02 -0.32292514831E+03  0.33146386399E+03  0.00000000000E+00 0.  1.
</event>
<event>
 7    1  0.6067783E-006  0.6279466E+02  0.7818608E-02  0.1416734E+00
          2   -1    0    0  502    0  0.00000000000E+00  0.00000000000E+00  0.56548420553E+02  0.56548420553E+02  0.00000000000E+00 0. -1.
          1   -1    0    0  501    0 -0.00000000000E+00 -0.00000000000E+00 -0.20124463436E+04  0.20124463436E+04  0.00000000000E+00 0. -1.
         25    2    1    2    0    0  0.10054910715E+03 -0.26293958587E+02 -0.17608007308E+03  0.23964946954E+03  0.12500472354E+03 0.  0.
          2    1    1    2  501    0 -0.44162692890E+02  0.22222869255E+02 -0.17715160823E+04  0.17722058089E+04  0.00000000000E+00 0. -1.
          1    1    1    2  502    0 -0.56386414262E+02  0.40710893312E+01 -0.83017677071E+01  0.57139485723E+02  0.00000000000E+00 0. -1.
         22    1    3    3    0    0  0.11357613529E+03 -0.52874807769E+02 -0.10797733602E+03  0.16539162281E+03  0.00000000000E+00 0.  1.
         22    1    3    3    0    0 -0.13027028134E+02  0.26580849182E+02 -0.68102737062E+02  0.74257846727E+02  0.00000000000E+00 0.  1.
</event>
<event>
 7    1  0.6067783E-006  0.9083809E+02  0.7818608E-02  0.1355514E+00
          2   -1    0    0  502    0  0.00000000000E+00  0.00000000000E+00  0.44408396521E+02  0.44408396521E+02  0.00000000000E+00 0. -1.
          1   -1    0    0  501    0 -0.00000000000E+00 -0.00000000000E+00 -0.88207358939E+03  0.88207358939E+03  0.00000000000E+00 0. -1.
         25    2    1    2    0    0 -0.11921815415E+03  0.61163875572E+02 -0.29854468457E+03  0.35028876975E+03  0.12497722021E+03 0.  0.
          2    1    1    2  501    0  0.52748115460E+02 -0.18999525254E+02 -0.46403380795E+03  0.46740851572E+03  0.00000000000E+00 0. -1.
          1    1    1    2  502    0  0.66470038692E+02 -0.42164350319E+02 -0.75086700344E+02  0.10878470044E+03  0.00000000000E+00 0. -1.
         22    1    3    3    0    0 -0.80199780673E+02  0.74574280065E+02 -0.28738991448E+03  0.30754884330E+03  0.00000000000E+00 0. -1.
         22    1    3    3    0    0 -0.39018373479E+02 -0.13410404493E+02 -0.11154770093E+02  0.42739926455E+02  0.00000000000E+00 0. -1.
</event>
<event>
 7    1  0.6067783E-006  0.6490774E+02  0.7818608E-02  0.1464260E+00
          2   -1    0    0  502    0  0.00000000000E+00  0.00000000000E+00  0.24915043584E+04  0.24915043584E+04  0.00000000000E+00 0. -1.
          1   -1    0    0  501    0 -0.00000000000E+00 -0.00000000000E+00 -0.35962120566E+03  0.35962120566E+03  0.00000000000E+00 0. -1.
         25    2    1    2    0    0  0.18706776706E+02 -0.76889777596E+02  0.19086800673E+03  0.24148719910E+03  0.12499395963E+03 0.  0.
          2    1    1    2  501    0  0.12110494252E+02  0.63660706175E+02 -0.33104640279E+03  0.33732932037E+03  0.00000000000E+00 0. -1.
          1    1    1    2  502    0 -0.30817270958E+02  0.13229071421E+02  0.22720615488E+04  0.22723090446E+04  0.00000000000E+00 0. -1.
         22    1    3    3    0    0 -0.25567790146E+02 -0.38198804880E+02  0.46423961469E+01  0.46199701613E+02  0.00000000000E+00 0.  1.
         22    1    3    3    0    0  0.44274566852E+02 -0.38690972717E+02  0.18622561058E+03  0.19528749749E+03  0.00000000000E+00 0.  1.
</event>
<event>
 7    1  0.6067783E-006  0.9568216E+02  0.7818608E-02  0.1388247E+00
          2   -1    0    0  502    0  0.00000000000E+00  0.00000000000E+00  0.60263206372E+03  0.60263206372E+03  0.00000000000E+00 0. -1.
          1   -1    0    0  501    0 -0.00000000000E+00 -0.00000000000E+00 -0.37590062401E+03  0.37590062401E+03  0.00000000000E+00 0. -1.
         25    2    1    2    0    0 -0.12725127803E+03 -0.17218742507E+02 -0.10550779855E+03  0.20796010395E+03  0.12500454562E+03 0.  0.
          2    1    1    2  501    0  0.86997273048E+02  0.22678878719E+02 -0.20915361517E+03  0.22765783931E+03  0.00000000000E+00 0. -1.
          1    1    1    2  502    0  0.40254004985E+02 -0.54601362118E+01  0.54139285344E+03  0.54291474446E+03  0.00000000000E+00 0. -1.
         22    1    3    3    0    0 -0.73941414686E+02  0.19039513446E+02 -0.11966803067E+03  0.14195165882E+03  0.00000000000E+00 0.  1.
         22    1    3    3    0    0 -0.53309863347E+02 -0.36258255953E+02  0.14160232120E+02  0.66008445130E+02  0.00000000000E+00 0.  1.
</event>
<event>
 7    1  0.6067783E-006  0.1158782E+03  0.7818608E-02  0.1321328E+00
          2   -1    0    0  502    0  0.00000000000E+00  0.00000000000E+00  0.17668999825E+03  0.17668999825E+03  0.00000000000E+00 0. -1.
          1   -1    0    0  501    0 -0.00000000000E+00 -0.00000000000E+00 -0.52620371202E+03  0.52620371202E+03  0.00000000000E+00 0. -1.
         25    2    1    2    0    0 -0.15644185228E+02 -0.93393888522E+02 -0.21779202115E+03  0.26837501724E+03  0.12499850582E+03 0.  0.
          2    1    1    2  501    0 -0.59138892650E+02  0.71983031757E+00 -0.25579559048E+03  0.26254392182E+03  0.00000000000E+00 0. -1.
          1    1    1    2  502    0  0.74783077878E+02  0.92674058204E+02  0.12407389785E+03  0.17197477120E+03  0.00000000000E+00 0. -1.
         22    1    3    3    0    0  0.27700807764E+02 -0.17665127361E+02  0.95428188285E+00  0.32867949881E+02  0.00000000000E+00 0. -1.
         22    1    3    3    0    0 -0.43344992992E+02 -0.75728761160E+02 -0.21874630303E+03  0.23550706736E+03  0.00000000000E+00 0. -1.
</event>
<event>
 7    1  0.6067783E-006  0.4101798E+02  0.7818608E-02  0.1547205E+00
          2   -1    0    0  502    0  0.00000000000E+00  0.00000000000E+00  0.16735849632E+04  0.16735849632E+04  0.00000000000E+00 0. -1.
          1   -1    0    0  501    0 -0.00000000000E+00 -0.00000000000E+00 -0.94071465921E+03  0.94071465921E+03  0.00000000000E+00 0. -1.
         25    2    1    2    0    0  0.13860264035E+02  0.14822006486E+02  0.67958623017E+03  0.69128453605E+03  0.12500026699E+03 0.  0.
          2    1    1    2  501    0 -0.40999210942E+02 -0.17236844193E+01 -0.93418523894E+03  0.93508607467E+03  0.00000000000E+00 0. -1.
          1    1    1    2  502    0  0.27138946907E+02 -0.13098322067E+02  0.98746931280E+03  0.98792901172E+03  0.00000000000E+00 0. -1.
         22    1    3    3    0    0 -0.10334035381E+02 -0.50294489294E+02  0.19084594668E+03  0.19763224257E+03  0.00000000000E+00 0. -1.
         22    1    3    3    0    0  0.24194299416E+02  0.65116495780E+02  0.48874028349E+03  0.49365229348E+03  0.00000000000E+00 0. -1.
</event>
<event>
 7    1  0.6067783E-006  0.1865632E+03  0.7818608E-02  0.1230474E+00
          2   -1    0    0  502    0  0.00000000000E+00  0.00000000000E+00  0.11220961157E+04  0.11220961157E+04  0.00000000000E+00 0. -1.
          1   -1    0    0  501    0 -0.00000000000E+00 -0.00000000000E+00 -0.97033102814E+02  0.97033102814E+02  0.00000000000E+00 0. -1.
         25    2    1    2    0    0 -0.17536970355E+03  0.12365241167E+03  0.18212704011E+03  0.30796174638E+03  0.12500290659E+03 0.  0.
          2    1    1    2  501    0  0.80688034133E+02  0.34620876970E+02  0.58891712480E+02  0.10572321303E+03  0.00000000000E+00 0. -1.
          1    1    1    2  502    0  0.94681669417E+02 -0.15827328864E+03  0.78404426026E+03  0.80544425907E+03  0.00000000000E+00 0. -1.
         22    1    3    3    0    0 -0.70142611056E+02  0.19189399628E+02 -0.49974602324E+00  0.72721858405E+02  0.00000000000E+00 0.  1.
         22    1    3    3    0    0 -0.10522709249E+03  0.10446301204E+03  0.18262678613E+03  0.23523988797E+03  0.00000000000E+00 0.  1.
</event>
<event>
 7    1  0.6067783E-006  0.5968255E+02  0.7818608E-02  0.1516464E+00
          2   -1    0    0  502    0  0.00000000000E+00  0.00000000000E+00  0.41184088620E+02  0.41184088620E+02  0.00000000000E+00 0. -1.
          1   -1    0    0  501    0 -0.00000000000E+00 -0.00000000000E+00 -0.12067833705E+04  0.12067833705E+04  0.00000000000E+00 0. -1.
         25    2    1    2    0    0  0.33487132854E+02  0.36044378385E+02 -0.31077150936E+03  0.33856212068E+03  0.12499917300E+03 0.  0.
          2    1    1    2  501    0 -0.19876015479E+02 -0.57435902612E+02 -0.87493626114E+03  0.87704469667E+03  0.00000000000E+00 0. -1.
          1    1    1    2  502    0 -0.13611117375E+02  0.21391524227E+02  0.20108488583E+02  0.32360641805E+02  0.00000000000E+00 0. -1.
         22    1    3    3    0    0  0.71853392610E+02  0.28512455019E+02 -0.27468554218E+03  0.28535594825E+03  0.00000000000E+00 0.  1.
         22    1    3    3    0    0 -0.38366259756E+02  0.75319233655E+01 -0.36085967184E+02  0.53206172432E+02  0.00000000000E+00 0.  1.
</event>
<event>
 7    1  0.6067783E-006  0.2309282E+03  0.7818608E-02  0.1240785E+00
          2   -1    0    0  502    0  0.00000000000E+00  0.00000000000E+00  0.29556477334E+04  0.29556477334E+04  0.00000000000E+00 0. -1.
          1   -1    0    0  501    0 -0.00000000000E+00 -0.00000000000E+00 -0.70285159168E+03  0.70285159168E+03  0.00000000000E+00 0. -1.
         25    2    1    2    0    0  0.71482918408E+02  0.17112551891E+03  0.11813716445E+03  0.25293697936E+03  0.12500789999E+03 0.  0.
          2    1    1    2  501    0 -0.50154115064E+02 -0.23129039876E+03 -0.61303235487E+03  0.65712963100E+03  0.00000000000E+00 0. -1.
          1    1    1    2  502    0 -0.21328803344E+02  0.60164879849E+02  0.27476913321E+04  0.27484327147E+04  0.00000000000E+00 0. -1.
         22    1    3    3    0    0  0.76566902049E+02  0.11553177826E+03  0.20004777470E+02  0.14003668591E+03  0.00000000000E+00 0. -1.
         22    1    3    3    0    0 -0.50839836413E+01  0.55593740651E+02  0.98132386978E+02  0.11290029346E+03  0.00000000000E+00 0. -1.
</event>
<event>
 7    1  0.6067783E-006  0.2406309E+02  0.7818608E-02  0.1705419E+00
          2   -1    0    0  502    0  0.00000000000E+00  0.00000000000E+00  0.75800896913E+03  0.75800896913E+03  0.00000000000E+00 0. -1.
          1   -1    0    0  501    0 -0.00000000000E+00 -0.00000000000E+00 -0.18652686565E+02  0.18652686565E+02  0.00000000000E+00 0. -1.
         25    2    1    2    0    0  0.35637412824E+01  0.39421505005E+02  0.26994776495E+03  0.30010575274E+03  0.12499964688E+03 0.  0.
          2    1    1    2  501    0  0.81709992601E+01 -0.18709709879E+02  0.28786872986E+02  0.35291677900E+02  0.00000000000E+00 0. -1.
          1    1    1    2  502    0 -0.11734740542E+02 -0.20711795125E+02  0.44062164463E+03  0.44126422505E+03  0.00000000000E+00 0. -1.
         22    1    3    3    0    0  0.37494112564E+01  0.81957413524E+02  0.21823076687E+03  0.23314318203E+03  0.00000000000E+00 0. -1.
         22    1    3    3    0    0 -0.18566997393E+00 -0.42535908519E+02  0.51716998075E+02  0.66962570715E+02  0.00000000000E+00 0. -1.
</event>
<event>
 7    1  0.6067783E-006  0.1038190E+03  0.7818608E-02  0.1301330E+00
          2   -1    0    0  502    0  0.00000000000E+00  0.00000000000E+00  0.80038883201E+02  0.80038883201E+02  0.00000000000E+00 0. -1.
          1   -1    0    0  501    0 -0.00000000000E+00 -0.00000000000E+00 -0.17824443823E+04  0.17824443823E+04  0.00000000000E+00 0. -1.
         25    2    1    2    0    0  0.31972954241E+02  0.70071976768E+02 -0.76292949382E+03  0.77692916532E+03  0.12500065459E+03 0.  0.
          2    1    1    2  501    0  0.26971905985E+02 -0.12284740322E+03 -0.98585390135E+03  0.99384449638E+03  0.00000000000E+00 0. -1.
          1    1    1    2  502    0 -0.58944860225E+02  0.52775426451E+02  0.46377896074E+02  0.91709603795E+02  0.00000000000E+00 0. -1.
         22    1    3    3    0    0  0.63750814402E+02 -0.61794915200E+01 -0.35167343985E+03  0.35745847416E+03  0.00000000000E+00 0. -1.
         22    1    3    3    0    0 -0.31777860162E+02  0.76251468288E+02 -0.41125605397E+03  0.41947069116E+03  0.00000000000E+00 0. -1.
</event>
<event>
 7    1  0.6067783E-006  0.3449068E+02  0.7818608E-02  0.1627484E+00
          2   -1    0    0  502    0  0.00000000000E+00  0.00000000000E+00  0.11666602195E+04  0.11666602195E+04  0.00000000000E+00 0. -1.
          1   -1    0    0  501    0 -0.00000000000E+00 -0.00000000000E+00 -0.12522163164E+03  0.12522163164E+03  0.00000000000E+00 0. -1.
         25    2    1    2    0    0  0.27050650445E+02  0.45976216160E+01  0.40105085696E+03  0.42097364979E+03  0.12499659250E+03 0.  0.
          2    1    1    2  501    0 -0.30035196117E+02  0.17125156453E+02 -0.11250423338E+03  0.11769701151E+03  0.00000000000E+00 0. -1.
          1    1    1    2  502    0  0.29845456719E+01 -0.21722778069E+02  0.75289196431E+03  0.75321118985E+03  0.00000000000E+00 0. -1.
         22    1    3    3    0    0  0.34248480366E+02  0.73110437847E+01  0.20977301892E+02  0.40822260635E+02  0.00000000000E+00 0. -1.
         22    1    3    3    0    0 -0.71978299217E+01 -0.27134221687E+01  0.38007355507E+03  0.38015138916E+03  0.00000000000E+00 0. -1.
</event>
<event>
 7    1  0.6067783E-006  0.8756991E+02  0.7818608E-02  0.1391083E+00
          2   -1    0    0  502    0  0.00000000000E+00  0.00000000000E+00  0.16298659724E+03  0.16298659724E+03  0.00000000000E+00 0. -1.
          1   -1    0    0  501    0 -0.00000000000E+00 -0.00000000000E+00 -0.17791332143E+04  0.17791332143E+04  0.00000000000E+00 0. -1.
         25    2    1    2    0    0  0.10435152337E+03 -0.14808894322E+02 -0.12225187711E+04  0.12334041203E+04  0.12500013818E+03 0.  0.
          2    1    1    2  501    0 -0.30021876019E+02 -0.31320451529E+02 -0.53808704724E+03  0.53983326512E+03  0.00000000000E+00 0. -1.
          1    1    1    2  502    0 -0.74329647352E+02  0.46129345850E+02  0.14445920126E+03  0.16888242612E+03  0.00000000000E+00 0. -1.
         22    1    3    3    0    0  0.32047824235E+02 -0.16936030858E+02 -0.97136869226E+03  0.97204476671E+03  0.00000000000E+00 0.  1.
         22    1    3    3    0    0  0.72303699137E+02  0.21271365362E+01 -0.25115007885E+03  0.26135935362E+03  0.00000000000E+00 0.  1.
</event>
<event>
 7    1  0.6067783E-006  0.7018511E+02  0.7818608E-02  0.1403159E+00
          2   -1    0    0  502    0  0.00000000000E+00  0.00000000000E+00  0.57383449327E+03  0.57383449327E+03  0.00000000000E+00 0. -1.
          1   -1    0    0  501    0 -0.00000000000E+00 -0.00000000000E+00 -0.14404248881E+04  0.14404248881E+04  0.00000000000E+00 0. -1.
         25    2    1    2    0    0 -0.61220722673E+02 -0.43863935118E+02  0.26832170489E+03  0.30544264641E+03  0.12500660479E+03 0.  0.
          2    1    1    2  501    0  0.18265506370E+02  0.67803836134E+02 -0.14188828823E+04  0.14206194503E+04  0.00000000000E+00 0. -1.
          1    1    1    2  502    0  0.42955216303E+02 -0.23939901016E+02  0.28397078262E+03  0.28819728460E+03  0.00000000000E+00 0. -1.
         22    1    3    3    0    0  0.54944194787E+01 -0.27354667490E+02  0.21919225002E+03  0.22096087651E+03  0.00000000000E+00 0. -1.
         22    1    3    3    0    0 -0.66715142152E+02 -0.16509267628E+02  0.49129454875E+02  0.84481769905E+02  0.00000000000E+00 0. -1.
</event>
<event>
 7    1  0.6067783E-006  0.1172656E+03  0.7818608E-02  0.1380563E+00
          2   -1    0    0  502    0  0.00000000000E+00  0.00000000000E+00  0.12124201878E+04  0.12124201878E+04  0.00000000000E+00 0. -1.
          1   -1    0    0  501    0 -0.00000000000E+00 -0.00000000000E+00 -0.33002816846E+02  0.33002816846E+02  0.00000000000E+00 0. -1.
         25    2    1    2    0    0  0.11086798981E+03  0.71992535174E+01  0.26185429022E+03  0.31070124718E+03  0.12499622106E+03 0.  0.
          2    1    1    2  501    0 -0.12969015796E+03  0.22634408404E+02  0.55294387137E+03  0.56840019212E+03  0.00000000000E+00 0. -1.
          1    1    1    2  502    0  0.18822168158E+02 -0.29833661921E+02  0.36461920936E+03  0.36632156533E+03  0.00000000000E+00 0. -1.
         22    1    3    3    0    0  0.10030806525E+03  0.48813422593E+02  0.23480562699E+03  0.25995795938E+03  0.00000000000E+00 0.  1.
         22    1    3    3    0    0  0.10559924553E+02 -0.41614169075E+02  0.27048663232E+02  0.50743287803E+02  0.00000000000E+00 0.  1.
</event>
<event>
 7    1  0.6067783E-006  0.5662571E+02  0.7818608E-02  0.1455995E+00
          2   -1    0    0  502    0  0.00000000000E+00  0.00000000000E+00  0.27382576301E+03  0.27382576301E+03  0.00000000000E+00 0. -1.
          1   -1    0    0  501    0 -0.00000000000E+00 -0.00000000000E+00 -0.15521351929E+04  0.15521351929E+04  0.00000000000E+00 0. -1.
         25    2    1    2    0    0 -0.13070240216E+02  0.18416785838E+02  0.48098536923E+02  0.13580808634E+03  0.12498143015E+03 0.  0.
          2    1    1    2  501    0 -0.47262796001E+00  0.40817035180E+02 -0.15029204947E+04  0.15034747311E+04  0.00000000000E+00 0. -1.
          1    1    1    2  502    0  0.13542868176E+02 -0.59233821018E+02  0.17651252794E+03  0.18667813839E+03  0.00000000000E+00 0. -1.
         22    1    3    3    0    0  0.47331596296E+02  0.30259966270E+02  0.48556919866E+02  0.74254427703E+02  0.00000000000E+00 0.  1.
         22    1    3    3    0    0 -0.60401836512E+02 -0.11843180432E+02 -0.45838294331E+00  0.61553658638E+02  0.00000000000E+00 0.  1.
</event>
<event>
 7    1  0.6067783E-006  0.1071328E+03  0.7818608E-02  0.1434699E+00
          2   -1    0    0  502    0  0.00000000000E+00  0.00000000000E+00  0.13920526408E+04  0.13920526408E+04  0.00000000000E+00 0. -1.
          1   -1    0    0  501    0 -0.00000000000E+00 -0.00000000000E+00 -0.99176502048E+02  0.99176502048E+02  0.00000000000E+00 0. -1.
         25    2    1    2    0    0  0.75541602121E+02  0.44093793658E+02  0.17443500131E+03  0.23173652897E+03  0.12499381141E+03 0.  0.
          2    1    1    2  501    0  0.25138280361E+02 -0.25483059365E+01 -0.65680283325E+02  0.70372769026E+02  0.00000000000E+00 0. -1.
          1    1    1    2  502    0 -0.10067988248E+03 -0.41545487721E+02  0.11841214207E+04  0.11891198448E+04  0.00000000000E+00 0. -1.
         22    1    3    3    0    0  0.10304780477E+03  0.48607340836E+02  0.16822728822E+03  0.20317958597E+03  0.00000000000E+00 0. -1.
         22    1    3    3    0    0 -0.27506202646E+02 -0.45135471784E+01  0.62077130828E+01  0.28556943007E+02  0.00000000000E+00 0. -1.
</event>
<event>
 7    1  0.6067783E-006  0.9446725E+02  0.7818608E-02  0.1461216E+00
          2   -1    0    0  502    0  0.00000000000E+00  0.00000000000E+00  0.16912502960E+03  0.16912502960E+03  0.00000000000E+00 0. -1.
          1   -1    0    0  501    0 -0.00000000000E+00 -0.00000000000E+00 -0.47515941886E+03  0.47515941886E+03  0.00000000000E+00 0. -1.
         25    2    1    2    0    0 -0.60932425520E+02  0.50168875452E+02  0.45218406930E+02  0.15459423281E+03  0.12499998380E+03 0.  0.
          2    1    1    2  501    0  0.60535272251E+02 -0.73721463357E+02 -0.41285818242E+03  0.42373488425E+03  0.00000000000E+00 0. -1.
          1    1    1    2  502    0  0.39715326918E+00  0.23552587905E+02  0.61605386228E+02  0.65955331399E+02  0.00000000000E+00 0. -1.
         22    1    3    3    0    0 -0.67323107442E+02  0.86908939822E+02  0.27578120429E+02  0.11334071353E+03  0.00000000000E+00 0. -1.
         22    1    3    3    0    0  0.63906819222E+01 -0.36740064370E+02  0.17640286500E+02  0.41253519282E+02  0.00000000000E+00 0. -1.
</event>
<event>
 7    1  0.6067783E-006  0.6196679E+02  0.7818608E-02  0.1437083E+00
          2   -1    0    0  502    0  0.00000000000E+00  0.00000000000E+00  0.77691543791E+02  0.77691543791E+02  0.00000000000E+00 0. -1.
          1   -1    0    0  501    0 -0.00000000000E+00 -0.00000000000E+00 -0.12801585712E+04  0.12801585712E+04  0.00000000000E+00 0. -1.
         25    2    1    2    0    0 -0.17832319146E+02  0.26987688669E+02 -0.12256240188E+03  0.17802576408E+03  0.12500121349E+03 0.  0.
          2    1    1    2  501    0  0.60071945545E+02 -0.19443968482E+02 -0.11195951161E+04  0.11213741260E+04  0.00000000000E+00 0. -1.
          1    1    1    2  502    0 -0.42239626399E+02 -0.75437201875E+01  0.39690490540E+02  0.58450224909E+02  0.00000000000E+00 0. -1.
         22    1    3    3    0    0 -0.28501282365E+02 -0.40489791295E+02 -0.89148024182E+02  0.10197605852E+03  0.00000000000E+00 0. -1.
         22    1    3    3    0    0  0.10668963219E+02  0.67477479964E+02 -0.33414377701E+02  0.76049705559E+02  0.00000000000E+00 0. -1.
</event>
<event>
 7    1  0.6067783E-006  0.9842728E+02  0.7818608E-02  0.1376883E+00
          2   -1    0    0  502    0  0.00000000000E+00  0.00000000000E+00  0.15176000804E+03  0.15176000804E+03  0.00000000000E+00 0. -1.
          1   -1    0    0  501    0 -0.00000000000E+00 -0.00000000000E+00 -0.56167319841E+03  0.56167319841E+03  0.00000000000E+00 0. -1.
         25    2    1    2    0    0 -0.26380714733E+02  0.75153135248E+02 -0.23504963403E+03  0.27788055600E+03  0.12500134839E+03 0.  0.
          2    1    1    2  501    0 -0.43217576591E+02 -0.28191423159E+01 -0.28399394249E+03  0.28727733266E+03  0.00000000000E+00 0. -1.
          1    1    1    2  502    0  0.69598291323E+02 -0.72333992932E+02  0.10913038614E+03  0.14827531780E+03  0.00000000000E+00 0. -1.
         22    1    3    3    0    0 -0.53854629414E+02  0.57478407486E+02 -0.23207485196E+03  0.24507718243E+03  0.00000000000E+00 0. -1.
         22    1    3    3    0    0  0.27473914681E+02  0.17674727763E+02 -0.29747820691E+01  0.32803373573E+02  0.00000000000E+00 0. -1.
</event>
<event>
 7    1  0.6067783E-006  0.1159122E+03  0.7818608E-02  0.1306544E+00
          2   -1    0    0  502    0  0.00000000000E+00  0.00000000000E+00  0.26849742227E+04  0.26849742227E+04  0.00000000000E+00 0. -1.
          1   -1    0    0  501    0 -0.00000000000E+00 -0.00000000000E+00 -0.11284529942E+04  0.11284529942E+04  0.00000000000E+00 0. -1.
         25    2    1    2    0    0  0.17341745716E+02 -0.15374251774E+03  0.11001674291E+04  0.11180021601E+04  0.12499184056E+03 0.  0.
          2    1    1    2  501    0 -0.47177609194E+02  0.48357688895E+02 -0.11166103680E+04  0.11186522725E+04  0.00000000000E+00 0. -1.
          1    1    1    2  502    0  0.29835863478E+02  0.10538482884E+03  0.15729641675E+04  0.15767727843E+04  0.00000000000E+00 0. -1.
         22    1    3    3    0    0 -0.39880360438E+02 -0.13148742489E+03  0.74394493717E+03  0.75652723387E+03  0.00000000000E+00 0.  1.
         22    1    3    3    0    0  0.57222106154E+02 -0.22255092852E+02  0.35622249189E+03  0.36147492626E+03  0.00000000000E+00 0.  1.
</event>
<event>
 7    1  0.6067783E-006  0.4494784E+02  0.7818608E-02  0.1496156E+00
          2   -1    0    0  502    0  0.00000000000E+00  0.00000000000E+00  0.74177951892E+03  0.74177951892E+03  0.00000000000E+00 0. -1.
          1   -1    0    0  501    0 -0.00000000000E+00 -0.00000000000E+00 -0.46492377847E+03  0.46492377847E+03  0.00000000000E+00 0. -1.
         25    2    1    2    0    0 -0.16304178495E+02  0.34601269379E+02  0.12695140414E+03  0.18222210640E+03  0.12500065187E+03 0.  0.
          2    1    1    2  501    0 -0.22063916524E+02 -0.39355790214E+02 -0.43548526301E+03  0.43781629587E+03  0.00000000000E+00 0. -1.
          1    1    1    2  502    0  0.38368095019E+02  0.47545208353E+01  0.58538959931E+03  0.58666489512E+03  0.00000000000E+00 0. -1.
         22    1    3    3    0    0 -0.49365786369E+02  0.61639623534E+02  0.11185377229E+03  0.13692220576E+03  0.00000000000E+00 0.  1.
         22    1    3    3    0    0  0.33061607874E+02 -0.27038354155E+02  0.15097631843E+02  0.45299900639E+02  0.00000000000E+00 0.  1.
</event>
<event>
 7    1  0.6067783E-006  0.1541815E+03  0.7818608E-02  0.1264730E+00
          2   -1    0    0  502    0  0.00000000000E+00  0.00000000000E+00  0.42274953715E+03  0.42274953715E+03  0.00000000000E+00 0. -1.
          1   -1    0    0  501    0 -0.00000000000E+00 -0.00000000000E+00 -0.66373578509E+03  0.66373578509E+03  0.00000000000E+00 0. -1.
         25    2    1    2    0    0 -0.10931990985E+02  0.11601789701E+03 -0.46244771532E+03  0.49301341687E+03  0.12499871580E+03 0.  0.
          2    1    1    2  501    0 -0.73911375441E+02  0.14645638048E+02 -0.16249376164E+03  0.17911339622E+03  0.00000000000E+00 0. -1.
          1    1    1    2  502    0  0.84843366426E+02 -0.13066353506E+03  0.38395522902E+03  0.41435850916E+03  0.00000000000E+00 0. -1.
         22    1    3    3    0    0  0.55257743805E+02  0.67335324126E+02 -0.20397973297E+03  0.22179989988E+03  0.00000000000E+00 0.  1.
         22    1    3    3    0    0 -0.66189734791E+02  0.48682572884E+02 -0.25846798235E+03  0.27121351699E+03  0.00000000000E+00 0.  1.
</event>
<event>
 7    1  0.6067783E-006  0.6399679E+02  0.7818608E-02  0.1447849E+00
          2   -1    0    0  502    0  0.00000000000E+00  0.00000000000E+00  0.25667535635E+04  0.25667535635E+04  0.00000000000E+00 0. -1.
          1   -1    0    0  501    0 -0.00000000000E+00 -0.00000000000E+00 -0.53769542302E+03  0.53769542302E+03  0.00000000000E+00 0. -1.
         25    2    1    2    0    0  0.93552463657E+02 -0.29579891443E+02 -0.78087931515E+02  0.17705915884E+03  0.12500074899E+03 0.  0.
          2    1    1    2  501    0 -0.55208898892E+02  0.29142742012E+02 -0.40759914989E+03  0.41235226314E+03  0.00000000000E+00 0. -1.
          1    1    1    2  502    0 -0.38343564765E+02  0.43714943081E+00  0.25147452219E+04  0.25150375645E+04  0.00000000000E+00 0. -1.
         22    1    3    3    0    0 -0.10611089773E+02  0.28605268156E+02 -0.42942852739E+02  0.52677748565E+02  0.00000000000E+00 0.  1.
         22    1    3    3    0    0  0.10416355343E+03 -0.58185159599E+02 -0.35145078776E+02  0.12438141028E+03  0.00000000000E+00 0.  1.
</event>
<event>
 7    1  0.6067783E-006  0.7432572E+02  0.7818608E-02  0.1375583E+00
          2   -1    0    0  502    0  0.00000000000E+00  0.00000000000E+00  0.12067196936E+04  0.12067196936E+04  0.00000000000E+00 0. -1.
          1   -1    0    0  501    0 -0.00000000000E+00 -0.00000000000E+00 -0.18511468256E+03  0.18511468256E+03  0.00000000000E+00 0. -1.
         25    2    1    2    0    0 -0.77657054335E+02 -0.68990350219E+02  0.79904165189E+02  0.18110807510E+03  0.12500069096E+03 0.  0.
          2    1    1    2  501    0  0.45227291576E+01  0.57791339132E+02 -0.12692836910E+03  0.13953890082E+03  0.00000000000E+00 0. -1.
          1    1    1    2  502    0  0.73134325177E+02  0.11199011087E+02  0.10686292150E+04  0.10711874003E+04  0.00000000000E+00 0. -1.
         22    1    3    3    0    0 -0.10566417713E+03 -0.46326212990E+02  0.86858882599E+02  0.14441434079E+03  0.00000000000E+00 0.  1.
         22    1    3    3    0    0  0.28007122796E+02 -0.22664137229E+02 -0.69547174099E+01  0.36693734314E+02  0.00000000000E+00 0.  1.
</event>
<event>
 7    1  0.6067783E-006  0.9068235E+02  0.7818608E-02  0.1324424E+00
          2   -1    0    0  502    0  0.00000000000E+00  0.00000000000E+00  0.47068337113E+03  0.47068337113E+03  0.00000000000E+00 0. -1.
          1   -1    0    0  501    0 -0.00000000000E+00 -0.00000000000E+00 -0.14680021884E+04  0.14680021884E+04  0.00000000000E+00 0. -1.
         25    2    1    2    0    0  0.72428763376E+02 -0.13061649392E+03 -0.55217400060E+02  0.20243741522E+03  0.12500140625E+03 0.  0.
          2    1    1    2  501    0 -0.11889914938E+02  0.88894495642E+02 -0.13342529408E+04  0.13372638152E+04  0.00000000000E+00 0. -1.
          1    1    1    2  502    0 -0.60538848438E+02  0.41721998282E+02  0.39215152365E+03  0.39898432903E+03  0.00000000000E+00 0. -1.
         22    1    3    3    0    0 -0.26966248293E+02 -0.34833703918E+02  0.16305660883E+02  0.46972758621E+02  0.00000000000E+00 0.  1.
         22    1    3    3    0    0  0.99395011668E+02 -0.95782790005E+02 -0.71523060943E+02  0.15546465660E+03  0.00000000000E+00 0.  1.
</event>
<event>
 7    1  0.6067783E-006  0.1391097E+03  0.7818608E-02  0.1252809E+00
          2   -1    0    0  502    0  0.00000000000E+00  0.00000000000E+00  0.77839048158E+03  0.77839048158E+03  0.00000000000E+00 0. -1.
          1   -1    0    0  501    0 -0.00000000000E+00 -0.00000000000E+00 -0.15340663224E+03  0.15340663224E+03  0.00000000000E+00 0. -1.
         25    2    1    2    0    0  0.46799379815E+02  0.37915659741E+02  0.46728867907E+03  0.48745600836E+03  0.12500748496E+03 0.  0.
          2    1    1    2  501    0 -0.14070623291E+03 -0.39111668718E+02 -0.95362317227E+02  0.17441885837E+03  0.00000000000E+00 0. -1.
          1    1    1    2  502    0  0.93906853095E+02  0.11960089770E+01  0.25305748749E+03  0.26992224709E+03  0.00000000000E+00 0. -1.
         22    1    3    3    0    0 -0.23237039096E+00  0.70446585222E+02  0.15898638605E+03  0.17389492896E+03  0.00000000000E+00 0. -1.
         22    1    3    3    0    0  0.47031750206E+02 -0.32530925481E+02  0.30830229301E+03  0.31356107940E+03  0.00000000000E+00 0. -1.
</event>
<event>
 7    1  0.6067783E-006  0.5930931E+02  0.7818608E-02  0.1485658E+00
          2   -1    0    0  502    0  0.00000000000E+00  0.00000000000E+00  0.24724171176E+04  0.24724171176E+04  0.00000000000E+00 0. -1.
          1   -1    0    0  501    0 -0.00000000000E+00 -0.00000000000E+00 -0.19410518765E+03  0.19410518765E+03  0.00000000000E+00 0. -1.
         25    2    1    2    0    0  0.87607273032E+02  0.11499571269E+02  0.36559104759E+03  0.39634809050E+03  0.12501088088E+03 0.  0.
          2    1    1    2  501    0 -0.56525725960E+02 -0.16738840754E+02 -0.17374313147E+03  0.18347212927E+03  0.00000000000E+00 0. -1.
          1    1    1    2  502    0 -0.31081547072E+02  0.52392694850E+01  0.20864640139E+04  0.20867020855E+04  0.00000000000E+00 0. -1.
         22    1    3    3    0    0  0.14240101855E+01 -0.41358525589E+02  0.18314445776E+03  0.18776167833E+03  0.00000000000E+00 0.  1.
         22    1    3    3    0    0  0.86183262846E+02  0.52858096858E+02  0.18244658983E+03  0.20858641217E+03  0.00000000000E+00 0.  1.
</event>
<event>
 7    1  0.6067783E-006  0.5917735E+02  0.7818608E-02  0.1424998E+00
          2   -1    0    0  502    0  0.00000000000E+00  0.00000000000E+00  0.15860927496E+04  0.15860927496E+04  0.00000000000E+00 0. -1.
          1   -1    0    0  501    0 -0.00000000000E+00 -0.00000000000E+00 -0.54797019270E+03  0.54797019270E+03  0.00000000000E+00 0. -1.
         25    2    1    2    0    0  0.60627794266E+02 -0.19927403203E+01  0.33641237246E+03  0.36397339204E+03  0.12499458117E+03 0.  0.
          2    1    1    2  501    0 -0.21974632397E+02 -0.44058297917E+02 -0.53232181581E+03  0.53459380250E+03  0.00000000000E+00 0. -1.
          1    1    1    2  502    0 -0.38653161869E+02  0.46051038238E+02  0.12340320003E+04  0.12354957478E+04  0.00000000000E+00 0. -1.
         22    1    3    3    0    0 -0.27635529088E+02  0.14931224601E+02  0.18696199567E+03  0.18958230867E+03  0.00000000000E+00 0. -1.
         22    1    3    3    0    0  0.88263323354E+02 -0.16923964921E+02  0.14945037679E+03  0.17439108337E+03  0.00000000000E+00 0. -1.
</event>
<event>
 7    1  0.6067783E-006  0.1042071E+03  0.7818608E-02  0.1391847E+00
          2   -1    0    0  502    0  0.00000000000E+00  0.00000000000E+00  0.76524639256E+03  0.76524639256E+03  0.00000000000E+00 0. -1.
          1   -1    0    0  501    0 -0.00000000000E+00 -0.00000000000E+00 -0.36448548601E+03  0.36448548601E+03  0.00000000000E+00 0. -1.
         25    2    1    2    0    0  0.73566627731E+02 -0.15152019873E+02  0.13634447584E+03  0.19963886740E+03  0.12499691542E+03 0.  0.
          2    1    1    2  501    0 -0.10573901941E+03 -0.15213710060E+01 -0.32386695321E+03  0.34069467002E+03  0.00000000000E+00 0. -1.
          1    1    1    2  502    0  0.32172391680E+02  0.16673390879E+02  0.58828338392E+03  0.58939834115E+03  0.00000000000E+00 0. -1.
         22    1    3    3    0    0  0.20479819569E+02  0.47756889291E+01 -0.22607219765E+02  0.30875825492E+02  0.00000000000E+00 0. -1.
         22    1    3    3    0    0  0.53086808162E+02 -0.19927708802E+02  0.15895169561E+03  0.16876304191E+03  0.00000000000E+00 0. -1.
</event>
<event>
 7    1  0.6067783E-006  0.1205992E+03  0.7818608E-02  0.1333489E+00
          2   -1    0    0  502    0  0.00000000000E+00  0.00000000000E+00  0.99632165428E+03  0.99632165428E+03  0.00000000000E+00 0. -1.
          1   -1    0    0  501    0 -0.00000000000E+00 -0.00000000000E+00 -0.15051397461E+04  0.15051397461E+04  0.00000000000E+00 0. -1.
         25    2    1    2    0    0 -0.12019694400E+03 -0.60325888721E+02  0.90462356267E+02  0.20468337046E+03  0.12500130417E+03 0.  0.
          2    1    1    2  501    0  0.41105476562E+02 -0.30257044065E+02 -0.14433164462E+04  0.14442186513E+04  0.00000000000E+00 0. -1.
          1    1    1    2  502    0  0.79091467436E+02  0.90582932786E+02  0.84403599812E+03  0.85255937861E+03  0.00000000000E+00 0. -1.
         22    1    3    3    0    0 -0.56102428409E+02 -0.71445612391E+01 -0.25396609305E+02  0.61996088529E+02  0.00000000000E+00 0. -1.
         22    1    3    3    0    0 -0.64094515588E+02 -0.53181327482E+02  0.11585896557E+03  0.14268728193E+03  0.00000000000E+00 0. -1.
</event>
<event>
 7    1  0.6067783E-006  0.4773317E+02  0.7818608E-02  0.1541035E+00
          2   -1    0    0  502    0  0.00000000000E+00  0.00000000000E+00  0.10999399512E+04  0.10999399512E+04  0.00000000000E+00 0. -1.
          1   -1    0    0  501    0 -0.00000000000E+00 -0.00000000000E+00 -0.21057199279E+03  0.21057199279E+03  0.00000000000E+00 0. -1.
         25    2    1    2    0    0  0.20042449590E+02  0.29518557095E+02  0.60994748350E+03  0.62364339378E+03  0.12498841935E+03 0.  0.
          2    1    1    2  501    0 -0.25433435463E+00 -0.47814930005E+02 -0.20053511618E+03  0.20615689423E+03  0.00000000000E+00 0. -1.
          1    1    1    2  502    0 -0.19788115235E+02  0.18296372910E+02  0.47995559106E+03  0.48071165594E+03  0.00000000000E+00 0. -1.
         22    1    3    3    0    0  0.28916681106E+01  0.74604069649E+02  0.46300493568E+03  0.46898582006E+03  0.00000000000E+00 0. -1.
         22    1    3    3    0    0  0.17150781479E+02 -0.45085512555E+02  0.14694254783E+03  0.15465757372E+03  0.00000000000E+00 0. -1.
</event>
<event>
 7    1  0.6067783E-006  0.8194412E+02  0.7818608E-02  0.1452698E+00
          2   -1    0    0  502    0  0.00000000000E+00  0.00000000000E+00  0.13951625937E+03  0.13951625937E+03  0.00000000000E+00 0. -1.
          1   -1    0    0  501    0 -0.00000000000E+00 -0.00000000000E+00 -0.49674894402E+03  0.49674894402E+03  0.00000000000E+00 0. -1.
         25    2    1    2    0    0  0.40403342451E+02 -0.48915212717E+02 -0.21293202960E+03  0.25493416844E+03  0.12500501148E+03 0.  0.
          2    1    1    2  501    0  0.28781728997E+02  0.25783692933E+01 -0.24724363661E+03  0.24892659914E+03  0.00000000000E+00 0. -1.
          1    1    1    2  502    0 -0.69185071448E+02  0.46336843424E+02  0.10294298157E+03  0.13240443582E+03  0.00000000000E+00 0. -1.
         22    1    3    3    0    0 -0.24897409248E+02 -0.65011192790E+02 -0.13575862019E+03  0.15256716269E+03  0.00000000000E+00 0. -1.
         22    1    3    3    0    0  0.65300751699E+02  0.16095980073E+02 -0.77173409405E+02  0.10236700575E+03  0.00000000000E+00 0. -1.
</event>
<event>
 7    1  0.6067783E-006  0.7059632E+02  0.7818608E-02  0.1464808E+00
          2   -1    0    0  502    0  0.00000000000E+00  0.00000000000E+00  0.57429170597E+03  0.57429170597E+03  0.00000000000E+00 0. -1.
          1   -1    0    0  501    0 -0.00000000000E+00 -0.00000000000E+00 -0.14978147516E+04  0.14978147516E+04  0.00000000000E+00 0. -1.
         25    2    1    2    0    0  0.60865355466E+02  0.75659813713E+02 -0.72795861006E+02  0.17422453055E+03  0.12500380298E+03 0.  0.
          2    1    1    2  501    0 -0.79322331725E+01 -0.29670662841E+02 -0.13717841498E+04  0.13721279176E+04  0.00000000000E+00 0. -1.
          1    1    1    2  502    0 -0.52933122294E+02 -0.45989150872E+02  0.52105696520E+03  0.52575400942E+03  0.00000000000E+00 0. -1.
         22    1    3    3    0    0 -0.30623927282E+02  0.49604335224E+02 -0.73469610965E+01  0.58757066235E+02  0.00000000000E+00 0.  1.
         22    1    3    3    0    0  0.91489282748E+02  0.26055478489E+02 -0.65448899909E+02  0.11546746432E+03  0.00000000000E+00 0.  1.
</event>
<event>
 7    1  0.6067783E-006  0.7332138E+02  0.7818608E-02  0.1422373E+00
          2   -1    0    0  502    0  0.00000000000E+00  0.00000000000E+00  0.60051218373E+03  0.60051218373E+03  0.00000000000E+00 0. -1.
          1   -1    0    0  501    0 -0.00000000000E+00 -0.00000000000E+00 -0.85740523473E+03  0.85740523473E+03  0.00000000000E+00 0. -1.
         25    2    1    2    0    0 -0.91485480209E+02 -0.80785964452E+01  0.11463695285E+03  0.19287356804E+03  0.12499490182E+03 0.  0.
          2    1    1    2  501    0  0.68659767971E+02 -0.25428052355E+02 -0.81572409235E+03  0.81900338487E+03  0.00000000000E+00 0. -1.
          1    1    1    2  502    0  0.22825712239E+02  0.33506648800E+02  0.44419408850E+03  0.44604046556E+03  0.00000000000E+00 0. -1.
         22    1    3    3    0    0 -0.62496750921E+02 -0.62278015039E+02  0.91742126598E+02  0.12728319931E+03  0.00000000000E+00 0.  1.
         22    1    3    3    0    0 -0.28988729289E+02  0.54199418594E+02  0.22894826249E+02  0.65590368734E+02  0.00000000000E+00 0.  1.
</event>
<event>
 7    1  0.6067783E-006  0.6071366E+02  0.7818608E-02  0.1444400E+00
          2   -1    0    0  502    0  0.00000000000E+00  0.00000000000E+00  0.18801069833E+03  0.18801069833E+03  0.00000000000E+00 0. -1.
          1   -1    0    0  501    0 -0.00000000000E+00 -0.00000000000E+00 -0.54417112196E+03  0.54417112196E+03  0.00000000000E+00 0. -1.
         25    2    1    2    0    0  0.21351795579E+02  0.33764771474E+02 -0.12467633607E+03  0.18100525368E+03  0.12499101615E+03 0.  0.
          2    1    1    2  501    0  0.81526398909E+01 -0.62900388232E+02 -0.38600882097E+03  0.39118503836E+03  0.00000000000E+00 0. -1.
          1    1    1    2  502    0 -0.29504435470E+02  0.29135616758E+02  0.15452473340E+03  0.15999152824E+03  0.00000000000E+00 0. -1.
         22    1    3    3    0    0  0.59351488615E+02  0.60456497343E+02 -0.77853133863E+02  0.11505953991E+03  0.00000000000E+00 0.  1.
         22    1    3    3    0    0 -0.37999693036E+02 -0.26691725869E+02 -0.46823202204E+02  0.65945713775E+02  0.00000000000E+00 0.  1.
</event>
<event>
 7    1  0.6067783E-006  0.1187938E+03  0.7818608E-02  0.1406167E+00
          2   -1    0    0  502    0  0.00000000000E+00  0.00000000000E+00  0.48757156174E+03  0.48757156174E+03  0.00000000000E+00 0. -1.
          1   -1    0    0  501    0 -0.00000000000E+00 -0.00000000000E+00 -0.16264557204E+03  0.16264557204E+03  0.00000000000E+00 0. -1.
         25    2    1    2    0    0  0.11736618101E+03  0.10072476143E+02  0.75325934916E+02  0.18755308382E+03  0.12500355019E+03 0.  0.
          2    1    1    2  501    0 -0.11348894923E+03 -0.38180926184E+02 -0.72063001435E+02  0.13975192627E+03  0.00000000000E+00 0. -1.
          1    1    1    2  502    0 -0.38772317813E+01  0.28108450040E+02  0.32166305622E+03  0.32291212369E+03  0.00000000000E+00 0. -1.
         22    1    3    3    0    0  0.14552682201E+02  0.52900652506E+02  0.34017301768E+01  0.54971186662E+02  0.00000000000E+00 0. -1.
         22    1    3    3    0    0  0.10281349881E+03 -0.42828176363E+02  0.71924204739E+02  0.13258189716E+03  0.00000000000E+00 0. -1.
</event>
<event>
 7    1  0.6067783E-006  0.1723677E+03  0.7818608E-02  0.1207838E+00
          2   -1    0    0  502    0  0.00000000000E+00  0.00000000000E+00  0.59951898660E+03  0.59951898660E+03  0.00000000000E+00 0. -1.
          1   -1    0    0  501    0 -0.00000000000E+00 -0.00000000000E+00 -0.45218851680E+03  0.45218851680E+03  0.00000000000E+00 0. -1.
         25    2    1    2    0    0  0.81503708972E+01  0.12347004798E+03 -0.55065126759E+01  0.17599674263E+03  0.12503299740E+03 0.  0.
          2    1    1    2  501    0 -0.11734796350E+03  0.27683502849E+02 -0.33362023152E+03  0.35473846669E+03  0.00000000000E+00 0. -1.
          1    1    1    2  502    0  0.10919759260E+03 -0.15115355083E+03  0.48645721399E+03  0.52097229408E+03  0.00000000000E+00 0. -1.
         22    1    3    3    0    0  0.26337480129E+02  0.17992446692E+02  0.46981198998E+02  0.56785773366E+02  0.00000000000E+00 0.  1.
         22    1    3    3    0    0 -0.18187109232E+02  0.10547760129E+03 -0.52487711674E+02  0.11921096926E+03  0.00000000000E+00 0.  1.
</event>
<event>
 7    1  0.6067783E-006  0.1708604E+03  0.7818608E-02  0.1304209E+00
          2   -1    0    0  502    0  0.00000000000E+00  0.00000000000E+00  0.14026700229E+04  0.14026700229E+04  0.00000000000E+00 0. -1.
          1   -1    0    0  501    0 -0.00000000000E+00 -0.00000000000E+00 -0.23663357537E+04  0.23663357537E+04  0.00000000000E+00 0. -1.
         25    2    1    2    0    0 -0.34083863367E+02 -0.18131630867E+03  0.13876072288E+03  0.26252073379E+03  0.12500113571E+03 0.  0.
          2    1    1    2  501    0 -0.38027963346E+02  0.27314728460E+02 -0.22982019867E+04  0.22986788797E+04  0.00000000000E+00 0. -1.
          1    1    1    2  502    0  0.72111826712E+02  0.15400158021E+03  0.11957755331E+04  0.12078061631E+04  0.00000000000E+00 0. -1.
         22    1    3    3    0    0 -0.52698451223E+02 -0.17742512719E+02  0.18345264691E+02  0.58553157519E+02  0.00000000000E+00 0. -1.
         22    1    3    3    0    0  0.18614587856E+02 -0.16357379595E+03  0.12041545819E+03  0.20396757628E+03  0.00000000000E+00 0. -1.
</event>
<event>
 7    1  0.6067783E-006  0.1329908E+03  0.7818608E-02  0.1245413E+00
          2   -1    0    0  502    0  0.00000000000E+00  0.00000000000E+00  0.27552966603E+03  0.27552966603E+03  0.00000000000E+00 0. -1.
          1   -1    0    0  501    0 -0.00000000000E+00 -0.00000000000E+00 -0.67269043586E+03  0.67269043586E+03  0.00000000000E+00 0. -1.
         25    2    1    2    0    0  0.65666628872E+02 -0.71711065836E+02 -0.29696572451E+02  0.16112536755E+03  0.12499965817E+03 0.  0.
          2    1    1    2  501    0  0.84367769784E+02  0.63806047119E+02 -0.54462628822E+03  0.55480350219E+03  0.00000000000E+00 0. -1.
          1    1    1    2  502    0 -0.15003439866E+03  0.79050187175E+01  0.17716209084E+03  0.23229123215E+03  0.00000000000E+00 0. -1.
         22    1    3    3    0    0  0.71632416422E+02 -0.13541735812E+02 -0.60769238529E+02  0.94907755440E+02  0.00000000000E+00 0. -1.
         22    1    3    3    0    0 -0.59657875500E+01 -0.58169330024E+02  0.31072666078E+02  0.66217612111E+02  0.00000000000E+00 0. -1.
</event>
<event>
 7    1  0.6067783E-006  0.1549479E+03  0.7818608E-02  0.1289355E+00
          2   -1    0    0  502    0  0.00000000000E+00  0.00000000000E+00  0.25185475939E+03  0.25185475939E+03  0.00000000000E+00 0. -1.
          1   -1    0    0  501    0 -0.00000000000E+00 -0.00000000000E+00 -0.11202398375E+04  0.11202398375E+04  0.00000000000E+00 0. -1.
         25    2    1    2    0    0  0.13883199110E+03 -0.11913690906E+01 -0.52967304840E+03  0.56165290376E+03  0.12499881997E+03 0.  0.
          2    1    1    2  501    0  0.52868528568E+01 -0.59010460694E+02 -0.54694407378E+03  0.55014362227E+03  0.00000000000E+00 0. -1.
          1    1    1    2  502    0 -0.14411884396E+03  0.60201829785E+02  0.20823204409E+03  0.26029807083E+03  0.00000000000E+00 0. -1.
         22    1    3    3    0    0  0.98814136871E+02 -0.59771317167E+02 -0.34540420350E+03  0.36419899477E+03  0.00000000000E+00 0. -1.
         22    1    3    3    0    0  0.40017854229E+02  0.58579948076E+02 -0.18426884490E+03  0.19745390899E+03  0.00000000000E+00 0. -1.
</event>
<event>
 7    1  0.8325805E-006  0.1110184E+03  0.7818608E-02  0.1340722E+00
          2   -1    0    0  502    0  0.00000000000E+00  0.00000000000E+00  0.13924460668E+04  0.13924460668E+04  0.00000000000E+00 0. -1.
          1   -1    0    0  501    0 -0.00000000000E+00 -0.00000000000E+00 -0.29814135095E+04  0.29814135095E+04  0.00000000000E+00 0. -1.
         25    2    1    2    0    0 -0.95491164417E+02  0.47278372489E+02 -0.78333642635E+03  0.80037006635E+03  0.12498991672E+03 0.  0.
          2    1    1    2  501    0  0.67591719597E+02 -0.91235370030E+02 -0.21875977102E+04  0.21905424613E+04  0.00000000000E+00 0. -1.
          1    1    1    2  502    0  0.27899444820E+02  0.43956997541E+02  0.13819666938E+04  0.13829470487E+04  0.00000000000E+00 0. -1.
         22    1    3    3    0    0 -0.15519277838E+02  0.75286517723E+02 -0.30182585465E+03  0.31146067853E+03  0.00000000000E+00 0.  1.
         22    1    3    3    0    0 -0.79971886579E+02 -0.28008145234E+02 -0.48151057170E+03  0.48890938782E+03  0.00000000000E+00 0.  1.
</event>
<event>
 7    1  0.6067783E-006  0.4159179E+02  0.7818608E-02  0.1535494E+00
          2   -1    0    0  502    0  0.00000000000E+00  0.00000000000E+00  0.78006674317E+01  0.78006674317E+01  0.00000000000E+00 0. -1.
          1   -1    0    0  501    0 -0.00000000000E+00 -0.00000000000E+00 -0.33031789233E+04  0.33031789233E+04  0.00000000000E+00 0. -1.
         25    2    1    2    0    0  0.42739869575E+02 -0.24003083812E+02 -0.12663051077E+04  0.12734036655E+04  0.12500169961E+03 0.  0.
          2    1    1    2  501    0 -0.14508929010E+02  0.39214878951E+02 -0.19692985996E+04  0.19697424426E+04  0.00000000000E+00 0. -1.
          1    1    1    2  502    0 -0.28230940564E+02 -0.15211795139E+02 -0.59774548485E+02  0.67833482611E+02  0.00000000000E+00 0. -1.
         22    1    3    3    0    0 -0.12586316271E+02  0.38190425103E+02 -0.20941680240E+03  0.21324239976E+03  0.00000000000E+00 0. -1.
         22    1    3    3    0    0  0.55326185846E+02 -0.62193508915E+02 -0.10568883053E+04  0.10601612657E+04  0.00000000000E+00 0. -1.
</event>
<event>
 7    1  0.6067783E-006  0.4067978E+02  0.7818608E-02  0.1557411E+00
          2   -1    0    0  502    0  0.00000000000E+00  0.00000000000E+00  0.15398382066E+04  0.15398382066E+04  0.00000000000E+00 0. -1.
          1   -1    0    0  501    0 -0.00000000000E+00 -0.00000000000E+00 -0.32253743731E+02  0.32253743731E+02  0.00000000000E+00 0. -1.
         25    2    1    2    0    0 -0.63169237768E+01 -0.47535005678E+02  0.13910071555E+03  0.19306521738E+03  0.12500275519E+03 0.  0.
          2    1    1    2  501    0 -0.19318202849E+02  0.35166479835E+02  0.73567279510E+02  0.83797487312E+02  0.00000000000E+00 0. -1.
          1    1    1    2  502    0  0.25635126626E+02  0.12368525843E+02  0.12949164678E+04  0.12952292456E+04  0.00000000000E+00 0. -1.
         22    1    3    3    0    0 -0.55123875892E+02 -0.51803720517E+02  0.47894293334E+02  0.89532845854E+02  0.00000000000E+00 0.  1.
         22    1    3    3    0    0  0.48806952115E+02  0.42687148393E+01  0.91206422215E+02  0.10353237153E+03  0.00000000000E+00 0.  1.
</event>
<event>
 7    1  0.6067783E-006  0.6556473E+02  0.7818608E-02  0.1466191E+00
          2   -1    0    0  502    0  0.00000000000E+00  0.00000000000E+00  0.36854084545E+03  0.36854084545E+03  0.00000000000E+00 0. -1.
          1   -1    0    0  501    0 -0.00000000000E+00 -0.00000000000E+00 -0.18086706716E+03  0.18086706716E+03  0.00000000000E+00 0. -1.
         25    2    1    2    0    0 -0.42308112655E+02  0.54912509547E+02  0.43311487994E+02  0.14932004606E+03  0.12496091814E+03 0.  0.
          2    1    1    2  501    0 -0.17608871712E+02 -0.27603374622E+02 -0.12168507322E+03  0.12601299813E+03  0.00000000000E+00 0. -1.
          1    1    1    2  502    0  0.59916984368E+02 -0.27309134925E+02  0.26604736352E+03  0.27407486842E+03  0.00000000000E+00 0. -1.
         22    1    3    3    0    0 -0.27471774257E+02  0.95041996916E+02  0.21275881805E+02  0.10119457844E+03  0.00000000000E+00 0. -1.
         22    1    3    3    0    0 -0.14836338398E+02 -0.40129487370E+02  0.22035606189E+02  0.48125467621E+02  0.00000000000E+00 0. -1.
</event>
<event>
 7    1  0.6067783E-006  0.3695982E+02  0.7818608E-02  0.1541026E+00
          2   -1    0    0  502    0  0.00000000000E+00  0.00000000000E+00  0.11155635616E+04  0.11155635616E+04  0.00000000000E+00 0. -1.
          1   -1    0    0  501    0 -0.00000000000E+00 -0.00000000000E+00 -0.63593624139E+03  0.63593624139E+03  0.00000000000E+00 0. -1.
         25    2    1    2    0    0  0.65224076618E+02 -0.17571124354E+02  0.30358182574E+02  0.14528764616E+03  0.12499582511E+03 0.  0.
          2    1    1    2  501    0 -0.36702550268E+02 -0.23822875884E+01 -0.57759169185E+03  0.57876153551E+03  0.00000000000E+00 0. -1.
          1    1    1    2  502    0 -0.28521526350E+02  0.19953411942E+02  0.10268608294E+04  0.10274506213E+04  0.00000000000E+00 0. -1.
         22    1    3    3    0    0 -0.49108082960E+01 -0.59931076515E+02  0.13860365218E+02  0.61708667903E+02  0.00000000000E+00 0. -1.
         22    1    3    3    0    0  0.70134884914E+02  0.42359952161E+02  0.16497817356E+02  0.83578978257E+02  0.00000000000E+00 0. -1.
</event>
<event>
 7    1  0.6067783E-006  0.1269620E+03  0.7818608E-02  0.1237062E+00
          2   -1    0    0  502    0  0.00000000000E+00  0.00000000000E+00  0.24237211158E+04  0.24237211158E+04  0.00000000000E+00 0. -1.
          1   -1    0    0  501    0 -0.00000000000E+00 -0.00000000000E+00 -0.23711174147E+04  0.23711174147E+04  0.00000000000E+00 0. -1.
         25    2    1    2    0    0 -0.11809930580E+03 -0.19119551393E+03  0.40688636639E+03  0.48133560217E+03  0.12499710468E+03 0.  0.
          2    1    1    2  501    0  0.18733011126E+02  0.11912368926E+03 -0.23304294926E+04  0.23335472995E+04  0.00000000000E+00 0. -1.
          1    1    1    2  502    0  0.99366294671E+02  0.72071824665E+02  0.19761468274E+04  0.19799556287E+04  0.00000000000E+00 0. -1.
         22    1    3    3    0    0 -0.87241093027E+01  0.70293037205E+01  0.96529884091E+02  0.97177876683E+02  0.00000000000E+00 0.  1.
         22    1    3    3    0    0 -0.10937519649E+03 -0.19822481765E+03  0.31035648230E+03  0.38415772548E+03  0.00000000000E+00 0.  1.
</event>
<event>
 7    1  0.6067783E-006  0.4912869E+02  0.7818608E-02  0.1490274E+00
          2   -1    0    0  502    0  0.00000000000E+00  0.00000000000E+00  0.53084820126E+03  0.53084820126E+03  0.00000000000E+00 0. -1.
          1   -1    0    0  501    0 -0.00000000000E+00 -0.00000000000E+00 -0.10418797497E+03  0.10418797497E+03  0.00000000000E+00 0. -1.
         25    2    1    2    0    0 -0.41841245299E+02  0.51151586348E+02  0.68953163920E+02  0.15731326816E+03  0.12500300369E+03 0.  0.
          2    1    1    2  501    0  0.36759107129E+02 -0.25019321784E+01 -0.52760090347E+02  0.64351524884E+02  0.00000000000E+00 0. -1.
          1    1    1    2  502    0  0.50821381695E+01 -0.48649654170E+02  0.41046715271E+03  0.41337138318E+03  0.00000000000E+00 0. -1.
         22    1    3    3    0    0 -0.77825963802E+02  0.48285443844E+02  0.77771488210E+02  0.12015310694E+03  0.00000000000E+00 0. -1.
         22    1    3    3    0    0  0.35984718504E+02  0.28661425040E+01 -0.88183242895E+01  0.37160161220E+02  0.00000000000E+00 0. -1.
</event>
<event>
 7    1  0.6067783E-006  0.6781068E+02  0.7818608E-02  0.1456900E+00
          2   -1    0    0  502    0  0.00000000000E+00  0.00000000000E+00  0.21675576771E+03  0.21675576771E+03  0.00000000000E+00 0. -1.
          1   -1    0    0  501    0 -0.00000000000E+00 -0.00000000000E+00 -0.21387992233E+04  0.21387992233E+04  0.00000000000E+00 0. -1.
         25    2    1    2    0    0  0.13024557993E+02 -0.38370227251E+02 -0.84287801424E+03  0.85305944247E+03  0.12500060817E+03 0.  0.
          2    1    1    2  501    0 -0.33165772610E+02  0.65591359004E+02 -0.12884220609E+04  0.12905167964E+04  0.00000000000E+00 0. -1.
          1    1    1    2  502    0  0.20141214617E+02 -0.27221131753E+02  0.20925661953E+03  0.21197875213E+03  0.00000000000E+00 0. -1.
         22    1    3    3    0    0  0.29237033360E+02 -0.51877861069E+02 -0.17511690851E+03  0.18496499191E+03  0.00000000000E+00 0. -1.
         22    1    3    3    0    0 -0.16212475367E+02  0.13507633817E+02 -0.66776110573E+03  0.66809445055E+03  0.00000000000E+00 0. -1.
</event>
<event>
 7    1  0.6067783E-006  0.3168259E+02  0.7818608E-02  0.1582588E+00
          2   -1    0    0  502    0  0.00000000000E+00  0.00000000000E+00  0.14359183648E+04  0.14359183648E+04  0.00000000000E+00 0. -1.
          1   -1    0    0  501    0 -0.00000000000E+00 -0.00000000000E+00 -0.20410335203E+02  0.20410335203E+02  0.00000000000E+00 0. -1.
         25    2    1    2    0    0  0.74878386839E+01  0.48876866211E+01  0.24949823383E+03  0.27919670417E+03  0.12498589413E+03 0.  0.
          2    1    1    2  501    0 -0.37816687484E+02  0.25186496952E+01  0.61903243901E+02  0.72584137758E+02  0.00000000000E+00 0. -1.
          1    1    1    2  502    0  0.30328848800E+02 -0.74063363163E+01  0.11041065518E+04  0.11045478580E+04  0.00000000000E+00 0. -1.
         22    1    3    3    0    0 -0.47937533697E+02  0.28256849103E+02  0.17391325891E+03  0.18259868095E+03  0.00000000000E+00 0. -1.
         22    1    3    3    0    0  0.55425372381E+02 -0.23369162482E+02  0.75584974913E+02  0.96598023226E+02  0.00000000000E+00 0. -1.
</event>
<event>
 7    1  0.6067783E-006  0.4965933E+02  0.7818608E-02  0.1493123E+00
          2   -1    0    0  502    0  0.00000000000E+00  0.00000000000E+00  0.10827036981E+04  0.10827036981E+04  0.00000000000E+00 0. -1.
          1   -1    0    0  501    0 -0.00000000000E+00 -0.00000000000E+00 -0.92680514554E+02  0.92680514554E+02  0.00000000000E+00 0. -1.
         25    2    1    2    0    0  0.32708898754E+02  0.14370938857E+02  0.26248182392E+03  0.29291227705E+03  0.12499799283E+03 0.  0.
          2    1    1    2  501    0 -0.46886564192E+02  0.18432209405E+02 -0.68830927420E+02  0.85298257982E+02  0.00000000000E+00 0. -1.
          1    1    1    2  502    0  0.14177665437E+02 -0.32803148262E+02  0.79637228703E+03  0.79717367761E+03  0.00000000000E+00 0. -1.
         22    1    3    3    0    0 -0.20406779146E+02 -0.37494040151E+02  0.40489483940E+02  0.58835686379E+02  0.00000000000E+00 0.  1.
         22    1    3    3    0    0  0.53115677900E+02  0.51864979008E+02  0.22199233998E+03  0.23407659067E+03  0.00000000000E+00 0.  1.
</event>
<event>
 7    1  0.6067783E-006  0.1337058E+03  0.7818608E-02  0.1275108E+00
          2   -1    0    0  502    0  0.00000000000E+00  0.00000000000E+00  0.25541523842E+04  0.25541523842E+04  0.00000000000E+00 0. -1.
          1   -1    0    0  501    0 -0.00000000000E+00 -0.00000000000E+00 -0.51446197347E+02  0.51446197347E+02  0.00000000000E+00 0. -1.
         25    2    1    2    0    0  0.60307303382E+02  0.53025761899E+02  0.17870690326E+04  0.17932342029E+04  0.12499790714E+03 0.  0.
          2    1    1    2  501    0 -0.44380276107E+02 -0.12998529468E+03  0.56436296271E+02  0.14849525675E+03  0.00000000000E+00 0. -1.
          1    1    1    2  502    0 -0.15927027275E+02  0.76959532785E+02  0.65920085796E+03  0.66386912190E+03  0.00000000000E+00 0. -1.
         22    1    3    3    0    0  0.86577642162E+02  0.72947932713E+02  0.15031189143E+04  0.15073763829E+04  0.00000000000E+00 0. -1.
         22    1    3    3    0    0 -0.26270338780E+02 -0.19922170814E+02  0.28395011827E+03  0.28585782000E+03  0.00000000000E+00 0. -1.
</event>
<event>
 7    1  0.6067783E-006  0.3276199E+02  0.7818608E-02  0.1614853E+00
          2   -1    0    0  502    0  0.00000000000E+00  0.00000000000E+00  0.23544422024E+04  0.23544422024E+04  0.00000000000E+00 0. -1.
          1   -1    0    0  501    0 -0.00000000000E+00 -0.00000000000E+00 -0.24705165799E+03  0.24705165799E+03  0.00000000000E+00 0. -1.
         25    2    1    2    0    0 -0.61343945934E+00 -0.17048434251E+02 -0.26849541202E+02  0.12898561992E+03  0.12500146745E+03 0.  0.
          2    1    1    2  501    0  0.24180203469E+02 -0.57562280225E+01 -0.16810347014E+03  0.16993114215E+03  0.00000000000E+00 0. -1.
          1    1    1    2  502    0 -0.23566764010E+02  0.22804662273E+02  0.23023435558E+04  0.23025770983E+04  0.00000000000E+00 0. -1.
         22    1    3    3    0    0  0.40049043483E+02  0.13971170191E+02  0.30425311979E+02  0.52199799707E+02  0.00000000000E+00 0. -1.
         22    1    3    3    0    0 -0.40662482942E+02 -0.31019604442E+02 -0.57274853182E+02  0.76785820213E+02  0.00000000000E+00 0. -1.
</event>
<event>
 7    1  0.6067783E-006  0.3199221E+03  0.7818608E-02  0.1240788E+00
          2   -1    0    0  502    0  0.00000000000E+00  0.00000000000E+00  0.58268884361E+03  0.58268884361E+03  0.00000000000E+00 0. -1.
          1   -1    0    0  501    0 -0.00000000000E+00 -0.00000000000E+00 -0.11466641746E+04  0.11466641746E+04  0.00000000000E+00 0. -1.
         25    2    1    2    0    0 -0.25189831504E+03 -0.14962584810E+03  0.96368134669E+02  0.33279481375E+03  0.12499966054E+03 0.  0.
          2    1    1    2  501    0 -0.32079916902E+02 -0.33073013893E+02 -0.95033674571E+03  0.95145303382E+03  0.00000000000E+00 0. -1.
          1    1    1    2  502    0  0.28397823195E+03  0.18269886199E+03  0.28999328010E+03  0.44510517060E+03  0.00000000000E+00 0. -1.
         22    1    3    3    0    0 -0.23055152938E+02 -0.74011761148E+02  0.24274689325E+02  0.81231406531E+02  0.00000000000E+00 0.  1.
         22    1    3    3    0    0 -0.22884316211E+03 -0.75614086950E+02  0.72093445344E+02  0.25156340721E+03  0.00000000000E+00 0.  1.
</event>
<event>
 7    1  0.6067783E-006  0.3841694E+02  0.7818608E-02  0.1588651E+00
          2   -1    0    0  502    0  0.00000000000E+00  0.00000000000E+00  0.13037371397E+04  0.13037371397E+04  0.00000000000E+00 0. -1.
          1   -1    0    0  501    0 -0.00000000000E+00 -0.00000000000E+00 -0.26246438922E+03  0.26246438922E+03  0.00000000000E+00 0. -1.
         25    2    1    2    0    0 -0.44760668418E+02 -0.41845481094E+02  0.10330073291E+04  0.10423449727E+04  0.12499735396E+03 0.  0.
          2    1    1    2  501    0  0.22347304856E+02  0.31211579142E+02 -0.25578191503E+03  0.25864638556E+03  0.00000000000E+00 0. -1.
          1    1    1    2  502    0  0.22413363562E+02  0.10633901953E+02  0.26404733646E+03  0.26521017067E+03  0.00000000000E+00 0. -1.
         22    1    3    3    0    0 -0.42793804878E+02  0.38089666307E+02  0.51953725339E+03  0.52268641657E+03  0.00000000000E+00 0. -1.
         22    1    3    3    0    0 -0.19668635398E+01 -0.79935147402E+02  0.51347007571E+03  0.51965855616E+03  0.00000000000E+00 0. -1.
</event>
<event>
 7    1  0.6067783E-006  0.3260994E+03  0.7818608E-02  0.1151054E+00
          2   -1    0    0  502    0  0.00000000000E+00  0.00000000000E+00  0.16396646792E+04  0.16396646792E+04  0.00000000000E+00 0. -1.
          1   -1    0    0  501    0 -0.00000000000E+00 -0.00000000000E+00 -0.14838250530E+04  0.14838250530E+04  0.00000000000E+00 0. -1.
         25    2    1    2    0    0 -0.19654202075E+03  0.21092734346E+03 -0.32813533362E+03  0.45433937111E+03  0.12502942385E+03 0.  0.
          2    1    1    2  501    0  0.30735353961E+03 -0.16291234850E+03 -0.10624856711E+04  0.11179814099E+04  0.00000000000E+00 0. -1.
          1    1    1    2  502    0 -0.11081151886E+03 -0.48014994964E+02  0.15464606309E+04  0.15511689513E+04  0.00000000000E+00 0. -1.
         22    1    3    3    0    0 -0.89625594481E+02  0.12000920895E+03 -0.81378542243E+02  0.17046238458E+03  0.00000000000E+00 0. -1.
         22    1    3    3    0    0 -0.10691642627E+03  0.90918134508E+02 -0.24675679138E+03  0.28387698653E+03  0.00000000000E+00 0. -1.
</event>
<event>
 7    1  0.6067783E-006  0.9875328E+02  0.7818608E-02  0.1355181E+00
          2   -1    0    0  502    0  0.00000000000E+00  0.00000000000E+00  0.41187183933E+04  0.41187183933E+04  0.00000000000E+00 0. -1.
          1   -1    0    0  501    0 -0.00000000000E+00 -0.00000000000E+00 -0.77431928995E+02  0.77431928995E+02  0.00000000000E+00 0. -1.
         25    2    1    2    0    0 -0.70329308366E+02 -0.12043119345E+03  0.28144473459E+03  0.33804657081E+03  0.12495783864E+03 0.  0.
          2    1    1    2  501    0  0.44780458373E+02  0.25872586677E+02 -0.34711731510E+02  0.62286310678E+02  0.00000000000E+00 0. -1.
          1    1    1    2  502    0  0.25548849993E+02  0.94558606771E+02  0.37945534613E+04  0.37958174408E+04  0.00000000000E+00 0. -1.
         22    1    3    3    0    0  0.30296949660E+01 -0.10667968774E+03  0.12262046327E+03  0.16255925947E+03  0.00000000000E+00 0. -1.
         22    1    3    3    0    0 -0.73359003332E+02 -0.13751505706E+02  0.15882427133E+03  0.17548731134E+03  0.00000000000E+00 0. -1.
</event>
<event>
 7    1  0.6067783E-006  0.5921793E+02  0.7818608E-02  0.1402018E+00
          2   -1    0    0  502    0  0.00000000000E+00  0.00000000000E+00  0.23904541726E+04  0.23904541726E+04  0.00000000000E+00 0. -1.
          1   -1    0    0  501    0 -0.00000000000E+00 -0.00000000000E+00 -0.39036969444E+02  0.39036969444E+02  0.00000000000E+00 0. -1.
         25    2    1    2    0    0  0.88526248837E+02  0.77581744949E+01  0.10087652247E+04  0.10203577154E+04  0.12500201065E+03 0.  0.
          2    1    1    2  501    0 -0.47758048851E+02  0.34627935238E+02 -0.59132038720E+01  0.59286517092E+02  0.00000000000E+00 0. -1.
          1    1    1    2  502    0 -0.40768199986E+02 -0.42386109733E+02  0.13485651823E+04  0.13498469096E+04  0.00000000000E+00 0. -1.
         22    1    3    3    0    0  0.86891295785E+01 -0.16533544985E+02  0.70754372683E+03  0.70779021218E+03  0.00000000000E+00 0. -1.
         22    1    3    3    0    0  0.79837119258E+02  0.24291719480E+02  0.30122149791E+03  0.31256750319E+03  0.00000000000E+00 0. -1.
</event>
<event>
 7    1  0.6067783E-006  0.2349198E+03  0.7818608E-02  0.1324189E+00
          2   -1    0    0  502    0  0.00000000000E+00  0.00000000000E+00  0.11212936348E+03  0.11212936348E+03  0.00000000000E+00 0. -1.
          1   -1    0    0  501    0 -0.00000000000E+00 -0.00000000000E+00 -0.29881359461E+04  0.29881359461E+04  0.00000000000E+00 0. -1.
         25    2    1    2    0    0 -0.12100742304E+03 -0.22602804853E+03 -0.54596717558E+03  0.61598465183E+03  0.12500183732E+03 0.  0.
          2    1    1    2  501    0  0.97489194560E+02  0.21003598335E+03 -0.23987583950E+04  0.24099089392E+04  0.00000000000E+00 0. -1.
          1    1    1    2  502    0  0.23518228475E+02  0.15992065177E+02  0.68718987966E+02  0.74371718592E+02  0.00000000000E+00 0. -1.
         22    1    3    3    0    0  0.33767174971E+01  0.14031677058E+02 -0.20951470550E+02  0.25441192982E+02  0.00000000000E+00 0.  1.
         22    1    3    3    0    0 -0.12438414053E+03 -0.24005972558E+03 -0.52501570503E+03  0.59054345885E+03  0.00000000000E+00 0.  1.
</event>
<event>
 7    1  0.6067783E-006  0.7894641E+02  0.7818608E-02  0.1377375E+00
          2   -1    0    0  502    0  0.00000000000E+00  0.00000000000E+00  0.25241167424E+03  0.25241167424E+03  0.00000000000E+00 0. -1.
          1   -1    0    0  501    0 -0.00000000000E+00 -0.00000000000E+00 -0.23269108338E+04  0.23269108338E+04  0.00000000000E+00 0. -1.
         25    2    1    2    0    0  0.13678987625E+02  0.27061704066E+02  0.23893482214E+02  0.13081935676E+03  0.12499342016E+03 0.  0.
          2    1    1    2  501    0 -0.13109418997E+01 -0.79399456516E+02 -0.22686063104E+04  0.22699957233E+04  0.00000000000E+00 0. -1.
          1    1    1    2  502    0 -0.12368045725E+02  0.52337752450E+02  0.17021366857E+03  0.17850742801E+03  0.00000000000E+00 0. -1.
         22    1    3    3    0    0 -0.10104377169E+02  0.85673860394E+01  0.72463231397E+02  0.73664227723E+02  0.00000000000E+00 0. -1.
         22    1    3    3    0    0  0.23783364794E+02  0.18494318027E+02 -0.48569749182E+02  0.57155129042E+02  0.00000000000E+00 0. -1.
</event>
<event>
 7    1  0.6067783E-006  0.1075128E+03  0.7818608E-02  0.1308902E+00
          2   -1    0    0  502    0  0.00000000000E+00  0.00000000000E+00  0.15694500354E+03  0.15694500354E+03  0.00000000000E+00 0. -1.
          1   -1    0    0  501    0 -0.00000000000E+00 -0.00000000000E+00 -0.21555264572E+04  0.21555264572E+04  0.00000000000E+00 0. -1.
         25    2    1    2    0    0 -0.91619248173E+02  0.59991931093E+02 -0.84387848256E+03  0.86008653019E+03  0.12499931063E+03 0.  0.
          2    1    1    2  501    0 -0.15962973446E+02 -0.69479547152E+02 -0.12828318526E+04  0.12848111869E+04  0.00000000000E+00 0. -1.
          1    1    1    2  502    0  0.10758222162E+03  0.94876160586E+01  0.12812888152E+03  0.16757374360E+03  0.00000000000E+00 0. -1.
         22    1    3    3    0    0 -0.32519858652E+02 -0.39002635816E+02 -0.27275792830E+03  0.27744483101E+03  0.00000000000E+00 0. -1.
         22    1    3    3    0    0 -0.59099389521E+02  0.98994566909E+02 -0.57112055426E+03  0.58264169918E+03  0.00000000000E+00 0. -1.
</event>
<event>
 7    1  0.6067783E-006  0.4910513E+02  0.7818608E-02  0.1499036E+00
          2   -1    0    0  502    0  0.00000000000E+00  0.00000000000E+00  0.25166679589E+04  0.25166679589E+04  0.00000000000E+00 0. -1.
          1   -1    0    0  501    0 -0.00000000000E+00 -0.00000000000E+00 -0.19001450502E+03  0.19001450502E+03  0.00000000000E+00 0. -1.
         25    2    1    2    0    0 -0.15305982130E+02 -0.10365763191E+02 -0.28317028454E+02  0.12949240134E+03  0.12499882307E+03 0.  0.
          2    1    1    2  501    0 -0.54151286679E+01 -0.34267538623E+02 -0.10814993159E+03  0.11357814721E+03  0.00000000000E+00 0. -1.
          1    1    1    2  502    0  0.20721110798E+02  0.44633301814E+02  0.24631204139E+04  0.24636119154E+04  0.00000000000E+00 0. -1.
         22    1    3    3    0    0  0.28391510484E+02  0.43771154276E+02  0.48905344543E+01  0.52401423086E+02  0.00000000000E+00 0.  1.
         22    1    3    3    0    0 -0.43697492614E+02 -0.54136917467E+02 -0.33207562908E+02  0.77090978252E+02  0.00000000000E+00 0.  1.
</event>
<event>
 7    1  0.6067783E-006  0.3047161E+02  0.7818608E-02  0.1602230E+00
          2   -1    0    0  502    0  0.00000000000E+00  0.00000000000E+00  0.14344030094E+04  0.14344030094E+04  0.00000000000E+00 0. -1.
          1   -1    0    0  501    0 -0.00000000000E+00 -0.00000000000E+00 -0.57424467150E+03  0.57424467150E+03  0.00000000000E+00 0. -1.
         25    2    1    2    0    0  0.99968073307E+01  0.58320108816E+02  0.84856161100E+02  0.16223303965E+03  0.12497127601E+03 0.  0.
          2    1    1    2  501    0 -0.45969347208E+01 -0.30021682193E+02 -0.53496717147E+03  0.53582861790E+03  0.00000000000E+00 0. -1.
          1    1    1    2  502    0 -0.53998726099E+01 -0.28298426623E+02  0.13102693483E+04  0.13105860234E+04  0.00000000000E+00 0. -1.
         22    1    3    3    0    0  0.12264077851E+02 -0.27676649092E+02 -0.12111813445E+02  0.32605222518E+02  0.00000000000E+00 0.  1.
         22    1    3    3    0    0 -0.22672705206E+01  0.85996757908E+02  0.96967974545E+02  0.12962781713E+03  0.00000000000E+00 0.  1.
</event>
<event>
 7    1  0.6067783E-006  0.9003907E+02  0.7818608E-02  0.1393975E+00
          2   -1    0    0  502    0  0.00000000000E+00  0.00000000000E+00  0.28836660570E+04  0.28836660570E+04  0.00000000000E+00 0. -1.
          1   -1    0    0  501    0 -0.00000000000E+00 -0.00000000000E+00 -0.76602405590E+03  0.76602405590E+03  0.00000000000E+00 0. -1.
         25    2    1    2    0    0  0.18642923637E+02 -0.62527660682E+02  0.15760768203E+03  0.21147983070E+03  0.12500508151E+03 0.  0.
          2    1    1    2  501    0 -0.30647572460E+02 -0.27579575912E+02 -0.73774683983E+03  0.73889803517E+03  0.00000000000E+00 0. -1.
          1    1    1    2  502    0  0.12004648824E+02  0.90107236595E+02  0.26977811589E+04  0.26993122470E+04  0.00000000000E+00 0. -1.
         22    1    3    3    0    0  0.70373159363E+02 -0.19549733003E+02  0.71381408770E+02  0.10212677973E+03  0.00000000000E+00 0.  1.
         22    1    3    3    0    0 -0.51730235726E+02 -0.42977927680E+02  0.86226273260E+02  0.10935305097E+03  0.00000000000E+00 0.  1.
</event>
<event>
 7    1  0.6067783E-006  0.5502057E+02  0.7818608E-02  0.1432697E+00
          2   -1    0    0  502    0  0.00000000000E+00  0.00000000000E+00  0.15927702257E+04  0.15927702257E+04  0.00000000000E+00 0. -1.
          1   -1    0    0  501    0 -0.00000000000E+00 -0.00000000000E+00 -0.19215413238E+02  0.19215413238E+02  0.00000000000E+00 0. -1.
         25    2    1    2    0    0 -0.19062237896E+02 -0.78321706734E+01  0.10468945261E+04  0.10545320039E+04  0.12499954683E+03 0.  0.
          2    1    1    2  501    0  0.46340669712E+02 -0.34007662750E+02  0.44446272156E+02  0.72659823173E+02  0.00000000000E+00 0. -1.
          1    1    1    2  502    0 -0.27278431816E+02  0.41839833423E+02  0.48221401430E+03  0.48479381194E+03  0.00000000000E+00 0. -1.
         22    1    3    3    0    0 -0.69584469057E+02 -0.13017021511E+02  0.45641674900E+03  0.46187410617E+03  0.00000000000E+00 0.  1.
         22    1    3    3    0    0  0.50522231161E+02  0.51848508372E+01  0.59047777705E+03  0.59265789771E+03  0.00000000000E+00 0.  1.
</event>
<event>
 7    1  0.6067783E-006  0.9531589E+02  0.7818608E-02  0.1341670E+00
          2   -1    0    0  502    0  0.00000000000E+00  0.00000000000E+00  0.50991950827E+03  0.50991950827E+03  0.00000000000E+00 0. -1.
          1   -1    0    0  501    0 -0.00000000000E+00 -0.00000000000E+00 -0.16949130200E+03  0.16949130200E+03  0.00000000000E+00 0. -1.
         25    2    1    2    0    0 -0.10055672405E+02  0.52010600574E+02  0.93259295526E+02  0.16470715385E+03  0.12499972483E+03 0.  0.
          2    1    1    2  501    0 -0.49329560268E+02  0.34410651612E+02 -0.11925922330E+03  0.13356743916E+03  0.00000000000E+00 0. -1.
          1    1    1    2  502    0  0.59385232673E+02 -0.86421252186E+02  0.36642813404E+03  0.38113621726E+03  0.00000000000E+00 0. -1.
         22    1    3    3    0    0 -0.30080877860E+02  0.88740700970E+02  0.68809978938E+02  0.11625224481E+03  0.00000000000E+00 0.  1.
         22    1    3    3    0    0  0.20025205455E+02 -0.36730100396E+02  0.24449316588E+02  0.48454909041E+02  0.00000000000E+00 0.  1.
</event>
<event>
 7    1  0.6067783E-006  0.5719389E+02  0.7818608E-02  0.1531547E+00
          2   -1    0    0  502    0  0.00000000000E+00  0.00000000000E+00  0.12815529265E+03  0.12815529265E+03  0.00000000000E+00 0. -1.
          1   -1    0    0  501    0 -0.00000000000E+00 -0.00000000000E+00 -0.10933538705E+04  0.10933538705E+04  0.00000000000E+00 0. -1.
         25    2    1    2    0    0  0.90232296095E+01 -0.56579981358E+02 -0.81706211000E+02  0.15994870143E+03  0.12499987684E+03 0.  0.
          2    1    1    2  501    0 -0.23911930275E+02  0.99612526614E+00 -0.96306452710E+03  0.96336185104E+03  0.00000000000E+00 0. -1.
          1    1    1    2  502    0  0.14888700666E+02  0.55583856092E+02  0.79572160217E+02  0.98198610719E+02  0.00000000000E+00 0. -1.
         22    1    3    3    0    0 -0.18258777890E+02 -0.11974864899E+02  0.29711530933E+02  0.36872149785E+02  0.00000000000E+00 0. -1.
         22    1    3    3    0    0  0.27282007500E+02 -0.44605116459E+02 -0.11141774193E+03  0.12307655165E+03  0.00000000000E+00 0. -1.
</event>
<event>
 7    1  0.6067783E-006  0.7810342E+02  0.7818608E-02  0.1415351E+00
          2   -1    0    0  502    0  0.00000000000E+00  0.00000000000E+00  0.20450692557E+03  0.20450692557E+03  0.00000000000E+00 0. -1.
          1   -1    0    0  501    0 -0.00000000000E+00 -0.00000000000E+00 -0.25110120529E+03  0.25110120529E+03  0.00000000000E+00 0. -1.
         25    2    1    2    0    0 -0.20881888978E+02 -0.88749913986E+02  0.11502554140E+03  0.19279099854E+03  0.12499957370E+03 0.  0.
          2    1    1    2  501    0 -0.24091699428E+02  0.32151131118E+02 -0.18305725612E+03  0.18741415163E+03  0.00000000000E+00 0. -1.
          1    1    1    2  502    0  0.44973588406E+02  0.56598782869E+02  0.21437434992E+02  0.75402980679E+02  0.00000000000E+00 0. -1.
         22    1    3    3    0    0 -0.50402235765E+02 -0.92227352149E+02  0.12322257635E+03  0.16195701027E+03  0.00000000000E+00 0.  1.
         22    1    3    3    0    0  0.29520346787E+02  0.34774381631E+01 -0.81970349472E+01  0.30833988268E+02  0.00000000000E+00 0.  1.
</event>
<event>
 7    1  0.6067783E-006  0.3687587E+02  0.7818608E-02  0.1598639E+00
          2   -1    0    0  502    0  0.00000000000E+00  0.00000000000E+00  0.17678236000E+04  0.17678236000E+04  0.00000000000E+00 0. -1.
          1   -1    0    0  501    0 -0.00000000000E+00 -0.00000000000E+00 -0.35790141120E+02  0.35790141120E+02  0.00000000000E+00 0. -1.
         25    2    1    2    0    0  0.56086208162E+02 -0.14891682969E+02  0.11127756222E+04  0.11212769856E+04  0.12500027258E+03 0.  0.
          2    1    1    2  501    0 -0.24297362032E+02  0.11657226141E+01 -0.26315155640E+02  0.35835849750E+02  0.00000000000E+00 0. -1.
          1    1    1    2  502    0 -0.31788846130E+02  0.13725960355E+02  0.64557299229E+03  0.64650090573E+03  0.00000000000E+00 0. -1.
         22    1    3    3    0    0  0.43765817336E+02 -0.63865091362E+02  0.45272954694E+03  0.45930190434E+03  0.00000000000E+00 0. -1.
         22    1    3    3    0    0  0.12320390827E+02  0.48973408393E+02  0.66004607528E+03  0.66197508129E+03  0.00000000000E+00 0. -1.
</event>
<event>
 7    1  0.6067783E-006  0.3506925E+02  0.7818608E-02  0.1583504E+00
          2   -1    0    0  502    0  0.00000000000E+00  0.00000000000E+00  0.15867643113E+04  0.15867643113E+04  0.00000000000E+00 0. -1.
          1   -1    0    0  501    0 -0.00000000000E+00 -0.00000000000E+00 -0.78833887111E+03  0.78833887111E+03  0.00000000000E+00 0. -1.
         25    2    1    2    0    0  0.31372717906E+02 -0.54747267106E+02  0.80727731599E+03  0.81933087065E+03  0.12499959997E+03 0.  0.
          2    1    1    2  501    0 -0.17161436275E+02  0.30567765498E+02 -0.78166487178E+03  0.78245055752E+03  0.00000000000E+00 0. -1.
          1    1    1    2  502    0 -0.14211281631E+02  0.24179501608E+02  0.77281299599E+03  0.77332175424E+03  0.00000000000E+00 0. -1.
         22    1    3    3    0    0  0.23371767951E+02 -0.28260770084E+02  0.52465016722E+02  0.64011628964E+02  0.00000000000E+00 0.  1.
         22    1    3    3    0    0  0.80009499546E+01 -0.26486497022E+02  0.75481229927E+03  0.75531924168E+03  0.00000000000E+00 0.  1.
</event>
<event>
 7    1  0.6067783E-006  0.1602567E+03  0.7818608E-02  0.1312236E+00
          2   -1    0    0  502    0  0.00000000000E+00  0.00000000000E+00  0.62558180240E+03  0.62558180240E+03  0.00000000000E+00 0. -1.
          1   -1    0    0  501    0 -0.00000000000E+00 -0.00000000000E+00 -0.97900536618E+03  0.97900536618E+03  0.00000000000E+00 0. -1.
         25    2    1    2    0    0  0.59139460413E+02 -0.19211033909E+03  0.58326293423E+02  0.24377637466E+03  0.12498442374E+03 0.  0.
          2    1    1    2  501    0 -0.10989341473E+02  0.45082548577E+02 -0.87303763039E+03  0.87426992736E+03  0.00000000000E+00 0. -1.
          1    1    1    2  502    0 -0.48150118940E+02  0.14702779051E+03  0.46128777319E+03  0.48654086656E+03  0.00000000000E+00 0. -1.
         22    1    3    3    0    0 -0.15102829540E+02 -0.15077351219E+03  0.32627975581E+02  0.15500107171E+03  0.00000000000E+00 0. -1.
         22    1    3    3    0    0  0.74242289954E+02 -0.41336826895E+02  0.25698317842E+02  0.88775302957E+02  0.00000000000E+00 0. -1.
</event>
<event>
 7    1  0.6067783E-006  0.2432551E+02  0.7818608E-02  0.1703279E+00
          2   -1    0    0  502    0  0.00000000000E+00  0.00000000000E+00  0.65223211016E+03  0.65223211016E+03  0.00000000000E+00 0. -1.
          1   -1    0    0  501    0 -0.00000000000E+00 -0.00000000000E+00 -0.73607107374E+03  0.73607107374E+03  0.00000000000E+00 0. -1.
         25    2    1    2    0    0 -0.19920227981E+02 -0.39136381988E+02  0.44839242653E+02  0.13987241667E+03  0.12500105354E+03 0.  0.
          2    1    1    2  501    0  0.12658746576E+02  0.16029712144E+02 -0.68814092902E+03  0.68844399462E+03  0.00000000000E+00 0. -1.
          1    1    1    2  502    0  0.72614814049E+01  0.23106669844E+02  0.55946272279E+03  0.55998677261E+03  0.00000000000E+00 0. -1.
         22    1    3    3    0    0 -0.68192953735E+02 -0.37231189391E+02  0.48223563334E+02  0.91443711994E+02  0.00000000000E+00 0.  1.
         22    1    3    3    0    0  0.48272725754E+02 -0.19051925979E+01 -0.33843206815E+01  0.48428704681E+02  0.00000000000E+00 0.  1.
</event>
<event>
 7    1  0.6067783E-006  0.4205447E+02  0.7818608E-02  0.1520050E+00
          2   -1    0    0  502    0  0.00000000000E+00  0.00000000000E+00  0.17433954321E+04  0.17433954321E+04  0.00000000000E+00 0. -1.
          1   -1    0    0  501    0 -0.00000000000E+00 -0.00000000000E+00 -0.25118273883E+02  0.25118273883E+02  0.00000000000E+00 0. -1.
         25    2    1    2    0    0  0.46525191312E+02  0.42204951436E+02  0.98948125301E+03  0.99932181227E+03  0.12500033229E+03 0.  0.
          2    1    1    2  501    0 -0.66886617479E+01 -0.34485413336E+02 -0.39264352564E+01  0.35346836106E+02  0.00000000000E+00 0. -1.
          1    1    1    2  502    0 -0.39836529564E+02 -0.77195381004E+01  0.73272234042E+03  0.73384505756E+03  0.00000000000E+00 0. -1.
         22    1    3    3    0    0  0.33402417180E+02  0.84877677286E+02  0.76705658479E+03  0.77246083774E+03  0.00000000000E+00 0.  1.
         22    1    3    3    0    0  0.13122774132E+02 -0.42672725850E+02  0.22242466822E+03  0.22686097453E+03  0.00000000000E+00 0.  1.
</event>
<event>
 7    1  0.6067783E-006  0.1338635E+03  0.7818608E-02  0.1382498E+00
          2   -1    0    0  502    0  0.00000000000E+00  0.00000000000E+00  0.96836999203E+03  0.96836999203E+03  0.00000000000E+00 0. -1.
          1   -1    0    0  501    0 -0.00000000000E+00 -0.00000000000E+00 -0.16082256083E+04  0.16082256083E+04  0.00000000000E+00 0. -1.
         25    2    1    2    0    0  0.46414995048E+01  0.11566317187E+03  0.10147456860E+03  0.19829777907E+03  0.12500163306E+03 0.  0.
          2    1    1    2  501    0  0.25061955431E+02  0.17239241408E+02 -0.15539995875E+04  0.15542972724E+04  0.00000000000E+00 0. -1.
          1    1    1    2  502    0 -0.29703454936E+02 -0.13290241327E+03  0.81266940259E+03  0.82400054890E+03  0.00000000000E+00 0. -1.
         22    1    3    3    0    0  0.85575713482E+00 -0.51742771016E+01 -0.23699675987E+02  0.24273032478E+02  0.00000000000E+00 0.  1.
         22    1    3    3    0    0  0.37857423700E+01  0.12083744897E+03  0.12517424458E+03  0.17402474659E+03  0.00000000000E+00 0.  1.
</event>
<event>
 7    1  0.6067783E-006  0.2986846E+02  0.7818608E-02  0.1623498E+00
          2   -1    0    0  502    0  0.00000000000E+00  0.00000000000E+00  0.49567083626E+03  0.49567083626E+03  0.00000000000E+00 0. -1.
          1   -1    0    0  501    0 -0.00000000000E+00 -0.00000000000E+00 -0.67034473702E+03  0.67034473702E+03  0.00000000000E+00 0. -1.
         25    2    1    2    0    0  0.55225057376E+02 -0.15556680468E+01 -0.14806822849E+03  0.20149730603E+03  0.12499894793E+03 0.  0.
          2    1    1    2  501    0 -0.29333841998E+02  0.26588154252E+01 -0.49476564777E+03  0.49564159410E+03  0.00000000000E+00 0. -1.
          1    1    1    2  502    0 -0.25891215378E+02 -0.11031473784E+01  0.46815997550E+03  0.46887667315E+03  0.00000000000E+00 0. -1.
         22    1    3    3    0    0  0.57807688197E+02 -0.53416981214E+02 -0.11692389050E+03  0.14094785868E+03  0.00000000000E+00 0.  1.
         22    1    3    3    0    0 -0.25826308217E+01  0.51861313167E+02 -0.31144337984E+02  0.60549447345E+02  0.00000000000E+00 0.  1.
</event>
<event>
 7    1  0.6067783E-006  0.8589866E+02  0.7818608E-02  0.1391840E+00
          2   -1    0    0  502    0  0.00000000000E+00  0.00000000000E+00  0.13434536539E+04  0.13434536539E+04  0.00000000000E+00 0. -1.
          1   -1    0    0  501    0 -0.00000000000E+00 -0.00000000000E+00 -0.38485848982E+03  0.38485848982E+03  0.00000000000E+00 0. -1.
         25    2    1    2    0    0  0.73215952075E+01 -0.43238779757E+02  0.67171618332E+03  0.68465357540E+03  0.12499875821E+03 0.  0.
          2    1    1    2  501    0  0.20753142572E+01  0.86184496992E+02 -0.37273827844E+03  0.38257796416E+03  0.00000000000E+00 0. -1.
          1    1    1    2  502    0 -0.93969094647E+01 -0.42945717236E+02  0.65961725922E+03  0.66108060416E+03  0.00000000000E+00 0. -1.
         22    1    3    3    0    0  0.52473510414E+02 -0.26984673358E+01  0.14086206556E+03  0.15034251739E+03  0.00000000000E+00 0. -1.
         22    1    3    3    0    0 -0.45151915206E+02 -0.40540312421E+02  0.53085411775E+03  0.53431105801E+03  0.00000000000E+00 0. -1.
</event>
<event>
 7    1  0.6067783E-006  0.8973651E+02  0.7818608E-02  0.1389359E+00
          2   -1    0    0  502    0  0.00000000000E+00  0.00000000000E+00  0.36199554754E+03  0.36199554754E+03  0.00000000000E+00 0. -1.
          1   -1    0    0  501    0 -0.00000000000E+00 -0.00000000000E+00 -0.25845679671E+04  0.25845679671E+04  0.00000000000E+00 0. -1.
         25    2    1    2    0    0 -0.89213185016E+02  0.60413984059E+02 -0.40733926619E+02  0.16996385789E+03  0.12497847158E+03 0.  0.
          2    1    1    2  501    0  0.40515437625E+02  0.14189104736E+02 -0.24723560587E+04  0.24727287179E+04  0.00000000000E+00 0. -1.
          1    1    1    2  502    0  0.48697747391E+02 -0.74603088794E+02  0.29051756576E+03  0.30387093885E+03  0.00000000000E+00 0. -1.
         22    1    3    3    0    0 -0.12124900272E+03  0.51659242745E+02 -0.33047456373E+02  0.13587542970E+03  0.00000000000E+00 0.  1.
         22    1    3    3    0    0  0.32035817707E+02  0.87547413133E+01 -0.76864702466E+01  0.34088428191E+02  0.00000000000E+00 0.  1.
</event>
<event>
 7    1  0.6067783E-006  0.5476901E+02  0.7818608E-02  0.1549010E+00
          2   -1    0    0  502    0  0.00000000000E+00  0.00000000000E+00  0.20643901833E+04  0.20643901833E+04  0.00000000000E+00 0. -1.
          1   -1    0    0  501    0 -0.00000000000E+00 -0.00000000000E+00 -0.12899629786E+03  0.12899629786E+03  0.00000000000E+00 0. -1.
         25    2    1    2    0    0  0.29598489956E+02 -0.13694043116E+02  0.11019029315E+04  0.11094495895E+04  0.12499889457E+03 0.  0.
          2    1    1    2  501    0 -0.49156955611E+02  0.24422888415E+02 -0.11907106317E+03  0.13111369817E+03  0.00000000000E+00 0. -1.
          1    1    1    2  502    0  0.19558465655E+02 -0.10728845298E+02  0.95256201709E+03  0.95282319351E+03  0.00000000000E+00 0. -1.
         22    1    3    3    0    0  0.61683907640E+02 -0.15384786076E+01  0.10004669470E+04  0.10023678883E+04  0.00000000000E+00 0.  1.
         22    1    3    3    0    0 -0.32085417684E+02 -0.12155564509E+02  0.10143598449E+03  0.10708170117E+03  0.00000000000E+00 0.  1.
</event>
<event>
 7    1  0.6067783E-006  0.6940296E+02  0.7818608E-02  0.1396480E+00
          2   -1    0    0  502    0  0.00000000000E+00  0.00000000000E+00  0.13904057362E+04  0.13904057362E+04  0.00000000000E+00 0. -1.
          1   -1    0    0  501    0 -0.00000000000E+00 -0.00000000000E+00 -0.24763344490E+03  0.24763344490E+03  0.00000000000E+00 0. -1.
         25    2    1    2    0    0 -0.22557824670E+02  0.43350205385E+02  0.10566393684E+02  0.13462795648E+03  0.12499976892E+03 0.  0.
          2    1    1    2  501    0  0.69829288738E+02 -0.20668738448E+02 -0.17791467026E+03  0.19224192105E+03  0.00000000000E+00 0. -1.
          1    1    1    2  502    0 -0.47271464068E+02 -0.22681466937E+02  0.13101205678E+04  0.13111693035E+04  0.00000000000E+00 0. -1.
         22    1    3    3    0    0  0.40037387095E+02  0.13353933429E+02 -0.32211564392E+02  0.53093359133E+02  0.00000000000E+00 0. -1.
         22    1    3    3    0    0 -0.62595211765E+02  0.29996271956E+02  0.42777958076E+02  0.81534597346E+02  0.00000000000E+00 0. -1.
</event>
<event>
 7    1  0.6067783E-006  0.6297594E+02  0.7818608E-02  0.1412126E+00
          2   -1    0    0  502    0  0.00000000000E+00  0.00000000000E+00  0.91491908476E+03  0.91491908476E+03  0.00000000000E+00 0. -1.
          1   -1    0    0  501    0 -0.00000000000E+00 -0.00000000000E+00 -0.24532886880E+04  0.24532886880E+04  0.00000000000E+00 0. -1.
         25    2    1    2    0    0 -0.97347124779E+02 -0.44308062757E+02  0.50577296348E+03  0.53185550039E+03  0.12499726229E+03 0.  0.
          2    1    1    2  501    0  0.44370932259E+02  0.25324970940E+02 -0.24379797091E+04  0.24385149571E+04  0.00000000000E+00 0. -1.
          1    1    1    2  502    0  0.52976192519E+02  0.18983091817E+02  0.39383714238E+03  0.39783731533E+03  0.00000000000E+00 0. -1.
         22    1    3    3    0    0 -0.10810946672E+03 -0.68833925258E+02  0.47003771392E+03  0.48719730969E+03  0.00000000000E+00 0. -1.
         22    1    3    3    0    0  0.10762341944E+02  0.24525862501E+02  0.35735249556E+02  0.44658190697E+02  0.00000000000E+00 0. -1.
</event>
<event>
 7    1  0.6067783E-006  0.4411656E+02  0.7818608E-02  0.1533088E+00
          2   -1    0    0  502    0  0.00000000000E+00  0.00000000000E+00  0.85741050739E+03  0.85741050739E+03  0.00000000000E+00 0. -1.
          1   -1    0    0  501    0 -0.00000000000E+00 -0.00000000000E+00 -0.59029195100E+03  0.59029195100E+03  0.00000000000E+00 0. -1.
         25    2    1    2    0    0  0.36919645463E+02  0.14490928030E+01  0.22280626928E+03  0.25813375551E+03  0.12500096804E+03 0.  0.
          2    1    1    2  501    0 -0.33283912029E+02  0.29049022404E+02 -0.57139277353E+03  0.57309804235E+03  0.00000000000E+00 0. -1.
          1    1    1    2  502    0 -0.36357334336E+01 -0.30498115207E+02  0.61570506064E+03  0.61647066053E+03  0.00000000000E+00 0. -1.
         22    1    3    3    0    0 -0.30383585475E+02 -0.36949059982E+02  0.12159592459E+03  0.13066737992E+03  0.00000000000E+00 0.  1.
         22    1    3    3    0    0  0.67303230938E+02  0.38398152785E+02  0.10121034469E+03  0.12746637558E+03  0.00000000000E+00 0.  1.
</event>
<event>
 7    1  0.6067783E-006  0.5663095E+02  0.7818608E-02  0.1416017E+00
          2   -1    0    0  502    0  0.00000000000E+00  0.00000000000E+00  0.17567873367E+03  0.17567873367E+03  0.00000000000E+00 0. -1.
          1   -1    0    0  501    0 -0.00000000000E+00 -0.00000000000E+00 -0.23359407836E+03  0.23359407836E+03  0.00000000000E+00 0. -1.
         25    2    1    2    0    0 -0.92358211399E+01 -0.37672434245E+02  0.74292022125E+02  0.15049660474E+03  0.12500164316E+03 0.  0.
          2    1    1    2  501    0  0.53725197450E+02 -0.17907196641E+02 -0.16928551976E+03  0.17850672742E+03  0.00000000000E+00 0. -1.
          1    1    1    2  502    0 -0.44489376311E+02  0.55579630886E+02  0.37078152942E+02  0.80269479876E+02  0.00000000000E+00 0. -1.
         22    1    3    3    0    0  0.33756047977E+01 -0.24164181732E+02 -0.33326302559E+02  0.41303084979E+02  0.00000000000E+00 0. -1.
         22    1    3    3    0    0 -0.12611425938E+02 -0.13508252513E+02  0.10761832468E+03  0.10919351976E+03  0.00000000000E+00 0. -1.
</event>
<event>
 7    1  0.6067783E-006  0.8334451E+02  0.7818608E-02  0.1418549E+00
          2   -1    0    0  502    0  0.00000000000E+00  0.00000000000E+00  0.41904765057E+04  0.41904765057E+04  0.00000000000E+00 0. -1.
          1   -1    0    0  501    0 -0.00000000000E+00 -0.00000000000E+00 -0.11731599362E+04  0.11731599362E+04  0.00000000000E+00 0. -1.
         25    2    1    2    0    0  0.11520331180E+03  0.13028079064E+02 -0.36930411114E+03  0.40675784525E+03  0.12499953710E+03 0.  0.
          2    1    1    2  501    0 -0.35240829304E+02  0.10355455382E+02 -0.78428315199E+03  0.78514279847E+03  0.00000000000E+00 0. -1.
          1    1    1    2  502    0 -0.79962482497E+02 -0.23383534446E+02  0.41709038326E+04  0.41717357981E+04  0.00000000000E+00 0. -1.
         22    1    3    3    0    0  0.62789361197E+02 -0.32948730457E+02 -0.30068557863E+03  0.30893355259E+03  0.00000000000E+00 0.  1.
         22    1    3    3    0    0  0.52413950603E+02  0.45976809520E+02 -0.68618532510E+02  0.97824292664E+02  0.00000000000E+00 0.  1.
</event>
<event>
 7    1  0.6067783E-006  0.5935727E+02  0.7818608E-02  0.1481016E+00
          2   -1    0    0  502    0  0.00000000000E+00  0.00000000000E+00  0.12951916181E+04  0.12951916181E+04  0.00000000000E+00 0. -1.
          1   -1    0    0  501    0 -0.00000000000E+00 -0.00000000000E+00 -0.73896947257E+03  0.73896947257E+03  0.00000000000E+00 0. -1.
         25    2    1    2    0    0 -0.48060972503E+02 -0.33342172204E+02  0.99029199646E+02  0.16986554611E+03  0.12500385534E+03 0.  0.
          2    1    1    2  501    0  0.24532106568E+02 -0.21377489651E+02 -0.70241026805E+03  0.70316356986E+03  0.00000000000E+00 0. -1.
          1    1    1    2  502    0  0.23528865935E+02  0.54719661855E+02  0.11596032139E+04  0.11611319747E+04  0.00000000000E+00 0. -1.
         22    1    3    3    0    0 -0.90030200069E+01  0.37771696456E+01 -0.29192684319E+02  0.30782043427E+02  0.00000000000E+00 0.  1.
         22    1    3    3    0    0 -0.39057952496E+02 -0.37119341850E+02  0.12822188396E+03  0.13908350269E+03  0.00000000000E+00 0.  1.
</event>
<event>
 7    1  0.6067783E-006  0.4853836E+02  0.7818608E-02  0.1499035E+00
          2   -1    0    0  502    0  0.00000000000E+00  0.00000000000E+00  0.18840951255E+04  0.18840951255E+04  0.00000000000E+00 0. -1.
          1   -1    0    0  501    0 -0.00000000000E+00 -0.00000000000E+00 -0.39590303567E+02  0.39590303567E+02  0.00000000000E+00 0. -1.
         25    2    1    2    0    0  0.30428783580E+02 -0.57302497324E+02  0.70800135512E+03  0.72187198682E+03  0.12499503764E+03 0.  0.
          2    1    1    2  501    0  0.34798868597E+01  0.48243076132E+02 -0.14328719589E+02  0.50446171433E+02  0.00000000000E+00 0. -1.
          1    1    1    2  502    0 -0.33908670440E+02  0.90594211916E+01  0.11508321864E+04  0.11513672708E+04  0.00000000000E+00 0. -1.
         22    1    3    3    0    0 -0.22526349710E+02  0.30689771761E+02  0.18203762343E+03  0.18597579107E+03  0.00000000000E+00 0.  1.
         22    1    3    3    0    0  0.52955133290E+02 -0.87992269084E+02  0.52596373169E+03  0.53589619574E+03  0.00000000000E+00 0.  1.
</event>
<event>
 7    1  0.6067783E-006  0.1114399E+03  0.7818608E-02  0.1290819E+00
          2   -1    0    0  502    0  0.00000000000E+00  0.00000000000E+00  0.25178379401E+04  0.25178379401E+04  0.00000000000E+00 0. -1.
          1   -1    0    0  501    0 -0.00000000000E+00 -0.00000000000E+00 -0.80577918293E+03  0.80577918293E+03  0.00000000000E+00 0. -1.
         25    2    1    2    0    0 -0.78503160242E+02 -0.85385956249E+02  0.62424006232E+03  0.64711256305E+03  0.12500202461E+03 0.  0.
          2    1    1    2  501    0 -0.35449005290E+02  0.73116272645E+02 -0.79051365228E+03  0.79467883811E+03  0.00000000000E+00 0. -1.
          1    1    1    2  502    0  0.11395216553E+03  0.12269683605E+02  0.18783323471E+04  0.18818257219E+04  0.00000000000E+00 0. -1.
         22    1    3    3    0    0 -0.23321866640E+02 -0.80339791076E+02  0.16961799265E+03  0.18912602921E+03  0.00000000000E+00 0. -1.
         22    1    3    3    0    0 -0.55181293602E+02 -0.50461651732E+01  0.45462206967E+03  0.45798653384E+03  0.00000000000E+00 0. -1.
</event>
<event>
 7    1  0.6067783E-006  0.6005255E+02  0.7818608E-02  0.1475697E+00
          2   -1    0    0  502    0  0.00000000000E+00  0.00000000000E+00  0.73139935396E+01  0.73139935396E+01  0.00000000000E+00 0. -1.
          1   -1    0    0  501    0 -0.00000000000E+00 -0.00000000000E+00 -0.32979745380E+04  0.32979745380E+04  0.00000000000E+00 0. -1.
         25    2    1    2    0    0  0.89534685753E+02 -0.21276349551E+01 -0.12063359664E+04  0.12160970560E+04  0.12499839654E+03 0.  0.
          2    1    1    2  501    0 -0.56842636450E+02  0.89531318735E+01 -0.19475019068E+04  0.19483518473E+04  0.00000000000E+00 0. -1.
          1    1    1    2  502    0 -0.32692049303E+02 -0.68254969183E+01 -0.13682267130E+03  0.14083962822E+03  0.00000000000E+00 0. -1.
         22    1    3    3    0    0 -0.12144366361E+02  0.12192810595E+02 -0.25254622366E+02  0.30560533624E+02  0.00000000000E+00 0. -1.
         22    1    3    3    0    0  0.10167905211E+03 -0.14320445551E+02 -0.11810813440E+04  0.11855365224E+04  0.00000000000E+00 0. -1.
</event>
<event>
 7    1  0.6067783E-006  0.1349473E+03  0.7818608E-02  0.1401594E+00
          2   -1    0    0  502    0  0.00000000000E+00  0.00000000000E+00  0.72556996712E+03  0.72556996712E+03  0.00000000000E+00 0. -1.
          1   -1    0    0  501    0 -0.00000000000E+00 -0.00000000000E+00 -0.71145876147E+03  0.71145876147E+03  0.00000000000E+00 0. -1.
         25    2    1    2    0    0 -0.60835106013E+02  0.11714590171E+03 -0.12525961090E+03  0.22077098114E+03  0.12500313428E+03 0.  0.
          2    1    1    2  501    0  0.22672412131E+02  0.12508193913E+02 -0.53138776454E+03  0.53201827928E+03  0.00000000000E+00 0. -1.
          1    1    1    2  502    0  0.38162693882E+02 -0.12965409563E+03  0.67075858108E+03  0.68423946818E+03  0.00000000000E+00 0. -1.
         22    1    3    3    0    0  0.10554459994E+02  0.72675495798E+02 -0.11443120126E+03  0.13596920290E+03  0.00000000000E+00 0.  1.
         22    1    3    3    0    0 -0.71389566007E+02  0.44470405914E+02 -0.10828409635E+02  0.84801778236E+02  0.00000000000E+00 0.  1.
</event>
<event>
 7    1  0.6067783E-006  0.2101152E+03  0.7818608E-02  0.1294963E+00
          2   -1    0    0  502    0  0.00000000000E+00  0.00000000000E+00  0.33463755158E+04  0.33463755158E+04  0.00000000000E+00 0. -1.
          1   -1    0    0  501    0 -0.00000000000E+00 -0.00000000000E+00 -0.53377753027E+02  0.53377753027E+02  0.00000000000E+00 0. -1.
         25    2    1    2    0    0 -0.14748261700E+03  0.15008056239E+03  0.94654960841E+03  0.97767876054E+03  0.12499720037E+03 0.  0.
          2    1    1    2  501    0  0.31941396060E+02  0.26437460601E+02 -0.20144040556E+02  0.46097445430E+02  0.00000000000E+00 0. -1.
          1    1    1    2  502    0  0.11554122094E+03 -0.17651802299E+03  0.23665921949E+04  0.23759770629E+04  0.00000000000E+00 0. -1.
         22    1    3    3    0    0  0.20621646400E+02  0.22319201564E+01  0.89595948475E+02  0.91965579164E+02  0.00000000000E+00 0.  1.
         22    1    3    3    0    0 -0.16810426340E+03  0.14784864223E+03  0.85695365994E+03  0.88571318137E+03  0.00000000000E+00 0.  1.
</event>
<event>
 7    1  0.6067783E-006  0.1293989E+03  0.7818608E-02  0.1297756E+00
          2   -1    0    0  502    0  0.00000000000E+00  0.00000000000E+00  0.23320024580E+04  0.23320024580E+04  0.00000000000E+00 0. -1.
          1   -1    0    0  501    0 -0.00000000000E+00 -0.00000000000E+00 -0.58856253875E+03  0.58856253875E+03  0.00000000000E+00 0. -1.
         25    2    1    2    0    0  0.81266482120E+02 -0.64432390585E+02 -0.37182828702E+02  0.16662437875E+03  0.12500138708E+03 0.  0.
          2    1    1    2  501    0 -0.13263496269E+03  0.23622319882E+02 -0.47684943426E+03  0.49551531790E+03  0.00000000000E+00 0. -1.
          1    1    1    2  502    0  0.51368480575E+02  0.40810070703E+02  0.22574721822E+04  0.22584253001E+04  0.00000000000E+00 0. -1.
         22    1    3    3    0    0  0.12791203253E+02  0.20003377406E+02 -0.51753824987E+02  0.56940393300E+02  0.00000000000E+00 0.  1.
         22    1    3    3    0    0  0.68475278867E+02 -0.84435767991E+02  0.14570996285E+02  0.10968398545E+03  0.00000000000E+00 0.  1.
</event>
<event>
 7    1  0.6067783E-006  0.1285082E+03  0.7818608E-02  0.1305103E+00
          2   -1    0    0  502    0  0.00000000000E+00  0.00000000000E+00  0.84255238125E+03  0.84255238125E+03  0.00000000000E+00 0. -1.
          1   -1    0    0  501    0 -0.00000000000E+00 -0.00000000000E+00 -0.47514658712E+03  0.47514658712E+03  0.00000000000E+00 0. -1.
         25    2    1    2    0    0  0.45765658153E+02  0.13799161767E+03  0.66212947086E+02  0.20284407297E+03  0.12500152625E+03 0.  0.
          2    1    1    2  501    0 -0.88140611724E+02 -0.93083404927E+02 -0.39533298209E+03  0.41559770745E+03  0.00000000000E+00 0. -1.
          1    1    1    2  502    0  0.42374953571E+02 -0.44908212740E+02  0.69652582913E+03  0.69925718796E+03  0.00000000000E+00 0. -1.
         22    1    3    3    0    0  0.19901890639E+02  0.10852585570E+03 -0.16258977197E+02  0.11152713098E+03  0.00000000000E+00 0.  1.
         22    1    3    3    0    0  0.25863767514E+02  0.29465761968E+02  0.82471924282E+02  0.91316941984E+02  0.00000000000E+00 0.  1.
</event>
<event>
 7    1  0.7366893E-006  0.9368331E+02  0.7818608E-02  0.1336407E+00
          2   -1    0    0  502    0  0.00000000000E+00  0.00000000000E+00  0.13850556970E+04  0.13850556970E+04  0.00000000000E+00 0. -1.
          1   -1    0    0  501    0 -0.00000000000E+00 -0.00000000000E+00 -0.17118957473E+04  0.17118957473E+04  0.00000000000E+00 0. -1.
         25    2    1    2    0    0  0.15138356097E+03 -0.41040528894E+02 -0.32690285306E+02  0.20321172696E+03  0.12500017471E+03 0.  0.
          2    1    1    2  501    0 -0.61846369348E+02  0.16664825274E+02 -0.15916435309E+04  0.15929318313E+04  0.00000000000E+00 0. -1.
          1    1    1    2  502    0 -0.89537191618E+02  0.24375703620E+02  0.12974937660E+04  0.13008078860E+04  0.00000000000E+00 0. -1.
         22    1    3    3    0    0  0.12699991248E+03  0.13528246857E+02  0.12433250842E+02  0.12832216083E+03  0.00000000000E+00 0. -1.
         22    1    3    3    0    0  0.24383648482E+02 -0.54568775751E+02 -0.45123536148E+02  0.74889566128E+02  0.00000000000E+00 0. -1.
</event>
<event>
 7    1  0.6067783E-006  0.9623802E+02  0.7818608E-02  0.1377249E+00
          2   -1    0    0  502    0  0.00000000000E+00  0.00000000000E+00  0.20493189709E+03  0.20493189709E+03  0.00000000000E+00 0. -1.
          1   -1    0    0  501    0 -0.00000000000E+00 -0.00000000000E+00 -0.18905365684E+03  0.18905365684E+03  0.00000000000E+00 0. -1.
         25    2    1    2    0    0  0.17324959886E+02  0.92283206509E+02  0.43385852987E+02  0.16224563508E+03  0.12499987769E+03 0.  0.
          2    1    1    2  501    0 -0.59248942647E+02 -0.78402642694E+02 -0.10420658451E+03  0.14323555369E+03  0.00000000000E+00 0. -1.
          1    1    1    2  502    0  0.41923982760E+02 -0.13880563815E+02  0.76698971774E+02  0.88504365167E+02  0.00000000000E+00 0. -1.
         22    1    3    3    0    0 -0.89434153373E+01  0.83437630717E+02  0.80258140526E+02  0.11611714782E+03  0.00000000000E+00 0. -1.
         22    1    3    3    0    0  0.26268375224E+02  0.88455757921E+01 -0.36872287539E+02  0.46128487254E+02  0.00000000000E+00 0. -1.
</event>
<event>
 7    1  0.6067783E-006  0.7377796E+02  0.7818608E-02  0.1358927E+00
          2   -1    0    0  502    0  0.00000000000E+00  0.00000000000E+00  0.12415150218E+04  0.12415150218E+04  0.00000000000E+00 0. -1.
          1   -1    0    0  501    0 -0.00000000000E+00 -0.00000000000E+00 -0.39769598989E+03  0.39769598989E+03  0.00000000000E+00 0. -1.
         25    2    1    2    0    0 -0.88768531770E+02 -0.96374982751E+02 -0.83165006681E+01  0.18127944417E+03  0.12500033265E+03 0.  0.
          2    1    1    2  501    0  0.60538528050E+02  0.28869693406E+02 -0.29800836424E+03  0.30546253081E+03  0.00000000000E+00 0. -1.
          1    1    1    2  502    0  0.28230003721E+02  0.67505289345E+02  0.11501438968E+04  0.11524690367E+04  0.00000000000E+00 0. -1.
         22    1    3    3    0    0 -0.89604071890E+02 -0.12331084741E+03 -0.15975463801E+02  0.15326340147E+03  0.00000000000E+00 0.  1.
         22    1    3    3    0    0  0.83554011978E+00  0.26935864657E+02  0.76589631327E+01  0.28016042696E+02  0.00000000000E+00 0.  1.
</event>
<event>
 7    1  0.6067783E-006  0.9962060E+02  0.7818608E-02  0.1394736E+00
          2   -1    0    0  502    0  0.00000000000E+00  0.00000000000E+00  0.65177095422E+03  0.65177095422E+03  0.00000000000E+00 0. -1.
          1   -1    0    0  501    0 -0.00000000000E+00 -0.00000000000E+00 -0.62108580022E+03  0.62108580022E+03  0.00000000000E+00 0. -1.
         25    2    1    2    0    0  0.10163903823E+03  0.84629384229E+02  0.82744720030E+02  0.19991267430E+03  0.12500304750E+03 0.  0.
          2    1    1    2  501    0 -0.33785466345E+02 -0.15179561562E+02 -0.55726421866E+03  0.55849376561E+03  0.00000000000E+00 0. -1.
          1    1    1    2  502    0 -0.67853571890E+02 -0.69449822668E+02  0.50520465262E+03  0.51445031453E+03  0.00000000000E+00 0. -1.
         22    1    3    3    0    0  0.60961541467E+02  0.57666738471E+02  0.11430069528E+03  0.14179707757E+03  0.00000000000E+00 0.  1.
         22    1    3    3    0    0  0.40677496768E+02  0.26962645759E+02 -0.31555975254E+02  0.58115596735E+02  0.00000000000E+00 0.  1.
</event>
<event>
 7    1  0.6067783E-006  0.5549956E+02  0.7818608E-02  0.1540036E+00
          2   -1    0    0  502    0  0.00000000000E+00  0.00000000000E+00  0.26968784525E+03  0.26968784525E+03  0.00000000000E+00 0. -1.
          1   -1    0    0  501    0 -0.00000000000E+00 -0.00000000000E+00 -0.31983085242E+03  0.31983085242E+03  0.00000000000E+00 0. -1.
         25    2    1    2    0    0  0.16975542736E+01 -0.45585468546E+02  0.67586336219E+02  0.14923928140E+03  0.12499413441E+03 0.  0.
          2    1    1    2  501    0  0.20776754001E+02  0.51846866825E+02 -0.27534162582E+03  0.28094978558E+03  0.00000000000E+00 0. -1.
          1    1    1    2  502    0 -0.22474308275E+02 -0.62613982783E+01  0.15761228244E+03  0.15932963069E+03  0.00000000000E+00 0. -1.
         22    1    3    3    0    0  0.57649717204E+02 -0.48870148604E+02  0.27894719206E+02  0.80559894972E+02  0.00000000000E+00 0. -1.
         22    1    3    3    0    0 -0.55952162930E+02  0.32846800581E+01  0.39691617013E+02  0.68679386433E+02  0.00000000000E+00 0. -1.
</event>
<event>
 7    1  0.6067783E-006  0.1306505E+03  0.7818608E-02  0.1257225E+00
          2   -1    0    0  502    0  0.00000000000E+00  0.00000000000E+00  0.26823127420E+04  0.26823127420E+04  0.00000000000E+00 0. -1.
          1   -1    0    0  501    0 -0.00000000000E+00 -0.00000000000E+00 -0.37084642164E+03  0.37084642164E+03  0.00000000000E+00 0. -1.
         25    2    1    2    0    0  0.34324977445E+02  0.20304061201E+03  0.13466768495E+03  0.27597566758E+03  0.12499395796E+03 0.  0.
          2    1    1    2  501    0  0.29816021252E+02 -0.90951895535E+02 -0.29083128121E+03  0.30617654475E+03  0.00000000000E+00 0. -1.
          1    1    1    2  502    0 -0.64140998697E+02 -0.11208871647E+03  0.24676299166E+04  0.24710069513E+04  0.00000000000E+00 0. -1.
         22    1    3    3    0    0  0.28675090894E+02  0.16630906539E+02 -0.15446100482E+02  0.36570888835E+02  0.00000000000E+00 0.  1.
         22    1    3    3    0    0  0.56498865506E+01  0.18640970547E+03  0.15011378543E+03  0.23940477875E+03  0.00000000000E+00 0.  1.
</event>
<event>
 7    1  0.6067783E-006  0.9865371E+02  0.7818608E-02  0.1342770E+00
          2   -1    0    0  502    0  0.00000000000E+00  0.00000000000E+00  0.37926657862E+03  0.37926657862E+03  0.00000000000E+00 0. -1.
          1   -1    0    0  501    0 -0.00000000000E+00 -0.00000000000E+00 -0.61906307438E+03  0.61906307438E+03  0.00000000000E+00 0. -1.
         25    2    1    2    0    0 -0.13742075081E+03 -0.69171211266E+02 -0.15624091016E+03  0.25239342368E+03  0.12498839581E+03 0.  0.
          2    1    1    2  501    0  0.48583611035E+02  0.30869143844E+02 -0.40560556510E+03  0.40966955677E+03  0.00000000000E+00 0. -1.
          1    1    1    2  502    0  0.88837139771E+02  0.38302067422E+02  0.32204997950E+03  0.33626667255E+03  0.00000000000E+00 0. -1.
         22    1    3    3    0    0 -0.97062394495E+02 -0.73231708645E+02 -0.17048599894E+03  0.20940264423E+03  0.00000000000E+00 0. -1.
         22    1    3    3    0    0 -0.40358356311E+02  0.40604973793E+01  0.14245088779E+02  0.42990779447E+02  0.00000000000E+00 0. -1.
</event>
<event>
 7    1  0.6067783E-006  0.1253234E+03  0.7818608E-02  0.1234617E+00
          2   -1    0    0  502    0  0.00000000000E+00  0.00000000000E+00  0.85655780682E+03  0.85655780682E+03  0.00000000000E+00 0. -1.
          1   -1    0    0  501    0 -0.00000000000E+00 -0.00000000000E+00 -0.26157890534E+03  0.26157890534E+03  0.00000000000E+00 0. -1.
         25    2    1    2    0    0 -0.79905274923E+01 -0.12264127769E+02  0.17956046794E+03  0.21927432014E+03  0.12500003387E+03 0.  0.
          2    1    1    2  501    0 -0.97057449700E+01  0.13626342352E+03 -0.21576259355E+03  0.25537309735E+03  0.00000000000E+00 0. -1.
          1    1    1    2  502    0  0.17696272462E+02 -0.12399929575E+03  0.63118102709E+03  0.64348929467E+03  0.00000000000E+00 0. -1.
         22    1    3    3    0    0 -0.23517005719E+02 -0.29908407637E+02 -0.13626881660E+00  0.38047088911E+02  0.00000000000E+00 0. -1.
         22    1    3    3    0    0  0.15526478226E+02  0.17644279868E+02  0.17969673676E+03  0.18122723123E+03  0.00000000000E+00 0. -1.
</event>
<event>
 7    1  0.6067783E-006  0.2075403E+03  0.7818608E-02  0.1190936E+00
          2   -1    0    0  502    0  0.00000000000E+00  0.00000000000E+00  0.12463499527E+04  0.12463499527E+04  0.00000000000E+00 0. -1.
          1   -1    0    0  501    0 -0.00000000000E+00 -0.00000000000E+00 -0.73243846875E+02  0.73243846875E+02  0.00000000000E+00 0. -1.
         25    2    1    2    0    0  0.11052579952E+02  0.23354119668E+03  0.40119890580E+03  0.48089472237E+03  0.12504208060E+03 0.  0.
          2    1    1    2  501    0 -0.11005319913E+03 -0.16513494084E+03  0.37947915498E+03  0.42823554779E+03  0.00000000000E+00 0. -1.
          1    1    1    2  502    0  0.99000619181E+02 -0.68406255843E+02  0.39242804504E+03  0.41046352940E+03  0.00000000000E+00 0. -1.
         22    1    3    3    0    0 -0.18499543781E+02  0.21134931560E+03  0.26334829803E+03  0.33817612630E+03  0.00000000000E+00 0. -1.
         22    1    3    3    0    0  0.29552123733E+02  0.22191881086E+02  0.13785060777E+03  0.14271859608E+03  0.00000000000E+00 0. -1.
</event>
<event>
 7    1  0.6067783E-006  0.1421277E+03  0.7818608E-02  0.1345326E+00
          2   -1    0    0  502    0  0.00000000000E+00  0.00000000000E+00  0.53632736325E+03  0.53632736325E+03  0.00000000000E+00 0. -1.
          1   -1    0    0  501    0 -0.00000000000E+00 -0.00000000000E+00 -0.12435327848E+04  0.12435327848E+04  0.00000000000E+00 0. -1.
         25    2    1    2    0    0 -0.10134373793E+02  0.10711756734E+03  0.22012249348E+03  0.27505583286E+03  0.12499968116E+03 0.  0.
          2    1    1    2  501    0  0.32904035544E+02 -0.13888515804E+03 -0.12105312687E+04  0.12189166154E+04  0.00000000000E+00 0. -1.
          1    1    1    2  502    0 -0.22769661751E+02  0.31767590702E+02  0.28320335373E+03  0.28588769977E+03  0.00000000000E+00 0. -1.
         22    1    3    3    0    0 -0.36078764439E+02  0.12195891680E+03  0.13802864714E+03  0.18769006916E+03  0.00000000000E+00 0.  1.
         22    1    3    3    0    0  0.25944390646E+02 -0.14841349462E+02  0.82093846344E+02  0.87365763703E+02  0.00000000000E+00 0.  1.
</event>
<event>
 7    1  0.6067783E-006  0.1266420E+03  0.7818608E-02  0.1248322E+00
          2   -1    0    0  502    0  0.00000000000E+00  0.00000000000E+00  0.27898387123E+04  0.27898387123E+04  0.00000000000E+00 0. -1.
          1   -1    0    0  501    0 -0.00000000000E+00 -0.00000000000E+00 -0.60446040429E+02  0.60446040429E+02  0.00000000000E+00 0. -1.
         25    2    1    2    0    0  0.97879985027E+02  0.21518025055E+02  0.19253943323E+03  0.25047737680E+03  0.12499586421E+03 0.  0.
          2    1    1    2  501    0 -0.10847189936E+03 -0.12888136107E+03  0.20444041817E+03  0.26490081684E+03  0.00000000000E+00 0. -1.
          1    1    1    2  502    0  0.10591914335E+02  0.10736333601E+03  0.23324128205E+04  0.23349065591E+04  0.00000000000E+00 0. -1.
         22    1    3    3    0    0  0.69826648178E+02 -0.16984208040E+02  0.24669690745E+02  0.75979061326E+02  0.00000000000E+00 0. -1.
         22    1    3    3    0    0  0.28053336849E+02  0.38502233095E+02  0.16786974248E+03  0.17449831547E+03  0.00000000000E+00 0. -1.
</event>
<event>
 7    1  0.6067783E-006  0.5538937E+02  0.7818608E-02  0.1531041E+00
          2   -1    0    0  502    0  0.00000000000E+00  0.00000000000E+00  0.16027856895E+04  0.16027856895E+04  0.00000000000E+00 0. -1.
          1   -1    0    0  501    0 -0.00000000000E+00 -0.00000000000E+00 -0.11279993705E+04  0.11279993705E+04  0.00000000000E+00 0. -1.
         25    2    1    2    0    0 -0.20867777180E+02  0.23231316165E+02  0.15007011786E+02  0.12971241306E+03  0.12499976610E+03 0.  0.
          2    1    1    2  501    0 -0.20565830953E+02  0.13850166881E+02 -0.10699979489E+04  0.10702851915E+04  0.00000000000E+00 0. -1.
          1    1    1    2  502    0  0.41433608133E+02 -0.37081483046E+02  0.15297772561E+04  0.15307874554E+04  0.00000000000E+00 0. -1.
         22    1    3    3    0    0  0.40150190090E+02 -0.21145001768E+02  0.27757549500E+02  0.53194270540E+02  0.00000000000E+00 0.  1.
         22    1    3    3    0    0 -0.61017967270E+02  0.44376317933E+02 -0.12750537715E+02  0.76518142522E+02  0.00000000000E+00 0.  1.
</event>
<event>
 7    1  0.6067783E-006  0.3987226E+02  0.7818608E-02  0.1557194E+00
          2   -1    0    0  502    0  0.00000000000E+00  0.00000000000E+00  0.42319853144E+03  0.42319853144E+03  0.00000000000E+00 0. -1.
          1   -1    0    0  501    0 -0.00000000000E+00 -0.00000000000E+00 -0.56707433243E+03  0.56707433243E+03  0.00000000000E+00 0. -1.
         25    2    1    2    0    0  0.33209833458E+01 -0.15940224443E+02  0.11046332774E+03  0.16761229340E+03  0.12500645758E+03 0.  0.
          2    1    1    2  501    0 -0.30742775758E+02  0.25617870934E+02 -0.53700945754E+03  0.53849842252E+03  0.00000000000E+00 0. -1.
          1    1    1    2  502    0  0.27421792413E+02 -0.96776464913E+01  0.28267032881E+03  0.28416214795E+03  0.00000000000E+00 0. -1.
         22    1    3    3    0    0  0.38233734096E+01 -0.46523039778E+02 -0.61236124962E+01  0.47079826300E+02  0.00000000000E+00 0.  1.
         22    1    3    3    0    0 -0.50239006382E+00  0.30582815336E+02  0.11658694024E+03  0.12053246710E+03  0.00000000000E+00 0.  1.
</event>
<event>
 7    1  0.6067783E-006  0.3832849E+02  0.7818608E-02  0.1550353E+00
          2   -1    0    0  502    0  0.00000000000E+00  0.00000000000E+00  0.28689150149E+04  0.28689150149E+04  0.00000000000E+00 0. -1.
          1   -1    0    0  501    0 -0.00000000000E+00 -0.00000000000E+00 -0.18165959912E+03  0.18165959912E+03  0.00000000000E+00 0. -1.
         25    2    1    2    0    0  0.32578704503E+02 -0.20696131991E+02  0.89184832043E+03  0.90139308637E+03  0.12500547043E+03 0.  0.
          2    1    1    2  501    0 -0.26247764095E+02 -0.17600364882E+02 -0.17528305100E+03  0.17810914050E+03  0.00000000000E+00 0. -1.
          1    1    1    2  502    0 -0.63309404081E+01  0.38296496872E+02  0.19706901463E+04  0.19710723871E+04  0.00000000000E+00 0. -1.
         22    1    3    3    0    0  0.61695565500E+02  0.29661221031E+01  0.22023494384E+03  0.22873253195E+03  0.00000000000E+00 0. -1.
         22    1    3    3    0    0 -0.29116860997E+02 -0.23662254094E+02  0.67161337659E+03  0.67266055442E+03  0.00000000000E+00 0. -1.
</event>
<event>
 7    1  0.6067783E-006  0.6855835E+02  0.7818608E-02  0.1406206E+00
          2   -1    0    0  502    0  0.00000000000E+00  0.00000000000E+00  0.16504932705E+03  0.16504932705E+03  0.00000000000E+00 0. -1.
          1   -1    0    0  501    0 -0.00000000000E+00 -0.00000000000E+00 -0.56976158745E+03  0.56976158745E+03  0.00000000000E+00 0. -1.
         25    2    1    2    0    0  0.25754522103E+01  0.99875645818E+02 -0.18023764364E+03  0.24102333679E+03  0.12499945244E+03 0.  0.
          2    1    1    2  501    0 -0.29961694751E+02 -0.59061270068E+02 -0.35144782042E+03  0.35763320211E+03  0.00000000000E+00 0. -1.
          1    1    1    2  502    0  0.27386242540E+02 -0.40814375750E+02  0.12697320365E+03  0.13615437560E+03  0.00000000000E+00 0. -1.
         22    1    3    3    0    0  0.47737573672E+02  0.10111016720E+03 -0.14815129082E+03  0.18560966253E+03  0.00000000000E+00 0.  1.
         22    1    3    3    0    0 -0.45162121462E+02 -0.12345213862E+01 -0.32086352817E+02  0.55413674261E+02  0.00000000000E+00 0.  1.
</event>
<event>
 7    1  0.6067783E-006  0.6733407E+02  0.7818608E-02  0.1411812E+00
          2   -1    0    0  502    0  0.00000000000E+00  0.00000000000E+00  0.88539431090E+03  0.88539431090E+03  0.00000000000E+00 0. -1.
          1   -1    0    0  501    0 -0.00000000000E+00 -0.00000000000E+00 -0.49704573427E+03  0.49704573427E+03  0.00000000000E+00 0. -1.
         25    2    1    2    0    0 -0.16260028419E+02  0.24503921893E+02  0.16482935632E+03  0.20894486847E+03  0.12499764255E+03 0.  0.
          2    1    1    2  501    0 -0.47504185286E+02  0.61406343355E+01 -0.47198139188E+03  0.47440572224E+03  0.00000000000E+00 0. -1.
          1    1    1    2  502    0  0.63764213705E+02 -0.30644556228E+02  0.69550061219E+03  0.69908945446E+03  0.00000000000E+00 0. -1.
         22    1    3    3    0    0  0.51796048371E+02  0.19967878162E+02  0.10240920447E+03  0.11648687456E+03  0.00000000000E+00 0.  1.
         22    1    3    3    0    0 -0.68056076790E+02  0.45360437310E+01  0.62420151851E+02  0.92457993910E+02  0.00000000000E+00 0.  1.
</event>
<event>
 7    1  0.6067783E-006  0.8980481E+02  0.7818608E-02  0.1469696E+00
          2   -1    0    0  502    0  0.00000000000E+00  0.00000000000E+00  0.41308947411E+02  0.41308947411E+02  0.00000000000E+00 0. -1.
          1   -1    0    0  501    0 -0.00000000000E+00 -0.00000000000E+00 -0.58762770643E+03  0.58762770643E+03  0.00000000000E+00 0. -1.
         25    2    1    2    0    0 -0.10483160730E+03  0.20064603695E+02 -0.34756548747E+03  0.38447309223E+03  0.12500214543E+03 0.  0.
          2    1    1    2  501    0  0.22675919256E+02  0.53982806836E+01 -0.13602604237E+03  0.13800877853E+03  0.00000000000E+00 0. -1.
          1    1    1    2  502    0  0.82155688046E+02 -0.25462884379E+02 -0.62727229180E+02  0.10645478308E+03  0.00000000000E+00 0. -1.
         22    1    3    3    0    0 -0.37154960189E+02  0.33651468277E+02 -0.29083916788E+03  0.29512765705E+03  0.00000000000E+00 0. -1.
         22    1    3    3    0    0 -0.67676647113E+02 -0.13586864582E+02 -0.56726319585E+02  0.89345435179E+02  0.00000000000E+00 0. -1.
</event>
<event>
 7    1  0.6067783E-006  0.1537573E+03  0.7818608E-02  0.1390936E+00
          2   -1    0    0  502    0  0.00000000000E+00  0.00000000000E+00  0.60370621319E+03  0.60370621319E+03  0.00000000000E+00 0. -1.
          1   -1    0    0  501    0 -0.00000000000E+00 -0.00000000000E+00 -0.29998898258E+04  0.29998898258E+04  0.00000000000E+00 0. -1.
         25    2    1    2    0    0  0.11580153799E+03  0.85207311246E+02 -0.58369098339E+03  0.61399770885E+03  0.12501096065E+03 0.  0.
          2    1    1    2  501    0 -0.13738938954E+03 -0.73125717201E+02 -0.23982619738E+04  0.24033068281E+04  0.00000000000E+00 0. -1.
          1    1    1    2  502    0  0.21587851551E+02 -0.12081594045E+02  0.58576934463E+03  0.58629150203E+03  0.00000000000E+00 0. -1.
         22    1    3    3    0    0  0.13612350190E+03  0.96516421283E+02 -0.49838897642E+03  0.52558215263E+03  0.00000000000E+00 0.  1.
         22    1    3    3    0    0 -0.20321963910E+02 -0.11309110037E+02 -0.85302006976E+02  0.88415556217E+02  0.00000000000E+00 0.  1.
</event>
<event>
 7    1  0.6067783E-006  0.6203551E+02  0.7818608E-02  0.1486865E+00
          2   -1    0    0  502    0  0.00000000000E+00  0.00000000000E+00  0.20045380898E+03  0.20045380898E+03  0.00000000000E+00 0. -1.
          1   -1    0    0  501    0 -0.00000000000E+00 -0.00000000000E+00 -0.55106629633E+03  0.55106629633E+03  0.00000000000E+00 0. -1.
         25    2    1    2    0    0  0.37705665806E+02  0.90057150173E+01 -0.23474809875E+03  0.26876379588E+03  0.12499795188E+03 0.  0.
          2    1    1    2  501    0 -0.67214847477E+02 -0.43045205383E+01 -0.29426293244E+03  0.30187255262E+03  0.00000000000E+00 0. -1.
          1    1    1    2  502    0  0.29509181671E+02 -0.47011944790E+01  0.17839854384E+03  0.18088375681E+03  0.00000000000E+00 0. -1.
         22    1    3    3    0    0  0.12076697051E+02  0.32762396480E+02 -0.37282975769E+01  0.35115828875E+02  0.00000000000E+00 0.  1.
         22    1    3    3    0    0  0.25628968755E+02 -0.23756681462E+02 -0.23101980117E+03  0.23364796701E+03  0.00000000000E+00 0.  1.
</event>
<event>
 7    1  0.6067783E-006  0.9655458E+02  0.7818608E-02  0.1382706E+00
          2   -1    0    0  502    0  0.00000000000E+00  0.00000000000E+00  0.37377089718E+04  0.37377089718E+04  0.00000000000E+00 0. -1.
          1   -1    0    0  501    0 -0.00000000000E+00 -0.00000000000E+00 -0.51556385156E+02  0.51556385156E+02  0.00000000000E+00 0. -1.
         25    2    1    2    0    0 -0.13709961776E+02 -0.10750464379E+03  0.55409606381E+03  0.57826438526E+03  0.12498815877E+03 0.  0.
          2    1    1    2  501    0  0.39454762624E+02  0.14691090917E+02 -0.27299312307E+02  0.50177274721E+02  0.00000000000E+00 0. -1.
          1    1    1    2  502    0 -0.25744800848E+02  0.92813552877E+02  0.31593558352E+04  0.31608236970E+04  0.00000000000E+00 0. -1.
         22    1    3    3    0    0  0.41261164176E+02 -0.71850657933E+02  0.43023827936E+03  0.43814378661E+03  0.00000000000E+00 0. -1.
         22    1    3    3    0    0 -0.54971125952E+02 -0.35653985861E+02  0.12385778445E+03  0.14012059865E+03  0.00000000000E+00 0. -1.
</event>
<event>
 7    1  0.6067783E-006  0.4460244E+02  0.7818608E-02  0.1510647E+00
          2   -1    0    0  502    0  0.00000000000E+00  0.00000000000E+00  0.37214087530E+04  0.37214087530E+04  0.00000000000E+00 0. -1.
          1   -1    0    0  501    0 -0.00000000000E+00 -0.00000000000E+00 -0.20370403189E+02  0.20370403189E+02  0.00000000000E+00 0. -1.
         25    2    1    2    0    0  0.62899779103E+01 -0.11305056102E+02  0.71020237270E+03  0.72123478699E+03  0.12499935862E+03 0.  0.
          2    1    1    2  501    0 -0.81934004133E+01 -0.34320217441E+02  0.65236480266E+01  0.35882685506E+02  0.00000000000E+00 0. -1.
          1    1    1    2  502    0  0.19034225031E+01  0.45625273543E+02  0.29843123291E+04  0.29846616837E+04  0.00000000000E+00 0. -1.
         22    1    3    3    0    0 -0.20560384246E+02  0.51251693477E+02  0.38879750414E+03  0.39269958582E+03  0.00000000000E+00 0. -1.
         22    1    3    3    0    0  0.26850362156E+02 -0.62556749580E+02  0.32140486856E+03  0.32853520116E+03  0.00000000000E+00 0. -1.
</event>
<event>
 7    1  0.6067783E-006  0.7658503E+02  0.7818608E-02  0.1511996E+00
          2   -1    0    0  502    0  0.00000000000E+00  0.00000000000E+00  0.12905848325E+03  0.12905848325E+03  0.00000000000E+00 0. -1.
          1   -1    0    0  501    0 -0.00000000000E+00 -0.00000000000E+00 -0.52510533262E+03  0.52510533262E+03  0.00000000000E+00 0. -1.
         25    2    1    2    0    0  0.10470382594E+02 -0.89967608071E+02 -0.16817409417E+03  0.22826975949E+03  0.12498302978E+03 0.  0.
          2    1    1    2  501    0  0.29629059895E+01  0.74664408251E+02 -0.32150445117E+03  0.33007372630E+03  0.00000000000E+00 0. -1.
          1    1    1    2  502    0 -0.13433288583E+02  0.15303199820E+02  0.93631695972E+02  0.95820330085E+02  0.00000000000E+00 0. -1.
         22    1    3    3    0    0  0.39255343329E+01 -0.86893498624E+02 -0.33201050151E+02  0.93103166724E+02  0.00000000000E+00 0.  1.
         22    1    3    3    0    0  0.65448482609E+01 -0.30741094475E+01 -0.13497304402E+03  0.13516659277E+03  0.00000000000E+00 0.  1.
</event>
<event>
 7    1  0.6067783E-006  0.3904540E+02  0.7818608E-02  0.1590624E+00
          2   -1    0    0  502    0  0.00000000000E+00  0.00000000000E+00  0.37637452553E+04  0.37637452553E+04  0.00000000000E+00 0. -1.
          1   -1    0    0  501    0 -0.00000000000E+00 -0.00000000000E+00 -0.27433784757E+03  0.27433784757E+03  0.00000000000E+00 0. -1.
         25    2    1    2    0    0 -0.21180007422E+02 -0.35095309261E+02  0.10864620369E+04  0.10943972867E+04  0.12500155983E+03 0.  0.
          2    1    1    2  501    0  0.23773909727E+02 -0.40522416571E+01 -0.26968816145E+03  0.27076433272E+03  0.00000000000E+00 0. -1.
          1    1    1    2  502    0 -0.25939023050E+01  0.39147550918E+02  0.26726335323E+04  0.26729214835E+04  0.00000000000E+00 0. -1.
         22    1    3    3    0    0 -0.69484023747E+02 -0.43913883110E+02  0.64694082224E+03  0.65214176845E+03  0.00000000000E+00 0. -1.
         22    1    3    3    0    0  0.48304016325E+02  0.88185738491E+01  0.43952121466E+03  0.44225551820E+03  0.00000000000E+00 0. -1.
</event>
<event>
 7    1  0.6067783E-006  0.1617641E+03  0.7818608E-02  0.1369105E+00
          2   -1    0    0  502    0  0.00000000000E+00  0.00000000000E+00  0.34351198436E+03  0.34351198436E+03  0.00000000000E+00 0. -1.
          1   -1    0    0  501    0 -0.00000000000E+00 -0.00000000000E+00 -0.27797328401E+04  0.27797328401E+04  0.00000000000E+00 0. -1.
         25    2    1    2    0    0 -0.14760497759E+03  0.34685676801E+02 -0.62553900620E+03  0.65567774655E+03  0.12499573379E+03 0.  0.
          2    1    1    2  501    0  0.16380289442E+03 -0.11728222377E+02 -0.21353650000E+04  0.21416705215E+04  0.00000000000E+00 0. -1.
          1    1    1    2  502    0 -0.16197916836E+02 -0.22957454424E+02  0.32468315051E+03  0.32589655636E+03  0.00000000000E+00 0. -1.
         22    1    3    3    0    0 -0.10212821261E+03  0.41241133338E+02 -0.20569342801E+03  0.23332550057E+03  0.00000000000E+00 0. -1.
         22    1    3    3    0    0 -0.45476764979E+02 -0.65554565370E+01 -0.41984557818E+03  0.42235224598E+03  0.00000000000E+00 0. -1.
</event>
<event>
 7    1  0.6067783E-006  0.1171709E+03  0.7818608E-02  0.1407849E+00
          2   -1    0    0  502    0  0.00000000000E+00  0.00000000000E+00  0.74989248239E+02  0.74989248239E+02  0.00000000000E+00 0. -1.
          1   -1    0    0  501    0 -0.00000000000E+00 -0.00000000000E+00 -0.79698090329E+03  0.79698090329E+03  0.00000000000E+00 0. -1.
         25    2    1    2    0    0  0.59779173373E+02  0.97995240858E+02 -0.46494825414E+03  0.49495342358E+03  0.12500158275E+03 0.  0.
          2    1    1    2  501    0  0.24011178919E+02 -0.15149481067E+02 -0.25762422129E+03  0.25918387852E+03  0.00000000000E+00 0. -1.
          1    1    1    2  502    0 -0.83790352292E+02 -0.82845759791E+02  0.58082037324E+00  0.11783284943E+03  0.00000000000E+00 0. -1.
         22    1    3    3    0    0  0.35661652345E+02  0.11704842606E+03 -0.25580228313E+03  0.28356109667E+03  0.00000000000E+00 0. -1.
         22    1    3    3    0    0  0.24117521028E+02 -0.19053185206E+02 -0.20914597101E+03  0.21139232691E+03  0.00000000000E+00 0. -1.
</event>
<event>
 7    1  0.6067783E-006  0.7413983E+02  0.7818608E-02  0.1356791E+00
          2   -1    0    0  502    0  0.00000000000E+00  0.00000000000E+00  0.20885674713E+03  0.20885674713E+03  0.00000000000E+00 0. -1.
          1   -1    0    0  501    0 -0.00000000000E+00 -0.00000000000E+00 -0.17206025873E+03  0.17206025873E+03  0.00000000000E+00 0. -1.
         25    2    1    2    0    0  0.10621448376E+02 -0.48596859991E+02 -0.10314995819E+03  0.16952475139E+03  0.12499702993E+03 0.  0.
          2    1    1    2  501    0  0.63689210853E+02  0.23698642066E+02  0.25286078968E+02  0.72507427236E+02  0.00000000000E+00 0. -1.
          1    1    1    2  502    0 -0.74310659229E+02  0.24898217926E+02  0.11466036763E+03  0.13888482723E+03  0.00000000000E+00 0. -1.
         22    1    3    3    0    0 -0.33514064835E+02  0.14015680542E+02  0.53381228943E+01  0.36716854425E+02  0.00000000000E+00 0. -1.
         22    1    3    3    0    0  0.44135513211E+02 -0.62612540533E+02 -0.10848808109E+03  0.13280789696E+03  0.00000000000E+00 0. -1.
</event>
<event>
 7    1  0.1170891E-005  0.6598687E+02  0.7818608E-02  0.1521512E+00
          2   -1    0    0  502    0  0.00000000000E+00  0.00000000000E+00  0.11434008032E+04  0.11434008032E+04  0.00000000000E+00 0. -1.
          1   -1    0    0  501    0 -0.00000000000E+00 -0.00000000000E+00 -0.15188043134E+04  0.15188043134E+04  0.00000000000E+00 0. -1.
         25    2    1    2    0    0  0.29725368109E+02  0.76422695390E+02 -0.10852565562E+04  0.10955046190E+04  0.12499820602E+03 0.  0.
          2    1    1    2  501    0 -0.19065131592E+02 -0.11315253819E+02 -0.42718006037E+03  0.42775497447E+03  0.00000000000E+00 0. -1.
          1    1    1    2  502    0 -0.10660236517E+02 -0.65107441571E+02  0.11370331064E+04  0.11389455231E+04  0.00000000000E+00 0. -1.
         22    1    3    3    0    0 -0.38472982683E+02  0.28064491510E+02 -0.68266754176E+03  0.68432650003E+03  0.00000000000E+00 0.  1.
         22    1    3    3    0    0  0.68198350792E+02  0.48358203880E+02 -0.40258901445E+03  0.41117811893E+03  0.00000000000E+00 0.  1.
</event>
<event>
 7    1  0.6067783E-006  0.3012209E+02  0.7818608E-02  0.1667552E+00
          2   -1    0    0  502    0  0.00000000000E+00  0.00000000000E+00  0.20459841594E+03  0.20459841594E+03  0.00000000000E+00 0. -1.
          1   -1    0    0  501    0 -0.00000000000E+00 -0.00000000000E+00 -0.89651692358E+03  0.89651692358E+03  0.00000000000E+00 0. -1.
         25    2    1    2    0    0 -0.35074737964E+02  0.22880685929E+02  0.92677760397E+02  0.16115410695E+03  0.12501086306E+03 0.  0.
          2    1    1    2  501    0  0.58450194226E+01 -0.19135779879E+02 -0.85936339327E+03  0.85959629130E+03  0.00000000000E+00 0. -1.
          1    1    1    2  502    0  0.29229718541E+02 -0.37449060504E+01  0.74767125239E+02  0.80364941261E+02  0.00000000000E+00 0. -1.
         22    1    3    3    0    0  0.35781725697E+01  0.69497549616E+02  0.62310462229E+02  0.93409348701E+02  0.00000000000E+00 0.  1.
         22    1    3    3    0    0 -0.38652910534E+02 -0.46616863686E+02  0.30367298168E+02  0.67744758252E+02  0.00000000000E+00 0.  1.
</event>
<event>
 7    1  0.6067783E-006  0.1502644E+03  0.7818608E-02  0.1225210E+00
          2   -1    0    0  502    0  0.00000000000E+00  0.00000000000E+00  0.11422925936E+04  0.11422925936E+04  0.00000000000E+00 0. -1.
          1   -1    0    0  501    0 -0.00000000000E+00 -0.00000000000E+00 -0.13087103532E+04  0.13087103532E+04  0.00000000000E+00 0. -1.
         25    2    1    2    0    0  0.96520353632E+02  0.18435277758E+03 -0.24236273018E+03  0.34302641273E+03  0.12500120634E+03 0.  0.
          2    1    1    2  501    0  0.12247823985E+02 -0.14663334008E+03 -0.10076230284E+04  0.10183101261E+04  0.00000000000E+00 0. -1.
          1    1    1    2  502    0 -0.10876817762E+03 -0.37719437497E+02  0.10835679990E+04  0.10896664080E+04  0.00000000000E+00 0. -1.
         22    1    3    3    0    0  0.30116283475E+01  0.10301987876E+03 -0.17199747339E+03  0.20051258359E+03  0.00000000000E+00 0.  1.
         22    1    3    3    0    0  0.93508725285E+02  0.81332898818E+02 -0.70365256793E+02  0.14251382915E+03  0.00000000000E+00 0.  1.
</event>
<event>
 7    1  0.6067783E-006  0.1591353E+03  0.7818608E-02  0.1202384E+00
          2   -1    0    0  502    0  0.00000000000E+00  0.00000000000E+00  0.22580485391E+04  0.22580485391E+04  0.00000000000E+00 0. -1.
          1   -1    0    0  501    0 -0.00000000000E+00 -0.00000000000E+00 -0.70912257772E+03  0.70912257772E+03  0.00000000000E+00 0. -1.
         25    2    1    2    0    0  0.20619243236E+03 -0.48913232452E+02  0.75270593895E+03  0.79189557135E+03  0.12499816769E+03 0.  0.
          2    1    1    2  501    0 -0.67198886710E+02  0.12109593010E+03 -0.67838467903E+03  0.69237683916E+03  0.00000000000E+00 0. -1.
          1    1    1    2  502    0 -0.13899354565E+03 -0.72182697647E+02  0.14746047015E+04  0.14828987063E+04  0.00000000000E+00 0. -1.
         22    1    3    3    0    0  0.19481990198E+03 -0.81364252040E+02  0.62825230755E+03  0.66277892065E+03  0.00000000000E+00 0. -1.
         22    1    3    3    0    0  0.11372530375E+02  0.32451019588E+02  0.12445363140E+03  0.12911665070E+03  0.00000000000E+00 0. -1.
</event>
<event>
 7    1  0.6067783E-006  0.3290059E+02  0.7818608E-02  0.1609876E+00
          2   -1    0    0  502    0  0.00000000000E+00  0.00000000000E+00  0.55080045010E+03  0.55080045010E+03  0.00000000000E+00 0. -1.
          1   -1    0    0  501    0 -0.00000000000E+00 -0.00000000000E+00 -0.16482100221E+03  0.16482100221E+03  0.00000000000E+00 0. -1.
         25    2    1    2    0    0  0.13730820343E+01  0.14683020085E+02  0.32925117168E+02  0.13009139544E+03  0.12498892508E+03 0.  0.
          2    1    1    2  501    0  0.21624590227E+02 -0.25679754348E+02 -0.11345854557E+03  0.11832123329E+03  0.00000000000E+00 0. -1.
          1    1    1    2  502    0 -0.22997672262E+02  0.10996734263E+02  0.46651287628E+03  0.46720882358E+03  0.00000000000E+00 0. -1.
         22    1    3    3    0    0  0.13682341273E+02 -0.36185476215E+02  0.59827345543E+02  0.71245395825E+02  0.00000000000E+00 0. -1.
         22    1    3    3    0    0 -0.12309259238E+02  0.50868496299E+02 -0.26902228375E+02  0.58845999611E+02  0.00000000000E+00 0. -1.
</event>
<event>
 7    1  0.6067783E-006  0.1482333E+03  0.7818608E-02  0.1331171E+00
          2   -1    0    0  502    0  0.00000000000E+00  0.00000000000E+00  0.10331535860E+04  0.10331535860E+04  0.00000000000E+00 0. -1.
          1   -1    0    0  501    0 -0.00000000000E+00 -0.00000000000E+00 -0.37906041943E+03  0.37906041943E+03  0.00000000000E+00 0. -1.
         25    2    1    2    0    0  0.14788688977E+03  0.41565887436E+02  0.15549122251E+03  0.25179902999E+03  0.12500790399E+03 0.  0.
          2    1    1    2  501    0  0.32254765763E+00 -0.42376603993E+02 -0.32289051713E+03  0.32565958708E+03  0.00000000000E+00 0. -1.
          1    1    1    2  502    0 -0.14820943742E+03  0.81071655635E+00  0.82149246122E+03  0.83475538839E+03  0.00000000000E+00 0. -1.
         22    1    3    3    0    0  0.11366747027E+03 -0.23049864037E+02  0.57268033969E+02  0.12934920852E+03  0.00000000000E+00 0.  1.
         22    1    3    3    0    0  0.34219419493E+02  0.64615751473E+02  0.98223188545E+02  0.12244982147E+03  0.00000000000E+00 0.  1.
</event>
<event>
 7    1  0.6067783E-006  0.6902731E+02  0.7818608E-02  0.1448343E+00
          2   -1    0    0  502    0  0.00000000000E+00  0.00000000000E+00  0.18556742766E+04  0.18556742766E+04  0.00000000000E+00 0. -1.
          1   -1    0    0  501    0 -0.00000000000E+00 -0.00000000000E+00 -0.97267266103E+03  0.97267266103E+03  0.00000000000E+00 0. -1.
         25    2    1    2    0    0  0.38251484874E+02 -0.93511341789E+02  0.49162525257E+03  0.51723084781E+03  0.12499925528E+03 0.  0.
          2    1    1    2  501    0 -0.37121684865E+02  0.58107299707E+02 -0.95839889573E+03  0.96087612162E+03  0.00000000000E+00 0. -1.
          1    1    1    2  502    0 -0.11298000088E+01  0.35404042081E+02  0.13497752588E+04  0.13502399682E+04  0.00000000000E+00 0. -1.
         22    1    3    3    0    0  0.39571845634E+02 -0.10405243486E+03  0.49396406601E+03  0.50635297835E+03  0.00000000000E+00 0.  1.
         22    1    3    3    0    0 -0.13203607601E+01  0.10541093073E+02 -0.23388134419E+01  0.10877869462E+02  0.00000000000E+00 0.  1.
</event>
<event>
 7    1  0.6067783E-006  0.6436793E+02  0.7818608E-02  0.1499868E+00
          2   -1    0    0  502    0  0.00000000000E+00  0.00000000000E+00  0.42472125384E+03  0.42472125384E+03  0.00000000000E+00 0. -1.
          1   -1    0    0  501    0 -0.00000000000E+00 -0.00000000000E+00 -0.75696498413E+02  0.75696498413E+02  0.00000000000E+00 0. -1.
         25    2    1    2    0    0 -0.50699401674E+02 -0.19953227752E+02  0.74115722078E+02  0.15520018326E+03  0.12500158398E+03 0.  0.
          2    1    1    2  501    0  0.50047914651E+02  0.46260562449E+02 -0.89705036542E+00  0.68158917967E+02  0.00000000000E+00 0. -1.
          1    1    1    2  502    0  0.65148702243E+00 -0.26307334697E+02  0.27580608371E+03  0.27705865102E+03  0.00000000000E+00 0. -1.
         22    1    3    3    0    0 -0.88650552753E+01 -0.48504594340E+02  0.89570875144E+02  0.10224591215E+03  0.00000000000E+00 0. -1.
         22    1    3    3    0    0 -0.41834346399E+02  0.28551366588E+02 -0.15455153066E+02  0.52954271111E+02  0.00000000000E+00 0. -1.
</event>
<event>
 7    1  0.6067783E-006  0.7553160E+02  0.7818608E-02  0.1410298E+00
          2   -1    0    0  502    0  0.00000000000E+00  0.00000000000E+00  0.40840030537E+03  0.40840030537E+03  0.00000000000E+00 0. -1.
          1   -1    0    0  501    0 -0.00000000000E+00 -0.00000000000E+00 -0.10404142975E+04  0.10404142975E+04  0.00000000000E+00 0. -1.
         25    2    1    2    0    0 -0.10463910478E+03 -0.20799990885E+02 -0.30431567075E+03  0.34585370316E+03  0.12499909862E+03 0.  0.
          2    1    1    2  501    0  0.39660850990E+02 -0.17143983340E+02 -0.71101599387E+03  0.71232762322E+03  0.00000000000E+00 0. -1.
          1    1    1    2  502    0  0.64978253789E+02  0.37943974225E+02  0.38331767250E+03  0.39063327648E+03  0.00000000000E+00 0. -1.
         22    1    3    3    0    0 -0.58000142831E+02 -0.53214980015E+02 -0.71934487580E+02  0.10663217699E+03  0.00000000000E+00 0. -1.
         22    1    3    3    0    0 -0.46638961948E+02  0.32414989130E+02 -0.23238118317E+03  0.23922152617E+03  0.00000000000E+00 0. -1.
</event>
<event>
 7    1  0.6067783E-006  0.7915827E+02  0.7818608E-02  0.1451502E+00
          2   -1    0    0  502    0  0.00000000000E+00  0.00000000000E+00  0.76367418332E+03  0.76367418332E+03  0.00000000000E+00 0. -1.
          1   -1    0    0  501    0 -0.00000000000E+00 -0.00000000000E+00 -0.17529968237E+04  0.17529968237E+04  0.00000000000E+00 0. -1.
         25    2    1    2    0    0 -0.44469582596E+02  0.78173361731E+02  0.15203578334E+03  0.21639983964E+03  0.12500157167E+03 0.  0.
          2    1    1    2  501    0  0.30166220703E+02 -0.84265217004E+00 -0.17180133841E+04  0.17182784113E+04  0.00000000000E+00 0. -1.
          1    1    1    2  502    0  0.14303361894E+02 -0.77330709561E+02  0.57665496036E+03  0.58199275607E+03  0.00000000000E+00 0. -1.
         22    1    3    3    0    0 -0.43145082841E+02  0.18498348001E+02  0.14945536898E+03  0.15665437871E+03  0.00000000000E+00 0. -1.
         22    1    3    3    0    0 -0.13244997551E+01  0.59675013730E+02  0.25804143580E+01  0.59745460928E+02  0.00000000000E+00 0. -1.
</event>
<event>
 7    1  0.6067783E-006  0.1403656E+03  0.7818608E-02  0.1320353E+00
          2   -1    0    0  502    0  0.00000000000E+00  0.00000000000E+00  0.11869863655E+04  0.11869863655E+04  0.00000000000E+00 0. -1.
          1   -1    0    0  501    0 -0.00000000000E+00 -0.00000000000E+00 -0.70369064879E+03  0.70369064879E+03  0.00000000000E+00 0. -1.
         25    2    1    2    0    0 -0.74214201819E+02 -0.10346584546E+03 -0.12942915622E+02  0.17889812509E+03  0.12499636461E+03 0.  0.
          2    1    1    2  501    0  0.38280808466E+02  0.13714905563E+03 -0.59886900256E+03  0.61556426633E+03  0.00000000000E+00 0. -1.
          1    1    1    2  502    0  0.35933393353E+02 -0.33683210165E+02  0.10951076349E+04  0.10962146228E+04  0.00000000000E+00 0. -1.
         22    1    3    3    0    0 -0.48333589023E+02 -0.31486100695E+02 -0.64593428814E+02  0.86601509287E+02  0.00000000000E+00 0. -1.
         22    1    3    3    0    0 -0.25880612796E+02 -0.71979744766E+02  0.51650513191E+02  0.92296615800E+02  0.00000000000E+00 0. -1.
</event>
<event>
 7    1  0.6067783E-006  0.6634732E+02  0.7818608E-02  0.1423613E+00
          2   -1    0    0  502    0  0.00000000000E+00  0.00000000000E+00  0.12345026793E+03  0.12345026793E+03  0.00000000000E+00 0. -1.
          1   -1    0    0  501    0 -0.00000000000E+00 -0.00000000000E+00 -0.53198714873E+03  0.53198714873E+03  0.00000000000E+00 0. -1.
         25    2    1    2    0    0  0.10283829291E+03 -0.22711856572E+02 -0.49358697039E+02  0.17074077440E+03  0.12499835260E+03 0.  0.
          2    1    1    2  501    0 -0.42905954969E+02  0.11346112793E+02 -0.40561274679E+03  0.40803352265E+03  0.00000000000E+00 0. -1.
          1    1    1    2  502    0 -0.59932337943E+02  0.11365743779E+02  0.46434563031E+02  0.76663119601E+02  0.00000000000E+00 0. -1.
         22    1    3    3    0    0  0.74178623984E+02  0.20281524163E+02 -0.79756498639E+02  0.11079218183E+03  0.00000000000E+00 0.  1.
         22    1    3    3    0    0  0.28659668929E+02 -0.42993380735E+02  0.30397801600E+02  0.59948592579E+02  0.00000000000E+00 0.  1.
</event>
<event>
 7    1  0.6067783E-006  0.5243599E+02  0.7818608E-02  0.1490331E+00
          2   -1    0    0  502    0  0.00000000000E+00  0.00000000000E+00  0.69105852215E+03  0.69105852215E+03  0.00000000000E+00 0. -1.
          1   -1    0    0  501    0 -0.00000000000E+00 -0.00000000000E+00 -0.55061412528E+03  0.55061412528E+03  0.00000000000E+00 0. -1.
         25    2    1    2    0    0 -0.97363357932E+01  0.31610208308E+02  0.28987947414E+03  0.31740989204E+03  0.12499971412E+03 0.  0.
          2    1    1    2  501    0  0.26692450160E+02  0.21868204132E+02 -0.53425833246E+03  0.53537152619E+03  0.00000000000E+00 0. -1.
          1    1    1    2  502    0 -0.16956114367E+02 -0.53478412440E+02  0.38482325519E+03  0.38889122920E+03  0.00000000000E+00 0. -1.
         22    1    3    3    0    0  0.11047773979E+02 -0.46092972955E+02  0.13138675119E+03  0.13967495786E+03  0.00000000000E+00 0.  1.
         22    1    3    3    0    0 -0.20784109772E+02  0.77703181263E+02  0.15849272295E+03  0.17773493418E+03  0.00000000000E+00 0.  1.
</event>
<event>
 7    1  0.6067783E-006  0.7801370E+02  0.7818608E-02  0.1342343E+00
          2   -1    0    0  502    0  0.00000000000E+00  0.00000000000E+00  0.58045963737E+03  0.58045963737E+03  0.00000000000E+00 0. -1.
          1   -1    0    0  501    0 -0.00000000000E+00 -0.00000000000E+00 -0.47675388163E+03  0.47675388163E+03  0.00000000000E+00 0. -1.
         25    2    1    2    0    0 -0.16295759738E+02 -0.41468448981E+02  0.13227044595E+03  0.18737249987E+03  0.12501119465E+03 0.  0.
          2    1    1    2  501    0 -0.68709939761E+02  0.24830240961E+02 -0.44171104640E+03  0.44771223481E+03  0.00000000000E+00 0. -1.
          1    1    1    2  502    0  0.85005699500E+02  0.16638208020E+02  0.41314635620E+03  0.42212878432E+03  0.00000000000E+00 0. -1.
         22    1    3    3    0    0  0.47400003562E+02 -0.47660056358E+02  0.53680642666E+02  0.86022396542E+02  0.00000000000E+00 0. -1.
         22    1    3    3    0    0 -0.63695763300E+02  0.61916073775E+01  0.78589803282E+02  0.10135010333E+03  0.00000000000E+00 0. -1.
</event>
<event>
 7    1  0.6067783E-006  0.5755982E+02  0.7818608E-02  0.1486462E+00
          2   -1    0    0  502    0  0.00000000000E+00  0.00000000000E+00  0.66660502268E+03  0.66660502268E+03  0.00000000000E+00 0. -1.
          1   -1    0    0  501    0 -0.00000000000E+00 -0.00000000000E+00 -0.10905876006E+04  0.10905876006E+04  0.00000000000E+00 0. -1.
         25    2    1    2    0    0  0.57281531908E+02  0.62273730360E+02 -0.52662564191E+03  0.54783024336E+03  0.12499686969E+03 0.  0.
          2    1    1    2  501    0 -0.90202447992E+01 -0.31010398866E+02 -0.55162634486E+03  0.55257093119E+03  0.00000000000E+00 0. -1.
          1    1    1    2  502    0 -0.48261287108E+02 -0.31263331494E+02  0.65426940886E+03  0.65679144871E+03  0.00000000000E+00 0. -1.
         22    1    3    3    0    0 -0.33079788439E+02 -0.73613135833E+01 -0.80346893720E+02  0.87201402920E+02  0.00000000000E+00 0.  1.
         22    1    3    3    0    0  0.90361320346E+02  0.69635043943E+02 -0.44627874819E+03  0.46062884044E+03  0.00000000000E+00 0.  1.
</event>
<event>
 7    1  0.6067783E-006  0.1598623E+03  0.7818608E-02  0.1379069E+00
          2   -1    0    0  502    0  0.00000000000E+00  0.00000000000E+00  0.84366610829E+02  0.84366610829E+02  0.00000000000E+00 0. -1.
          1   -1    0    0  501    0 -0.00000000000E+00 -0.00000000000E+00 -0.30573248119E+04  0.30573248119E+04  0.00000000000E+00 0. -1.
         25    2    1    2    0    0  0.15425916760E+02 -0.13723038084E+03 -0.15942874407E+04  0.16051316940E+04  0.12500070088E+03 0.  0.
          2    1    1    2  501    0  0.16103174601E+02 -0.20658049774E+02 -0.13752686670E+04  0.13755180746E+04  0.00000000000E+00 0. -1.
          1    1    1    2  502    0 -0.31529091361E+02  0.15788843061E+03 -0.34020934253E+01  0.16104165412E+03  0.00000000000E+00 0. -1.
         22    1    3    3    0    0 -0.26692437909E+02  0.48849696291E+01 -0.51487922734E+03  0.51559380128E+03  0.00000000000E+00 0.  1.
         22    1    3    3    0    0  0.42118354669E+02 -0.14211535047E+03 -0.10794082134E+04  0.10895378927E+04  0.00000000000E+00 0.  1.
</event>
<event>
 7    1  0.6067783E-006  0.3640865E+03  0.7818608E-02  0.1155013E+00
          2   -1    0    0  502    0  0.00000000000E+00  0.00000000000E+00  0.30522534548E+04  0.30522534548E+04  0.00000000000E+00 0. -1.
          1   -1    0    0  501    0 -0.00000000000E+00 -0.00000000000E+00 -0.15604466879E+04  0.15604466879E+04  0.00000000000E+00 0. -1.
         25    2    1    2    0    0  0.18389412455E+03  0.32703929372E+03  0.43218415269E+03  0.58581578292E+03  0.12500096398E+03 0.  0.
          2    1    1    2  501    0 -0.84324616811E+02 -0.35431067899E+03 -0.14602062848E+04  0.15049415579E+04  0.00000000000E+00 0. -1.
          1    1    1    2  502    0 -0.99569507744E+02  0.27271385272E+02  0.25198288990E+04  0.25219428018E+04  0.00000000000E+00 0. -1.
         22    1    3    3    0    0  0.13574445212E+03  0.24076105220E+03  0.22543240064E+03  0.35666820407E+03  0.00000000000E+00 0.  1.
         22    1    3    3    0    0  0.48149672437E+02  0.86278241521E+02  0.20675175205E+03  0.22914757885E+03  0.00000000000E+00 0.  1.
</event>
<event>
 7    1  0.6067783E-006  0.9063599E+02  0.7818608E-02  0.1314424E+00
          2   -1    0    0  502    0  0.00000000000E+00  0.00000000000E+00  0.58491696585E+03  0.58491696585E+03  0.00000000000E+00 0. -1.
          1   -1    0    0  501    0 -0.00000000000E+00 -0.00000000000E+00 -0.11113705023E+04  0.11113705023E+04  0.00000000000E+00 0. -1.
         25    2    1    2    0    0 -0.83820941335E+02 -0.22859955245E+02  0.27220327833E+02  0.15464261762E+03  0.12499946071E+03 0.  0.
          2    1    1    2  501    0  0.71808560851E+02 -0.56679668718E+02 -0.10423678333E+04  0.10463745764E+04  0.00000000000E+00 0. -1.
          1    1    1    2  502    0  0.12012380484E+02  0.79539623963E+02  0.48869396902E+03  0.49527027412E+03  0.00000000000E+00 0. -1.
         22    1    3    3    0    0 -0.64613751694E+02 -0.28363261245E+01 -0.43989581236E+02  0.78218060006E+02  0.00000000000E+00 0.  1.
         22    1    3    3    0    0 -0.19207189641E+02 -0.20023629120E+02  0.71209909068E+02  0.76424557614E+02  0.00000000000E+00 0.  1.
</event>
<event>
 7    1  0.8905696E-006  0.1041014E+03  0.7818608E-02  0.1304771E+00
          2   -1    0    0  502    0  0.00000000000E+00  0.00000000000E+00  0.10910274613E+04  0.10910274613E+04  0.00000000000E+00 0. -1.
          1   -1    0    0  501    0 -0.00000000000E+00 -0.00000000000E+00 -0.25207260207E+04  0.25207260207E+04  0.00000000000E+00 0. -1.
         25    2    1    2    0    0 -0.47391047135E+02 -0.78943481958E+02 -0.14888833507E+04  0.14969555324E+04  0.12499699701E+03 0.  0.
          2    1    1    2  501    0 -0.13064025730E+02  0.12574227055E+03 -0.10225649922E+04  0.10303499166E+04  0.00000000000E+00 0. -1.
          1    1    1    2  502    0  0.60455072865E+02 -0.46798788595E+02  0.10817497835E+04  0.10844480331E+04  0.00000000000E+00 0. -1.
         22    1    3    3    0    0 -0.39816704432E+02 -0.56965552050E+02 -0.30397824312E+03  0.31182241158E+03  0.00000000000E+00 0. -1.
         22    1    3    3    0    0 -0.75743427025E+01 -0.21977929908E+02 -0.11849051076E+04  0.11851331208E+04  0.00000000000E+00 0. -1.
</event>
<event>
 7    1  0.6067783E-006  0.1219850E+03  0.7818608E-02  0.1380009E+00
          2   -1    0    0  502    0  0.00000000000E+00  0.00000000000E+00  0.48162891920E+03  0.48162891920E+03  0.00000000000E+00 0. -1.
          1   -1    0    0  501    0 -0.00000000000E+00 -0.00000000000E+00 -0.49954978422E+03  0.49954978422E+03  0.00000000000E+00 0. -1.
         25    2    1    2    0    0 -0.12634841183E+03 -0.62176873304E+02 -0.27531318017E+03  0.33353944251E+03  0.12498531027E+03 0.  0.
          2    1    1    2  501    0  0.92309661959E+02  0.63480756560E+02 -0.17832306070E+03  0.21059438293E+03  0.00000000000E+00 0. -1.
          1    1    1    2  502    0  0.34038749873E+02 -0.13038832558E+01  0.43571537586E+03  0.43704487797E+03  0.00000000000E+00 0. -1.
         22    1    3    3    0    0 -0.97261125381E+02  0.41456937072E+01 -0.82608125482E+02  0.12767543100E+03  0.00000000000E+00 0.  1.
         22    1    3    3    0    0 -0.29087286452E+02 -0.66322567011E+02 -0.19270505469E+03  0.20586401150E+03  0.00000000000E+00 0.  1.
</event>
<event>
 7    1  0.6067783E-006  0.5241882E+02  0.7818608E-02  0.1441928E+00
          2   -1    0    0  502    0  0.00000000000E+00  0.00000000000E+00  0.12962737635E+04  0.12962737635E+04  0.00000000000E+00 0. -1.
          1   -1    0    0  501    0 -0.00000000000E+00 -0.00000000000E+00 -0.18150452412E+03  0.18150452412E+03  0.00000000000E+00 0. -1.
         25    2    1    2    0    0 -0.23004071604E+01  0.50842727688E+02  0.33518085241E+03  0.36133401985E+03  0.12500318093E+03 0.  0.
          2    1    1    2  501    0 -0.43406792478E+02 -0.22558197274E+02 -0.16409496638E+03  0.17123136363E+03  0.00000000000E+00 0. -1.
          1    1    1    2  502    0  0.45707199638E+02 -0.28284530414E+02  0.94368335337E+03  0.94521290416E+03  0.00000000000E+00 0. -1.
         22    1    3    3    0    0  0.59865494944E+02  0.10656300933E+02  0.15927668678E+03  0.17048899432E+03  0.00000000000E+00 0.  1.
         22    1    3    3    0    0 -0.62165902105E+02  0.40186426755E+02  0.17590416564E+03  0.19084502553E+03  0.00000000000E+00 0.  1.
</event>
<event>
 7    1  0.6067783E-006  0.1640085E+03  0.7818608E-02  0.1258539E+00
          2   -1    0    0  502    0  0.00000000000E+00  0.00000000000E+00  0.25698908256E+03  0.25698908256E+03  0.00000000000E+00 0. -1.
          1   -1    0    0  501    0 -0.00000000000E+00 -0.00000000000E+00 -0.11901700206E+04  0.11901700206E+04  0.00000000000E+00 0. -1.
         25    2    1    2    0    0 -0.15946444604E+02  0.20365378528E+03 -0.41242878617E+03  0.47692051110E+03  0.12500606742E+03 0.  0.
          2    1    1    2  501    0  0.58559336777E+02 -0.47282586802E+02 -0.71403822868E+03  0.71799403267E+03  0.00000000000E+00 0. -1.
          1    1    1    2  502    0 -0.42612892172E+02 -0.15637119848E+03  0.19328607676E+03  0.25224455943E+03  0.00000000000E+00 0. -1.
         22    1    3    3    0    0 -0.62325428801E+02  0.10526617119E+03 -0.15503284289E+03  0.19748571657E+03  0.00000000000E+00 0. -1.
         22    1    3    3    0    0  0.46378984197E+02  0.98387614091E+02 -0.25739594328E+03  0.27943479453E+03  0.00000000000E+00 0. -1.
</event>
<event>
 7    1  0.6067783E-006  0.1612609E+03  0.7818608E-02  0.1292553E+00
          2   -1    0    0  502    0  0.00000000000E+00  0.00000000000E+00  0.33037002150E+03  0.33037002150E+03  0.00000000000E+00 0. -1.
          1   -1    0    0  501    0 -0.00000000000E+00 -0.00000000000E+00 -0.11087515873E+04  0.11087515873E+04  0.00000000000E+00 0. -1.
         25    2    1    2    0    0  0.11489746641E+03  0.13270567716E+03 -0.12415599797E+03  0.24870127792E+03  0.12500155707E+03 0.  0.
          2    1    1    2  501    0  0.22761429331E+02 -0.50343855389E+02 -0.89740071510E+03  0.89909989985E+03  0.00000000000E+00 0. -1.
          1    1    1    2  502    0 -0.13765889574E+03 -0.82361821772E+02  0.24317514729E+03  0.29132043101E+03  0.00000000000E+00 0. -1.
         22    1    3    3    0    0  0.84526455592E+01  0.10335069477E+03 -0.46111520208E+02  0.11348605916E+03  0.00000000000E+00 0. -1.
         22    1    3    3    0    0  0.10644482085E+03  0.29354982387E+02 -0.78044477762E+02  0.13521521876E+03  0.00000000000E+00 0. -1.
</event>
<event>
 7    1  0.6067783E-006  0.7519301E+02  0.7818608E-02  0.1368285E+00
          2   -1    0    0  502    0  0.00000000000E+00  0.00000000000E+00  0.30033753188E+03  0.30033753188E+03  0.00000000000E+00 0. -1.
          1   -1    0    0  501    0 -0.00000000000E+00 -0.00000000000E+00 -0.64079637441E+03  0.64079637441E+03  0.00000000000E+00 0. -1.
         25    2    1    2    0    0 -0.18053770025E+02  0.19065489159E+02 -0.20043681005E+03  0.23767552277E+03  0.12500123124E+03 0.  0.
          2    1    1    2  501    0  0.58988664500E+02 -0.64097691795E+02 -0.41386581500E+03  0.42293390673E+03  0.00000000000E+00 0. -1.
          1    1    1    2  502    0 -0.40934894475E+02  0.45032202636E+02  0.27384378251E+03  0.28052447680E+03  0.00000000000E+00 0. -1.
         22    1    3    3    0    0  0.10189278917E+02 -0.34245473413E+02 -0.16256150438E+03  0.16644163109E+03  0.00000000000E+00 0.  1.
         22    1    3    3    0    0 -0.28243048942E+02  0.53310962572E+02 -0.37875305667E+02  0.71233891676E+02  0.00000000000E+00 0.  1.
</event>
<event>
 7    1  0.6067783E-006  0.5869931E+02  0.7818608E-02  0.1517043E+00
          2   -1    0    0  502    0  0.00000000000E+00  0.00000000000E+00  0.53867099924E+03  0.53867099924E+03  0.00000000000E+00 0. -1.
          1   -1    0    0  501    0 -0.00000000000E+00 -0.00000000000E+00 -0.13335347280E+04  0.13335347280E+04  0.00000000000E+00 0. -1.
         25    2    1    2    0    0 -0.78662195752E+02 -0.13290827052E+02 -0.87140831079E+03  0.88393368476E+03  0.12498771064E+03 0.  0.
          2    1    1    2  501    0  0.24214855278E+02 -0.85479291551E+01 -0.45388372517E+03  0.45460957126E+03  0.00000000000E+00 0. -1.
          1    1    1    2  502    0  0.54447340474E+02  0.21838756207E+02  0.53042830718E+03  0.53366247125E+03  0.00000000000E+00 0. -1.
         22    1    3    3    0    0  0.14000271829E+02 -0.18698729724E+02 -0.33157229523E+02  0.40559240306E+02  0.00000000000E+00 0. -1.
         22    1    3    3    0    0 -0.92662467581E+02  0.54079026722E+01 -0.83825108127E+03  0.84337444445E+03  0.00000000000E+00 0. -1.
</event>
<event>
 7    1  0.6067783E-006  0.1990975E+03  0.7818608E-02  0.1225254E+00
          2   -1    0    0  502    0  0.00000000000E+00  0.00000000000E+00  0.22462118041E+03  0.22462118041E+03  0.00000000000E+00 0. -1.
          1   -1    0    0  501    0 -0.00000000000E+00 -0.00000000000E+00 -0.19038248115E+04  0.19038248115E+04  0.00000000000E+00 0. -1.
         25    2    1    2    0    0 -0.23111189315E+03 -0.10300716067E+03 -0.67204660164E+03  0.72889973737E+03  0.12500004025E+03 0.  0.
          2    1    1    2  501    0  0.36613401127E+02  0.78751956121E+02 -0.11523526030E+04  0.11556205837E+04  0.00000000000E+00 0. -1.
          1    1    1    2  502    0  0.19449849203E+03  0.24255204545E+02  0.14519557354E+03  0.24392567090E+03  0.00000000000E+00 0. -1.
         22    1    3    3    0    0 -0.22878216018E+03 -0.58018982977E+02 -0.58665404055E+03  0.63235309954E+03  0.00000000000E+00 0. -1.
         22    1    3    3    0    0 -0.23297329699E+01 -0.44988177689E+02 -0.85392561089E+02  0.96546637833E+02  0.00000000000E+00 0. -1.
</event>
<event>
 7    1  0.6067783E-006  0.5728283E+02  0.7818608E-02  0.1436622E+00
          2   -1    0    0  502    0  0.00000000000E+00  0.00000000000E+00  0.17888144234E+04  0.17888144234E+04  0.00000000000E+00 0. -1.
          1   -1    0    0  501    0 -0.00000000000E+00 -0.00000000000E+00 -0.22586423388E+02  0.22586423388E+02  0.00000000000E+00 0. -1.
         25    2    1    2    0    0 -0.58017793321E+02  0.93616924639E+00  0.10481706202E+04  0.10571914430E+04  0.12500062959E+03 0.  0.
          2    1    1    2  501    0  0.14675346513E+02 -0.44205057078E+02  0.15648745570E+02  0.49135894257E+02  0.00000000000E+00 0. -1.
          1    1    1    2  502    0  0.43342446808E+02  0.43268887831E+02  0.70240863429E+03  0.70507350955E+03  0.00000000000E+00 0. -1.
         22    1    3    3    0    0 -0.78432350785E+02  0.41496947791E+02  0.79948877796E+03  0.80439787195E+03  0.00000000000E+00 0.  1.
         22    1    3    3    0    0  0.20414557464E+02 -0.40560778544E+02  0.24868184222E+03  0.25279357104E+03  0.00000000000E+00 0.  1.
</event>
<event>
 7    1  0.6067783E-006  0.2066954E+03  0.7818608E-02  0.1250808E+00
          2   -1    0    0  502    0  0.00000000000E+00  0.00000000000E+00  0.23945978704E+04  0.23945978704E+04  0.00000000000E+00 0. -1.
          1   -1    0    0  501    0 -0.00000000000E+00 -0.00000000000E+00 -0.99405167850E+02  0.99405167850E+02  0.00000000000E+00 0. -1.
         25    2    1    2    0    0 -0.29671144963E+02  0.22919596946E+03  0.12263444676E+04  0.12541762557E+04  0.12500463178E+03 0.  0.
          2    1    1    2  501    0  0.79920828887E+02 -0.18879282608E+03  0.39898399884E+02  0.20885868999E+03  0.00000000000E+00 0. -1.
          1    1    1    2  502    0 -0.50249683924E+02 -0.40403143375E+02  0.10289498351E+04  0.10309680926E+04  0.00000000000E+00 0. -1.
         22    1    3    3    0    0  0.16154588894E+02  0.21379357344E+03  0.10023863103E+04  0.10250594997E+04  0.00000000000E+00 0. -1.
         22    1    3    3    0    0 -0.45825733857E+02  0.15402396016E+02  0.22395815723E+03  0.22911675599E+03  0.00000000000E+00 0. -1.
</event>
<event>
 7    1  0.6067783E-006  0.7856425E+02  0.7818608E-02  0.1402777E+00
          2   -1    0    0  502    0  0.00000000000E+00  0.00000000000E+00  0.12372458465E+04  0.12372458465E+04  0.00000000000E+00 0. -1.
          1   -1    0    0  501    0 -0.00000000000E+00 -0.00000000000E+00 -0.69780089647E+02  0.69780089647E+02  0.00000000000E+00 0. -1.
         25    2    1    2    0    0 -0.10495649660E+03  0.26993927657E+02  0.21156141068E+03  0.26856573486E+03  0.12499914057E+03 0.  0.
          2    1    1    2  501    0  0.27986336331E+02 -0.34034969150E+02 -0.27553817083E+02  0.51969481257E+02  0.00000000000E+00 0. -1.
          1    1    1    2  502    0  0.76970160266E+02  0.70410414935E+01  0.98345816322E+03  0.98649072000E+03  0.00000000000E+00 0. -1.
         22    1    3    3    0    0 -0.69317358849E+02 -0.25802730579E+02  0.18557080150E+03  0.19976786407E+03  0.00000000000E+00 0.  1.
         22    1    3    3    0    0 -0.35639137748E+02  0.52796658236E+02  0.25990609179E+02  0.68797870794E+02  0.00000000000E+00 0.  1.
</event>
<event>
 7    1  0.6067783E-006  0.6959404E+02  0.7818608E-02  0.1371912E+00
          2   -1    0    0  502    0  0.00000000000E+00  0.00000000000E+00  0.19310296167E+04  0.19310296167E+04  0.00000000000E+00 0. -1.
          1   -1    0    0  501    0 -0.00000000000E+00 -0.00000000000E+00 -0.23418488751E+02  0.23418488751E+02  0.00000000000E+00 0. -1.
         25    2    1    2    0    0 -0.57306945812E+02 -0.62319860981E+02  0.38961138557E+03  0.41783818926E+03  0.12499547802E+03 0.  0.
          2    1    1    2  501    0  0.63343911410E+02 -0.76850674000E+01  0.11235232203E+03  0.12920741325E+03  0.00000000000E+00 0. -1.
          1    1    1    2  502    0 -0.60369655984E+01  0.70004928381E+02  0.14056474204E+04  0.14074025029E+04  0.00000000000E+00 0. -1.
         22    1    3    3    0    0 -0.62079853943E+02 -0.96265591496E+02  0.26720318232E+03  0.29072067868E+03  0.00000000000E+00 0. -1.
         22    1    3    3    0    0  0.47729081309E+01  0.33945730515E+02  0.12240820325E+03  0.12711751058E+03  0.00000000000E+00 0. -1.
</event>
<event>
 7    1  0.6067783E-006  0.5005002E+02  0.7818608E-02  0.1497992E+00
          2   -1    0    0  502    0  0.00000000000E+00  0.00000000000E+00  0.21832879831E+04  0.21832879831E+04  0.00000000000E+00 0. -1.
          1   -1    0    0  501    0 -0.00000000000E+00 -0.00000000000E+00 -0.36965298145E+02  0.36965298145E+02  0.00000000000E+00 0. -1.
         25    2    1    2    0    0  0.42734969536E+02 -0.66759354402E+02  0.57055230095E+03  0.58943959655E+03  0.12500408330E+03 0.  0.
          2    1    1    2  501    0 -0.66523086069E+01  0.33631825208E+02 -0.16320196845E+02  0.37969747190E+02  0.00000000000E+00 0. -1.
          1    1    1    2  502    0 -0.36082660929E+02  0.33127529194E+02  0.15920905809E+04  0.15928439375E+04  0.00000000000E+00 0. -1.
         22    1    3    3    0    0 -0.17693502501E+02  0.42163597091E+00  0.35851552470E+03  0.35895211276E+03  0.00000000000E+00 0.  1.
         22    1    3    3    0    0  0.60428472037E+02 -0.67180990373E+02  0.21203677626E+03  0.23048748379E+03  0.00000000000E+00 0.  1.
</event>
<event>
 7    1  0.6067783E-006  0.5015820E+02  0.7818608E-02  0.1481096E+00
          2   -1    0    0  502    0  0.00000000000E+00  0.00000000000E+00  0.12681531908E+03  0.12681531908E+03  0.00000000000E+00 0. -1.
          1   -1    0    0  501    0 -0.00000000000E+00 -0.00000000000E+00 -0.15359257924E+03  0.15359257924E+03  0.00000000000E+00 0. -1.
         25    2    1    2    0    0 -0.25359848831E+02 -0.28786173343E+02  0.45289515707E+01  0.13080818818E+03  0.12497401724E+03 0.  0.
          2    1    1    2  501    0 -0.29378880177E+02  0.24860062309E+02 -0.71755175799E+02  0.81424483741E+02  0.00000000000E+00 0. -1.
          1    1    1    2  502    0  0.54738729008E+02  0.39261110338E+01  0.40448964063E+02  0.68175226402E+02  0.00000000000E+00 0. -1.
         22    1    3    3    0    0  0.82228087681E+00 -0.75968289310E+02 -0.44657932049E+01  0.76103879240E+02  0.00000000000E+00 0.  1.
         22    1    3    3    0    0 -0.26182129707E+02  0.47182115967E+02  0.89947447757E+01  0.54704308941E+02  0.00000000000E+00 0.  1.
</event>
<event>
 7    1  0.6067783E-006  0.7081029E+02  0.7818608E-02  0.1449477E+00
          2   -1    0    0  502    0  0.00000000000E+00  0.00000000000E+00  0.12373387985E+04  0.12373387985E+04  0.00000000000E+00 0. -1.
          1   -1    0    0  501    0 -0.00000000000E+00 -0.00000000000E+00 -0.19010520329E+03  0.19010520329E+03  0.00000000000E+00 0. -1.
         25    2    1    2    0    0 -0.92176990810E+02  0.41763550251E+02  0.52323215383E+03  0.54739671790E+03  0.12502195085E+03 0.  0.
          2    1    1    2  501    0  0.68296390710E+02 -0.17222510144E+02 -0.17061780669E+03  0.18458452752E+03  0.00000000000E+00 0. -1.
          1    1    1    2  502    0  0.23880600099E+02 -0.24541040108E+02  0.69461924810E+03  0.69546275640E+03  0.00000000000E+00 0. -1.
         22    1    3    3    0    0 -0.86354828298E+02  0.71713828112E+02  0.27102328562E+03  0.29334902567E+03  0.00000000000E+00 0.  1.
         22    1    3    3    0    0 -0.58221625118E+01 -0.29950277860E+02  0.25220886821E+03  0.25404769222E+03  0.00000000000E+00 0.  1.
</event>
<event>
 7    1  0.6067783E-006  0.6021489E+02  0.7818608E-02  0.1437686E+00
          2   -1    0    0  502    0  0.00000000000E+00  0.00000000000E+00  0.31902733455E+03  0.31902733455E+03  0.00000000000E+00 0. -1.
          1   -1    0    0  501    0 -0.00000000000E+00 -0.00000000000E+00 -0.32389540325E+03  0.32389540325E+03  0.00000000000E+00 0. -1.
         25    2    1    2    0    0  0.12713231190E+02  0.28442952223E+02 -0.10730066938E+03  0.16765767123E+03  0.12500013318E+03 0.  0.
          2    1    1    2  501    0  0.43680789933E+02 -0.49204855010E+01 -0.18051760005E+03  0.18579242857E+03  0.00000000000E+00 0. -1.
          1    1    1    2  502    0 -0.56394021122E+02 -0.23522466722E+02  0.28295020072E+03  0.28947263800E+03  0.00000000000E+00 0. -1.
         22    1    3    3    0    0 -0.26792672211E+02 -0.23611687843E+02  0.66240417013E+01  0.36321302503E+02  0.00000000000E+00 0. -1.
         22    1    3    3    0    0  0.39505903401E+02  0.52054640066E+02 -0.11392471108E+03  0.13133636873E+03  0.00000000000E+00 0. -1.
</event>
<event>
 7    1  0.6067783E-006  0.6056183E+02  0.7818608E-02  0.1496917E+00
          2   -1    0    0  502    0  0.00000000000E+00  0.00000000000E+00  0.22909580583E+04  0.22909580583E+04  0.00000000000E+00 0. -1.
          1   -1    0    0  501    0 -0.00000000000E+00 -0.00000000000E+00 -0.11980040484E+02  0.11980040484E+02  0.00000000000E+00 0. -1.
         25    2    1    2    0    0 -0.41774566035E+01 -0.43262401658E+02  0.58098762169E+03  0.59586973958E+03  0.12500017380E+03 0.  0.
          2    1    1    2  501    0 -0.98435751256E+01  0.68124766448E+02  0.26499317302E+03  0.27378689070E+03  0.00000000000E+00 0. -1.
          1    1    1    2  502    0  0.14021031729E+02 -0.24862364790E+02  0.14329972231E+04  0.14332814685E+04  0.00000000000E+00 0. -1.
         22    1    3    3    0    0 -0.14692609789E+02  0.33150294651E+02  0.67515154313E+02  0.76636224332E+02  0.00000000000E+00 0. -1.
         22    1    3    3    0    0  0.10515153186E+02 -0.76412696309E+02  0.51347246737E+03  0.51923351525E+03  0.00000000000E+00 0. -1.
</event>
<event>
 7    1  0.6067783E-006  0.1086363E+03  0.7818608E-02  0.1326579E+00
          2   -1    0    0  502    0  0.00000000000E+00  0.00000000000E+00  0.24282946741E+03  0.24282946741E+03  0.00000000000E+00 0. -1.
          1   -1    0    0  501    0 -0.00000000000E+00 -0.00000000000E+00 -0.19431661767E+03  0.19431661767E+03  0.00000000000E+00 0. -1.
         25    2    1    2    0    0 -0.67236241600E+02  0.47835159167E+02  0.36479873898E+02  0.15415777365E+03  0.12499969336E+03 0.  0.
          2    1    1    2  501    0  0.52581534964E+02 -0.10623636985E+03 -0.10046908537E+03  0.15538668287E+03  0.00000000000E+00 0. -1.
          1    1    1    2  502    0  0.14654706637E+02  0.58401210684E+02  0.11250206121E+03  0.12760162856E+03  0.00000000000E+00 0. -1.
         22    1    3    3    0    0  0.20201391963E+02  0.23215685327E+02  0.53518862550E+02  0.61735993805E+02  0.00000000000E+00 0.  1.
         22    1    3    3    0    0 -0.87437633563E+02  0.24619473840E+02 -0.17038988652E+02  0.92421779844E+02  0.00000000000E+00 0.  1.
</event>
<event>
 7    1  0.6067783E-006  0.2968015E+02  0.7818608E-02  0.1618129E+00
          2   -1    0    0  502    0  0.00000000000E+00  0.00000000000E+00  0.12688069763E+04  0.12688069763E+04  0.00000000000E+00 0. -1.
          1   -1    0    0  501    0 -0.00000000000E+00 -0.00000000000E+00 -0.97315975328E+03  0.97315975328E+03  0.00000000000E+00 0. -1.
         25    2    1    2    0    0 -0.82344638601E+01 -0.37343127062E+02  0.11862170261E+04  0.11933968801E+04  0.12499185993E+03 0.  0.
          2    1    1    2  501    0 -0.15177162197E+02  0.22224604522E+02 -0.96691893065E+03  0.96729338763E+03  0.00000000000E+00 0. -1.
          1    1    1    2  502    0  0.23411626057E+02  0.15118522540E+02  0.76349127572E+02  0.81276461780E+02  0.00000000000E+00 0. -1.
         22    1    3    3    0    0 -0.77510544228E+01  0.18141878894E+02  0.96913145712E+03  0.96933223809E+03  0.00000000000E+00 0.  1.
         22    1    3    3    0    0 -0.48340943732E+00 -0.55485005956E+02  0.21708556894E+03  0.22406464204E+03  0.00000000000E+00 0.  1.
</event>
<event>
 7    1  0.6067783E-006  0.4732816E+02  0.7818608E-02  0.1518485E+00
          2   -1    0    0  502    0  0.00000000000E+00  0.00000000000E+00  0.41442071086E+03  0.41442071086E+03  0.00000000000E+00 0. -1.
          1   -1    0    0  501    0 -0.00000000000E+00 -0.00000000000E+00 -0.99469702083E+02  0.99469702083E+02  0.00000000000E+00 0. -1.
         25    2    1    2    0    0  0.30654472882E+02  0.33328455664E+02  0.13547689784E+03  0.18981287424E+03  0.12499781883E+03 0.  0.
          2    1    1    2  501    0 -0.26514347307E+01 -0.47846086311E+02 -0.63227560243E+02  0.79334749358E+02  0.00000000000E+00 0. -1.
          1    1    1    2  502    0 -0.28003038151E+02  0.14517630647E+02  0.24270167117E+03  0.24474278934E+03  0.00000000000E+00 0. -1.
         22    1    3    3    0    0 -0.46732355430E+02  0.15910201744E+02  0.76177720913E+02  0.90774956498E+02  0.00000000000E+00 0.  1.
         22    1    3    3    0    0  0.77386828313E+02  0.17418253920E+02  0.59299176929E+02  0.99037917741E+02  0.00000000000E+00 0.  1.
</event>
<event>
 7    1  0.6067783E-006  0.1084293E+03  0.7818608E-02  0.1333871E+00
          2   -1    0    0  502    0  0.00000000000E+00  0.00000000000E+00  0.38002019397E+03  0.38002019397E+03  0.00000000000E+00 0. -1.
          1   -1    0    0  501    0 -0.00000000000E+00 -0.00000000000E+00 -0.72295416645E+03  0.72295416645E+03  0.00000000000E+00 0. -1.
         25    2    1    2    0    0  0.92439540718E+02  0.10996270023E+03 -0.26842397728E+02  0.19230805221E+03  0.12500003400E+03 0.  0.
          2    1    1    2  501    0 -0.92608805965E+02 -0.53383127375E+02 -0.60596592034E+03  0.61532174173E+03  0.00000000000E+00 0. -1.
          1    1    1    2  502    0  0.16926524679E+00 -0.56579572854E+02  0.28987434559E+03  0.29534456648E+03  0.00000000000E+00 0. -1.
         22    1    3    3    0    0 -0.17907831138E+02  0.70899266541E+02 -0.15043734454E+02  0.74657286037E+02  0.00000000000E+00 0. -1.
         22    1    3    3    0    0  0.11034737186E+03  0.39063433688E+02 -0.11798663275E+02  0.11765076618E+03  0.00000000000E+00 0. -1.
</event>
<event>
 7    1  0.6067783E-006  0.1107054E+03  0.7818608E-02  0.1312928E+00
          2   -1    0    0  502    0  0.00000000000E+00  0.00000000000E+00  0.36279311352E+04  0.36279311352E+04  0.00000000000E+00 0. -1.
          1   -1    0    0  501    0 -0.00000000000E+00 -0.00000000000E+00 -0.25492383405E+03  0.25492383405E+03  0.00000000000E+00 0. -1.
         25    2    1    2    0    0  0.16911067861E+03 -0.14689766344E+02  0.71505295004E+03  0.74547947262E+03  0.12499884755E+03 0.  0.
          2    1    1    2  501    0 -0.62468296707E+02  0.23532613880E+02 -0.23405443637E+03  0.24338765621E+03  0.00000000000E+00 0. -1.
          1    1    1    2  502    0 -0.10664238190E+03 -0.88428475358E+01  0.28920087875E+04  0.28939878405E+04  0.00000000000E+00 0. -1.
         22    1    3    3    0    0  0.18916297674E+03 -0.10806548675E+02  0.66365348858E+03  0.69017053412E+03  0.00000000000E+00 0.  1.
         22    1    3    3    0    0 -0.20052298136E+02 -0.38832176686E+01  0.51399461454E+02  0.55308938498E+02  0.00000000000E+00 0.  1.
</event>
<event>
 7    1  0.6067783E-006  0.5574912E+02  0.7818608E-02  0.1488842E+00
          2   -1    0    0  502    0  0.00000000000E+00  0.00000000000E+00  0.19504286477E+04  0.19504286477E+04  0.00000000000E+00 0. -1.
          1   -1    0    0  501    0 -0.00000000000E+00 -0.00000000000E+00 -0.91507776434E+02  0.91507776434E+02  0.00000000000E+00 0. -1.
         25    2    1    2    0    0  0.16368265427E+02  0.74347155943E+02  0.76361040714E+03  0.77751036128E+03  0.12500435311E+03 0.  0.
          2    1    1    2  501    0  0.14334776634E+02 -0.29495673813E+02 -0.80726606769E+02  0.87133607955E+02  0.00000000000E+00 0. -1.
          1    1    1    2  502    0 -0.30703042061E+02 -0.44851482130E+02  0.11760370709E+04  0.11772924549E+04  0.00000000000E+00 0. -1.
         22    1    3    3    0    0  0.38605588792E+02 -0.37915524504E+01  0.78103966278E+02  0.87206633373E+02  0.00000000000E+00 0.  1.
         22    1    3    3    0    0 -0.22237323365E+02  0.78138708393E+02  0.68550644087E+03  0.69030372791E+03  0.00000000000E+00 0.  1.
</event>
<event>
 7    1  0.6067783E-006  0.3495315E+02  0.7818608E-02  0.1575346E+00
          2   -1    0    0  502    0  0.00000000000E+00  0.00000000000E+00  0.26373447192E+03  0.26373447192E+03  0.00000000000E+00 0. -1.
          1   -1    0    0  501    0 -0.00000000000E+00 -0.00000000000E+00 -0.19334612659E+03  0.19334612659E+03  0.00000000000E+00 0. -1.
         25    2    1    2    0    0  0.33542687917E+02  0.44481443099E+02  0.12777094453E+03  0.18723420433E+03  0.12501008884E+03 0.  0.
          2    1    1    2  501    0 -0.31395771124E+02 -0.14964796303E+02 -0.15964404493E+03  0.16338867970E+03  0.00000000000E+00 0. -1.
          1    1    1    2  502    0 -0.21469167932E+01 -0.29516646796E+02  0.10226144573E+03  0.10645771448E+03  0.00000000000E+00 0. -1.
         22    1    3    3    0    0  0.18723334348E+02  0.38827585591E+02 -0.13426390955E+02  0.45148783217E+02  0.00000000000E+00 0. -1.
         22    1    3    3    0    0  0.14819353569E+02  0.56538575085E+01  0.14119733548E+03  0.14208542111E+03  0.00000000000E+00 0. -1.
</event>
<event>
 7    1  0.6067783E-006  0.9124126E+02  0.7818608E-02  0.1430846E+00
          2   -1    0    0  502    0  0.00000000000E+00  0.00000000000E+00  0.15519806514E+04  0.15519806514E+04  0.00000000000E+00 0. -1.
          1   -1    0    0  501    0 -0.00000000000E+00 -0.00000000000E+00 -0.14817792852E+03  0.14817792852E+03  0.00000000000E+00 0. -1.
         25    2    1    2    0    0 -0.37897912287E+02  0.47982705632E+02  0.10974574068E+04  0.11062441992E+04  0.12499950706E+03 0.  0.
          2    1    1    2  501    0  0.58394530846E+02 -0.70627896753E+02 -0.12859226822E+03  0.15790564423E+03  0.00000000000E+00 0. -1.
          1    1    1    2  502    0 -0.20496618559E+02  0.22645191121E+02  0.43493758435E+03  0.43600873653E+03  0.00000000000E+00 0. -1.
         22    1    3    3    0    0  0.45025028976E+02  0.16307083166E+02  0.49016444252E+03  0.49249807605E+03  0.00000000000E+00 0.  1.
         22    1    3    3    0    0 -0.82922941263E+02  0.31675622466E+02  0.60729296424E+03  0.61374612313E+03  0.00000000000E+00 0.  1.
</event>
<event>
 7    1  0.6067783E-006  0.9042856E+02  0.7818608E-02  0.1309128E+00
          2   -1    0    0  502    0  0.00000000000E+00  0.00000000000E+00  0.12255785260E+04  0.12255785260E+04  0.00000000000E+00 0. -1.
          1   -1    0    0  501    0 -0.00000000000E+00 -0.00000000000E+00 -0.35011490791E+03  0.35011490791E+03  0.00000000000E+00 0. -1.
         25    2    1    2    0    0  0.16361611398E+03  0.58279928069E+02  0.62279125656E+03  0.65852632697E+03  0.12498476427E+03 0.  0.
          2    1    1    2  501    0 -0.86492141531E+02 -0.23547209764E+02 -0.32305426485E+03  0.33526022679E+03  0.00000000000E+00 0. -1.
          1    1    1    2  502    0 -0.77123972452E+02 -0.34732718306E+02  0.57572662639E+03  0.58190688016E+03  0.00000000000E+00 0. -1.
         22    1    3    3    0    0  0.17961581849E+03  0.32188325884E+02  0.51025611716E+03  0.54190334532E+03  0.00000000000E+00 0. -1.
         22    1    3    3    0    0 -0.15999704507E+02  0.26091602186E+02  0.11253513940E+03  0.11662298165E+03  0.00000000000E+00 0. -1.
</event>
<event>
 7    1  0.6067783E-006  0.7665508E+02  0.7818608E-02  0.1346564E+00
          2   -1    0    0  502    0  0.00000000000E+00  0.00000000000E+00  0.11514477687E+04  0.11514477687E+04  0.00000000000E+00 0. -1.
          1   -1    0    0  501    0 -0.00000000000E+00 -0.00000000000E+00 -0.73014453913E+03  0.73014453913E+03  0.00000000000E+00 0. -1.
         25    2    1    2    0    0 -0.26629179491E+01  0.11778429965E+03  0.76162313036E+02  0.18789735919E+03  0.12499794913E+03 0.  0.
          2    1    1    2  501    0  0.45895332210E+02 -0.55089224636E+02 -0.67094180730E+03  0.67476226404E+03  0.00000000000E+00 0. -1.
          1    1    1    2  502    0 -0.43232414261E+02 -0.62695075015E+02  0.10160827239E+04  0.10189326846E+04  0.00000000000E+00 0. -1.
         22    1    3    3    0    0 -0.34995065990E+02  0.13125834148E+03  0.52544375722E+02  0.14565135863E+03  0.00000000000E+00 0. -1.
         22    1    3    3    0    0  0.32332148041E+02 -0.13474041826E+02  0.23617937314E+02  0.42246000557E+02  0.00000000000E+00 0. -1.
</event>
<event>
 7    1  0.6067783E-006  0.8201231E+02  0.7818608E-02  0.1428504E+00
          2   -1    0    0  502    0  0.00000000000E+00  0.00000000000E+00  0.67793147841E+03  0.67793147841E+03  0.00000000000E+00 0. -1.
          1   -1    0    0  501    0 -0.00000000000E+00 -0.00000000000E+00 -0.68218783892E+03  0.68218783892E+03  0.00000000000E+00 0. -1.
         25    2    1    2    0    0  0.47207949126E+01  0.10833469074E+03 -0.22537894953E+03  0.27960551422E+03  0.12499952628E+03 0.  0.
          2    1    1    2  501    0  0.17725629675E+02 -0.29702730725E+02 -0.42642392284E+03  0.42782451091E+03  0.00000000000E+00 0. -1.
          1    1    1    2  502    0 -0.22446424588E+02 -0.78631960019E+02  0.64754651187E+03  0.65268929219E+03  0.00000000000E+00 0. -1.
         22    1    3    3    0    0 -0.46152476346E+02  0.80050396798E+02 -0.77211632522E+02  0.12041492141E+03  0.00000000000E+00 0.  1.
         22    1    3    3    0    0  0.50873271259E+02  0.28284293945E+02 -0.14816731701E+03  0.15919059282E+03  0.00000000000E+00 0.  1.
</event>
<event>
 7    1  0.6067783E-006  0.1133709E+03  0.7818608E-02  0.1404118E+00
          2   -1    0    0  502    0  0.00000000000E+00  0.00000000000E+00  0.17027470535E+03  0.17027470535E+03  0.00000000000E+00 0. -1.
          1   -1    0    0  501    0 -0.00000000000E+00 -0.00000000000E+00 -0.92228785629E+03  0.92228785629E+03  0.00000000000E+00 0. -1.
         25    2    1    2    0    0 -0.10344394984E+03  0.93528969799E+02  0.44065362371E+02  0.19239307284E+03  0.12500007746E+03 0.  0.
          2    1    1    2  501    0  0.91284009772E+02 -0.65869281769E+02 -0.83964159472E+03  0.84715378787E+03  0.00000000000E+00 0. -1.
          1    1    1    2  502    0  0.12159940064E+02 -0.27659688030E+02  0.43563081403E+02  0.53015700935E+02  0.00000000000E+00 0. -1.
         22    1    3    3    0    0  0.84237561779E+01  0.68251422722E+02  0.35484440628E+02  0.77384506837E+02  0.00000000000E+00 0. -1.
         22    1    3    3    0    0 -0.11186770601E+03  0.25277547077E+02  0.85809217422E+01  0.11500856600E+03  0.00000000000E+00 0. -1.
</event>
<event>
 7    1  0.6067783E-006  0.5171511E+02  0.7818608E-02  0.1444708E+00
          2   -1    0    0  502    0  0.00000000000E+00  0.00000000000E+00  0.98229623063E+03  0.98229623063E+03  0.00000000000E+00 0. -1.
          1   -1    0    0  501    0 -0.00000000000E+00 -0.00000000000E+00 -0.82308399836E+03  0.82308399836E+03  0.00000000000E+00 0. -1.
         25    2    1    2    0    0  0.22408531609E+02  0.45912166759E+02  0.60907401972E+02  0.14813707911E+03  0.12499925299E+03 0.  0.
          2    1    1    2  501    0  0.29225431644E+02 -0.38792778094E+02 -0.77793737094E+03  0.77945208870E+03  0.00000000000E+00 0. -1.
          1    1    1    2  502    0 -0.51633963254E+02 -0.71193886651E+01  0.87624220123E+03  0.87779106117E+03  0.00000000000E+00 0. -1.
         22    1    3    3    0    0  0.59106338476E+02  0.35990110678E+02  0.79849692962E+02  0.10566371554E+03  0.00000000000E+00 0. -1.
         22    1    3    3    0    0 -0.36697806867E+02  0.99220560806E+01 -0.18942290991E+02  0.42473363578E+02  0.00000000000E+00 0. -1.
</event>
<event>
 7    1  0.6067783E-006  0.6020875E+02  0.7818608E-02  0.1408297E+00
          2   -1    0    0  502    0  0.00000000000E+00  0.00000000000E+00  0.15729307166E+04  0.15729307166E+04  0.00000000000E+00 0. -1.
          1   -1    0    0  501    0 -0.00000000000E+00 -0.00000000000E+00 -0.89304990351E+02  0.89304990351E+02  0.00000000000E+00 0. -1.
         25    2    1    2    0    0 -0.48881438471E+02 -0.21103058024E+02  0.96536797813E+02  0.16667198663E+03  0.12500185483E+03 0.  0.
          2    1    1    2  501    0 -0.15485766483E+01  0.55035690386E+02 -0.39448984416E+02  0.67731437881E+02  0.00000000000E+00 0. -1.
          1    1    1    2  502    0  0.50430015119E+02 -0.33932632363E+02  0.14265379129E+04  0.14278322825E+04  0.00000000000E+00 0. -1.
         22    1    3    3    0    0  0.17937616385E+02 -0.27432768841E+02 -0.15353719914E+02  0.36194635004E+02  0.00000000000E+00 0. -1.
         22    1    3    3    0    0 -0.66819054856E+02  0.63297108177E+01  0.11189051773E+03  0.13047735163E+03  0.00000000000E+00 0. -1.
</event>
<event>
 7    1  0.6067783E-006  0.9061879E+02  0.7818608E-02  0.1410917E+00
          2   -1    0    0  502    0  0.00000000000E+00  0.00000000000E+00  0.40001623006E+03  0.40001623006E+03  0.00000000000E+00 0. -1.
          1   -1    0    0  501    0 -0.00000000000E+00 -0.00000000000E+00 -0.39200072815E+03  0.39200072815E+03  0.00000000000E+00 0. -1.
         25    2    1    2    0    0 -0.45459257582E+02 -0.52146090676E+02 -0.88818164303E+02  0.16822587013E+03  0.12500207278E+03 0.  0.
          2    1    1    2  501    0 -0.34957889143E+02  0.79051077033E+01 -0.25636678184E+03  0.25885994586E+03  0.00000000000E+00 0. -1.
          1    1    1    2  502    0  0.80417146725E+02  0.44240982973E+02  0.35320044805E+03  0.36493114222E+03  0.00000000000E+00 0. -1.
         22    1    3    3    0    0  0.36137560552E+02 -0.48202116560E+02 -0.47267642058E+02  0.76574129504E+02  0.00000000000E+00 0. -1.
         22    1    3    3    0    0 -0.81596818134E+02 -0.39439741157E+01 -0.41550522245E+02  0.91651740628E+02  0.00000000000E+00 0. -1.
</event>
<event>
 7    1  0.6067783E-006  0.1335293E+03  0.7818608E-02  0.1254488E+00
          2   -1    0    0  502    0  0.00000000000E+00  0.00000000000E+00  0.25271499205E+03  0.25271499205E+03  0.00000000000E+00 0. -1.
          1   -1    0    0  501    0 -0.00000000000E+00 -0.00000000000E+00 -0.14852651572E+04  0.14852651572E+04  0.00000000000E+00 0. -1.
         25    2    1    2    0    0 -0.14958993207E+03  0.10604806258E+03 -0.48793313727E+03  0.53602928176E+03  0.12500122043E+03 0.  0.
          2    1    1    2  501    0  0.12755722537E+03 -0.12382850948E+02 -0.95870528929E+03  0.96723317378E+03  0.00000000000E+00 0. -1.
          1    1    1    2  502    0  0.22032706698E+02 -0.93665211629E+02  0.21408826145E+03  0.23471769367E+03  0.00000000000E+00 0. -1.
         22    1    3    3    0    0 -0.13687553907E+03  0.56789907899E+02 -0.23345693877E+03  0.27651790013E+03  0.00000000000E+00 0. -1.
         22    1    3    3    0    0 -0.12714392997E+02  0.49258154678E+02 -0.25447619850E+03  0.25951138163E+03  0.00000000000E+00 0. -1.
</event>
<event>
 7    1  0.6067783E-006  0.9570421E+02  0.7818608E-02  0.1472217E+00
          2   -1    0    0  502    0  0.00000000000E+00  0.00000000000E+00  0.59036811982E+03  0.59036811982E+03  0.00000000000E+00 0. -1.
          1   -1    0    0  501    0 -0.00000000000E+00 -0.00000000000E+00 -0.48721274354E+03  0.48721274354E+03  0.00000000000E+00 0. -1.
         25    2    1    2    0    0 -0.92139567731E+02 -0.25172259991E+02  0.23298634237E+03  0.28112323090E+03  0.12499717039E+03 0.  0.
          2    1    1    2  501    0 -0.40714990386E+01  0.21092571650E+02 -0.45593079168E+03  0.45643658977E+03  0.00000000000E+00 0. -1.
          1    1    1    2  502    0  0.96211066770E+02  0.40796883409E+01  0.32609982558E+03  0.34002104269E+03  0.00000000000E+00 0. -1.
         22    1    3    3    0    0 -0.37891290162E+02 -0.20422378868E+02  0.22127433583E+03  0.22542217088E+03  0.00000000000E+00 0.  1.
         22    1    3    3    0    0 -0.54248277570E+02 -0.47498811238E+01  0.11712006542E+02  0.55701060019E+02  0.00000000000E+00 0.  1.
</event>
<event>
 7    1  0.6067783E-006  0.1070466E+03  0.7818608E-02  0.1274003E+00
          2   -1    0    0  502    0  0.00000000000E+00  0.00000000000E+00  0.17745178638E+04  0.17745178638E+04  0.00000000000E+00 0. -1.
          1   -1    0    0  501    0 -0.00000000000E+00 -0.00000000000E+00 -0.60078236988E+03  0.60078236988E+03  0.00000000000E+00 0. -1.
         25    2    1    2    0    0 -0.57214710381E+02 -0.76872485685E+02  0.55702347718E+02  0.16706312152E+03  0.12499773154E+03 0.  0.
          2    1    1    2  501    0 -0.38569048432E+02  0.10271599022E+03 -0.53808141605E+03  0.54915367289E+03  0.00000000000E+00 0. -1.
          1    1    1    2  502    0  0.95783758813E+02 -0.25843504536E+02  0.16561145623E+04  0.16590834393E+04  0.00000000000E+00 0. -1.
         22    1    3    3    0    0  0.89898517017E+01 -0.88848308677E+02  0.22783934061E+02  0.92162611941E+02  0.00000000000E+00 0. -1.
         22    1    3    3    0    0 -0.66204562082E+02  0.11975822992E+02  0.32918413657E+02  0.74900509575E+02  0.00000000000E+00 0. -1.
</event>
<event>
 7    1  0.6067783E-006  0.6627895E+02  0.7818608E-02  0.1488160E+00
          2   -1    0    0  502    0  0.00000000000E+00  0.00000000000E+00  0.50667805274E+03  0.50667805274E+03  0.00000000000E+00 0. -1.
          1   -1    0    0  501    0 -0.00000000000E+00 -0.00000000000E+00 -0.15330940396E+03  0.15330940396E+03  0.00000000000E+00 0. -1.
         25    2    1    2    0    0  0.44055311169E+02 -0.18063080818E+02 -0.51256305671E+01  0.13386044547E+03  0.12500080576E+03 0.  0.
          2    1    1    2  501    0  0.54635302596E+01 -0.27172184921E+02 -0.78896854262E+02  0.83623509904E+02  0.00000000000E+00 0. -1.
          1    1    1    2  502    0 -0.49518841428E+02  0.45235265739E+02  0.43739113361E+03  0.44250350132E+03  0.00000000000E+00 0. -1.
         22    1    3    3    0    0  0.60660376929E+02  0.13661638955E+02  0.41733169047E+02  0.74886441408E+02  0.00000000000E+00 0. -1.
         22    1    3    3    0    0 -0.16605065760E+02 -0.31724719773E+02 -0.46858799614E+02  0.58974004060E+02  0.00000000000E+00 0. -1.
</event>
<event>
 7    1  0.6067783E-006  0.7910892E+02  0.7818608E-02  0.1445996E+00
          2   -1    0    0  502    0  0.00000000000E+00  0.00000000000E+00  0.74925862170E+03  0.74925862170E+03  0.00000000000E+00 0. -1.
          1   -1    0    0  501    0 -0.00000000000E+00 -0.00000000000E+00 -0.34056374274E+03  0.34056374274E+03  0.00000000000E+00 0. -1.
         25    2    1    2    0    0 -0.99504006780E+02 -0.43172818576E+02 -0.77014927417E+02  0.18255092130E+03  0.12501439994E+03 0.  0.
          2    1    1    2  501    0  0.31148279472E+02  0.43388830697E+01 -0.20737299585E+03  0.20974413133E+03  0.00000000000E+00 0. -1.
          1    1    1    2  502    0  0.68355727307E+02  0.38833935506E+02  0.69308280222E+03  0.69752731182E+03  0.00000000000E+00 0. -1.
         22    1    3    3    0    0 -0.43038278868E+02  0.29862147005E+02 -0.73383835064E+02  0.90162234447E+02  0.00000000000E+00 0.  1.
         22    1    3    3    0    0 -0.56465727911E+02 -0.73034965581E+02 -0.36310923522E+01  0.92388686849E+02  0.00000000000E+00 0.  1.
</event>
<event>
 7    1  0.6067783E-006  0.1030855E+03  0.7818608E-02  0.1328848E+00
          2   -1    0    0  502    0  0.00000000000E+00  0.00000000000E+00  0.16923451932E+04  0.16923451932E+04  0.00000000000E+00 0. -1.
          1   -1    0    0  501    0 -0.00000000000E+00 -0.00000000000E+00 -0.80744721436E+02  0.80744721436E+02  0.00000000000E+00 0. -1.
         25    2    1    2    0    0  0.27977099095E+02 -0.79896912143E+02  0.43356966871E+03  0.45910234118E+03  0.12500426956E+03 0.  0.
          2    1    1    2  501    0  0.30218414833E+02  0.10184183695E+03 -0.25177098746E+02  0.10917325062E+03  0.00000000000E+00 0. -1.
          1    1    1    2  502    0 -0.58195513929E+02 -0.21944924811E+02  0.12032079018E+04  0.12048143228E+04  0.00000000000E+00 0. -1.
         22    1    3    3    0    0  0.57442600396E+02 -0.65270654408E+01  0.28499596923E+03  0.29080054574E+03  0.00000000000E+00 0.  1.
         22    1    3    3    0    0 -0.29465501301E+02 -0.73369846702E+02  0.14857369947E+03  0.16830179543E+03  0.00000000000E+00 0.  1.
</event>
<event>
 7    1  0.6067783E-006  0.6278302E+02  0.7818608E-02  0.1423201E+00
          2   -1    0    0  502    0  0.00000000000E+00  0.00000000000E+00  0.26192117654E+02  0.26192117654E+02  0.00000000000E+00 0. -1.
          1   -1    0    0  501    0 -0.00000000000E+00 -0.00000000000E+00 -0.24263554525E+04  0.24263554525E+04  0.00000000000E+00 0. -1.
         25    2    1    2    0    0  0.39840694873E+02  0.18292593897E+02 -0.29704202562E+03  0.32524237344E+03  0.12500694594E+03 0.  0.
          2    1    1    2  501    0 -0.74223522320E+01  0.46459539037E+02 -0.20039888354E+04  0.20045410528E+04  0.00000000000E+00 0. -1.
          1    1    1    2  502    0 -0.32418342641E+02 -0.64752132935E+02 -0.99132473865E+02  0.12276414393E+03  0.00000000000E+00 0. -1.
         22    1    3    3    0    0  0.39380441617E+02  0.63079411259E+02 -0.10907012307E+03  0.13200804162E+03  0.00000000000E+00 0. -1.
         22    1    3    3    0    0  0.46025325579E+00 -0.44786817361E+02 -0.18797190255E+03  0.19323433181E+03  0.00000000000E+00 0. -1.
</event>
<event>
 7    1  0.6067783E-006  0.1276393E+03  0.7818608E-02  0.1341175E+00
          2   -1    0    0  502    0  0.00000000000E+00  0.00000000000E+00  0.86458435220E+02  0.86458435220E+02  0.00000000000E+00 0. -1.
          1   -1    0    0  501    0 -0.00000000000E+00 -0.00000000000E+00 -0.15811171192E+04  0.15811171192E+04  0.00000000000E+00 0. -1.
         25    2    1    2    0    0 -0.13014791522E+03  0.58163551300E+02 -0.66867321622E+03  0.69503176699E+03  0.12499523391E+03 0.  0.
          2    1    1    2  501    0  0.36071778257E+02  0.27082066803E+02 -0.84322037201E+03  0.84442596319E+03  0.00000000000E+00 0. -1.
          1    1    1    2  502    0  0.94076136964E+02 -0.85245618103E+02  0.17234904293E+02  0.12811782420E+03  0.00000000000E+00 0. -1.
         22    1    3    3    0    0 -0.91261835702E+02  0.13802667027E+02 -0.58739153756E+03  0.59459907052E+03  0.00000000000E+00 0. -1.
         22    1    3    3    0    0 -0.38886079519E+02  0.44360884272E+02 -0.81281678665E+02  0.10043269647E+03  0.00000000000E+00 0. -1.
</event>
<event>
 7    1  0.6067783E-006  0.7238728E+02  0.7818608E-02  0.1506525E+00
          2   -1    0    0  502    0  0.00000000000E+00  0.00000000000E+00  0.63792982216E+03  0.63792982216E+03  0.00000000000E+00 0. -1.
          1   -1    0    0  501    0 -0.00000000000E+00 -0.00000000000E+00 -0.14856616991E+03  0.14856616991E+03  0.00000000000E+00 0. -1.
         25    2    1    2    0    0 -0.84934719092E+02 -0.40222371857E+02  0.31561239203E+03  0.35223260596E+03  0.12499952397E+03 0.  0.
          2    1    1    2  501    0  0.63921028256E+02  0.32585433557E+02 -0.11991880071E+03  0.13974343311E+03  0.00000000000E+00 0. -1.
          1    1    1    2  502    0  0.21013690835E+02  0.76369382995E+01  0.29367006093E+03  0.29451995300E+03  0.00000000000E+00 0. -1.
         22    1    3    3    0    0 -0.79404641593E+02 -0.80638694481E+02  0.25708099560E+03  0.28088847333E+03  0.00000000000E+00 0. -1.
         22    1    3    3    0    0 -0.55300774982E+01  0.40416322624E+02  0.58531396435E+02  0.71344132627E+02  0.00000000000E+00 0. -1.
</event>
<event>
 7    1  0.6067783E-006  0.6308829E+02  0.7818608E-02  0.1520312E+00
          2   -1    0    0  502    0  0.00000000000E+00  0.00000000000E+00  0.32822652386E+03  0.32822652386E+03  0.00000000000E+00 0. -1.
          1   -1    0    0  501    0 -0.00000000000E+00 -0.00000000000E+00 -0.12368964772E+04  0.12368964772E+04  0.00000000000E+00 0. -1.
         25    2    1    2    0    0 -0.75824557567E+02 -0.18296842014E+02  0.75429471696E+02  0.16552509193E+03  0.12499925160E+03 0.  0.
          2    1    1    2  501    0  0.62990459443E+02 -0.12399837799E+01 -0.11903554324E+04  0.11920215565E+04  0.00000000000E+00 0. -1.
          1    1    1    2  502    0  0.12834098123E+02  0.19536825793E+02  0.20625600735E+03  0.20757635271E+03  0.00000000000E+00 0. -1.
         22    1    3    3    0    0 -0.44603412642E+02  0.50130313827E+02  0.57107632909E+02  0.88112397086E+02  0.00000000000E+00 0. -1.
         22    1    3    3    0    0 -0.31221144925E+02 -0.68427155841E+02  0.18321838787E+02  0.77412694847E+02  0.00000000000E+00 0. -1.
</event>
<event>
 7    1  0.6067783E-006  0.2130194E+03  0.7818608E-02  0.1194757E+00
          2   -1    0    0  502    0  0.00000000000E+00  0.00000000000E+00  0.69605750318E+03  0.69605750318E+03  0.00000000000E+00 0. -1.
          1   -1    0    0  501    0 -0.00000000000E+00 -0.00000000000E+00 -0.76423602397E+03  0.76423602397E+03  0.00000000000E+00 0. -1.
         25    2    1    2    0    0 -0.17523942801E+03  0.19495417918E+03 -0.44874612085E+02  0.29386438092E+03  0.12500621765E+03 0.  0.
          2    1    1    2  501    0  0.62894795273E+02 -0.19897417173E+03 -0.57067586757E+03  0.60763263747E+03  0.00000000000E+00 0. -1.
          1    1    1    2  502    0  0.11234463274E+03  0.40199925504E+01  0.54737195887E+03  0.55879650876E+03  0.00000000000E+00 0. -1.
         22    1    3    3    0    0 -0.33102647242E+02 -0.14479877852E+02  0.30355774889E+01  0.36258334873E+02  0.00000000000E+00 0.  1.
         22    1    3    3    0    0 -0.14213678077E+03  0.20943405704E+03 -0.47910189574E+02  0.25760604605E+03  0.00000000000E+00 0.  1.
</event>
<event>
 7    1  0.6067783E-006  0.6382425E+02  0.7818608E-02  0.1512200E+00
          2   -1    0    0  502    0  0.00000000000E+00  0.00000000000E+00  0.27031260325E+03  0.27031260325E+03  0.00000000000E+00 0. -1.
          1   -1    0    0  501    0 -0.00000000000E+00 -0.00000000000E+00 -0.25815124072E+03  0.25815124072E+03  0.00000000000E+00 0. -1.
         25    2    1    2    0    0  0.63319927992E+02  0.27945914082E+02 -0.80056904561E+02  0.16378224087E+03  0.12500050825E+03 0.  0.
          2    1    1    2  501    0  0.36454797487E+00 -0.24397606830E+02 -0.13062778847E+03  0.13288715225E+03  0.00000000000E+00 0. -1.
          1    1    1    2  502    0 -0.63684475967E+02 -0.35483072527E+01  0.22284605556E+03  0.23179445084E+03  0.00000000000E+00 0. -1.
         22    1    3    3    0    0  0.74528841615E+02  0.64097324088E+02 -0.33656586814E+02  0.10390274791E+03  0.00000000000E+00 0.  1.
         22    1    3    3    0    0 -0.11208913623E+02 -0.36151410005E+02 -0.46400317747E+02  0.59879492959E+02  0.00000000000E+00 0.  1.
</event>
<event>
 7    1  0.6067783E-006  0.1040091E+03  0.7818608E-02  0.1372922E+00
          2   -1    0    0  502    0  0.00000000000E+00  0.00000000000E+00  0.69542486793E+03  0.69542486793E+03  0.00000000000E+00 0. -1.
          1   -1    0    0  501    0 -0.00000000000E+00 -0.00000000000E+00 -0.13991962770E+03  0.13991962770E+03  0.00000000000E+00 0. -1.
         25    2    1    2    0    0  0.75262136200E+02 -0.21327869939E+02  0.13020005247E+03  0.19671350614E+03  0.12499953061E+03 0.  0.
          2    1    1    2  501    0  0.15099515504E+02 -0.39557015710E+02 -0.96600711198E+02  0.10547250952E+03  0.00000000000E+00 0. -1.
          1    1    1    2  502    0 -0.90361651704E+02  0.60884885649E+02  0.52190589895E+03  0.53315847997E+03  0.00000000000E+00 0. -1.
         22    1    3    3    0    0  0.31591481155E+02 -0.71867488065E+02  0.53470732731E+02  0.94984613391E+02  0.00000000000E+00 0.  1.
         22    1    3    3    0    0  0.43670655045E+02  0.50539618126E+02  0.76729319739E+02  0.10172889275E+03  0.00000000000E+00 0.  1.
</event>
<event>
 7    1  0.6067783E-006  0.3926544E+02  0.7818608E-02  0.1536459E+00
          2   -1    0    0  502    0  0.00000000000E+00  0.00000000000E+00  0.12037234439E+04  0.12037234439E+04  0.00000000000E+00 0. -1.
          1   -1    0    0  501    0 -0.00000000000E+00 -0.00000000000E+00 -0.27295276426E+02  0.27295276426E+02  0.00000000000E+00 0. -1.
         25    2    1    2    0    0 -0.17358380086E+01 -0.68247607148E+01  0.19946068399E+03  0.23549996722E+03  0.12500431837E+03 0.  0.
          2    1    1    2  501    0  0.89008651487E+01 -0.32559945353E+02  0.23309197093E+02  0.41020654686E+02  0.00000000000E+00 0. -1.
          1    1    1    2  502    0 -0.71650271401E+01  0.39384706068E+02  0.95365828643E+03  0.95449809846E+03  0.00000000000E+00 0. -1.
         22    1    3    3    0    0  0.30458467776E+02  0.35165866179E+02  0.16714800174E+03  0.17350161639E+03  0.00000000000E+00 0. -1.
         22    1    3    3    0    0 -0.32194305784E+02 -0.41990626894E+02  0.32312682254E+02  0.61998350836E+02  0.00000000000E+00 0. -1.
</event>
<event>
 7    1  0.6067783E-006  0.1582357E+03  0.7818608E-02  0.1250551E+00
          2   -1    0    0  502    0  0.00000000000E+00  0.00000000000E+00  0.60137684466E+03  0.60137684466E+03  0.00000000000E+00 0. -1.
          1   -1    0    0  501    0 -0.00000000000E+00 -0.00000000000E+00 -0.15466217739E+03  0.15466217739E+03  0.00000000000E+00 0. -1.
         25    2    1    2    0    0 -0.18261733474E+03  0.96209045603E+02  0.24037855735E+03  0.34060582750E+03  0.12500082997E+03 0.  0.
          2    1    1    2  501    0  0.84019899215E+02  0.84193884873E+01 -0.66203623209E+02  0.10729934433E+03  0.00000000000E+00 0. -1.
          1    1    1    2  502    0  0.98597435524E+02 -0.10462843409E+03  0.27253973314E+03  0.30813385022E+03  0.00000000000E+00 0. -1.
         22    1    3    3    0    0 -0.10463999804E+03  0.13104955519E+01  0.54978499608E+02  0.11821117547E+03  0.00000000000E+00 0. -1.
         22    1    3    3    0    0 -0.77977336702E+02  0.94898550052E+02  0.18540005774E+03  0.22239465203E+03  0.00000000000E+00 0. -1.
</event>
<event>
 7    1  0.6067783E-006  0.6256208E+02  0.7818608E-02  0.1434324E+00
          2   -1    0    0  502    0  0.00000000000E+00  0.00000000000E+00  0.31766964348E+03  0.31766964348E+03  0.00000000000E+00 0. -1.
          1   -1    0    0  501    0 -0.00000000000E+00 -0.00000000000E+00 -0.15950175476E+03  0.15950175476E+03  0.00000000000E+00 0. -1.
         25    2    1    2    0    0 -0.95657380325E+01 -0.45539429686E+02 -0.63331392142E+01  0.13353072662E+03  0.12500001320E+03 0.  0.
          2    1    1    2  501    0 -0.42622247780E+02  0.81292434112E+01 -0.79912778341E+02  0.90932902442E+02  0.00000000000E+00 0. -1.
          1    1    1    2  502    0  0.52187985813E+02  0.37410186275E+02  0.24441380628E+03  0.25270776918E+03  0.00000000000E+00 0. -1.
         22    1    3    3    0    0 -0.39891861110E+02 -0.37909576118E+01  0.45336802646E+02  0.60507500499E+02  0.00000000000E+00 0.  1.
         22    1    3    3    0    0  0.30326123078E+02 -0.41748472074E+02 -0.51669941861E+02  0.73023226122E+02  0.00000000000E+00 0.  1.
</event>
<event>
 7    1  0.6067783E-006  0.5808806E+02  0.7818608E-02  0.1509549E+00
          2   -1    0    0  502    0  0.00000000000E+00  0.00000000000E+00  0.10985499841E+03  0.10985499841E+03  0.00000000000E+00 0. -1.
          1   -1    0    0  501    0 -0.00000000000E+00 -0.00000000000E+00 -0.26931772975E+03  0.26931772975E+03  0.00000000000E+00 0. -1.
         25    2    1    2    0    0 -0.32754992797E+02 -0.14572162932E+01  0.35714172915E+02  0.13411313570E+03  0.12504326447E+03 0.  0.
          2    1    1    2  501    0  0.59059394801E+02 -0.58307540425E+01 -0.20698111874E+03  0.21532113997E+03  0.00000000000E+00 0. -1.
          1    1    1    2  502    0 -0.26304402003E+02  0.72879703357E+01  0.11804214479E+02  0.29738452479E+02  0.00000000000E+00 0. -1.
         22    1    3    3    0    0 -0.10988633412E+02 -0.31694153785E+02 -0.38505076490E+02  0.51067703727E+02  0.00000000000E+00 0.  1.
         22    1    3    3    0    0 -0.21766359386E+02  0.30236937492E+02  0.74219249406E+02  0.83045431976E+02  0.00000000000E+00 0.  1.
</event>
<event>
 7    1  0.6067783E-006  0.2111627E+03  0.7818608E-02  0.1197482E+00
          2   -1    0    0  502    0  0.00000000000E+00  0.00000000000E+00  0.42315216789E+03  0.42315216789E+03  0.00000000000E+00 0. -1.
          1   -1    0    0  501    0 -0.00000000000E+00 -0.00000000000E+00 -0.45565251433E+04  0.45565251433E+04  0.00000000000E+00 0. -1.
         25    2    1    2    0    0  0.29032741296E+03  0.46783954041E+02 -0.71999727853E+03  0.78771770164E+03  0.12499740523E+03 0.  0.
          2    1    1    2  501    0 -0.18691417926E+03 -0.84500727110E+02 -0.37920584946E+04  0.37976025213E+04  0.00000000000E+00 0. -1.
          1    1    1    2  502    0 -0.10341323369E+03  0.37716773069E+02  0.37868279765E+03  0.39435708832E+03  0.00000000000E+00 0. -1.
         22    1    3    3    0    0  0.30262843390E+03  0.48864536796E+02 -0.68206044331E+03  0.74778216099E+03  0.00000000000E+00 0.  1.
         22    1    3    3    0    0 -0.12301020939E+02 -0.20805827547E+01 -0.37936835222E+02  0.39935540655E+02  0.00000000000E+00 0.  1.
</event>
<event>
 7    1  0.6067783E-006  0.1071875E+03  0.7818608E-02  0.1336690E+00
          2   -1    0    0  502    0  0.00000000000E+00  0.00000000000E+00  0.44904072619E+03  0.44904072619E+03  0.00000000000E+00 0. -1.
          1   -1    0    0  501    0 -0.00000000000E+00 -0.00000000000E+00 -0.10894823462E+04  0.10894823462E+04  0.00000000000E+00 0. -1.
         25    2    1    2    0    0 -0.71991210383E+02 -0.65378469544E+01 -0.25241082970E+02  0.14658860005E+03  0.12500251030E+03 0.  0.
          2    1    1    2  501    0  0.10130312552E+03 -0.40995590459E+02 -0.99856332055E+03  0.10045255929E+04  0.00000000000E+00 0. -1.
          1    1    1    2  502    0 -0.29311915134E+02  0.47533437413E+02  0.38336278353E+03  0.38740887940E+03  0.00000000000E+00 0. -1.
         22    1    3    3    0    0  0.33871899165E+02 -0.16699302234E+02 -0.25894174985E+01  0.37853366179E+02  0.00000000000E+00 0. -1.
         22    1    3    3    0    0 -0.10586310955E+03  0.10161455279E+02 -0.22651665471E+02  0.10873523387E+03  0.00000000000E+00 0. -1.
</event>
<event>
 7    1  0.6067783E-006  0.6643445E+02  0.7818608E-02  0.1431476E+00
          2   -1    0    0  502    0  0.00000000000E+00  0.00000000000E+00  0.79576076591E+03  0.79576076591E+03  0.00000000000E+00 0. -1.
          1   -1    0    0  501    0 -0.00000000000E+00 -0.00000000000E+00 -0.87952079154E+03  0.87952079154E+03  0.00000000000E+00 0. -1.
         25    2    1    2    0    0 -0.44384521486E+02 -0.91557598002E+02 -0.91522833916E+01  0.16143683918E+03  0.12500123701E+03 0.  0.
          2    1    1    2  501    0  0.12441812842E+02  0.64675196796E+02 -0.79225312612E+03  0.79498597197E+03  0.00000000000E+00 0. -1.
          1    1    1    2  502    0  0.31942708644E+02  0.26882401206E+02  0.71764538388E+03  0.71885874630E+03  0.00000000000E+00 0. -1.
         22    1    3    3    0    0 -0.39480278956E+02 -0.32624173374E+02 -0.63183188500E+02  0.81333538124E+02  0.00000000000E+00 0. -1.
         22    1    3    3    0    0 -0.49042425304E+01 -0.58933424628E+02  0.54030905108E+02  0.80103301056E+02  0.00000000000E+00 0. -1.
</event>
<event>
 7    1  0.6067783E-006  0.3781627E+02  0.7818608E-02  0.1544715E+00
          2   -1    0    0  502    0  0.00000000000E+00  0.00000000000E+00  0.99635229194E+02  0.99635229194E+02  0.00000000000E+00 0. -1.
          1   -1    0    0  501    0 -0.00000000000E+00 -0.00000000000E+00 -0.96762409457E+03  0.96762409457E+03  0.00000000000E+00 0. -1.
         25    2    1    2    0    0 -0.19796567343E+02 -0.11739921849E+02 -0.69382406014E+03  0.70536996056E+03  0.12500089997E+03 0.  0.
          2    1    1    2  501    0 -0.13223719640E+02  0.30469948185E+02 -0.26310122143E+03  0.26518962502E+03  0.00000000000E+00 0. -1.
          1    1    1    2  502    0  0.33020286983E+02 -0.18730026336E+02  0.88936416191E+02  0.96699738179E+02  0.00000000000E+00 0. -1.
         22    1    3    3    0    0 -0.15632957318E+02  0.95869341060E+01 -0.67857721414E+03  0.67882496581E+03  0.00000000000E+00 0. -1.
         22    1    3    3    0    0 -0.41636100246E+01 -0.21326855955E+02 -0.15246845998E+02  0.26544994749E+02  0.00000000000E+00 0. -1.
</event>
<event>
 7    1  0.6067783E-006  0.1297239E+03  0.7818608E-02  0.1418712E+00
          2   -1    0    0  502    0  0.00000000000E+00  0.00000000000E+00  0.45403479258E+03  0.45403479258E+03  0.00000000000E+00 0. -1.
          1   -1    0    0  501    0 -0.00000000000E+00 -0.00000000000E+00 -0.63807664818E+03  0.63807664818E+03  0.00000000000E+00 0. -1.
         25    2    1    2    0    0 -0.51382794333E+02  0.10786409553E+03  0.94865445791E+02  0.19722792794E+03  0.12499819237E+03 0.  0.
          2    1    1    2  501    0  0.35588237784E+02 -0.12535776330E+03 -0.57919451031E+03  0.59367278215E+03  0.00000000000E+00 0. -1.
          1    1    1    2  502    0  0.15794556549E+02  0.17493667774E+02  0.30028720892E+03  0.30121073067E+03  0.00000000000E+00 0. -1.
         22    1    3    3    0    0 -0.30322773334E+02  0.13510025489E+03  0.77289743718E+02  0.15857255102E+03  0.00000000000E+00 0.  1.
         22    1    3    3    0    0 -0.21060020999E+02 -0.27236159360E+02  0.17575702072E+02  0.38655376916E+02  0.00000000000E+00 0.  1.
</event>
<event>
 7    1  0.6067783E-006  0.9156125E+02  0.7818608E-02  0.1303366E+00
          2   -1    0    0  502    0  0.00000000000E+00  0.00000000000E+00  0.26200073524E+03  0.26200073524E+03  0.00000000000E+00 0. -1.
          1   -1    0    0  501    0 -0.00000000000E+00 -0.00000000000E+00 -0.27049028575E+03  0.27049028575E+03  0.00000000000E+00 0. -1.
         25    2    1    2    0    0 -0.43908586720E+01 -0.57740697784E+02 -0.49184436431E+02  0.14627922692E+03  0.12500094248E+03 0.  0.
          2    1    1    2  501    0 -0.86354890582E+02  0.17190355196E+02 -0.14841772745E+03  0.17257026761E+03  0.00000000000E+00 0. -1.
          1    1    1    2  502    0  0.90745749254E+02  0.40550342588E+02  0.18911261337E+03  0.21364152646E+03  0.00000000000E+00 0. -1.
         22    1    3    3    0    0  0.37817761784E+02 -0.58515895599E+02 -0.70386723918E+02  0.99038295866E+02  0.00000000000E+00 0.  1.
         22    1    3    3    0    0 -0.42208620456E+02  0.77519781499E+00  0.21202287487E+02  0.47240931057E+02  0.00000000000E+00 0.  1.
</event>
<event>
 7    1  0.6067783E-006  0.5202859E+02  0.7818608E-02  0.1599767E+00
          2   -1    0    0  502    0  0.00000000000E+00  0.00000000000E+00  0.84238298529E+01  0.84238298529E+01  0.00000000000E+00 0. -1.
          1   -1    0    0  501    0 -0.00000000000E+00 -0.00000000000E+00 -0.35584977775E+04  0.35584977775E+04  0.00000000000E+00 0. -1.
         25    2    1    2    0    0  0.15008313561E+01 -0.11718816153E+02 -0.31680335976E+04  0.31705206817E+04  0.12499973878E+03 0.  0.
          2    1    1    2  501    0 -0.53071293424E+02  0.48295567012E+01 -0.17583424419E+03  0.18373232767E+03  0.00000000000E+00 0. -1.
          1    1    1    2  502    0  0.51570462068E+02  0.68892594516E+01 -0.20620610586E+03  0.21266859794E+03  0.00000000000E+00 0. -1.
         22    1    3    3    0    0 -0.22894991913E+02 -0.37906053932E+02 -0.43411527466E+03  0.43636810295E+03  0.00000000000E+00 0. -1.
         22    1    3    3    0    0  0.24395823269E+02  0.26187237779E+02 -0.27339183229E+04  0.27341525788E+04  0.00000000000E+00 0. -1.
</event>
<event>
 7    1  0.6067783E-006  0.8956458E+02  0.7818608E-02  0.1418888E+00
          2   -1    0    0  502    0  0.00000000000E+00  0.00000000000E+00  0.73234983222E+03  0.73234983222E+03  0.00000000000E+00 0. -1.
          1   -1    0    0  501    0 -0.00000000000E+00 -0.00000000000E+00 -0.50673582914E+03  0.50673582914E+03  0.00000000000E+00 0. -1.
         25    2    1    2    0    0  0.88535940881E+02 -0.71054185540E+02  0.12669812944E+03  0.21109938409E+03  0.12499289520E+03 0.  0.
          2    1    1    2  501    0 -0.34020249156E+02  0.21914724433E+01 -0.46047859670E+03  0.46173879838E+03  0.00000000000E+00 0. -1.
          1    1    1    2  502    0 -0.54515691725E+02  0.68862713097E+02  0.55939447034E+03  0.56624747889E+03  0.00000000000E+00 0. -1.
         22    1    3    3    0    0  0.25476916930E+02  0.21540717249E+02 -0.95553467825E+01  0.34704184878E+02  0.00000000000E+00 0.  1.
         22    1    3    3    0    0  0.63059023951E+02 -0.92594902789E+02  0.13625347622E+03  0.17639519921E+03  0.00000000000E+00 0.  1.
</event>
<event>
 7    1  0.6067783E-006  0.4227400E+02  0.7818608E-02  0.1598380E+00
          2   -1    0    0  502    0  0.00000000000E+00  0.00000000000E+00  0.92208612555E+02  0.92208612555E+02  0.00000000000E+00 0. -1.
          1   -1    0    0  501    0 -0.00000000000E+00 -0.00000000000E+00 -0.14276691954E+03  0.14276691954E+03  0.00000000000E+00 0. -1.
         25    2    1    2    0    0 -0.23350060071E+02  0.16150548502E+01 -0.76782764599E+02  0.14855540890E+03  0.12500113146E+03 0.  0.
          2    1    1    2  501    0 -0.19217934671E+02  0.90736692921E+01 -0.15152951538E+02  0.26101195907E+02  0.00000000000E+00 0. -1.
          1    1    1    2  502    0  0.42567994742E+02 -0.10688724142E+02  0.41377409156E+02  0.60318927283E+02  0.00000000000E+00 0. -1.
         22    1    3    3    0    0  0.46360884064E+02 -0.21248857245E+00 -0.61753008550E+02  0.77219238455E+02  0.00000000000E+00 0. -1.
         22    1    3    3    0    0 -0.69710944135E+02  0.18275434227E+01 -0.15029756049E+02  0.71336170447E+02  0.00000000000E+00 0. -1.
</event>
<event>
 7    1  0.6067783E-006  0.5835865E+02  0.7818608E-02  0.1490762E+00
          2   -1    0    0  502    0  0.00000000000E+00  0.00000000000E+00  0.16980951732E+03  0.16980951732E+03  0.00000000000E+00 0. -1.
          1   -1    0    0  501    0 -0.00000000000E+00 -0.00000000000E+00 -0.32198885137E+03  0.32198885137E+03  0.00000000000E+00 0. -1.
         25    2    1    2    0    0 -0.83053748841E+02  0.12553649482E+02 -0.12835504133E+03  0.19787460712E+03  0.12499529669E+03 0.  0.
          2    1    1    2  501    0  0.52394611450E+02 -0.16497907721E+02 -0.15223640643E+03  0.16184344197E+03  0.00000000000E+00 0. -1.
          1    1    1    2  502    0  0.30659137391E+02  0.39442582388E+01  0.12841211370E+03  0.13208031960E+03  0.00000000000E+00 0. -1.
         22    1    3    3    0    0  0.11683597929E+01  0.51809224962E+02 -0.21066051148E+02  0.55940498449E+02  0.00000000000E+00 0.  1.
         22    1    3    3    0    0 -0.84222108634E+02 -0.39255575480E+02 -0.10728899018E+03  0.14193410867E+03  0.00000000000E+00 0.  1.
</event>
<event>
 7    1  0.6067783E-006  0.2752313E+02  0.7818608E-02  0.1660051E+00
          2   -1    0    0  502    0  0.00000000000E+00  0.00000000000E+00  0.14385069389E+04  0.14385069389E+04  0.00000000000E+00 0. -1.
          1   -1    0    0  501    0 -0.00000000000E+00 -0.00000000000E+00 -0.33656157806E+02  0.33656157806E+02  0.00000000000E+00 0. -1.
         25    2    1    2    0    0  0.16168440100E+02 -0.20789362967E+02  0.59266687449E+03  0.60627807228E+03  0.12500184292E+03 0.  0.
          2    1    1    2  501    0  0.11680628061E+02  0.19614294122E+02 -0.21722857876E+02  0.31512539728E+02  0.00000000000E+00 0. -1.
          1    1    1    2  502    0 -0.27849068161E+02  0.11750688443E+01  0.83390676449E+03  0.83437248472E+03  0.00000000000E+00 0. -1.
         22    1    3    3    0    0 -0.27715545822E+02  0.10542886380E+02  0.48459332970E+03  0.48549974163E+03  0.00000000000E+00 0. -1.
         22    1    3    3    0    0  0.43883985922E+02 -0.31332249346E+02  0.10807354479E+03  0.12077833064E+03  0.00000000000E+00 0. -1.
</event>
<event>
 7    1  0.6067783E-006  0.8893443E+02  0.7818608E-02  0.1346355E+00
          2   -1    0    0  502    0  0.00000000000E+00  0.00000000000E+00  0.32711148786E+04  0.32711148786E+04  0.00000000000E+00 0. -1.
          1   -1    0    0  501    0 -0.00000000000E+00 -0.00000000000E+00 -0.40762221797E+02  0.40762221797E+02  0.00000000000E+00 0. -1.
         25    2    1    2    0    0 -0.41884679889E+02  0.78099419854E+02  0.67990747829E+03  0.69695966612E+03  0.12499900550E+03 0.  0.
          2    1    1    2  501    0  0.60985033226E+02  0.10678379233E+02 -0.93677222643E+00  0.61919945113E+02  0.00000000000E+00 0. -1.
          1    1    1    2  502    0 -0.19100353336E+02 -0.88777799088E+02  0.25513819507E+04  0.25529974891E+04  0.00000000000E+00 0. -1.
         22    1    3    3    0    0 -0.58233796191E+02  0.10173397210E+03  0.61353282455E+03  0.62463069320E+03  0.00000000000E+00 0.  1.
         22    1    3    3    0    0  0.16349116301E+02 -0.23634552244E+02  0.66374653742E+02  0.72328972916E+02  0.00000000000E+00 0.  1.
</event>
<event>
 7    1  0.6067783E-006  0.6189292E+02  0.7818608E-02  0.1432074E+00
          2   -1    0    0  502    0  0.00000000000E+00  0.00000000000E+00  0.18394463030E+04  0.18394463030E+04  0.00000000000E+00 0. -1.
          1   -1    0    0  501    0 -0.00000000000E+00 -0.00000000000E+00 -0.56818238475E+03  0.56818238475E+03  0.00000000000E+00 0. -1.
         25    2    1    2    0    0  0.19524014153E+01 -0.25858088467E+02  0.23408699479E+03  0.26663449595E+03  0.12499912275E+03 0.  0.
          2    1    1    2  501    0 -0.41685075420E+02  0.46141404040E+02 -0.54984270338E+03  0.55334769643E+03  0.00000000000E+00 0. -1.
          1    1    1    2  502    0  0.39732674004E+02 -0.20283315573E+02  0.15870196268E+04  0.15876464953E+04  0.00000000000E+00 0. -1.
         22    1    3    3    0    0 -0.16666453785E+02  0.30875545632E+02  0.12664568462E+02  0.37302296098E+02  0.00000000000E+00 0.  1.
         22    1    3    3    0    0  0.18618855200E+02 -0.56733634099E+02  0.22142242633E+03  0.22933219985E+03  0.00000000000E+00 0.  1.
</event>
<event>
 7    1  0.6067783E-006  0.7624144E+02  0.7818608E-02  0.1374507E+00
          2   -1    0    0  502    0  0.00000000000E+00  0.00000000000E+00  0.10813178587E+04  0.10813178587E+04  0.00000000000E+00 0. -1.
          1   -1    0    0  501    0 -0.00000000000E+00 -0.00000000000E+00 -0.42837932108E+02  0.42837932108E+02  0.00000000000E+00 0. -1.
         25    2    1    2    0    0  0.96892213183E+02 -0.50996027138E+01  0.39230359131E+03  0.42301498180E+03  0.12500184059E+03 0.  0.
          2    1    1    2  501    0 -0.33498980158E+02  0.46133764119E+02  0.69107975287E+01  0.57430523121E+02  0.00000000000E+00 0. -1.
          1    1    1    2  502    0 -0.63393233025E+02 -0.41034161405E+02  0.63926553778E+03  0.64371028592E+03  0.00000000000E+00 0. -1.
         22    1    3    3    0    0  0.11603646426E+02 -0.57012976790E+02  0.15512253109E+03  0.16567475301E+03  0.00000000000E+00 0.  1.
         22    1    3    3    0    0  0.85288566758E+02  0.51913374076E+02  0.23718106022E+03  0.25734022879E+03  0.00000000000E+00 0.  1.
</event>
<event>
 7    1  0.6067783E-006  0.9432503E+02  0.7818608E-02  0.1405833E+00
          2   -1    0    0  502    0  0.00000000000E+00  0.00000000000E+00  0.72540333506E+03  0.72540333506E+03  0.00000000000E+00 0. -1.
          1   -1    0    0  501    0 -0.00000000000E+00 -0.00000000000E+00 -0.71716235995E+03  0.71716235995E+03  0.00000000000E+00 0. -1.
         25    2    1    2    0    0  0.42336435089E+02  0.53269069573E+02 -0.15600150951E+02  0.14317972521E+03  0.12500840569E+03 0.  0.
          2    1    1    2  501    0 -0.63145337548E+01  0.35268367263E+02 -0.63381149173E+03  0.63482339128E+03  0.00000000000E+00 0. -1.
          1    1    1    2  502    0 -0.36021901335E+02 -0.88537436837E+02  0.65765261779E+03  0.66456257853E+03  0.00000000000E+00 0. -1.
         22    1    3    3    0    0  0.54494477684E+02  0.78780341994E+01 -0.57938527135E+02  0.79928620953E+02  0.00000000000E+00 0. -1.
         22    1    3    3    0    0 -0.12158042594E+02  0.45391035374E+02  0.42338376184E+02  0.63251104259E+02  0.00000000000E+00 0. -1.
</event>
<event>
 7    1  0.6067783E-006  0.3040006E+02  0.7818608E-02  0.1615306E+00
          2   -1    0    0  502    0  0.00000000000E+00  0.00000000000E+00  0.10474567381E+04  0.10474567381E+04  0.00000000000E+00 0. -1.
          1   -1    0    0  501    0 -0.00000000000E+00 -0.00000000000E+00 -0.15048982647E+03  0.15048982647E+03  0.00000000000E+00 0. -1.
         25    2    1    2    0    0  0.21485034905E+02  0.32172789964E+02  0.28711975847E+03  0.31552848386E+03  0.12499509306E+03 0.  0.
          2    1    1    2  501    0 -0.26627838596E+02 -0.21649082758E+01 -0.13466209260E+03  0.13728659002E+03  0.00000000000E+00 0. -1.
          1    1    1    2  502    0  0.51428036904E+01 -0.30007881688E+02  0.74450924576E+03  0.74513149069E+03  0.00000000000E+00 0. -1.
         22    1    3    3    0    0 -0.31273796977E+02  0.37410273736E+02  0.23901961915E+03  0.24394252868E+03  0.00000000000E+00 0. -1.
         22    1    3    3    0    0  0.52758831883E+02 -0.52374837720E+01  0.48100139318E+02  0.71585955189E+02  0.00000000000E+00 0. -1.
</event>
<event>
 7    1  0.6067783E-006  0.3265145E+03  0.7818608E-02  0.1194959E+00
          2   -1    0    0  502    0  0.00000000000E+00  0.00000000000E+00  0.16273817036E+04  0.16273817036E+04  0.00000000000E+00 0. -1.
          1   -1    0    0  501    0 -0.00000000000E+00 -0.00000000000E+00 -0.59895679808E+03  0.59895679808E+03  0.00000000000E+00 0. -1.
         25    2    1    2    0    0 -0.36013864988E+03 -0.12389701819E+03 -0.32172946373E+02  0.40213169996E+03  0.12499794951E+03 0.  0.
          2    1    1    2  501    0  0.44743304595E+02  0.57907367170E+02 -0.36008217760E+03  0.36744305832E+03  0.00000000000E+00 0. -1.
          1    1    1    2  502    0  0.31539534528E+03  0.65989651019E+02  0.14206800295E+04  0.14567637434E+04  0.00000000000E+00 0. -1.
         22    1    3    3    0    0 -0.36632388759E+03 -0.11590435862E+03 -0.43817474456E+02  0.38671304870E+03  0.00000000000E+00 0. -1.
         22    1    3    3    0    0  0.61852377090E+01 -0.79926595667E+01  0.11644528082E+02  0.15418651262E+02  0.00000000000E+00 0. -1.
</event>
<event>
 7    1  0.6067783E-006  0.5280125E+02  0.7818608E-02  0.1482820E+00
          2   -1    0    0  502    0  0.00000000000E+00  0.00000000000E+00  0.12417248915E+04  0.12417248915E+04  0.00000000000E+00 0. -1.
          1   -1    0    0  501    0 -0.00000000000E+00 -0.00000000000E+00 -0.29886787777E+03  0.29886787777E+03  0.00000000000E+00 0. -1.
         25    2    1    2    0    0 -0.16077496000E+02  0.62129041572E+02  0.16028627813E+03  0.21315557710E+03  0.12500042162E+03 0.  0.
          2    1    1    2  501    0 -0.23614389446E+02 -0.27328477718E+02 -0.27057218448E+03  0.27297214528E+03  0.00000000000E+00 0. -1.
          1    1    1    2  502    0  0.39691885446E+02 -0.34800563854E+02  0.10531429201E+04  0.10544650469E+04  0.00000000000E+00 0. -1.
         22    1    3    3    0    0 -0.25850440677E+02 -0.15728700236E+02 -0.45456301718E+01  0.30599020376E+02  0.00000000000E+00 0.  1.
         22    1    3    3    0    0  0.97729446768E+01  0.77857741808E+02  0.16483190830E+03  0.18255655672E+03  0.00000000000E+00 0.  1.
</event>
<event>
 7    1  0.6067783E-006  0.8770815E+02  0.7818608E-02  0.1450273E+00
          2   -1    0    0  502    0  0.00000000000E+00  0.00000000000E+00  0.50023674365E+03  0.50023674365E+03  0.00000000000E+00 0. -1.
          1   -1    0    0  501    0 -0.00000000000E+00 -0.00000000000E+00 -0.29283883477E+03  0.29283883477E+03  0.00000000000E+00 0. -1.
         25    2    1    2    0    0 -0.10976958535E+03 -0.25033488342E+02  0.28292697800E+02  0.17059079774E+03  0.12499882447E+03 0.  0.
          2    1    1    2  501    0  0.24624025799E+02  0.12206768400E+02 -0.21618498790E+03  0.21792497983E+03  0.00000000000E+00 0. -1.
          1    1    1    2  502    0  0.85145559550E+02  0.12826719943E+02  0.39529019898E+03  0.40455980085E+03  0.00000000000E+00 0. -1.
         22    1    3    3    0    0 -0.81401124831E+02 -0.50184371783E+02 -0.30727470015E+02  0.10044297740E+03  0.00000000000E+00 0.  1.
         22    1    3    3    0    0 -0.28368460519E+02  0.25150883441E+02  0.59020167815E+02  0.70147820344E+02  0.00000000000E+00 0.  1.
</event>
<event>
 7    1  0.6067783E-006  0.1943086E+03  0.7818608E-02  0.1279853E+00
          2   -1    0    0  502    0  0.00000000000E+00  0.00000000000E+00  0.16133445671E+03  0.16133445671E+03  0.00000000000E+00 0. -1.
          1   -1    0    0  501    0 -0.00000000000E+00 -0.00000000000E+00 -0.80786937068E+03  0.80786937068E+03  0.00000000000E+00 0. -1.
         25    2    1    2    0    0  0.10793315067E+03 -0.14272411283E+03 -0.11442214053E+03  0.24644877041E+03  0.12499933119E+03 0.  0.
          2    1    1    2  501    0 -0.15602494277E+03  0.12379752824E+03 -0.60299191902E+03  0.63503453857E+03  0.00000000000E+00 0. -1.
          1    1    1    2  502    0  0.48091792098E+02  0.18926584592E+02  0.70879145582E+02  0.87720518408E+02  0.00000000000E+00 0. -1.
         22    1    3    3    0    0  0.11876831373E+03 -0.15579764482E+03 -0.87360137737E+02  0.21450084415E+03  0.00000000000E+00 0.  1.
         22    1    3    3    0    0 -0.10835163063E+02  0.13073531985E+02 -0.27062002794E+02  0.31947926261E+02  0.00000000000E+00 0.  1.
</event>
<event>
 7    1  0.6067783E-006  0.8527420E+02  0.7818608E-02  0.1316408E+00
          2   -1    0    0  502    0  0.00000000000E+00  0.00000000000E+00  0.91043980467E+03  0.91043980467E+03  0.00000000000E+00 0. -1.
          1   -1    0    0  501    0 -0.00000000000E+00 -0.00000000000E+00 -0.30779956800E+03  0.30779956800E+03  0.00000000000E+00 0. -1.
         25    2    1    2    0    0  0.71329296258E+02 -0.53409147424E+01  0.11758646096E+03  0.18592165094E+03  0.12499556236E+03 0.  0.
          2    1    1    2  501    0 -0.35328407281E+02 -0.76195513272E+02 -0.26448411065E+03  0.27749900431E+03  0.00000000000E+00 0. -1.
          1    1    1    2  502    0 -0.36000888978E+02  0.81536428014E+02  0.74953788636E+03  0.75481871743E+03  0.00000000000E+00 0. -1.
         22    1    3    3    0    0  0.12926022284E+01 -0.45249495180E+02  0.24007984673E+01  0.45331572527E+02  0.00000000000E+00 0.  1.
         22    1    3    3    0    0  0.70036694030E+02  0.39908580437E+02  0.11518566249E+03  0.14059007841E+03  0.00000000000E+00 0.  1.
</event>
<event>
 7    1  0.6067783E-006  0.9925050E+02  0.7818608E-02  0.1316474E+00
          2   -1    0    0  502    0  0.00000000000E+00  0.00000000000E+00  0.20481102575E+03  0.20481102575E+03  0.00000000000E+00 0. -1.
          1   -1    0    0  501    0 -0.00000000000E+00 -0.00000000000E+00 -0.46322463030E+03  0.46322463030E+03  0.00000000000E+00 0. -1.
         25    2    1    2    0    0  0.31002939842E+02 -0.77211714037E+02  0.68209050723E+02  0.16492514385E+03  0.12499998964E+03 0.  0.
          2    1    1    2  501    0  0.39247509168E+02  0.93512809152E+02 -0.39252670537E+03  0.40541611571E+03  0.00000000000E+00 0. -1.
          1    1    1    2  502    0 -0.70250449009E+02 -0.16301095115E+02  0.65904050084E+02  0.97694396490E+02  0.00000000000E+00 0. -1.
         22    1    3    3    0    0  0.14284109737E+02 -0.24288204965E+02 -0.36682154927E+02  0.46255088169E+02  0.00000000000E+00 0.  1.
         22    1    3    3    0    0  0.16718830104E+02 -0.52923509071E+02  0.10489120565E+03  0.11867005568E+03  0.00000000000E+00 0.  1.
</event>
<event>
 7    1  0.6067783E-006  0.7555436E+02  0.7818608E-02  0.1359097E+00
          2   -1    0    0  502    0  0.00000000000E+00  0.00000000000E+00  0.51378351091E+03  0.51378351091E+03  0.00000000000E+00 0. -1.
          1   -1    0    0  501    0 -0.00000000000E+00 -0.00000000000E+00 -0.16978391418E+04  0.16978391418E+04  0.00000000000E+00 0. -1.
         25    2    1    2    0    0  0.92082690669E+02  0.55647864170E+02  0.73672059572E+02  0.18063217555E+03  0.12499801508E+03 0.  0.
          2    1    1    2  501    0 -0.28274235481E+02 -0.69985557076E+02 -0.16407195842E+04  0.16424549201E+04  0.00000000000E+00 0. -1.
          1    1    1    2  502    0 -0.63808455188E+02  0.14337692906E+02  0.38299189377E+03  0.38853555704E+03  0.00000000000E+00 0. -1.
         22    1    3    3    0    0  0.37718221611E+02  0.75970144649E+02 -0.25163725913E+01  0.84855519859E+02  0.00000000000E+00 0. -1.
         22    1    3    3    0    0  0.54364469058E+02 -0.20322280479E+02  0.76188432163E+02  0.95776655691E+02  0.00000000000E+00 0. -1.
</event>
<event>
 7    1  0.6067783E-006  0.1196762E+03  0.7818608E-02  0.1450801E+00
          2   -1    0    0  502    0  0.00000000000E+00  0.00000000000E+00  0.67746249387E+02  0.67746249387E+02  0.00000000000E+00 0. -1.
          1   -1    0    0  501    0 -0.00000000000E+00 -0.00000000000E+00 -0.11441806808E+04  0.11441806808E+04  0.00000000000E+00 0. -1.
         25    2    1    2    0    0 -0.56675152256E+02 -0.11098063540E+03 -0.35012879374E+03  0.39210216993E+03  0.12500066054E+03 0.  0.
          2    1    1    2  501    0  0.19949982223E+02 -0.21361068408E+01 -0.69706505855E+03  0.69735375570E+03  0.00000000000E+00 0. -1.
          1    1    1    2  502    0  0.36725170033E+02  0.11311674224E+03 -0.29240579110E+02  0.12247100455E+03  0.00000000000E+00 0. -1.
         22    1    3    3    0    0  0.22004274844E+02 -0.63003643262E+02 -0.67883047666E+02  0.95193252577E+02  0.00000000000E+00 0. -1.
         22    1    3    3    0    0 -0.78679427100E+02 -0.47976992134E+02 -0.28224574608E+03  0.29690891735E+03  0.00000000000E+00 0. -1.
</event>
<event>
 7    1  0.6067783E-006  0.4812432E+02  0.7818608E-02  0.1467120E+00
          2   -1    0    0  502    0  0.00000000000E+00  0.00000000000E+00  0.28523879532E+04  0.28523879532E+04  0.00000000000E+00 0. -1.
          1   -1    0    0  501    0 -0.00000000000E+00 -0.00000000000E+00 -0.37337256444E+03  0.37337256444E+03  0.00000000000E+00 0. -1.
         25    2    1    2    0    0 -0.71419292091E+02 -0.14825240336E+02  0.47439511319E+03  0.49597957517E+03  0.12499805009E+03 0.  0.
          2    1    1    2  501    0  0.27785604095E+02  0.34515921263E+02 -0.36098351092E+03  0.36369284262E+03  0.00000000000E+00 0. -1.
          1    1    1    2  502    0  0.43633687996E+02 -0.19690680927E+02  0.23656037865E+04  0.23660880998E+04  0.00000000000E+00 0. -1.
         22    1    3    3    0    0  0.24196476548E+02 -0.34538002054E+02  0.90142094303E+02  0.99518542134E+02  0.00000000000E+00 0. -1.
         22    1    3    3    0    0 -0.95615768639E+02  0.19712761718E+02  0.38425301889E+03  0.39646103303E+03  0.00000000000E+00 0. -1.
</event>
<event>
 7    1  0.6067783E-006  0.8600181E+02  0.7818608E-02  0.1487723E+00
          2   -1    0    0  502    0  0.00000000000E+00  0.00000000000E+00  0.14081255208E+04  0.14081255208E+04  0.00000000000E+00 0. -1.
          1   -1    0    0  501    0 -0.00000000000E+00 -0.00000000000E+00 -0.82718245809E+02  0.82718245809E+02  0.00000000000E+00 0. -1.
         25    2    1    2    0    0 -0.79565356995E+02  0.58087689962E+02  0.45843593793E+03  0.48527622959E+03  0.12499873624E+03 0.  0.
          2    1    1    2  501    0  0.58533207250E+02 -0.62173343786E+02 -0.42818599530E+02  0.95525355242E+02  0.00000000000E+00 0. -1.
          1    1    1    2  502    0  0.21032149745E+02  0.40856538238E+01  0.90978993660E+03  0.91004218179E+03  0.00000000000E+00 0. -1.
         22    1    3    3    0    0  0.11427193105E+02  0.66197567693E+02  0.21572646586E+03  0.22594381333E+03  0.00000000000E+00 0.  1.
         22    1    3    3    0    0 -0.90992550100E+02 -0.81098777308E+01  0.24270947207E+03  0.25933241626E+03  0.00000000000E+00 0.  1.
</event>
<event>
 7    1  0.6067783E-006  0.4551057E+02  0.7818608E-02  0.1584653E+00
          2   -1    0    0  502    0  0.00000000000E+00  0.00000000000E+00  0.22738330622E+03  0.22738330622E+03  0.00000000000E+00 0. -1.
          1   -1    0    0  501    0 -0.00000000000E+00 -0.00000000000E+00 -0.81799056299E+02  0.81799056299E+02  0.00000000000E+00 0. -1.
         25    2    1    2    0    0  0.34903873151E+02 -0.49060131323E+02  0.95583717848E+02  0.16848519683E+03  0.12500335031E+03 0.  0.
          2    1    1    2  501    0 -0.10636378151E+01  0.21433652103E+02 -0.37324887501E+02  0.43054384153E+02  0.00000000000E+00 0. -1.
          1    1    1    2  502    0 -0.33840235336E+02  0.27626479220E+02  0.87325419577E+02  0.97642781535E+02  0.00000000000E+00 0. -1.
         22    1    3    3    0    0 -0.38506911284E+02  0.49735724674E+01  0.36102578305E+01  0.38994263698E+02  0.00000000000E+00 0. -1.
         22    1    3    3    0    0  0.73410784435E+02 -0.54033703790E+02  0.91973460018E+02  0.12949093314E+03  0.00000000000E+00 0. -1.
</event>
<event>
 7    1  0.6067783E-006  0.1720255E+03  0.7818608E-02  0.1290853E+00
          2   -1    0    0  502    0  0.00000000000E+00  0.00000000000E+00  0.26599352592E+04  0.26599352592E+04  0.00000000000E+00 0. -1.
          1   -1    0    0  501    0 -0.00000000000E+00 -0.00000000000E+00 -0.19737169141E+04  0.19737169141E+04  0.00000000000E+00 0. -1.
         25    2    1    2    0    0  0.17473208903E+03  0.11092835319E+02  0.68982511402E+03  0.72259089924E+03  0.12499826314E+03 0.  0.
          2    1    1    2  501    0 -0.16057882729E+03 -0.61775903141E+02 -0.19531974291E+04  0.19607605715E+04  0.00000000000E+00 0. -1.
          1    1    1    2  502    0 -0.14153261741E+02  0.50683067822E+02  0.19495906601E+04  0.19503007025E+04  0.00000000000E+00 0. -1.
         22    1    3    3    0    0  0.34639682160E+02  0.17283283415E+02  0.32713495088E+02  0.50683253908E+02  0.00000000000E+00 0.  1.
         22    1    3    3    0    0  0.14009240687E+03 -0.61904480965E+01  0.65711161894E+03  0.67190764533E+03  0.00000000000E+00 0.  1.
</event>
<event>
 7    1  0.6067783E-006  0.3626783E+03  0.7818608E-02  0.1219217E+00
          2   -1    0    0  502    0  0.00000000000E+00  0.00000000000E+00  0.20709665723E+04  0.20709665723E+04  0.00000000000E+00 0. -1.
          1   -1    0    0  501    0 -0.00000000000E+00 -0.00000000000E+00 -0.11968096641E+03  0.11968096641E+03  0.00000000000E+00 0. -1.
         25    2    1    2    0    0  0.23246438456E+03 -0.22989608919E+03  0.11088432690E+04  0.11627778260E+04  0.12500790148E+03 0.  0.
          2    1    1    2  501    0 -0.27890078499E+03  0.25045343272E+03  0.29218312092E+03  0.47527207574E+03  0.00000000000E+00 0. -1.
          1    1    1    2  502    0  0.46436400431E+02 -0.20557343538E+02  0.55025921593E+03  0.55259763696E+03  0.00000000000E+00 0. -1.
         22    1    3    3    0    0  0.95147570894E+02 -0.35079360432E+02  0.47254911201E+03  0.48330765051E+03  0.00000000000E+00 0.  1.
         22    1    3    3    0    0  0.13731681367E+03 -0.19481672875E+03  0.63629415702E+03  0.67947017548E+03  0.00000000000E+00 0.  1.
</event>
<event>
 7    1  0.6067783E-006  0.6572072E+02  0.7818608E-02  0.1382311E+00
          2   -1    0    0  502    0  0.00000000000E+00  0.00000000000E+00  0.30382975066E+03  0.30382975066E+03  0.00000000000E+00 0. -1.
          1   -1    0    0  501    0 -0.00000000000E+00 -0.00000000000E+00 -0.17972707598E+03  0.17972707598E+03  0.00000000000E+00 0. -1.
         25    2    1    2    0    0  0.72626470779E+00 -0.33356871411E+02  0.12959888071E+02  0.13002499522E+03  0.12500132940E+03 0.  0.
          2    1    1    2  501    0 -0.62600157886E+02  0.38057311954E+02 -0.10535152953E+03  0.12832023821E+03  0.00000000000E+00 0. -1.
          1    1    1    2  502    0  0.61873893179E+02 -0.47004405429E+01  0.21649431613E+03  0.22521159321E+03  0.00000000000E+00 0. -1.
         22    1    3    3    0    0  0.14633398973E+02 -0.52613138307E+01 -0.53943989265E+02  0.56140642733E+02  0.00000000000E+00 0. -1.
         22    1    3    3    0    0 -0.13907134265E+02 -0.28095557580E+02  0.66903877336E+02  0.73884352483E+02  0.00000000000E+00 0. -1.
</event>
<event>
 7    1  0.6067783E-006  0.3533479E+02  0.7818608E-02  0.1559815E+00
          2   -1    0    0  502    0  0.00000000000E+00  0.00000000000E+00  0.65740222371E+03  0.65740222371E+03  0.00000000000E+00 0. -1.
          1   -1    0    0  501    0 -0.00000000000E+00 -0.00000000000E+00 -0.13707331018E+04  0.13707331018E+04  0.00000000000E+00 0. -1.
         25    2    1    2    0    0  0.18609877698E+02  0.53003430203E+02  0.27361046039E+02  0.13974967717E+03  0.12500261704E+03 0.  0.
          2    1    1    2  501    0 -0.27598999945E+02 -0.22008587922E+02 -0.13138478066E+04  0.13143219322E+04  0.00000000000E+00 0. -1.
          1    1    1    2  502    0  0.89891222474E+01 -0.30994842281E+02  0.57315588244E+03  0.57406371610E+03  0.00000000000E+00 0. -1.
         22    1    3    3    0    0  0.29736657925E+02 -0.35645847230E+02  0.38947738458E+00  0.46422483151E+02  0.00000000000E+00 0. -1.
         22    1    3    3    0    0 -0.11126780227E+02  0.88649277433E+02  0.26971568654E+02  0.93327194018E+02  0.00000000000E+00 0. -1.
</event>
<event>
 7    1  0.6067783E-006  0.5853335E+02  0.7818608E-02  0.1408969E+00
          2   -1    0    0  502    0  0.00000000000E+00  0.00000000000E+00  0.49838822922E+03  0.49838822922E+03  0.00000000000E+00 0. -1.
          1   -1    0    0  501    0 -0.00000000000E+00 -0.00000000000E+00 -0.97155388711E+02  0.97155388711E+02  0.00000000000E+00 0. -1.
         25    2    1    2    0    0  0.61575347704E+02  0.14008904514E+02  0.27439732850E+03  0.30807109567E+03  0.12500453292E+03 0.  0.
          2    1    1    2  501    0 -0.39930042186E+02  0.42798884407E+02 -0.64270637747E+02  0.86930245898E+02  0.00000000000E+00 0. -1.
          1    1    1    2  502    0 -0.21645305518E+02 -0.56807788921E+02  0.19110614975E+03  0.20054227636E+03  0.00000000000E+00 0. -1.
         22    1    3    3    0    0  0.78735837249E+00 -0.50582230387E+02  0.11553142975E+03  0.12612173970E+03  0.00000000000E+00 0.  1.
         22    1    3    3    0    0  0.60787989332E+02  0.64591134900E+02  0.15886589875E+03  0.18194935597E+03  0.00000000000E+00 0.  1.
</event>
<event>
 7    1  0.6067783E-006  0.2800069E+03  0.7818608E-02  0.1178404E+00
          2   -1    0    0  502    0  0.00000000000E+00  0.00000000000E+00  0.11451043254E+04  0.11451043254E+04  0.00000000000E+00 0. -1.
          1   -1    0    0  501    0 -0.00000000000E+00 -0.00000000000E+00 -0.51993780228E+03  0.51993780228E+03  0.00000000000E+00 0. -1.
         25    2    1    2    0    0 -0.12984605606E+03  0.23510343462E+03  0.38909784717E+03  0.48903935867E+03  0.12501494473E+03 0.  0.
          2    1    1    2  501    0  0.86321619728E+02  0.55393428672E+02 -0.43316512219E+03  0.44514253566E+03  0.00000000000E+00 0. -1.
          1    1    1    2  502    0  0.43524436335E+02 -0.29049686330E+03  0.66923379814E+03  0.73086023336E+03  0.00000000000E+00 0. -1.
         22    1    3    3    0    0 -0.69126558211E+02  0.56426501065E+02  0.21295636656E+03  0.23089574516E+03  0.00000000000E+00 0.  1.
         22    1    3    3    0    0 -0.60719497852E+02  0.17867693356E+03  0.17614148061E+03  0.25814361351E+03  0.00000000000E+00 0.  1.
</event>
<event>
 7    1  0.6067783E-006  0.6339155E+02  0.7818608E-02  0.1400752E+00
          2   -1    0    0  502    0  0.00000000000E+00  0.00000000000E+00  0.10642775933E+04  0.10642775933E+04  0.00000000000E+00 0. -1.
          1   -1    0    0  501    0 -0.00000000000E+00 -0.00000000000E+00 -0.26489521568E+03  0.26489521568E+03  0.00000000000E+00 0. -1.
         25    2    1    2    0    0 -0.14420214750E+02 -0.11556958870E+00  0.90168012946E+02  0.15479482316E+03  0.12499284287E+03 0.  0.
          2    1    1    2  501    0 -0.33257703273E+02 -0.44419939212E+02 -0.22812186695E+03  0.23477391680E+03  0.00000000000E+00 0. -1.
          1    1    1    2  502    0  0.47677918023E+02  0.44535508801E+02  0.93733623165E+03  0.93960406905E+03  0.00000000000E+00 0. -1.
         22    1    3    3    0    0  0.29282854459E+02  0.31630616125E+01 -0.20419893572E+02  0.35839399793E+02  0.00000000000E+00 0.  1.
         22    1    3    3    0    0 -0.43703069209E+02 -0.32786312012E+01  0.11058790652E+03  0.11895542337E+03  0.00000000000E+00 0.  1.
</event>
<event>
 7    1  0.6393620E-006  0.1193902E+03  0.7818608E-02  0.1262307E+00
          2   -1    0    0  502    0  0.00000000000E+00  0.00000000000E+00  0.12554125997E+04  0.12554125997E+04  0.00000000000E+00 0. -1.
          1   -1    0    0  501    0 -0.00000000000E+00 -0.00000000000E+00 -0.90504078578E+03  0.90504078578E+03  0.00000000000E+00 0. -1.
         25    2    1    2    0    0  0.86963927194E+02 -0.60993292954E+02 -0.19568074679E+03  0.25534060023E+03  0.12499984417E+03 0.  0.
          2    1    1    2  501    0 -0.12480901610E+03 -0.31176114732E+02 -0.67138814774E+03  0.68360170096E+03  0.00000000000E+00 0. -1.
          1    1    1    2  502    0  0.37845088909E+02  0.92169407686E+02  0.12174407084E+04  0.12215110843E+04  0.00000000000E+00 0. -1.
         22    1    3    3    0    0 -0.17850117514E+02 -0.19399251707E+01 -0.10007493991E+03  0.10167292463E+03  0.00000000000E+00 0.  1.
         22    1    3    3    0    0  0.10481404471E+03 -0.59053367783E+02 -0.95605806874E+02  0.15366767559E+03  0.00000000000E+00 0.  1.
</event>
<event>
 7    1  0.6067783E-006  0.2237044E+03  0.7818608E-02  0.1180877E+00
          2   -1    0    0  502    0  0.00000000000E+00  0.00000000000E+00  0.10133623585E+04  0.10133623585E+04  0.00000000000E+00 0. -1.
          1   -1    0    0  501    0 -0.00000000000E+00 -0.00000000000E+00 -0.48026859672E+03  0.48026859672E+03  0.00000000000E+00 0. -1.
         25    2    1    2    0    0 -0.15238414621E+03 -0.12991258434E+03  0.17039869695E+03  0.29113244483E+03  0.12499670765E+03 0.  0.
          2    1    1    2  501    0  0.66999623481E+02  0.22101344089E+03 -0.38255550618E+03  0.44686083506E+03  0.00000000000E+00 0. -1.
          1    1    1    2  502    0  0.85384522728E+02 -0.91100856553E+02  0.74525057106E+03  0.75563767538E+03  0.00000000000E+00 0. -1.
         22    1    3    3    0    0 -0.53475319818E+02  0.49672945654E+01  0.19367533859E+01  0.53740439695E+02  0.00000000000E+00 0. -1.
         22    1    3    3    0    0 -0.98908826390E+02 -0.13487987890E+03  0.16846194357E+03  0.23739200513E+03  0.00000000000E+00 0. -1.
</event>
<event>
 7    1  0.7729842E-006  0.9184522E+02  0.7818608E-02  0.1361304E+00
          2   -1    0    0  502    0  0.00000000000E+00  0.00000000000E+00  0.17347498968E+04  0.17347498968E+04  0.00000000000E+00 0. -1.
          1   -1    0    0  501    0 -0.00000000000E+00 -0.00000000000E+00 -0.77850146149E+03  0.77850146149E+03  0.00000000000E+00 0. -1.
         25    2    1    2    0    0 -0.54312410096E+02 -0.45227525962E+02 -0.81273003050E+02  0.16500465465E+03  0.12500347210E+03 0.  0.
          2    1    1    2  501    0  0.29755212170E+02 -0.43630405951E+02 -0.65304081482E+03  0.65517271829E+03  0.00000000000E+00 0. -1.
          1    1    1    2  502    0  0.24557197927E+02  0.88857931912E+02  0.16905622532E+04  0.16930739853E+04  0.00000000000E+00 0. -1.
         22    1    3    3    0    0 -0.25166560654E+02  0.42694002158E+02 -0.39590990617E+02  0.63431696600E+02  0.00000000000E+00 0. -1.
         22    1    3    3    0    0 -0.29145849442E+02 -0.87921528120E+02 -0.41682012433E+02  0.10157295805E+03  0.00000000000E+00 0. -1.
</event>
<event>
 7    1  0.6067783E-006  0.3975671E+02  0.7818608E-02  0.1510809E+00
          2   -1    0    0  502    0  0.00000000000E+00  0.00000000000E+00  0.79506858799E+03  0.79506858799E+03  0.00000000000E+00 0. -1.
          1   -1    0    0  501    0 -0.00000000000E+00 -0.00000000000E+00 -0.24964432969E+04  0.24964432969E+04  0.00000000000E+00 0. -1.
         25    2    1    2    0    0 -0.19109080188E+02  0.75348449130E+02  0.28401443741E+03  0.31989307432E+03  0.12499933043E+03 0.  0.
          2    1    1    2  501    0  0.20289385368E+01 -0.39685639198E+02 -0.24775516957E+04  0.24778703500E+04  0.00000000000E+00 0. -1.
          1    1    1    2  502    0  0.17080141651E+02 -0.35662809932E+02  0.49216254940E+03  0.49374846054E+03  0.00000000000E+00 0. -1.
         22    1    3    3    0    0  0.40022435853E+02  0.74156841115E+02  0.13010183398E+03  0.15500812773E+03  0.00000000000E+00 0. -1.
         22    1    3    3    0    0 -0.59131516041E+02  0.11916080150E+01  0.15391260343E+03  0.16488494659E+03  0.00000000000E+00 0. -1.
</event>
<event>
 7    1  0.6067783E-006  0.7203410E+02  0.7818608E-02  0.1424452E+00
          2   -1    0    0  502    0  0.00000000000E+00  0.00000000000E+00  0.46065347399E+03  0.46065347399E+03  0.00000000000E+00 0. -1.
          1   -1    0    0  501    0 -0.00000000000E+00 -0.00000000000E+00 -0.16879291582E+03  0.16879291582E+03  0.00000000000E+00 0. -1.
         25    2    1    2    0    0 -0.72990204955E+02 -0.83816841302E+02  0.20672052966E+03  0.26592042758E+03  0.12500985366E+03 0.  0.
          2    1    1    2  501    0  0.46782373505E+02  0.52787981090E+02 -0.12821678019E+03  0.14633763747E+03  0.00000000000E+00 0. -1.
          1    1    1    2  502    0  0.26207831450E+02  0.31028860212E+02  0.21335680869E+03  0.21718832476E+03  0.00000000000E+00 0. -1.
         22    1    3    3    0    0  0.27890432259E+02 -0.51422608383E+02  0.97842817500E+02  0.11399727102E+03  0.00000000000E+00 0. -1.
         22    1    3    3    0    0 -0.10088063721E+03 -0.32394232919E+02  0.10887771216E+03  0.15192315655E+03  0.00000000000E+00 0. -1.
</event>
<event>
 7    1  0.6067783E-006  0.1525152E+03  0.7818608E-02  0.1336982E+00
          2   -1    0    0  502    0  0.00000000000E+00  0.00000000000E+00  0.40164176106E+03  0.40164176106E+03  0.00000000000E+00 0. -1.
          1   -1    0    0  501    0 -0.00000000000E+00 -0.00000000000E+00 -0.19659317470E+04  0.19659317470E+04  0.00000000000E+00 0. -1.
         25    2    1    2    0    0  0.11577268971E+03  0.14781393260E+03 -0.16849048186E+03  0.28154238616E+03  0.12499919350E+03 0.  0.
          2    1    1    2  501    0 -0.84073877649E+02 -0.12484129109E+03 -0.17365393303E+04  0.17430498015E+04  0.00000000000E+00 0. -1.
          1    1    1    2  502    0 -0.31698812058E+02 -0.22972641515E+02  0.34073982623E+03  0.34298132037E+03  0.00000000000E+00 0. -1.
         22    1    3    3    0    0  0.11974228515E+03  0.14638484818E+03 -0.10191515631E+03  0.21483351162E+03  0.00000000000E+00 0. -1.
         22    1    3    3    0    0 -0.39695954430E+01  0.14290844222E+01 -0.66575325553E+02  0.66708874542E+02  0.00000000000E+00 0. -1.
</event>
<event>
 7    1  0.6067783E-006  0.4084605E+02  0.7818608E-02  0.1588116E+00
          2   -1    0    0  502    0  0.00000000000E+00  0.00000000000E+00  0.49791479518E+03  0.49791479518E+03  0.00000000000E+00 0. -1.
          1   -1    0    0  501    0 -0.00000000000E+00 -0.00000000000E+00 -0.43396458647E+03  0.43396458647E+03  0.00000000000E+00 0. -1.
         25    2    1    2    0    0  0.40717499218E+02 -0.46175625384E+02  0.24342024421E+03  0.28048012626E+03  0.12500233123E+03 0.  0.
          2    1    1    2  501    0 -0.11222573836E+02  0.20543454481E+02 -0.41348353496E+03  0.41414564270E+03  0.00000000000E+00 0. -1.
          1    1    1    2  502    0 -0.29494925382E+02  0.25632170903E+02  0.23401349945E+03  0.23725361269E+03  0.00000000000E+00 0. -1.
         22    1    3    3    0    0  0.60427201232E+02 -0.79863401339E+02  0.16895237541E+03  0.19640395790E+03  0.00000000000E+00 0. -1.
         22    1    3    3    0    0 -0.19709702015E+02  0.33687775955E+02  0.74467868802E+02  0.84076168360E+02  0.00000000000E+00 0. -1.
</event>
<event>
 7    1  0.6067783E-006  0.4618953E+02  0.7818608E-02  0.1570101E+00
          2   -1    0    0  502    0  0.00000000000E+00  0.00000000000E+00  0.52148890320E+03  0.52148890320E+03  0.00000000000E+00 0. -1.
          1   -1    0    0  501    0 -0.00000000000E+00 -0.00000000000E+00 -0.14360722781E+04  0.14360722781E+04  0.00000000000E+00 0. -1.
         25    2    1    2    0    0  0.51502473706E+02  0.20672538155E+02 -0.81475710681E+03  0.82615614936E+03  0.12499992554E+03 0.  0.
          2    1    1    2  501    0 -0.31656206787E+02 -0.32570431605E+02 -0.61451759372E+03  0.61619381808E+03  0.00000000000E+00 0. -1.
          1    1    1    2  502    0 -0.19846266919E+02  0.11897893450E+02  0.51469132565E+03  0.51521121385E+03  0.00000000000E+00 0. -1.
         22    1    3    3    0    0  0.23636891484E+02 -0.24328291158E+02 -0.68742222589E+03  0.68825858878E+03  0.00000000000E+00 0.  1.
         22    1    3    3    0    0  0.27865582222E+02  0.45000829314E+02 -0.12733488092E+03  0.13789756057E+03  0.00000000000E+00 0.  1.
</event>
<event>
 7    1  0.6067783E-006  0.8878311E+02  0.7818608E-02  0.1414940E+00
          2   -1    0    0  502    0  0.00000000000E+00  0.00000000000E+00  0.15592674532E+04  0.15592674532E+04  0.00000000000E+00 0. -1.
          1   -1    0    0  501    0 -0.00000000000E+00 -0.00000000000E+00 -0.15607436655E+03  0.15607436655E+03  0.00000000000E+00 0. -1.
         25    2    1    2    0    0 -0.11726112453E+03  0.62047447255E+01  0.70396910926E+03  0.72455789506E+03  0.12499186504E+03 0.  0.
          2    1    1    2  501    0  0.34170991423E+02 -0.94579673595E+01 -0.14154235177E+03  0.14591554799E+03  0.00000000000E+00 0. -1.
          1    1    1    2  502    0  0.83090133110E+02  0.32532226340E+01  0.84076632916E+03  0.84486837668E+03  0.00000000000E+00 0. -1.
         22    1    3    3    0    0  0.18823016166E+02 -0.21608616840E+02  0.71758554046E+02  0.77269193979E+02  0.00000000000E+00 0. -1.
         22    1    3    3    0    0 -0.13608414070E+03  0.27813361565E+02  0.63221055521E+03  0.64728870108E+03  0.00000000000E+00 0. -1.
</event>
<event>
 7    1  0.6067783E-006  0.3152910E+02  0.7818608E-02  0.1609058E+00
          2   -1    0    0  502    0  0.00000000000E+00  0.00000000000E+00  0.34689049511E+03  0.34689049511E+03  0.00000000000E+00 0. -1.
          1   -1    0    0  501    0 -0.00000000000E+00 -0.00000000000E+00 -0.34859071383E+03  0.34859071383E+03  0.00000000000E+00 0. -1.
         25    2    1    2    0    0  0.76307500854E+01  0.79690540580E+00 -0.13538462240E+03  0.18442561022E+03  0.12499978527E+03 0.  0.
          2    1    1    2  501    0  0.12521972884E+02  0.23615722401E+02 -0.18695554708E+03  0.18885676777E+03  0.00000000000E+00 0. -1.
          1    1    1    2  502    0 -0.20152722970E+02 -0.24412627807E+02  0.32063995075E+03  0.32219883094E+03  0.00000000000E+00 0. -1.
         22    1    3    3    0    0 -0.42977922390E+02  0.57654845537E+01 -0.40044973049E+01  0.43547429589E+02  0.00000000000E+00 0.  1.
         22    1    3    3    0    0  0.50608672476E+02 -0.49685791479E+01 -0.13138012510E+03  0.14087818063E+03  0.00000000000E+00 0.  1.
</event>
<event>
 7    1  0.6067783E-006  0.2655462E+03  0.7818608E-02  0.1138306E+00
          2   -1    0    0  502    0  0.00000000000E+00  0.00000000000E+00  0.17419155338E+04  0.17419155338E+04  0.00000000000E+00 0. -1.
          1   -1    0    0  501    0 -0.00000000000E+00 -0.00000000000E+00 -0.56658407352E+03  0.56658407352E+03  0.00000000000E+00 0. -1.
         25    2    1    2    0    0  0.17080092388E+00  0.23312494598E+03  0.19417920080E+03  0.32814259001E+03  0.12499891096E+03 0.  0.
          2    1    1    2  501    0 -0.17234627037E+03 -0.11546431703E+02 -0.47082636589E+03  0.50151173846E+03  0.00000000000E+00 0. -1.
          1    1    1    2  502    0  0.17217546945E+03 -0.22157851428E+03  0.14519786253E+04  0.14788452788E+04  0.00000000000E+00 0. -1.
         22    1    3    3    0    0  0.46942715833E+02  0.67680258685E+02  0.22976038490E+02  0.85511018764E+02  0.00000000000E+00 0. -1.
         22    1    3    3    0    0 -0.46771914909E+02  0.16544468730E+03  0.17120316231E+03  0.24263157125E+03  0.00000000000E+00 0. -1.
</event>
<event>
 7    1  0.6067783E-006  0.1084131E+03  0.7818608E-02  0.1403641E+00
          2   -1    0    0  502    0  0.00000000000E+00  0.00000000000E+00  0.72538927045E+03  0.72538927045E+03  0.00000000000E+00 0. -1.
          1   -1    0    0  501    0 -0.00000000000E+00 -0.00000000000E+00 -0.59919085182E+03  0.59919085182E+03  0.00000000000E+00 0. -1.
         25    2    1    2    0    0 -0.74885676567E+02  0.10728823959E+03 -0.31982352861E+03  0.36746537617E+03  0.12500032928E+03 0.  0.
          2    1    1    2  501    0  0.30515842259E+02 -0.86393897312E+01 -0.25037074742E+03  0.25237148580E+03  0.00000000000E+00 0. -1.
          1    1    1    2  502    0  0.44369834309E+02 -0.98648849859E+02  0.69639269465E+03  0.70474326030E+03  0.00000000000E+00 0. -1.
         22    1    3    3    0    0  0.13715368594E+02  0.84657901204E+02 -0.19216127971E+03  0.21043057998E+03  0.00000000000E+00 0. -1.
         22    1    3    3    0    0 -0.88601045161E+02  0.22630338387E+02 -0.12766224890E+03  0.15703479619E+03  0.00000000000E+00 0. -1.
</event>
<event>
 7    1  0.6067783E-006  0.1054469E+03  0.7818608E-02  0.1369244E+00
          2   -1    0    0  502    0  0.00000000000E+00  0.00000000000E+00  0.61790673313E+03  0.61790673313E+03  0.00000000000E+00 0. -1.
          1   -1    0    0  501    0 -0.00000000000E+00 -0.00000000000E+00 -0.14754471341E+04  0.14754471341E+04  0.00000000000E+00 0. -1.
         25    2    1    2    0    0 -0.19252892766E+02  0.12373409193E+03  0.46652551839E+02  0.18298593309E+03  0.12500636675E+03 0.  0.
          2    1    1    2  501    0  0.37590202329E+02 -0.20988021885E+02 -0.14015332586E+04  0.14021943501E+04  0.00000000000E+00 0. -1.
          1    1    1    2  502    0 -0.18337309563E+02 -0.10274607005E+03  0.49734030578E+03  0.50817358411E+03  0.00000000000E+00 0. -1.
         22    1    3    3    0    0 -0.71731962367E+00  0.12281003549E+03  0.78762625098E+02  0.14589849375E+03  0.00000000000E+00 0. -1.
         22    1    3    3    0    0 -0.18535573142E+02  0.92405643747E+00 -0.32110073259E+02  0.37087439338E+02  0.00000000000E+00 0. -1.
</event>
<event>
 7    1  0.6067783E-006  0.1697948E+03  0.7818608E-02  0.1348149E+00
          2   -1    0    0  502    0  0.00000000000E+00  0.00000000000E+00  0.18110013514E+04  0.18110013514E+04  0.00000000000E+00 0. -1.
          1   -1    0    0  501    0 -0.00000000000E+00 -0.00000000000E+00 -0.15614005440E+04  0.15614005440E+04  0.00000000000E+00 0. -1.
         25    2    1    2    0    0  0.63213840667E+02  0.18884910970E+03 -0.75715728994E+01  0.23525641729E+03  0.12501310841E+03 0.  0.
          2    1    1    2  501    0 -0.18359594000E+02 -0.26128293825E+02 -0.14356118338E+04  0.14359669564E+04  0.00000000000E+00 0. -1.
          1    1    1    2  502    0 -0.44854246667E+02 -0.16272081587E+03  0.16927842141E+04  0.17011785217E+04  0.00000000000E+00 0. -1.
         22    1    3    3    0    0 -0.18532296108E+02  0.38851870319E+02 -0.42946861632E+02  0.60805811813E+02  0.00000000000E+00 0. -1.
         22    1    3    3    0    0  0.81746136775E+02  0.14999723938E+03  0.35375288732E+02  0.17445060548E+03  0.00000000000E+00 0. -1.
</event>
<event>
 7    1  0.6067783E-006  0.7474187E+02  0.7818608E-02  0.1371306E+00
          2   -1    0    0  502    0  0.00000000000E+00  0.00000000000E+00  0.61647156862E+03  0.61647156862E+03  0.00000000000E+00 0. -1.
          1   -1    0    0  501    0 -0.00000000000E+00 -0.00000000000E+00 -0.46500719573E+03  0.46500719573E+03  0.00000000000E+00 0. -1.
         25    2    1    2    0    0  0.12821220946E+01  0.37400098738E+02  0.83581326122E+02  0.15495548098E+03  0.12499980715E+03 0.  0.
          2    1    1    2  501    0  0.57763277467E+02  0.15129994255E+02 -0.42407477956E+03  0.42825801990E+03  0.00000000000E+00 0. -1.
          1    1    1    2  502    0 -0.59045399562E+02 -0.52530092994E+02  0.49195782634E+03  0.49826526346E+03  0.00000000000E+00 0. -1.
         22    1    3    3    0    0  0.61257849385E+02  0.42035035881E+01  0.46472122346E+02  0.77005530380E+02  0.00000000000E+00 0. -1.
         22    1    3    3    0    0 -0.59975727290E+02  0.33196595150E+02  0.37109203776E+02  0.77949950599E+02  0.00000000000E+00 0. -1.
</event>
<event>
 7    1  0.6067783E-006  0.1550278E+03  0.7818608E-02  0.1242685E+00
          2   -1    0    0  502    0  0.00000000000E+00  0.00000000000E+00  0.97638471961E+02  0.97638471961E+02  0.00000000000E+00 0. -1.
          1   -1    0    0  501    0 -0.00000000000E+00 -0.00000000000E+00 -0.11107107009E+04  0.11107107009E+04  0.00000000000E+00 0. -1.
         25    2    1    2    0    0  0.73684829480E+01 -0.80058902859E+02 -0.76153318993E+02  0.16698265607E+03  0.12498062636E+03 0.  0.
          2    1    1    2  501    0  0.31576409879E+02  0.16481348961E+03 -0.93304128846E+03  0.94801192080E+03  0.00000000000E+00 0. -1.
          1    1    1    2  502    0 -0.38944892827E+02 -0.84754586747E+02 -0.38776215300E+01  0.93354596034E+02  0.00000000000E+00 0. -1.
         22    1    3    3    0    0  0.13164761957E+02  0.28749523923E+02  0.37792224866E+01  0.31845385942E+02  0.00000000000E+00 0. -1.
         22    1    3    3    0    0 -0.57962790092E+01 -0.10880842678E+03 -0.79932541480E+02  0.13513727012E+03  0.00000000000E+00 0. -1.
</event>
<event>
 7    1  0.6067783E-006  0.4269245E+02  0.7818608E-02  0.1514184E+00
          2   -1    0    0  502    0  0.00000000000E+00  0.00000000000E+00  0.22936145864E+04  0.22936145864E+04  0.00000000000E+00 0. -1.
          1   -1    0    0  501    0 -0.00000000000E+00 -0.00000000000E+00 -0.78545522745E+03  0.78545522745E+03  0.00000000000E+00 0. -1.
         25    2    1    2    0    0  0.60876338214E+02  0.10821933700E+02  0.13469581204E+04  0.13541558569E+04  0.12497545357E+03 0.  0.
          2    1    1    2  501    0 -0.23036862597E+02 -0.27654838499E+02 -0.78098699978E+03  0.78181595082E+03  0.00000000000E+00 0. -1.
          1    1    1    2  502    0 -0.37839475617E+02  0.16832904799E+02  0.94218823841E+03  0.94309800614E+03  0.00000000000E+00 0. -1.
         22    1    3    3    0    0  0.28811162623E+02 -0.57226017540E+02  0.64993598714E+03  0.65308627880E+03  0.00000000000E+00 0. -1.
         22    1    3    3    0    0  0.32065175591E+02  0.68047951239E+02  0.69702213323E+03  0.70106957812E+03  0.00000000000E+00 0. -1.
</event>
<event>
 7    1  0.6067783E-006  0.8788107E+02  0.7818608E-02  0.1415954E+00
          2   -1    0    0  502    0  0.00000000000E+00  0.00000000000E+00  0.32196115588E+03  0.32196115588E+03  0.00000000000E+00 0. -1.
          1   -1    0    0  501    0 -0.00000000000E+00 -0.00000000000E+00 -0.14347038838E+03  0.14347038838E+03  0.00000000000E+00 0. -1.
         25    2    1    2    0    0 -0.51564341813E+02 -0.42192254790E+02  0.87348580474E+01  0.14191833539E+03  0.12500179384E+03 0.  0.
          2    1    1    2  501    0  0.87085589409E+02  0.43336499985E+02 -0.44044170109E+02  0.10677940360E+03  0.00000000000E+00 0. -1.
          1    1    1    2  502    0 -0.35521247595E+02 -0.11442451953E+01  0.21380007956E+03  0.21673380527E+03  0.00000000000E+00 0. -1.
         22    1    3    3    0    0  0.44094412793E+01 -0.70934745422E+02 -0.18368727909E+02  0.73407025859E+02  0.00000000000E+00 0.  1.
         22    1    3    3    0    0 -0.55973783093E+02  0.28742490632E+02  0.27103585957E+02  0.68511309527E+02  0.00000000000E+00 0.  1.
</event>
<event>
 7    1  0.6067783E-006  0.7119724E+02  0.7818608E-02  0.1484316E+00
          2   -1    0    0  502    0  0.00000000000E+00  0.00000000000E+00  0.15196659619E+04  0.15196659619E+04  0.00000000000E+00 0. -1.
          1   -1    0    0  501    0 -0.00000000000E+00 -0.00000000000E+00 -0.18789646850E+04  0.18789646850E+04  0.00000000000E+00 0. -1.
         25    2    1    2    0    0 -0.20421659145E+01 -0.48171384655E+02 -0.13334421892E+03  0.18902630654E+03  0.12500244439E+03 0.  0.
          2    1    1    2  501    0 -0.11588951866E+02  0.70903140694E+02 -0.17169103833E+04  0.17184128793E+04  0.00000000000E+00 0. -1.
          1    1    1    2  502    0  0.13631117780E+02 -0.22731756039E+02  0.14909558792E+04  0.14911914611E+04  0.00000000000E+00 0. -1.
         22    1    3    3    0    0 -0.37243086913E+02  0.29445183438E+02 -0.60550766861E+02  0.76944536635E+02  0.00000000000E+00 0. -1.
         22    1    3    3    0    0  0.35200920998E+02 -0.77616568093E+02 -0.72793452057E+02  0.11208176990E+03  0.00000000000E+00 0. -1.
</event>
<event>
 7    1  0.6067783E-006  0.1788598E+03  0.7818608E-02  0.1231270E+00
          2   -1    0    0  502    0  0.00000000000E+00  0.00000000000E+00  0.10035978671E+03  0.10035978671E+03  0.00000000000E+00 0. -1.
          1   -1    0    0  501    0 -0.00000000000E+00 -0.00000000000E+00 -0.32308843638E+04  0.32308843638E+04  0.00000000000E+00 0. -1.
         25    2    1    2    0    0  0.17828789771E+03 -0.23989928025E+02 -0.77698924416E+03  0.80727947527E+03  0.12500309809E+03 0.  0.
          2    1    1    2  501    0 -0.96218675547E+01  0.90324164236E+02 -0.23404925266E+04  0.23422545340E+04  0.00000000000E+00 0. -1.
          1    1    1    2  502    0 -0.16866603015E+03 -0.66334236212E+02 -0.13042806301E+02  0.18171014120E+03  0.00000000000E+00 0. -1.
         22    1    3    3    0    0  0.83003460996E+02 -0.28015621906E+02 -0.15518830043E+03  0.17820734608E+03  0.00000000000E+00 0. -1.
         22    1    3    3    0    0  0.95284436709E+02  0.40256938811E+01 -0.62180094373E+03  0.62907212918E+03  0.00000000000E+00 0. -1.
</event>
<event>
 7    1  0.6067783E-006  0.6682120E+02  0.7818608E-02  0.1390886E+00
          2   -1    0    0  502    0  0.00000000000E+00  0.00000000000E+00  0.23944856943E+04  0.23944856943E+04  0.00000000000E+00 0. -1.
          1   -1    0    0  501    0 -0.00000000000E+00 -0.00000000000E+00 -0.14945376474E+03  0.14945376474E+03  0.00000000000E+00 0. -1.
         25    2    1    2    0    0 -0.38700805876E+02  0.33465742703E+02  0.13132891174E+04  0.13202159194E+04  0.12499623919E+03 0.  0.
          2    1    1    2  501    0  0.34765477808E+02  0.45103471164E+02 -0.13893846779E+03  0.15015611672E+03  0.00000000000E+00 0. -1.
          1    1    1    2  502    0  0.39353280675E+01 -0.78569213866E+02  0.10706812800E+04  0.10735674229E+04  0.00000000000E+00 0. -1.
         22    1    3    3    0    0 -0.80407081333E+02  0.54078598886E+01  0.95878252877E+03  0.96216343786E+03  0.00000000000E+00 0. -1.
         22    1    3    3    0    0  0.41706275457E+02  0.28057882814E+02  0.35450658859E+03  0.35805248156E+03  0.00000000000E+00 0. -1.
</event>
<event>
 7    1  0.6067783E-006  0.7758545E+02  0.7818608E-02  0.1370895E+00
          2   -1    0    0  502    0  0.00000000000E+00  0.00000000000E+00  0.16407147563E+04  0.16407147563E+04  0.00000000000E+00 0. -1.
          1   -1    0    0  501    0 -0.00000000000E+00 -0.00000000000E+00 -0.18679456621E+03  0.18679456621E+03  0.00000000000E+00 0. -1.
         25    2    1    2    0    0  0.13168905068E+03 -0.15182842396E+02  0.32899086066E+03  0.37607872883E+03  0.12501079594E+03 0.  0.
          2    1    1    2  501    0 -0.57634635775E+02  0.31207502001E+01 -0.15701740384E+03  0.16729003387E+03  0.00000000000E+00 0. -1.
          1    1    1    2  502    0 -0.74054414909E+02  0.12062092195E+02  0.12819467333E+04  0.12841405598E+04  0.00000000000E+00 0. -1.
         22    1    3    3    0    0 -0.91721739958E+01 -0.32198847294E+02  0.29270131279E+02  0.44470609709E+02  0.00000000000E+00 0. -1.
         22    1    3    3    0    0  0.14086122468E+03  0.17016004898E+02  0.29972072939E+03  0.33160811912E+03  0.00000000000E+00 0. -1.
</event>
<event>
 7    1  0.6067783E-006  0.1097958E+03  0.7818608E-02  0.1350005E+00
          2   -1    0    0  502    0  0.00000000000E+00  0.00000000000E+00  0.19634188829E+04  0.19634188829E+04  0.00000000000E+00 0. -1.
          1   -1    0    0  501    0 -0.00000000000E+00 -0.00000000000E+00 -0.94857796885E+03  0.94857796885E+03  0.00000000000E+00 0. -1.
         25    2    1    2    0    0  0.73504986620E+02  0.11505396436E+01  0.10938324099E+04  0.11034026573E+04  0.12499510530E+03 0.  0.
          2    1    1    2  501    0 -0.10223866063E+03 -0.40356212547E+02 -0.93990474243E+03  0.94630982900E+03  0.00000000000E+00 0. -1.
          1    1    1    2  502    0  0.28733674009E+02  0.39205672904E+02  0.86091324658E+03  0.86228436548E+03  0.00000000000E+00 0. -1.
         22    1    3    3    0    0  0.82500364298E+02 -0.35840329480E+02  0.96164650059E+03  0.96584410307E+03  0.00000000000E+00 0.  1.
         22    1    3    3    0    0 -0.89953776776E+01  0.36990869124E+02  0.13218590928E+03  0.13755855419E+03  0.00000000000E+00 0.  1.
</event>
<event>
 7    1  0.6067783E-006  0.5587561E+02  0.7818608E-02  0.1473308E+00
          2   -1    0    0  502    0  0.00000000000E+00  0.00000000000E+00  0.18761796747E+04  0.18761796747E+04  0.00000000000E+00 0. -1.
          1   -1    0    0  501    0 -0.00000000000E+00 -0.00000000000E+00 -0.15995293624E+03  0.15995293624E+03  0.00000000000E+00 0. -1.
         25    2    1    2    0    0 -0.33893086183E+02  0.82705104206E+02  0.75851767285E+03  0.77392739354E+03  0.12500269958E+03 0.  0.
          2    1    1    2  501    0  0.10515606995E+02 -0.54662001083E+02 -0.14684843858E+03  0.15704450409E+03  0.00000000000E+00 0. -1.
          1    1    1    2  502    0  0.23377479188E+02 -0.28043103123E+02  0.11045575042E+04  0.11051607133E+04  0.00000000000E+00 0. -1.
         22    1    3    3    0    0  0.15859506747E+02  0.31279691712E+02  0.58747814015E+03  0.58852400820E+03  0.00000000000E+00 0. -1.
         22    1    3    3    0    0 -0.49752592930E+02  0.51425412494E+02  0.17103953269E+03  0.18540338535E+03  0.00000000000E+00 0. -1.
</event>
<event>
 7    1  0.6067783E-006  0.6059627E+02  0.7818608E-02  0.1463777E+00
          2   -1    0    0  502    0  0.00000000000E+00  0.00000000000E+00  0.93935312788E+02  0.93935312788E+02  0.00000000000E+00 0. -1.
          1   -1    0    0  501    0 -0.00000000000E+00 -0.00000000000E+00 -0.51294351950E+03  0.51294351950E+03  0.00000000000E+00 0. -1.
         25    2    1    2    0    0  0.29805392782E+02 -0.32463842820E+02 -0.48421503766E+02  0.14110899542E+03  0.12499937612E+03 0.  0.
          2    1    1    2  501    0 -0.60357170356E+02  0.13330833085E+02 -0.40867757100E+03  0.41332560550E+03  0.00000000000E+00 0. -1.
          1    1    1    2  502    0  0.30551777574E+02  0.19133009736E+02  0.38090868056E+02  0.52444231368E+02  0.00000000000E+00 0. -1.
         22    1    3    3    0    0  0.65619827676E+02 -0.86891226773E+01  0.11681295965E+02  0.67215439541E+02  0.00000000000E+00 0.  1.
         22    1    3    3    0    0 -0.35814434895E+02 -0.23774720143E+02 -0.60102799731E+02  0.73893555878E+02  0.00000000000E+00 0.  1.
</event>
<event>
 7    1  0.6067783E-006  0.1389222E+03  0.7818608E-02  0.1296599E+00
          2   -1    0    0  502    0  0.00000000000E+00  0.00000000000E+00  0.12624363180E+04  0.12624363180E+04  0.00000000000E+00 0. -1.
          1   -1    0    0  501    0 -0.00000000000E+00 -0.00000000000E+00 -0.13279291201E+04  0.13279291201E+04  0.00000000000E+00 0. -1.
         25    2    1    2    0    0 -0.10606456567E+03 -0.11036422022E+03  0.10155495712E+03  0.22219390212E+03  0.12500707032E+03 0.  0.
          2    1    1    2  501    0  0.47656819997E+02  0.13045585646E+03 -0.12629330078E+04  0.12705470024E+04  0.00000000000E+00 0. -1.
          1    1    1    2  502    0  0.58407745670E+02 -0.20091636246E+02  0.10958852486E+04  0.10976245336E+04  0.00000000000E+00 0. -1.
         22    1    3    3    0    0  0.24756502354E+01 -0.82983669958E+02  0.25454103483E+02  0.86835071877E+02  0.00000000000E+00 0.  1.
         22    1    3    3    0    0 -0.10854021590E+03 -0.27380550258E+02  0.76100853640E+02  0.13535883025E+03  0.00000000000E+00 0.  1.
</event>
<event>
 7    1  0.6067783E-006  0.5908313E+02  0.7818608E-02  0.1461830E+00
          2   -1    0    0  502    0  0.00000000000E+00  0.00000000000E+00  0.87040196309E+02  0.87040196309E+02  0.00000000000E+00 0. -1.
          1   -1    0    0  501    0 -0.00000000000E+00 -0.00000000000E+00 -0.56335538778E+03  0.56335538778E+03  0.00000000000E+00 0. -1.
         25    2    1    2    0    0  0.11265796718E+02  0.86069344190E+02 -0.56214771474E+02  0.16223875725E+03  0.12500585441E+03 0.  0.
          2    1    1    2  501    0  0.12337801756E+02 -0.56934664310E+02 -0.44126904815E+03  0.44509791081E+03  0.00000000000E+00 0. -1.
          1    1    1    2  502    0 -0.23603598474E+02 -0.29134679879E+02  0.21168628149E+02  0.43058916037E+02  0.00000000000E+00 0. -1.
         22    1    3    3    0    0 -0.42355145188E+02 -0.21617218678E+01 -0.38902818174E+02  0.57550505013E+02  0.00000000000E+00 0.  1.
         22    1    3    3    0    0  0.53620941906E+02  0.88231066057E+02 -0.17311953300E+02  0.10468825223E+03  0.00000000000E+00 0.  1.
</event>
<event>
 7    1  0.6067783E-006  0.1455014E+03  0.7818608E-02  0.1375130E+00
          2   -1    0    0  502    0  0.00000000000E+00  0.00000000000E+00  0.22707643289E+04  0.22707643289E+04  0.00000000000E+00 0. -1.
          1   -1    0    0  501    0 -0.00000000000E+00 -0.00000000000E+00 -0.24745159798E+03  0.24745159798E+03  0.00000000000E+00 0. -1.
         25    2    1    2    0    0 -0.50871235549E+02 -0.15650850392E+03  0.13356890322E+04  0.13515817305E+04  0.12500075567E+03 0.  0.
          2    1    1    2  501    0  0.64510674508E+02  0.13010122071E+03 -0.21722680243E+03  0.26129569161E+03  0.00000000000E+00 0. -1.
          1    1    1    2  502    0 -0.13639438960E+02  0.26407283208E+02  0.90485050112E+03  0.90533850480E+03  0.00000000000E+00 0. -1.
         22    1    3    3    0    0 -0.81470633186E+02 -0.11643351214E+03  0.72376538504E+03  0.73758427274E+03  0.00000000000E+00 0.  1.
         22    1    3    3    0    0  0.30599397637E+02 -0.40074991782E+02  0.61192364720E+03  0.61399745773E+03  0.00000000000E+00 0.  1.
</event>
<event>
 7    1  0.6067783E-006  0.6481033E+02  0.7818608E-02  0.1405398E+00
          2   -1    0    0  502    0  0.00000000000E+00  0.00000000000E+00  0.82991435597E+02  0.82991435597E+02  0.00000000000E+00 0. -1.
          1   -1    0    0  501    0 -0.00000000000E+00 -0.00000000000E+00 -0.24518918618E+04  0.24518918618E+04  0.00000000000E+00 0. -1.
         25    2    1    2    0    0  0.77542589387E+02  0.82282196410E+02 -0.25759334256E+03  0.30783589128E+03  0.12500157125E+03 0.  0.
          2    1    1    2  501    0 -0.41588647592E+02 -0.31752323211E+02 -0.21521528785E+04  0.21527888512E+04  0.00000000000E+00 0. -1.
          1    1    1    2  502    0 -0.35953941796E+02 -0.50529873200E+02  0.40845794842E+02  0.74258554877E+02  0.00000000000E+00 0. -1.
         22    1    3    3    0    0  0.12572799355E+02  0.79448197820E+01 -0.18424330273E+03  0.18484260885E+03  0.00000000000E+00 0.  1.
         22    1    3    3    0    0  0.64969790032E+02  0.74337376628E+02 -0.73350039830E+02  0.12299328243E+03  0.00000000000E+00 0.  1.
</event>
<event>
 7    1  0.6067783E-006  0.1128592E+03  0.7818608E-02  0.1291351E+00
          2   -1    0    0  502    0  0.00000000000E+00  0.00000000000E+00  0.65083292928E+03  0.65083292928E+03  0.00000000000E+00 0. -1.
          1   -1    0    0  501    0 -0.00000000000E+00 -0.00000000000E+00 -0.12288809148E+04  0.12288809148E+04  0.00000000000E+00 0. -1.
         25    2    1    2    0    0  0.60795436450E+02  0.70929066095E+02 -0.32690919362E+03  0.36224557070E+03  0.12500086041E+03 0.  0.
          2    1    1    2  501    0 -0.67649262525E+02  0.42396416885E+02 -0.87738714250E+03  0.88101196173E+03  0.00000000000E+00 0. -1.
          1    1    1    2  502    0  0.68538260755E+01 -0.11332548298E+03  0.62624835060E+03  0.63645631166E+03  0.00000000000E+00 0. -1.
         22    1    3    3    0    0  0.49932408525E+02  0.63326434511E+02 -0.33640543581E+03  0.34593655483E+03  0.00000000000E+00 0.  1.
         22    1    3    3    0    0  0.10863027925E+02  0.76026315841E+01  0.94962421872E+01  0.16309015862E+02  0.00000000000E+00 0.  1.
</event>
<event>
 7    1  0.6067783E-006  0.3305301E+03  0.7818608E-02  0.1264819E+00
          2   -1    0    0  502    0  0.00000000000E+00  0.00000000000E+00  0.13195290212E+04  0.13195290212E+04  0.00000000000E+00 0. -1.
          1   -1    0    0  501    0 -0.00000000000E+00 -0.00000000000E+00 -0.20608927941E+03  0.20608927941E+03  0.00000000000E+00 0. -1.
         25    2    1    2    0    0  0.34164578235E+03  0.89725608371E+02  0.35574821159E+03  0.51667523030E+03  0.12499591255E+03 0.  0.
          2    1    1    2  501    0 -0.31199290166E+03 -0.70913219192E+02  0.79284161022E+02  0.32962741623E+03  0.00000000000E+00 0. -1.
          1    1    1    2  502    0 -0.29652880696E+02 -0.18812389178E+02  0.67840736915E+03  0.67931565405E+03  0.00000000000E+00 0. -1.
         22    1    3    3    0    0  0.20633027644E+03  0.52473485528E+01  0.14445329397E+03  0.25192552825E+03  0.00000000000E+00 0. -1.
         22    1    3    3    0    0  0.13531550591E+03  0.84478259818E+02  0.21129491762E+03  0.26474970205E+03  0.00000000000E+00 0. -1.
</event>
<event>
 7    1  0.6067783E-006  0.4473980E+02  0.7818608E-02  0.1477267E+00
          2   -1    0    0  502    0  0.00000000000E+00  0.00000000000E+00  0.10470020092E+04  0.10470020092E+04  0.00000000000E+00 0. -1.
          1   -1    0    0  501    0 -0.00000000000E+00 -0.00000000000E+00 -0.48397430168E+02  0.48397430168E+02  0.00000000000E+00 0. -1.
         25    2    1    2    0    0  0.12363749662E+02  0.35423795428E+02  0.15502573188E+03  0.20264313702E+03  0.12499422326E+03 0.  0.
          2    1    1    2  501    0 -0.44566074629E+02 -0.39388710132E+01 -0.31313082123E+01  0.44849245298E+02  0.00000000000E+00 0. -1.
          1    1    1    2  502    0  0.32202324967E+02 -0.31484924415E+02  0.84671015539E+03  0.84790705707E+03  0.00000000000E+00 0. -1.
         22    1    3    3    0    0  0.70246535742E+01  0.79761207197E+02  0.12630694658E+03  0.14954812164E+03  0.00000000000E+00 0. -1.
         22    1    3    3    0    0  0.53390960879E+01 -0.44337411769E+02  0.28718785303E+02  0.53095015384E+02  0.00000000000E+00 0. -1.
</event>
<event>
 7    1  0.6067783E-006  0.1143726E+03  0.7818608E-02  0.1274319E+00
          2   -1    0    0  502    0  0.00000000000E+00  0.00000000000E+00  0.58684495751E+03  0.58684495751E+03  0.00000000000E+00 0. -1.
          1   -1    0    0  501    0 -0.00000000000E+00 -0.00000000000E+00 -0.15315319864E+03  0.15315319864E+03  0.00000000000E+00 0. -1.
         25    2    1    2    0    0  0.23749525664E+01  0.31305548364E+02  0.11381940060E+03  0.17194725426E+03  0.12500129814E+03 0.  0.
          2    1    1    2  501    0 -0.11437063101E+03  0.66368795328E+00 -0.87723913470E+02  0.14414078782E+03  0.00000000000E+00 0. -1.
          1    1    1    2  502    0  0.11199567845E+03 -0.31969236317E+02  0.40759627174E+03  0.42391011406E+03  0.00000000000E+00 0. -1.
         22    1    3    3    0    0  0.13315808620E+01 -0.28025241399E+02 -0.13755124878E+02  0.31247251455E+02  0.00000000000E+00 0.  1.
         22    1    3    3    0    0  0.10433717043E+01  0.59330789763E+02  0.12757452548E+03  0.14070000281E+03  0.00000000000E+00 0.  1.
</event>
<event>
 7    1  0.6067783E-006  0.4764280E+02  0.7818608E-02  0.1467474E+00
          2   -1    0    0  502    0  0.00000000000E+00  0.00000000000E+00  0.15964135032E+04  0.15964135032E+04  0.00000000000E+00 0. -1.
          1   -1    0    0  501    0 -0.00000000000E+00 -0.00000000000E+00 -0.22246239627E+02  0.22246239627E+02  0.00000000000E+00 0. -1.
         25    2    1    2    0    0 -0.46490646568E+01  0.29863189098E+02  0.48269648740E+03  0.49953437226E+03  0.12500106502E+03 0.  0.
          2    1    1    2  501    0 -0.42540024939E+02 -0.13543821217E+02  0.24380326361E+02  0.50867368012E+02  0.00000000000E+00 0. -1.
          1    1    1    2  502    0  0.47189089596E+02 -0.16319367881E+02  0.10670904499E+04  0.10682580026E+04  0.00000000000E+00 0. -1.
         22    1    3    3    0    0  0.24091797949E+02 -0.30949199002E+02  0.33445752292E+03  0.33674931668E+03  0.00000000000E+00 0.  1.
         22    1    3    3    0    0 -0.28740862606E+02  0.60812388099E+02  0.14823896448E+03  0.16278505558E+03  0.00000000000E+00 0.  1.
</event>
<event>
 7    1  0.6067783E-006  0.1095984E+03  0.7818608E-02  0.1309220E+00
          2   -1    0    0  502    0  0.00000000000E+00  0.00000000000E+00  0.42753103246E+03  0.42753103246E+03  0.00000000000E+00 0. -1.
          1   -1    0    0  501    0 -0.00000000000E+00 -0.00000000000E+00 -0.25570014180E+04  0.25570014180E+04  0.00000000000E+00 0. -1.
         25    2    1    2    0    0 -0.16764188972E+03  0.18367859627E+02  0.71778164779E+02  0.22185100850E+03  0.12499833430E+03 0.  0.
          2    1    1    2  501    0  0.10145084619E+03 -0.40304658275E+02 -0.24764135097E+04  0.24788183900E+04  0.00000000000E+00 0. -1.
          1    1    1    2  502    0  0.66191043528E+02  0.21936798648E+02  0.27516495939E+03  0.28386305194E+03  0.00000000000E+00 0. -1.
         22    1    3    3    0    0 -0.37061926599E+01 -0.12952209710E+02  0.52077184617E+02  0.53791530542E+02  0.00000000000E+00 0. -1.
         22    1    3    3    0    0 -0.16393569706E+03  0.31320069336E+02  0.19700980163E+02  0.16805947796E+03  0.00000000000E+00 0. -1.
</event>
<event>
 7    1  0.6067783E-006  0.6455079E+02  0.7818608E-02  0.1380918E+00
          2   -1    0    0  502    0  0.00000000000E+00  0.00000000000E+00  0.15128470249E+03  0.15128470249E+03  0.00000000000E+00 0. -1.
          1   -1    0    0  501    0 -0.00000000000E+00 -0.00000000000E+00 -0.48838636022E+03  0.48838636022E+03  0.00000000000E+00 0. -1.
         25    2    1    2    0    0 -0.21078520656E+02  0.11635311392E+02  0.49071376340E+02  0.13642862838E+03  0.12500034465E+03 0.  0.
          2    1    1    2  501    0 -0.14877379686E+02 -0.64455845634E+02 -0.42390568790E+03  0.42903604126E+03  0.00000000000E+00 0. -1.
          1    1    1    2  502    0  0.35955900342E+02  0.52820534243E+02  0.37732653835E+02  0.74206393070E+02  0.00000000000E+00 0. -1.
         22    1    3    3    0    0  0.41675998659E+02  0.19666934373E+02 -0.12912957200E+02  0.47858349695E+02  0.00000000000E+00 0. -1.
         22    1    3    3    0    0 -0.62754519315E+02 -0.80316229819E+01  0.61984333539E+02  0.88570278686E+02  0.00000000000E+00 0. -1.
</event>
<event>
 7    1  0.6067783E-006  0.7292234E+02  0.7818608E-02  0.1443611E+00
          2   -1    0    0  502    0  0.00000000000E+00  0.00000000000E+00  0.34516017223E+02  0.34516017223E+02  0.00000000000E+00 0. -1.
          1   -1    0    0  501    0 -0.00000000000E+00 -0.00000000000E+00 -0.15616059735E+04  0.15616059735E+04  0.00000000000E+00 0. -1.
         25    2    1    2    0    0 -0.64905501162E+02 -0.69702804228E+02 -0.23144562527E+03  0.27975544716E+03  0.12499931103E+03 0.  0.
          2    1    1    2  501    0  0.63096319361E+02  0.35023469472E+02 -0.12727010169E+04  0.12747453343E+04  0.00000000000E+00 0. -1.
          1    1    1    2  502    0  0.18091818012E+01  0.34679334757E+02 -0.22943314110E+02  0.41621209261E+02  0.00000000000E+00 0. -1.
         22    1    3    3    0    0  0.22425814020E+02  0.45950417324E+01 -0.11148605111E+03  0.11381199908E+03  0.00000000000E+00 0.  1.
         22    1    3    3    0    0 -0.87331315181E+02 -0.74297845961E+02 -0.11995957416E+03  0.16594344808E+03  0.00000000000E+00 0.  1.
</event>
<event>
 7    1  0.6067783E-006  0.7303709E+02  0.7818608E-02  0.1388590E+00
          2   -1    0    0  502    0  0.00000000000E+00  0.00000000000E+00  0.12436297592E+04  0.12436297592E+04  0.00000000000E+00 0. -1.
          1   -1    0    0  501    0 -0.00000000000E+00 -0.00000000000E+00 -0.29103722288E+03  0.29103722288E+03  0.00000000000E+00 0. -1.
         25    2    1    2    0    0  0.12467266626E+03  0.58838115046E+01  0.18806288218E+03  0.25801372514E+03  0.12500216701E+03 0.  0.
          2    1    1    2  501    0 -0.71862670823E+02 -0.62859244362E+00 -0.25031237898E+03  0.26042451047E+03  0.00000000000E+00 0. -1.
          1    1    1    2  502    0 -0.52809995433E+02 -0.52552190610E+01  0.10148420331E+04  0.10162287465E+04  0.00000000000E+00 0. -1.
         22    1    3    3    0    0  0.72613872468E+02 -0.25226740280E+02  0.18138383986E+03  0.19700066056E+03  0.00000000000E+00 0.  1.
         22    1    3    3    0    0  0.52058793788E+02  0.31110551785E+02  0.66790423228E+01  0.61013064579E+02  0.00000000000E+00 0.  1.
</event>
<event>
 7    1  0.6067783E-006  0.3477970E+02  0.7818608E-02  0.1578121E+00
          2   -1    0    0  502    0  0.00000000000E+00  0.00000000000E+00  0.31345522328E+03  0.31345522328E+03  0.00000000000E+00 0. -1.
          1   -1    0    0  501    0 -0.00000000000E+00 -0.00000000000E+00 -0.62038080087E+03  0.62038080087E+03  0.00000000000E+00 0. -1.
         25    2    1    2    0    0 -0.50732480958E+02 -0.20650050924E+01 -0.43691185324E+02  0.14181669359E+03  0.12500002414E+03 0.  0.
          2    1    1    2  501    0  0.28013529597E+02  0.20463994428E+02 -0.52624582906E+03  0.52738809762E+03  0.00000000000E+00 0. -1.
          1    1    1    2  502    0  0.22718951361E+02 -0.18398989336E+02  0.26301143680E+03  0.26463123294E+03  0.00000000000E+00 0. -1.
         22    1    3    3    0    0  0.99242854382E+01  0.12826751276E+02  0.36635766999E+02  0.40064902513E+02  0.00000000000E+00 0. -1.
         22    1    3    3    0    0 -0.60656766396E+02 -0.14891756368E+02 -0.80326952323E+02  0.10175179107E+03  0.00000000000E+00 0. -1.
</event>
<event>
 7    1  0.6067783E-006  0.9225377E+02  0.7818608E-02  0.1350995E+00
          2   -1    0    0  502    0  0.00000000000E+00  0.00000000000E+00  0.58559812894E+02  0.58559812894E+02  0.00000000000E+00 0. -1.
          1   -1    0    0  501    0 -0.00000000000E+00 -0.00000000000E+00 -0.17566824113E+04  0.17566824113E+04  0.00000000000E+00 0. -1.
         25    2    1    2    0    0 -0.77225578515E+02  0.10924183223E+03 -0.69288556724E+03  0.71666787444E+03  0.12499946036E+03 0.  0.
          2    1    1    2  501    0  0.52749062212E+02 -0.22542912286E+02 -0.10068395264E+04  0.10084723489E+04  0.00000000000E+00 0. -1.
          1    1    1    2  502    0  0.24476516303E+02 -0.86698919946E+02  0.16024952643E+01  0.90102000873E+02  0.00000000000E+00 0. -1.
         22    1    3    3    0    0  0.33925449940E+02  0.22468462200E+02 -0.19491122933E+03  0.19911342312E+03  0.00000000000E+00 0. -1.
         22    1    3    3    0    0 -0.11115102845E+03  0.86773370033E+02 -0.49797433790E+03  0.51755445132E+03  0.00000000000E+00 0. -1.
</event>
<event>
 7    1  0.6067783E-006  0.1172656E+03  0.7818608E-02  0.1260410E+00
          2   -1    0    0  502    0  0.00000000000E+00  0.00000000000E+00  0.14597301673E+04  0.14597301673E+04  0.00000000000E+00 0. -1.
          1   -1    0    0  501    0 -0.00000000000E+00 -0.00000000000E+00 -0.28070689114E+03  0.28070689114E+03  0.00000000000E+00 0. -1.
         25    2    1    2    0    0 -0.14496483200E+03 -0.15865462383E+03  0.36231659756E+03  0.43941362289E+03  0.12499969173E+03 0.  0.
          2    1    1    2  501    0  0.64083431616E+02  0.94320874203E+02 -0.22603663129E+03  0.25317123099E+03  0.00000000000E+00 0. -1.
          1    1    1    2  502    0  0.80881400387E+02  0.64333749626E+02  0.10427433099E+04  0.10478522045E+04  0.00000000000E+00 0. -1.
         22    1    3    3    0    0  0.51993601851E+01 -0.74541507426E+02  0.13483421298E+03  0.15415490477E+03  0.00000000000E+00 0.  1.
         22    1    3    3    0    0 -0.15016419219E+03 -0.84113116404E+02  0.22748238459E+03  0.28525871812E+03  0.00000000000E+00 0.  1.
</event>
<event>
 7    1  0.6067783E-006  0.1035920E+03  0.7818608E-02  0.1307009E+00
          2   -1    0    0  502    0  0.00000000000E+00  0.00000000000E+00  0.14919411713E+04  0.14919411713E+04  0.00000000000E+00 0. -1.
          1   -1    0    0  501    0 -0.00000000000E+00 -0.00000000000E+00 -0.18468941414E+04  0.18468941414E+04  0.00000000000E+00 0. -1.
         25    2    1    2    0    0 -0.11221924396E+03 -0.13224173158E+03  0.14353991038E+03  0.25750577893E+03  0.12499794407E+03 0.  0.
          2    1    1    2  501    0  0.59913445596E+02  0.45569548343E+02 -0.17871338437E+04  0.17887184183E+04  0.00000000000E+00 0. -1.
          1    1    1    2  502    0  0.52305798362E+02  0.86672183234E+02  0.12886409632E+04  0.12926111155E+04  0.00000000000E+00 0. -1.
         22    1    3    3    0    0  0.72007671418E+01  0.15370138946E+02 -0.35334083644E+01  0.17337162205E+02  0.00000000000E+00 0. -1.
         22    1    3    3    0    0 -0.11942001110E+03 -0.14761187052E+03  0.14707331875E+03  0.24016861672E+03  0.00000000000E+00 0. -1.
</event>
<event>
 7    1  0.6067783E-006  0.7845215E+02  0.7818608E-02  0.1360646E+00
          2   -1    0    0  502    0  0.00000000000E+00  0.00000000000E+00  0.18776681714E+04  0.18776681714E+04  0.00000000000E+00 0. -1.
          1   -1    0    0  501    0 -0.00000000000E+00 -0.00000000000E+00 -0.69224194705E+03  0.69224194705E+03  0.00000000000E+00 0. -1.
         25    2    1    2    0    0  0.58362828165E+02 -0.16408404904E+02  0.99098280243E+03  0.10006730957E+04  0.12499709683E+03 0.  0.
          2    1    1    2  501    0 -0.71557967551E+01 -0.61755668177E+02 -0.68350664812E+03  0.68632813289E+03  0.00000000000E+00 0. -1.
          1    1    1    2  502    0 -0.51207031410E+02  0.78164073081E+02  0.87795007003E+03  0.88290888990E+03  0.00000000000E+00 0. -1.
         22    1    3    3    0    0  0.45016351584E+02  0.52040899902E+02  0.52896177171E+03  0.53341848778E+03  0.00000000000E+00 0.  1.
         22    1    3    3    0    0  0.13346476581E+02 -0.68449304806E+02  0.46202103071E+03  0.46725460788E+03  0.00000000000E+00 0.  1.
</event>
<event>
 7    1  0.6067783E-006  0.4661325E+02  0.7818608E-02  0.1530206E+00
          2   -1    0    0  502    0  0.00000000000E+00  0.00000000000E+00  0.66334986108E+03  0.66334986108E+03  0.00000000000E+00 0. -1.
          1   -1    0    0  501    0 -0.00000000000E+00 -0.00000000000E+00 -0.22509016755E+03  0.22509016755E+03  0.00000000000E+00 0. -1.
         25    2    1    2    0    0 -0.19943829605E+01  0.40167285523E+02  0.61497046219E+03  0.62883395237E+03  0.12500432753E+03 0.  0.
          2    1    1    2  501    0 -0.27527895784E+02 -0.37694842481E+02 -0.20995262469E+03  0.21507856892E+03  0.00000000000E+00 0. -1.
          1    1    1    2  502    0  0.29522278745E+02 -0.24724430413E+01  0.33241856027E+02  0.44527507330E+02  0.00000000000E+00 0. -1.
         22    1    3    3    0    0  0.57579443943E+02  0.19166531052E+02  0.40646453418E+03  0.41096978700E+03  0.00000000000E+00 0. -1.
         22    1    3    3    0    0 -0.59573826903E+02  0.21000754470E+02  0.20850592801E+03  0.21786416537E+03  0.00000000000E+00 0. -1.
</event>
<event>
 7    1  0.6067783E-006  0.8841638E+02  0.7818608E-02  0.1324707E+00
          2   -1    0    0  502    0  0.00000000000E+00  0.00000000000E+00  0.87010013699E+03  0.87010013699E+03  0.00000000000E+00 0. -1.
          1   -1    0    0  501    0 -0.00000000000E+00 -0.00000000000E+00 -0.21411424574E+04  0.21411424574E+04  0.00000000000E+00 0. -1.
         25    2    1    2    0    0  0.92948133860E+01 -0.30970626164E+01  0.29784722910E+03  0.32316278538E+03  0.12500091448E+03 0.  0.
          2    1    1    2  501    0  0.87873853083E+02  0.97796862002E+01 -0.21233196028E+04  0.21251596627E+04  0.00000000000E+00 0. -1.
          1    1    1    2  502    0 -0.97168666469E+02 -0.66826235838E+01  0.55443005326E+03  0.56292014634E+03  0.00000000000E+00 0. -1.
         22    1    3    3    0    0  0.58124422882E+02  0.21231258031E+01  0.24156386269E+03  0.24846741427E+03  0.00000000000E+00 0.  1.
         22    1    3    3    0    0 -0.48829609496E+02 -0.52201884195E+01  0.56283366408E+02  0.74695371108E+02  0.00000000000E+00 0.  1.
</event>
<event>
 7    1  0.6067783E-006  0.1179189E+03  0.7818608E-02  0.1249657E+00
          2   -1    0    0  502    0  0.00000000000E+00  0.00000000000E+00  0.51636892539E+04  0.51636892539E+04  0.00000000000E+00 0. -1.
          1   -1    0    0  501    0 -0.00000000000E+00 -0.00000000000E+00 -0.31839203364E+03  0.31839203364E+03  0.00000000000E+00 0. -1.
         25    2    1    2    0    0  0.69327036188E+02  0.79765705376E+02 -0.56360528354E+02  0.17311729048E+03  0.12499712559E+03 0.  0.
          2    1    1    2  501    0 -0.13073343083E+03  0.20902658875E+02 -0.18137967585E+03  0.22455898533E+03  0.00000000000E+00 0. -1.
          1    1    1    2  502    0  0.61406394638E+02 -0.10066836425E+03  0.50830374244E+04  0.50844050117E+04  0.00000000000E+00 0. -1.
         22    1    3    3    0    0  0.41997337390E+02  0.10282181466E+03 -0.58370746781E+01  0.11122128105E+03  0.00000000000E+00 0.  1.
         22    1    3    3    0    0  0.27329698798E+02 -0.23056109282E+02 -0.50523453675E+02  0.61896009427E+02  0.00000000000E+00 0.  1.
</event>
<event>
 7    1  0.6067783E-006  0.1667317E+03  0.7818608E-02  0.1344326E+00
          2   -1    0    0  502    0  0.00000000000E+00  0.00000000000E+00  0.14183031638E+04  0.14183031638E+04  0.00000000000E+00 0. -1.
          1   -1    0    0  501    0 -0.00000000000E+00 -0.00000000000E+00 -0.23887610160E+04  0.23887610160E+04  0.00000000000E+00 0. -1.
         25    2    1    2    0    0  0.85742003915E+02 -0.11637327062E+03  0.71856547856E+03  0.74354279193E+03  0.12500042842E+03 0.  0.
          2    1    1    2  501    0 -0.11934644199E+03  0.11656774480E+03 -0.23729312150E+04  0.23787883814E+04  0.00000000000E+00 0. -1.
          1    1    1    2  502    0  0.33604438078E+02 -0.19447418103E+00  0.68390788425E+03  0.68473300652E+03  0.00000000000E+00 0. -1.
         22    1    3    3    0    0  0.11304354519E+03 -0.79009145818E+02  0.43843015306E+03  0.45961101743E+03  0.00000000000E+00 0.  1.
         22    1    3    3    0    0 -0.27301541274E+02 -0.37364124800E+02  0.28013532550E+03  0.28393177450E+03  0.00000000000E+00 0.  1.
</event>
<event>
 7    1  0.6067783E-006  0.3592091E+02  0.7818608E-02  0.1558543E+00
          2   -1    0    0  502    0  0.00000000000E+00  0.00000000000E+00  0.77140626989E+01  0.77140626989E+01  0.00000000000E+00 0. -1.
          1   -1    0    0  501    0 -0.00000000000E+00 -0.00000000000E+00 -0.17990610718E+04  0.17990610718E+04  0.00000000000E+00 0. -1.
         25    2    1    2    0    0  0.17504166691E+02 -0.62109299756E+02 -0.80150679186E+03  0.81374866041E+03  0.12493912103E+03 0.  0.
          2    1    1    2  501    0 -0.18385792899E+01  0.34203032127E+02 -0.78078203078E+03  0.78153298547E+03  0.00000000000E+00 0. -1.
          1    1    1    2  502    0 -0.15665587401E+02  0.27906267629E+02 -0.20905818646E+03  0.21149348862E+03  0.00000000000E+00 0. -1.
         22    1    3    3    0    0 -0.66771061787E+01 -0.56858570023E+02 -0.13317357236E+03  0.14495751483E+03  0.00000000000E+00 0. -1.
         22    1    3    3    0    0  0.24181272870E+02 -0.52507297338E+01 -0.66833321950E+03  0.66879114558E+03  0.00000000000E+00 0. -1.
</event>
<event>
 7    1  0.6067783E-006  0.3990419E+02  0.7818608E-02  0.1600770E+00
          2   -1    0    0  502    0  0.00000000000E+00  0.00000000000E+00  0.28111399094E+02  0.28111399094E+02  0.00000000000E+00 0. -1.
          1   -1    0    0  501    0 -0.00000000000E+00 -0.00000000000E+00 -0.13359449138E+04  0.13359449138E+04  0.00000000000E+00 0. -1.
         25    2    1    2    0    0 -0.59845682408E+02 -0.76844781831E+01 -0.49721964785E+03  0.51622906839E+03  0.12499806371E+03 0.  0.
          2    1    1    2  501    0  0.37734567726E+02  0.95877695940E+01 -0.82197418003E+03  0.82289572581E+03  0.00000000000E+00 0. -1.
          1    1    1    2  502    0  0.22111114682E+02 -0.19032914109E+01  0.11360313150E+02  0.24931518717E+02  0.00000000000E+00 0. -1.
         22    1    3    3    0    0 -0.96221072541E+02 -0.20288537250E+02 -0.31522706118E+03  0.33020935730E+03  0.00000000000E+00 0.  1.
         22    1    3    3    0    0  0.36375390133E+02  0.12604059067E+02 -0.18199258667E+03  0.18601971109E+03  0.00000000000E+00 0.  1.
</event>
<event>
 7    1  0.6067783E-006  0.1074392E+03  0.7818608E-02  0.1304006E+00
          2   -1    0    0  502    0  0.00000000000E+00  0.00000000000E+00  0.19181844115E+04  0.19181844115E+04  0.00000000000E+00 0. -1.
          1   -1    0    0  501    0 -0.00000000000E+00 -0.00000000000E+00 -0.16633639295E+02  0.16633639295E+02  0.00000000000E+00 0. -1.
         25    2    1    2    0    0  0.91783996012E+02 -0.12996112272E+02  0.94580286455E+03  0.95852023776E+03  0.12499914695E+03 0.  0.
          2    1    1    2  501    0 -0.88715555540E+02  0.87531010064E+02  0.58950320541E+03  0.60253311668E+03  0.00000000000E+00 0. -1.
          1    1    1    2  502    0 -0.30684404716E+01 -0.74534897792E+02  0.36624470224E+03  0.37376469635E+03  0.00000000000E+00 0. -1.
         22    1    3    3    0    0 -0.79056438457E+00 -0.50079018907E+02  0.45064672131E+03  0.45342143813E+03  0.00000000000E+00 0.  1.
         22    1    3    3    0    0  0.92574560396E+02  0.37082906635E+02  0.49515614324E+03  0.50509879963E+03  0.00000000000E+00 0.  1.
</event>
<event>
 7    1  0.6067783E-006  0.9010543E+02  0.7818608E-02  0.1354343E+00
          2   -1    0    0  502    0  0.00000000000E+00  0.00000000000E+00  0.49827539382E+03  0.49827539382E+03  0.00000000000E+00 0. -1.
          1   -1    0    0  501    0 -0.00000000000E+00 -0.00000000000E+00 -0.25633217321E+03  0.25633217321E+03  0.00000000000E+00 0. -1.
         25    2    1    2    0    0 -0.33386121625E+02  0.31590480695E+02  0.16019263622E+03  0.20832170252E+03  0.12499463770E+03 0.  0.
          2    1    1    2  501    0  0.27708094157E+02 -0.88391717766E+02 -0.22025029240E+03  0.23893728372E+03  0.00000000000E+00 0. -1.
          1    1    1    2  502    0  0.56780274679E+01  0.56801237071E+02  0.30200087679E+03  0.30734858079E+03  0.00000000000E+00 0. -1.
         22    1    3    3    0    0  0.37180704787E+02 -0.79334159236E+01  0.10150630722E+03  0.10839222436E+03  0.00000000000E+00 0. -1.
         22    1    3    3    0    0 -0.70566826411E+02  0.39523896619E+02  0.58686328997E+02  0.99929478157E+02  0.00000000000E+00 0. -1.
</event>
<event>
 7    1  0.6067783E-006  0.7398339E+02  0.7818608E-02  0.1506644E+00
          2   -1    0    0  502    0  0.00000000000E+00  0.00000000000E+00  0.42770636816E+04  0.42770636816E+04  0.00000000000E+00 0. -1.
          1   -1    0    0  501    0 -0.00000000000E+00 -0.00000000000E+00 -0.83365727163E+01  0.83365727163E+01  0.00000000000E+00 0. -1.
         25    2    1    2    0    0 -0.52194411850E+02  0.12499333788E+02  0.30239748760E+04  0.30270331291E+04  0.12500009642E+03 0.  0.
          2    1    1    2  501    0  0.73914586538E+02 -0.14953113173E+02  0.20574548371E+03  0.21913047658E+03  0.00000000000E+00 0. -1.
          1    1    1    2  502    0 -0.21720174688E+02  0.24537793854E+01  0.10390067492E+04  0.10392366487E+04  0.00000000000E+00 0. -1.
         22    1    3    3    0    0 -0.76820189171E+00  0.54031824738E+02  0.68639225402E+03  0.68851605253E+03  0.00000000000E+00 0. -1.
         22    1    3    3    0    0 -0.51426209958E+02 -0.41532490950E+02  0.23375826220E+04  0.23385170766E+04  0.00000000000E+00 0. -1.
</event>
<event>
 7    1  0.6067783E-006  0.8274564E+02  0.7818608E-02  0.1348981E+00
          2   -1    0    0  502    0  0.00000000000E+00  0.00000000000E+00  0.25754523025E+04  0.25754523025E+04  0.00000000000E+00 0. -1.
          1   -1    0    0  501    0 -0.00000000000E+00 -0.00000000000E+00 -0.12482666784E+04  0.12482666784E+04  0.00000000000E+00 0. -1.
         25    2    1    2    0    0  0.16123169511E+02 -0.27478362660E+02  0.27758882265E+03  0.30609832354E+03  0.12500244878E+03 0.  0.
          2    1    1    2  501    0 -0.30770988564E+02 -0.57327643764E+02 -0.12323425813E+04  0.12340589736E+04  0.00000000000E+00 0. -1.
          1    1    1    2  502    0  0.14647819053E+02  0.84806006424E+02  0.22819393827E+04  0.22835616838E+04  0.00000000000E+00 0. -1.
         22    1    3    3    0    0  0.19474232603E+02 -0.71170372870E+02  0.22935278415E+03  0.24092979747E+03  0.00000000000E+00 0. -1.
         22    1    3    3    0    0 -0.33510630922E+01  0.43692010209E+02  0.48236038502E+02  0.65168526071E+02  0.00000000000E+00 0. -1.
</event>
<event>
 7    1  0.6067783E-006  0.9444843E+02  0.7818608E-02  0.1365504E+00
          2   -1    0    0  502    0  0.00000000000E+00  0.00000000000E+00  0.35355668468E+04  0.35355668468E+04  0.00000000000E+00 0. -1.
          1   -1    0    0  501    0 -0.00000000000E+00 -0.00000000000E+00 -0.19523033641E+02  0.19523033641E+02  0.00000000000E+00 0. -1.
         25    2    1    2    0    0 -0.14048262659E+02  0.12910785494E+03  0.15073426115E+04  0.15180811370E+04  0.12498959285E+03 0.  0.
          2    1    1    2  501    0 -0.16319919906E+02 -0.89911987065E+02  0.13717376819E+03  0.16482459733E+03  0.00000000000E+00 0. -1.
          1    1    1    2  502    0  0.30368182565E+02 -0.39195867877E+02  0.18715274335E+04  0.18721841461E+04  0.00000000000E+00 0. -1.
         22    1    3    3    0    0  0.14874822829E+02  0.51373062771E+00  0.69147468259E+03  0.69163484653E+03  0.00000000000E+00 0. -1.
         22    1    3    3    0    0 -0.28923085488E+02  0.12859412431E+03  0.81586792890E+03  0.82644629050E+03  0.00000000000E+00 0. -1.
</event>
<event>
 7    1  0.6067783E-006  0.6872745E+02  0.7818608E-02  0.1522186E+00
          2   -1    0    0  502    0  0.00000000000E+00  0.00000000000E+00  0.14337704216E+03  0.14337704216E+03  0.00000000000E+00 0. -1.
          1   -1    0    0  501    0 -0.00000000000E+00 -0.00000000000E+00 -0.51075801820E+03  0.51075801820E+03  0.00000000000E+00 0. -1.
         25    2    1    2    0    0 -0.50142862254E+02  0.56215874242E+00 -0.10035178950E+03  0.16795943489E+03  0.12500106982E+03 0.  0.
          2    1    1    2  501    0  0.70173250667E+02 -0.74776140924E+01 -0.37223061318E+03  0.37886122685E+03  0.00000000000E+00 0. -1.
          1    1    1    2  502    0 -0.20030388413E+02  0.69154553500E+01  0.10520142664E+03  0.10731439861E+03  0.00000000000E+00 0. -1.
         22    1    3    3    0    0 -0.27467698920E+02  0.62493480736E+02 -0.58035243869E+02  0.89599102391E+02  0.00000000000E+00 0.  1.
         22    1    3    3    0    0 -0.22675163335E+02 -0.61931321993E+02 -0.42316545626E+02  0.78360332502E+02  0.00000000000E+00 0.  1.
</event>
<event>
 7    1  0.6067783E-006  0.4517388E+02  0.7818608E-02  0.1537411E+00
          2   -1    0    0  502    0  0.00000000000E+00  0.00000000000E+00  0.21380255923E+04  0.21380255923E+04  0.00000000000E+00 0. -1.
          1   -1    0    0  501    0 -0.00000000000E+00 -0.00000000000E+00 -0.23128931823E+03  0.23128931823E+03  0.00000000000E+00 0. -1.
         25    2    1    2    0    0 -0.19129911333E+02 -0.53346045044E+01  0.73043581868E+03  0.74132098543E+03  0.12500362676E+03 0.  0.
          2    1    1    2  501    0 -0.27850104650E+02  0.86337815714E+01 -0.22450825852E+03  0.22639374695E+03  0.00000000000E+00 0. -1.
          1    1    1    2  502    0  0.46980015983E+02 -0.32991770670E+01  0.14008087139E+04  0.14016001782E+04  0.00000000000E+00 0. -1.
         22    1    3    3    0    0  0.41782732610E+02  0.16061772037E+02  0.50036667942E+03  0.50236499793E+03  0.00000000000E+00 0. -1.
         22    1    3    3    0    0 -0.60912643943E+02 -0.21396376541E+02  0.23006913926E+03  0.23895598750E+03  0.00000000000E+00 0. -1.
</event>
<event>
 7    1  0.6067783E-006  0.7318396E+02  0.7818608E-02  0.1378622E+00
          2   -1    0    0  502    0  0.00000000000E+00  0.00000000000E+00  0.36724964141E+03  0.36724964141E+03  0.00000000000E+00 0. -1.
          1   -1    0    0  501    0 -0.00000000000E+00 -0.00000000000E+00 -0.55574333540E+03  0.55574333540E+03  0.00000000000E+00 0. -1.
         25    2    1    2    0    0 -0.37928366428E+01 -0.17474750533E+02 -0.87312778246E+02  0.15351010722E+03  0.12498831648E+03 0.  0.
          2    1    1    2  501    0 -0.32841873997E+01 -0.57330860701E+02 -0.42917106842E+03  0.43299586539E+03  0.00000000000E+00 0. -1.
          1    1    1    2  502    0  0.70770240424E+01  0.74805611234E+02  0.32799015267E+03  0.33648700420E+03  0.00000000000E+00 0. -1.
         22    1    3    3    0    0  0.71376796242E+00 -0.21097123315E+02 -0.11922449726E+03  0.12107881245E+03  0.00000000000E+00 0.  1.
         22    1    3    3    0    0 -0.45066046052E+01  0.36223727819E+01  0.31911719018E+02  0.32431294768E+02  0.00000000000E+00 0.  1.
</event>
<event>
 7    1  0.6067783E-006  0.7180174E+02  0.7818608E-02  0.1431719E+00
          2   -1    0    0  502    0  0.00000000000E+00  0.00000000000E+00  0.43621117649E+03  0.43621117649E+03  0.00000000000E+00 0. -1.
          1   -1    0    0  501    0 -0.00000000000E+00 -0.00000000000E+00 -0.20994572074E+03  0.20994572074E+03  0.00000000000E+00 0. -1.
         25    2    1    2    0    0 -0.16252876945E+02  0.35371321483E+02  0.10834939266E+03  0.16994458032E+03  0.12500513228E+03 0.  0.
          2    1    1    2  501    0  0.49847918062E+02 -0.54293417029E+02 -0.17022810402E+03  0.18549985840E+03  0.00000000000E+00 0. -1.
          1    1    1    2  502    0 -0.33595041117E+02  0.18922095546E+02  0.28814416711E+03  0.29071245850E+03  0.00000000000E+00 0. -1.
         22    1    3    3    0    0  0.17737655367E+02  0.16865245099E+02  0.12531834411E+03  0.12768613190E+03  0.00000000000E+00 0. -1.
         22    1    3    3    0    0 -0.33990532312E+02  0.18506076385E+02 -0.16968951441E+02  0.42258448422E+02  0.00000000000E+00 0. -1.
</event>
<event>
 7    1  0.6067783E-006  0.5638169E+02  0.7818608E-02  0.1459268E+00
          2   -1    0    0  502    0  0.00000000000E+00  0.00000000000E+00  0.75306412301E+03  0.75306412301E+03  0.00000000000E+00 0. -1.
          1   -1    0    0  501    0 -0.00000000000E+00 -0.00000000000E+00 -0.91142460660E+02  0.91142460660E+02  0.00000000000E+00 0. -1.
         25    2    1    2    0    0 -0.27602410669E+02 -0.34106999172E+02  0.27041634900E+03  0.30112408728E+03  0.12500213464E+03 0.  0.
          2    1    1    2  501    0 -0.30994103278E+02  0.25333591816E+02 -0.68466657993E+02  0.79310204697E+02  0.00000000000E+00 0. -1.
          1    1    1    2  502    0  0.58596513947E+02  0.87734073560E+01  0.45997197134E+03  0.46377229169E+03  0.00000000000E+00 0. -1.
         22    1    3    3    0    0  0.28180853773E+01  0.74188683036E+01 -0.11817128046E+02  0.14234666394E+02  0.00000000000E+00 0. -1.
         22    1    3    3    0    0 -0.30420496046E+02 -0.41525867476E+02  0.28223347705E+03  0.28688942088E+03  0.00000000000E+00 0. -1.
</event>
<event>
 7    1  0.6067783E-006  0.1142175E+03  0.7818608E-02  0.1310302E+00
          2   -1    0    0  502    0  0.00000000000E+00  0.00000000000E+00  0.99503111117E+03  0.99503111117E+03  0.00000000000E+00 0. -1.
          1   -1    0    0  501    0 -0.00000000000E+00 -0.00000000000E+00 -0.11795534009E+04  0.11795534009E+04  0.00000000000E+00 0. -1.
         25    2    1    2    0    0  0.13723246405E+03 -0.93080635598E+02  0.61425127119E+02  0.21655257316E+03  0.12500086714E+03 0.  0.
          2    1    1    2  501    0 -0.71159743403E+02  0.88142152060E+02 -0.10977885667E+04  0.11036179073E+04  0.00000000000E+00 0. -1.
          1    1    1    2  502    0 -0.66072720652E+02  0.49384835378E+01  0.85184114981E+03  0.85441403169E+03  0.00000000000E+00 0. -1.
         22    1    3    3    0    0  0.30359365576E+02  0.27706968093E+02 -0.63874876516E+01  0.41595278068E+02  0.00000000000E+00 0.  1.
         22    1    3    3    0    0  0.10687309848E+03 -0.12078760369E+03  0.67812614770E+02  0.17495729509E+03  0.00000000000E+00 0.  1.
</event>
<event>
 7    1  0.6067783E-006  0.7764955E+02  0.7818608E-02  0.1499071E+00
          2   -1    0    0  502    0  0.00000000000E+00  0.00000000000E+00  0.53468486294E+02  0.53468486294E+02  0.00000000000E+00 0. -1.
          1   -1    0    0  501    0 -0.00000000000E+00 -0.00000000000E+00 -0.10791311193E+04  0.10791311193E+04  0.00000000000E+00 0. -1.
         25    2    1    2    0    0 -0.36957965185E+01 -0.59570752610E+02 -0.24015357500E+03  0.27723769265E+03  0.12499866064E+03 0.  0.
          2    1    1    2  501    0  0.49443994473E+01 -0.21369587794E+02 -0.77316513351E+03  0.77347619876E+03  0.00000000000E+00 0. -1.
          1    1    1    2  502    0 -0.12486029288E+01  0.80940340404E+02 -0.12343924482E+02  0.81885714173E+02  0.00000000000E+00 0. -1.
         22    1    3    3    0    0 -0.55083859235E+01  0.21945276735E+02 -0.16437489931E+03  0.16592481734E+03  0.00000000000E+00 0.  1.
         22    1    3    3    0    0  0.18125894050E+01 -0.81516029345E+02 -0.75778675692E+02  0.11131287531E+03  0.00000000000E+00 0.  1.
</event>
<event>
 7    1  0.6067783E-006  0.1814876E+03  0.7818608E-02  0.1226119E+00
          2   -1    0    0  502    0  0.00000000000E+00  0.00000000000E+00  0.38916398586E+03  0.38916398586E+03  0.00000000000E+00 0. -1.
          1   -1    0    0  501    0 -0.00000000000E+00 -0.00000000000E+00 -0.18336052803E+04  0.18336052803E+04  0.00000000000E+00 0. -1.
         25    2    1    2    0    0  0.16281416524E+03 -0.18159895789E+03 -0.86502707945E+02  0.28739215336E+03  0.12499958970E+03 0.  0.
          2    1    1    2  501    0 -0.91636417936E+02  0.22759807036E+02 -0.16189234892E+04  0.16216745993E+04  0.00000000000E+00 0. -1.
          1    1    1    2  502    0 -0.71177747303E+02  0.15883915085E+03  0.26098490272E+03  0.31370251354E+03  0.00000000000E+00 0. -1.
         22    1    3    3    0    0  0.85163380506E+02 -0.11349266063E+02 -0.38887431108E+02  0.94307155177E+02  0.00000000000E+00 0. -1.
         22    1    3    3    0    0  0.77650784733E+02 -0.17024969182E+03 -0.47615276837E+02  0.19308499819E+03  0.00000000000E+00 0. -1.
</event>
<event>
 7    1  0.6067783E-006  0.6271550E+02  0.7818608E-02  0.1460112E+00
          2   -1    0    0  502    0  0.00000000000E+00  0.00000000000E+00  0.22403142344E+04  0.22403142344E+04  0.00000000000E+00 0. -1.
          1   -1    0    0  501    0 -0.00000000000E+00 -0.00000000000E+00 -0.26734533422E+03  0.26734533422E+03  0.00000000000E+00 0. -1.
         25    2    1    2    0    0  0.88262478895E+02  0.22538660751E+02  0.66716610028E+03  0.68485936298E+03  0.12499394102E+03 0.  0.
          2    1    1    2  501    0 -0.27271495747E+02 -0.23142574462E+02 -0.25666356669E+03  0.25914378190E+03  0.00000000000E+00 0. -1.
          1    1    1    2  502    0 -0.60990983148E+02  0.60391371050E+00  0.15624663665E+04  0.15636564237E+04  0.00000000000E+00 0. -1.
         22    1    3    3    0    0  0.50143493161E+02  0.15816230698E+02  0.75928988962E+02  0.92356561351E+02  0.00000000000E+00 0. -1.
         22    1    3    3    0    0  0.38118985734E+02  0.67224300538E+01  0.59123711132E+03  0.59250280163E+03  0.00000000000E+00 0. -1.
</event>
<event>
 7    1  0.6067783E-006  0.1650500E+03  0.7818608E-02  0.1328071E+00
          2   -1    0    0  502    0  0.00000000000E+00  0.00000000000E+00  0.14047795132E+04  0.14047795132E+04  0.00000000000E+00 0. -1.
          1   -1    0    0  501    0 -0.00000000000E+00 -0.00000000000E+00 -0.17214163743E+04  0.17214163743E+04  0.00000000000E+00 0. -1.
         25    2    1    2    0    0  0.18281727923E+03  0.41853265633E+02  0.72917203883E+02  0.23688693822E+03  0.12499859780E+03 0.  0.
          2    1    1    2  501    0 -0.32143100121E+02  0.22284860942E+02 -0.16338326481E+04  0.16343007422E+04  0.00000000000E+00 0. -1.
          1    1    1    2  502    0 -0.15067417910E+03 -0.64138126574E+02  0.12442785831E+04  0.12550082071E+04  0.00000000000E+00 0. -1.
         22    1    3    3    0    0  0.14627448678E+03  0.69574071957E+02  0.14515596182E+02  0.16262681053E+03  0.00000000000E+00 0. -1.
         22    1    3    3    0    0  0.36542792451E+02 -0.27720806324E+02  0.58401607700E+02  0.74260127695E+02  0.00000000000E+00 0. -1.
</event>
<event>
 7    1  0.6067783E-006  0.8547394E+02  0.7818608E-02  0.1404369E+00
          2   -1    0    0  502    0  0.00000000000E+00  0.00000000000E+00  0.88030023964E+02  0.88030023964E+02  0.00000000000E+00 0. -1.
          1   -1    0    0  501    0 -0.00000000000E+00 -0.00000000000E+00 -0.17165470064E+04  0.17165470064E+04  0.00000000000E+00 0. -1.
         25    2    1    2    0    0 -0.10980366767E+03  0.34188743607E+02 -0.89540597010E+03  0.91137421484E+03  0.12500157017E+03 0.  0.
          2    1    1    2  501    0  0.25023215850E+02 -0.31202118207E+02 -0.79003143551E+03  0.79104323688E+03  0.00000000000E+00 0. -1.
          1    1    1    2  502    0  0.84780451819E+02 -0.29866253997E+01  0.56920423160E+02  0.10215957867E+03  0.00000000000E+00 0. -1.
         22    1    3    3    0    0 -0.11398938870E+03  0.61973897709E+02 -0.83152343326E+03  0.84158515006E+03  0.00000000000E+00 0.  1.
         22    1    3    3    0    0  0.41857210356E+01 -0.27785154103E+02 -0.63882536840E+02  0.69789064776E+02  0.00000000000E+00 0.  1.
</event>
<event>
 7    1  0.6067783E-006  0.9982277E+02  0.7818608E-02  0.1329076E+00
          2   -1    0    0  502    0  0.00000000000E+00  0.00000000000E+00  0.49042706402E+03  0.49042706402E+03  0.00000000000E+00 0. -1.
          1   -1    0    0  501    0 -0.00000000000E+00 -0.00000000000E+00 -0.52531293737E+03  0.52531293737E+03  0.00000000000E+00 0. -1.
         25    2    1    2    0    0 -0.74048579438E+01  0.64341381234E+02  0.62002036423E+02  0.15383215654E+03  0.12500173841E+03 0.  0.
          2    1    1    2  501    0 -0.52196246501E+02 -0.87932105391E+02 -0.47118928382E+03  0.48215748931E+03  0.00000000000E+00 0. -1.
          1    1    1    2  502    0  0.59601104445E+02  0.23590724157E+02  0.37430137406E+03  0.37975035555E+03  0.00000000000E+00 0. -1.
         22    1    3    3    0    0 -0.52160455659E+02  0.77542242418E+02  0.34193480930E+02  0.99512344118E+02  0.00000000000E+00 0.  1.
         22    1    3    3    0    0  0.44755597715E+02 -0.13200861184E+02  0.27808555493E+02  0.54319812420E+02  0.00000000000E+00 0.  1.
</event>
<event>
 7    1  0.6067783E-006  0.4778295E+02  0.7818608E-02  0.1553382E+00
          2   -1    0    0  502    0  0.00000000000E+00  0.00000000000E+00  0.38637021201E+03  0.38637021201E+03  0.00000000000E+00 0. -1.
          1   -1    0    0  501    0 -0.00000000000E+00 -0.00000000000E+00 -0.18535947477E+03  0.18535947477E+03  0.00000000000E+00 0. -1.
         25    2    1    2    0    0 -0.37190180096E+01  0.34441429770E+02  0.28574084623E+03  0.31380484971E+03  0.12500243725E+03 0.  0.
          2    1    1    2  501    0  0.11043252705E+02  0.22275291358E+02 -0.16082546560E+03  0.16273589776E+03  0.00000000000E+00 0. -1.
          1    1    1    2  502    0 -0.73242346957E+01 -0.56716721128E+02  0.76095356605E+02  0.95188939307E+02  0.00000000000E+00 0. -1.
         22    1    3    3    0    0  0.10258685247E+02 -0.46442523630E+02  0.10979585872E+03  0.11965483365E+03  0.00000000000E+00 0.  1.
         22    1    3    3    0    0 -0.13977703257E+02  0.80883953399E+02  0.17594498751E+03  0.19415001606E+03  0.00000000000E+00 0.  1.
</event>
<event>
 7    1  0.6067783E-006  0.1291542E+03  0.7818608E-02  0.1265925E+00
          2   -1    0    0  502    0  0.00000000000E+00  0.00000000000E+00  0.24770230232E+04  0.24770230232E+04  0.00000000000E+00 0. -1.
          1   -1    0    0  501    0 -0.00000000000E+00 -0.00000000000E+00 -0.51847307279E+02  0.51847307279E+02  0.00000000000E+00 0. -1.
         25    2    1    2    0    0  0.82763476461E+01 -0.69783867824E+02  0.21738036870E+03  0.26042781388E+03  0.12502053993E+03 0.  0.
          2    1    1    2  501    0  0.83286572363E+02 -0.31111846721E+02  0.41935738005E+02  0.98301608656E+02  0.00000000000E+00 0. -1.
          1    1    1    2  502    0 -0.91562920009E+02  0.10089571455E+03  0.21658596092E+04  0.21701409079E+04  0.00000000000E+00 0. -1.
         22    1    3    3    0    0  0.29789246122E+02 -0.86745072517E+02  0.21399833877E+03  0.23282481781E+03  0.00000000000E+00 0.  1.
         22    1    3    3    0    0 -0.21512898476E+02  0.16961204693E+02  0.33820299334E+01  0.27602996068E+02  0.00000000000E+00 0.  1.
</event>
<event>
 7    1  0.6067783E-006  0.9069625E+02  0.7818608E-02  0.1320593E+00
          2   -1    0    0  502    0  0.00000000000E+00  0.00000000000E+00  0.15011044682E+04  0.15011044682E+04  0.00000000000E+00 0. -1.
          1   -1    0    0  501    0 -0.00000000000E+00 -0.00000000000E+00 -0.20588541205E+03  0.20588541205E+03  0.00000000000E+00 0. -1.
         25    2    1    2    0    0 -0.56668387553E+02 -0.32430910800E+02  0.11332798622E+03  0.18091776517E+03  0.12499974069E+03 0.  0.
          2    1    1    2  501    0  0.46524745889E+02 -0.60172878807E+02 -0.16199406469E+03  0.17896201921E+03  0.00000000000E+00 0. -1.
          1    1    1    2  502    0  0.10143641664E+02  0.92603789608E+02  0.13438851347E+04  0.13471100959E+04  0.00000000000E+00 0. -1.
         22    1    3    3    0    0 -0.59823614158E+02  0.39468023469E+00  0.13063004377E+03  0.14367751709E+03  0.00000000000E+00 0. -1.
         22    1    3    3    0    0  0.31552266053E+01 -0.32825591035E+02 -0.17302057550E+02  0.37240248081E+02  0.00000000000E+00 0. -1.
</event>
<event>
 7    1  0.6067783E-006  0.1790414E+03  0.7818608E-02  0.1226101E+00
          2   -1    0    0  502    0  0.00000000000E+00  0.00000000000E+00  0.87347781591E+03  0.87347781591E+03  0.00000000000E+00 0. -1.
          1   -1    0    0  501    0 -0.00000000000E+00 -0.00000000000E+00 -0.23582732381E+04  0.23582732381E+04  0.00000000000E+00 0. -1.
         25    2    1    2    0    0 -0.14269285211E+03  0.46160617989E+02 -0.11746019803E+04  0.11907169984E+04  0.12500042215E+03 0.  0.
          2    1    1    2  501    0  0.17777557818E+03 -0.13522879380E+03 -0.11622997615E+04  0.11835673697E+04  0.00000000000E+00 0. -1.
          1    1    1    2  502    0 -0.35082726072E+02  0.89068175815E+02  0.85210631960E+03  0.85746668595E+03  0.00000000000E+00 0. -1.
         22    1    3    3    0    0 -0.78660008632E+02  0.61987411515E+02 -0.36679302576E+03  0.38021962060E+03  0.00000000000E+00 0. -1.
         22    1    3    3    0    0 -0.64032843474E+02 -0.15826793526E+02 -0.80780895454E+03  0.81049737783E+03  0.00000000000E+00 0. -1.
</event>
<event>
 7    1  0.6067783E-006  0.1288041E+03  0.7818608E-02  0.1337850E+00
          2   -1    0    0  502    0  0.00000000000E+00  0.00000000000E+00  0.18213306644E+04  0.18213306644E+04  0.00000000000E+00 0. -1.
          1   -1    0    0  501    0 -0.00000000000E+00 -0.00000000000E+00 -0.19182609178E+04  0.19182609178E+04  0.00000000000E+00 0. -1.
         25    2    1    2    0    0  0.60491583863E+02 -0.15620786236E+03  0.44336394956E+03  0.49016017932E+03  0.12500112652E+03 0.  0.
          2    1    1    2  501    0 -0.34747222795E+01  0.45874446422E+02 -0.18917358140E+04  0.18922951484E+04  0.00000000000E+00 0. -1.
          1    1    1    2  502    0 -0.57016861583E+02  0.11033341594E+03  0.13514416111E+04  0.13571362545E+04  0.00000000000E+00 0. -1.
         22    1    3    3    0    0  0.99623322697E+02 -0.10839151262E+03  0.31362706092E+03  0.34646133951E+03  0.00000000000E+00 0.  1.
         22    1    3    3    0    0 -0.39131738834E+02 -0.47816349738E+02  0.12973688864E+03  0.14369883981E+03  0.00000000000E+00 0.  1.
</event>
<event>
 7    1  0.6067783E-006  0.1086422E+03  0.7818608E-02  0.1298269E+00
          2   -1    0    0  502    0  0.00000000000E+00  0.00000000000E+00  0.10129957457E+02  0.10129957457E+02  0.00000000000E+00 0. -1.
          1   -1    0    0  501    0 -0.00000000000E+00 -0.00000000000E+00 -0.47431276987E+04  0.47431276987E+04  0.00000000000E+00 0. -1.
         25    2    1    2    0    0  0.10832581690E+02 -0.10163556405E+02 -0.17430173773E+04  0.17475567185E+04  0.12499705673E+03 0.  0.
          2    1    1    2  501    0 -0.36662698707E+01  0.11856911041E+03 -0.25408400363E+04  0.25436077067E+04  0.00000000000E+00 0. -1.
          1    1    1    2  502    0 -0.71663118195E+01 -0.10840555400E+03 -0.44914032761E+03  0.46209323091E+03  0.00000000000E+00 0. -1.
         22    1    3    3    0    0  0.35822564713E+02 -0.29791291510E+02 -0.16143969492E+04  0.16150691276E+04  0.00000000000E+00 0.  1.
         22    1    3    3    0    0 -0.24989983023E+02  0.19627735105E+02 -0.12862042810E+03  0.13248759097E+03  0.00000000000E+00 0.  1.
</event>
<event>
 7    1  0.6067783E-006  0.6666753E+02  0.7818608E-02  0.1381012E+00
          2   -1    0    0  502    0  0.00000000000E+00  0.00000000000E+00  0.77792409115E+03  0.77792409115E+03  0.00000000000E+00 0. -1.
          1   -1    0    0  501    0 -0.00000000000E+00 -0.00000000000E+00 -0.12169614334E+04  0.12169614334E+04  0.00000000000E+00 0. -1.
         25    2    1    2    0    0 -0.65823395215E+01 -0.56488890823E+02 -0.10227494292E+03  0.17123693625E+03  0.12501040919E+03 0.  0.
          2    1    1    2  501    0  0.61605381613E+02  0.28306025628E+02 -0.10778534175E+04  0.10799835386E+04  0.00000000000E+00 0. -1.
          1    1    1    2  502    0 -0.55023042091E+02  0.28182865195E+02  0.74109101810E+03  0.74366504971E+03  0.00000000000E+00 0. -1.
         22    1    3    3    0    0  0.40159305521E+02 -0.72760266174E+02 -0.84839925521E+02  0.11876295347E+03  0.00000000000E+00 0. -1.
         22    1    3    3    0    0 -0.46741645043E+02  0.16271375351E+02 -0.17435017402E+02  0.52473982781E+02  0.00000000000E+00 0. -1.
</event>
<event>
 7    1  0.6067783E-006  0.1106016E+03  0.7818608E-02  0.1303125E+00
          2   -1    0    0  502    0  0.00000000000E+00  0.00000000000E+00  0.84304652352E+03  0.84304652352E+03  0.00000000000E+00 0. -1.
          1   -1    0    0  501    0 -0.00000000000E+00 -0.00000000000E+00 -0.14597584357E+03  0.14597584357E+03  0.00000000000E+00 0. -1.
         25    2    1    2    0    0  0.66735014922E+02 -0.12400939099E+03  0.28612343970E+02  0.19046390937E+03  0.12500377304E+03 0.  0.
          2    1    1    2  501    0 -0.88458400202E+02  0.54261889951E+02 -0.20464305540E+02  0.10577347999E+03  0.00000000000E+00 0. -1.
          1    1    1    2  502    0  0.21723385280E+02  0.69747501042E+02  0.68892264152E+03  0.69278497773E+03  0.00000000000E+00 0. -1.
         22    1    3    3    0    0  0.36065288674E+02 -0.14554061187E+03  0.30215238234E+02  0.15295664540E+03  0.00000000000E+00 0.  1.
         22    1    3    3    0    0  0.30669726248E+02  0.21531220877E+02 -0.16028942637E+01  0.37507263971E+02  0.00000000000E+00 0.  1.
</event>
<event>
 7    1  0.6067783E-006  0.3002525E+02  0.7818608E-02  0.1612840E+00
          2   -1    0    0  502    0  0.00000000000E+00  0.00000000000E+00  0.10189174502E+03  0.10189174502E+03  0.00000000000E+00 0. -1.
          1   -1    0    0  501    0 -0.00000000000E+00 -0.00000000000E+00 -0.11728185258E+04  0.11728185258E+04  0.00000000000E+00 0. -1.
         25    2    1    2    0    0 -0.80322918794E+01  0.14612425352E+02 -0.36427723999E+03  0.38548801754E+03  0.12500025362E+03 0.  0.
          2    1    1    2  501    0 -0.17227712543E+02 -0.25346705140E+02 -0.79557117435E+03  0.79616125440E+03  0.00000000000E+00 0. -1.
          1    1    1    2  502    0  0.25260004423E+02  0.10734279788E+02  0.88921633594E+02  0.93060998850E+02  0.00000000000E+00 0. -1.
         22    1    3    3    0    0 -0.43899930834E+02 -0.40821858210E+02 -0.18225767156E+03  0.19186319834E+03  0.00000000000E+00 0.  1.
         22    1    3    3    0    0  0.35867638954E+02  0.55434283562E+02 -0.18201956843E+03  0.19362481920E+03  0.00000000000E+00 0.  1.
</event>
<event>
 7    1  0.6067783E-006  0.3187109E+03  0.7818608E-02  0.1228097E+00
          2   -1    0    0  502    0  0.00000000000E+00  0.00000000000E+00  0.15427729563E+04  0.15427729563E+04  0.00000000000E+00 0. -1.
          1   -1    0    0  501    0 -0.00000000000E+00 -0.00000000000E+00 -0.29866502896E+04  0.29866502896E+04  0.00000000000E+00 0. -1.
         25    2    1    2    0    0  0.11292680208E+03  0.24513616815E+03  0.54080304686E+03  0.61719960744E+03  0.12499286527E+03 0.  0.
          2    1    1    2  501    0 -0.15106134637E+03 -0.28147373202E+03 -0.29390710246E+04  0.29563804693E+04  0.00000000000E+00 0. -1.
          1    1    1    2  502    0  0.38134544292E+02  0.36337563868E+02  0.95439064429E+03  0.95584316911E+03  0.00000000000E+00 0. -1.
         22    1    3    3    0    0  0.34805503519E+02 -0.45265131026E+01  0.50929890771E+02  0.61852778192E+02  0.00000000000E+00 0. -1.
         22    1    3    3    0    0  0.78121298559E+02  0.24966268125E+03  0.48987315609E+03  0.55534682925E+03  0.00000000000E+00 0. -1.
</event>
<event>
 7    1  0.6067783E-006  0.6160407E+02  0.7818608E-02  0.1428205E+00
          2   -1    0    0  502    0  0.00000000000E+00  0.00000000000E+00  0.74503920438E+03  0.74503920438E+03  0.00000000000E+00 0. -1.
          1   -1    0    0  501    0 -0.00000000000E+00 -0.00000000000E+00 -0.55071778352E+03  0.55071778352E+03  0.00000000000E+00 0. -1.
         25    2    1    2    0    0 -0.16038160550E+02 -0.25381068619E+01  0.14467065049E+03  0.19187984490E+03  0.12499845274E+03 0.  0.
          2    1    1    2  501    0  0.58948359846E+02  0.19533256495E+02 -0.52435467125E+03  0.52801920277E+03  0.00000000000E+00 0. -1.
          1    1    1    2  502    0 -0.42910199296E+02 -0.16995149633E+02  0.57400544162E+03  0.57585794023E+03  0.00000000000E+00 0. -1.
         22    1    3    3    0    0 -0.55447273608E+02 -0.18290528729E+02  0.13676854661E+03  0.14870971365E+03  0.00000000000E+00 0.  1.
         22    1    3    3    0    0  0.39409113058E+02  0.15752421867E+02  0.79021038753E+01  0.43170131252E+02  0.00000000000E+00 0.  1.
</event>
<event>
 7    1  0.6067783E-006  0.5246415E+02  0.7818608E-02  0.1519404E+00
          2   -1    0    0  502    0  0.00000000000E+00  0.00000000000E+00  0.50090868160E+03  0.50090868160E+03  0.00000000000E+00 0. -1.
          1   -1    0    0  501    0 -0.00000000000E+00 -0.00000000000E+00 -0.26165034340E+03  0.26165034340E+03  0.00000000000E+00 0. -1.
         25    2    1    2    0    0  0.23473543902E+02  0.14922473530E+02  0.21903316674E+03  0.25371216314E+03  0.12498258324E+03 0.  0.
          2    1    1    2  501    0 -0.32200670319E+02 -0.41822304841E+02 -0.24068695927E+03  0.24640657604E+03  0.00000000000E+00 0. -1.
          1    1    1    2  502    0  0.87271264170E+01  0.26899831312E+02  0.26091213073E+03  0.26244028582E+03  0.00000000000E+00 0. -1.
         22    1    3    3    0    0 -0.37315242361E+02 -0.27617299187E+02  0.12868827401E+03  0.13680575425E+03  0.00000000000E+00 0.  1.
         22    1    3    3    0    0  0.60788786262E+02  0.42539772716E+02  0.90344892733E+02  0.11690640890E+03  0.00000000000E+00 0.  1.
</event>
<event>
 7    1  0.6067783E-006  0.1105646E+03  0.7818608E-02  0.1333441E+00
          2   -1    0    0  502    0  0.00000000000E+00  0.00000000000E+00  0.20713736874E+04  0.20713736874E+04  0.00000000000E+00 0. -1.
          1   -1    0    0  501    0 -0.00000000000E+00 -0.00000000000E+00 -0.20222825171E+03  0.20222825171E+03  0.00000000000E+00 0. -1.
         25    2    1    2    0    0 -0.24066617019E+02  0.82190897218E+02  0.31783771099E+02  0.15482321660E+03  0.12500189860E+03 0.  0.
          2    1    1    2  501    0 -0.18818817161E+02 -0.11772833429E+03 -0.11498537969E+03  0.16563739347E+03  0.00000000000E+00 0. -1.
          1    1    1    2  502    0  0.42885434179E+02  0.35537437070E+02  0.19523470443E+04  0.19531413291E+04  0.00000000000E+00 0. -1.
         22    1    3    3    0    0  0.12742815364E+02  0.45122413483E+02  0.74036583939E+02  0.87634623884E+02  0.00000000000E+00 0.  1.
         22    1    3    3    0    0 -0.36809432383E+02  0.37068483735E+02 -0.42252812839E+02  0.67188592719E+02  0.00000000000E+00 0.  1.
</event>
<event>
 7    1  0.6067783E-006  0.7569034E+02  0.7818608E-02  0.1480590E+00
          2   -1    0    0  502    0  0.00000000000E+00  0.00000000000E+00  0.15508336544E+04  0.15508336544E+04  0.00000000000E+00 0. -1.
          1   -1    0    0  501    0 -0.00000000000E+00 -0.00000000000E+00 -0.68250637226E+02  0.68250637226E+02  0.00000000000E+00 0. -1.
         25    2    1    2    0    0 -0.78136089941E+02 -0.10085244476E+02  0.10004369384E+04  0.10112892104E+04  0.12499935387E+03 0.  0.
          2    1    1    2  501    0  0.74173251106E+02 -0.15200683138E+02 -0.39583821390E+02  0.85437760172E+02  0.00000000000E+00 0. -1.
          1    1    1    2  502    0  0.39628388350E+01  0.25285927614E+02  0.52172990009E+03  0.52235732107E+03  0.00000000000E+00 0. -1.
         22    1    3    3    0    0 -0.90094333905E+02 -0.56678023711E+01  0.99177942599E+03  0.99587928124E+03  0.00000000000E+00 0. -1.
         22    1    3    3    0    0  0.11958243964E+02 -0.44174421050E+01  0.86575124582E+01  0.15409929118E+02  0.00000000000E+00 0. -1.
</event>
<event>
 7    1  0.6067783E-006  0.1956963E+03  0.7818608E-02  0.1217047E+00
          2   -1    0    0  502    0  0.00000000000E+00  0.00000000000E+00  0.15482741808E+04  0.15482741808E+04  0.00000000000E+00 0. -1.
          1   -1    0    0  501    0 -0.00000000000E+00 -0.00000000000E+00 -0.91166097009E+03  0.91166097009E+03  0.00000000000E+00 0. -1.
         25    2    1    2    0    0  0.17175479146E+03  0.17979782643E+03  0.33034268164E+02  0.28025641079E+03  0.12500170453E+03 0.  0.
          2    1    1    2  501    0  0.29201459117E+01 -0.96245912340E+02 -0.77833340399E+03  0.78426697665E+03  0.00000000000E+00 0. -1.
          1    1    1    2  502    0 -0.17467493737E+03 -0.83551914093E+02  0.13819123465E+04  0.13954117634E+04  0.00000000000E+00 0. -1.
         22    1    3    3    0    0 -0.76395255225E+01 -0.79197418861E+01  0.16816070718E+02  0.20096390127E+02  0.00000000000E+00 0.  1.
         22    1    3    3    0    0  0.17939431698E+03  0.18771756832E+03  0.16218197446E+02  0.26016002066E+03  0.00000000000E+00 0.  1.
</event>
<event>
 7    1  0.6067783E-006  0.6679831E+02  0.7818608E-02  0.1425470E+00
          2   -1    0    0  502    0  0.00000000000E+00  0.00000000000E+00  0.44448096813E+03  0.44448096813E+03  0.00000000000E+00 0. -1.
          1   -1    0    0  501    0 -0.00000000000E+00 -0.00000000000E+00 -0.39189503734E+02  0.39189503734E+02  0.00000000000E+00 0. -1.
         25    2    1    2    0    0  0.62764477820E+02 -0.24569946298E+02  0.28382004862E+03  0.31736652498E+03  0.12499851696E+03 0.  0.
          2    1    1    2  501    0 -0.36543545409E+02  0.59229029310E+02  0.66836321371E+02  0.96491463242E+02  0.00000000000E+00 0. -1.
          1    1    1    2  502    0 -0.26220932410E+02 -0.34659083013E+02  0.54635094399E+02  0.69812483638E+02  0.00000000000E+00 0. -1.
         22    1    3    3    0    0  0.12906221189E+02 -0.31392075173E+02  0.25907492786E+03  0.26128882711E+03  0.00000000000E+00 0. -1.
         22    1    3    3    0    0  0.49858256631E+02  0.68221288751E+01  0.24745120764E+02  0.56077697869E+02  0.00000000000E+00 0. -1.
</event>
<event>
 7    1  0.6067783E-006  0.6635160E+02  0.7818608E-02  0.1398744E+00
          2   -1    0    0  502    0  0.00000000000E+00  0.00000000000E+00  0.68959134168E+03  0.68959134168E+03  0.00000000000E+00 0. -1.
          1   -1    0    0  501    0 -0.00000000000E+00 -0.00000000000E+00 -0.16109818624E+04  0.16109818624E+04  0.00000000000E+00 0. -1.
         25    2    1    2    0    0 -0.23579574824E+02 -0.16353887839E+02 -0.64791422693E+02  0.14368860568E+03  0.12500016381E+03 0.  0.
          2    1    1    2  501    0  0.18456511648E+02 -0.50604196592E+02 -0.15045245066E+04  0.15054884319E+04  0.00000000000E+00 0. -1.
          1    1    1    2  502    0  0.51230631757E+01  0.66958084431E+02  0.64792540852E+03  0.65139616659E+03  0.00000000000E+00 0. -1.
         22    1    3    3    0    0 -0.46612884597E+02 -0.55353681956E+02 -0.66614947251E+02  0.98358234601E+02  0.00000000000E+00 0. -1.
         22    1    3    3    0    0  0.23033309773E+02  0.38999794118E+02  0.18235245576E+01  0.45330371079E+02  0.00000000000E+00 0. -1.
</event>
<event>
 7    1  0.6067783E-006  0.5560175E+02  0.7818608E-02  0.1553163E+00
          2   -1    0    0  502    0  0.00000000000E+00  0.00000000000E+00  0.48924406788E+03  0.48924406788E+03  0.00000000000E+00 0. -1.
          1   -1    0    0  501    0 -0.00000000000E+00 -0.00000000000E+00 -0.26711440715E+03  0.26711440715E+03  0.00000000000E+00 0. -1.
         25    2    1    2    0    0  0.68946873422E+02 -0.23600015080E+02  0.10650003187E+03  0.17966024876E+03  0.12499966451E+03 0.  0.
          2    1    1    2  501    0 -0.54701275575E+02  0.76356875973E+01 -0.22688757327E+03  0.23351339186E+03  0.00000000000E+00 0. -1.
          1    1    1    2  502    0 -0.14245597847E+02  0.15964327483E+02  0.34251720213E+03  0.34318483441E+03  0.00000000000E+00 0. -1.
         22    1    3    3    0    0  0.14456159499E+02 -0.65534922616E+02  0.21795298162E+02  0.70560907390E+02  0.00000000000E+00 0. -1.
         22    1    3    3    0    0  0.54490713923E+02  0.41934907536E+02  0.84704733708E+02  0.10909934137E+03  0.00000000000E+00 0. -1.
</event>
<event>
 7    1  0.6067783E-006  0.2246043E+03  0.7818608E-02  0.1266535E+00
          2   -1    0    0  502    0  0.00000000000E+00  0.00000000000E+00  0.23726775252E+04  0.23726775252E+04  0.00000000000E+00 0. -1.
          1   -1    0    0  501    0 -0.00000000000E+00 -0.00000000000E+00 -0.20676798772E+04  0.20676798772E+04  0.00000000000E+00 0. -1.
         25    2    1    2    0    0  0.74162980863E+02 -0.19072515679E+03  0.14314621071E+04  0.14514080004E+04  0.12500074498E+03 0.  0.
          2    1    1    2  501    0 -0.34177989348E+02  0.22209550086E+03 -0.20508720402E+04  0.20631458193E+04  0.00000000000E+00 0. -1.
          1    1    1    2  502    0 -0.39984991515E+02 -0.31370344077E+02  0.92440758100E+03  0.92580358275E+03  0.00000000000E+00 0. -1.
         22    1    3    3    0    0 -0.13094542092E+02  0.10337334484E+02  0.51138827388E+02  0.53791330003E+02  0.00000000000E+00 0. -1.
         22    1    3    3    0    0  0.87257522955E+02 -0.20106249127E+03  0.13803232797E+04  0.13976166704E+04  0.00000000000E+00 0. -1.
</event>
<event>
 7    1  0.6067783E-006  0.1175190E+03  0.7818608E-02  0.1311881E+00
          2   -1    0    0  502    0  0.00000000000E+00  0.00000000000E+00  0.12060876450E+04  0.12060876450E+04  0.00000000000E+00 0. -1.
          1   -1    0    0  501    0 -0.00000000000E+00 -0.00000000000E+00 -0.75887771893E+03  0.75887771893E+03  0.00000000000E+00 0. -1.
         25    2    1    2    0    0  0.93209371825E+02 -0.84209670115E+02  0.31019952573E+03  0.35725139692E+03  0.12500223719E+03 0.  0.
          2    1    1    2  501    0 -0.11503861375E+03  0.24599632682E+02 -0.72947829707E+03  0.73890297772E+03  0.00000000000E+00 0. -1.
          1    1    1    2  502    0  0.21829241928E+02  0.59610037433E+02  0.86648869745E+03  0.86881098932E+03  0.00000000000E+00 0. -1.
         22    1    3    3    0    0  0.51837682020E+02 -0.85151954781E+02  0.93633593155E+02  0.13676713950E+03  0.00000000000E+00 0. -1.
         22    1    3    3    0    0  0.41371689805E+02  0.94228466633E+00  0.21656593258E+03  0.22048425742E+03  0.00000000000E+00 0. -1.
</event>
<event>
 7    1  0.6067783E-006  0.3687777E+02  0.7818608E-02  0.1565546E+00
          2   -1    0    0  502    0  0.00000000000E+00  0.00000000000E+00  0.13248118816E+04  0.13248118816E+04  0.00000000000E+00 0. -1.
          1   -1    0    0  501    0 -0.00000000000E+00 -0.00000000000E+00 -0.96923457292E+03  0.96923457292E+03  0.00000000000E+00 0. -1.
         25    2    1    2    0    0 -0.51715571314E+02  0.35029393353E+02 -0.24695288444E+02  0.14187772428E+03  0.12497148739E+03 0.  0.
          2    1    1    2  501    0  0.16312572928E+02 -0.24965532620E+02 -0.88542950988E+03  0.88593159714E+03  0.00000000000E+00 0. -1.
          1    1    1    2  502    0  0.35402998386E+02 -0.10063860733E+02  0.12657021070E+04  0.12662371331E+04  0.00000000000E+00 0. -1.
         22    1    3    3    0    0 -0.12774783456E+02 -0.45128331985E+02 -0.24163608238E+02  0.52760225580E+02  0.00000000000E+00 0.  1.
         22    1    3    3    0    0 -0.38940787857E+02  0.80157725339E+02 -0.53168020584E+00  0.89117498698E+02  0.00000000000E+00 0.  1.
</event>
<event>
 7    1  0.6067783E-006  0.7072492E+02  0.7818608E-02  0.1478988E+00
          2   -1    0    0  502    0  0.00000000000E+00  0.00000000000E+00  0.68019713698E+03  0.68019713698E+03  0.00000000000E+00 0. -1.
          1   -1    0    0  501    0 -0.00000000000E+00 -0.00000000000E+00 -0.26456636965E+03  0.26456636965E+03  0.00000000000E+00 0. -1.
         25    2    1    2    0    0  0.33072105795E+02  0.39986772393E+02 -0.18515301118E+03  0.22934588734E+03  0.12500076937E+03 0.  0.
          2    1    1    2  501    0  0.27525882931E+02 -0.31309316137E+01 -0.51932225148E+02  0.58859434017E+02  0.00000000000E+00 0. -1.
          1    1    1    2  502    0 -0.60597988725E+02 -0.36855840779E+02  0.65271600366E+03  0.65655818529E+03  0.00000000000E+00 0. -1.
         22    1    3    3    0    0  0.27745982708E+02 -0.15688120957E+02 -0.16777981847E+03  0.17078063175E+03  0.00000000000E+00 0. -1.
         22    1    3    3    0    0  0.53261230864E+01  0.55674893349E+02 -0.17373192702E+02  0.58565255581E+02  0.00000000000E+00 0. -1.
</event>
<event>
 7    1  0.6067783E-006  0.5365812E+02  0.7818608E-02  0.1446906E+00
          2   -1    0    0  502    0  0.00000000000E+00  0.00000000000E+00  0.92260851732E+03  0.92260851732E+03  0.00000000000E+00 0. -1.
          1   -1    0    0  501    0 -0.00000000000E+00 -0.00000000000E+00 -0.10279456158E+04  0.10279456158E+04  0.00000000000E+00 0. -1.
         25    2    1    2    0    0 -0.47280311003E+02  0.19258050010E+02  0.45160537711E+03  0.47135873306E+03  0.12500135318E+03 0.  0.
          2    1    1    2  501    0  0.46531223232E+02  0.26790126177E+02 -0.10162085419E+04  0.10176259953E+04  0.00000000000E+00 0. -1.
          1    1    1    2  502    0  0.74908777081E+00 -0.46048176187E+02  0.45926606638E+03  0.46156940474E+03  0.00000000000E+00 0. -1.
         22    1    3    3    0    0 -0.50784526219E+02 -0.11948716421E+02  0.43020571075E+03  0.43335758156E+03  0.00000000000E+00 0.  1.
         22    1    3    3    0    0  0.35042152165E+01  0.31206766431E+02  0.21399666356E+02  0.38001151502E+02  0.00000000000E+00 0.  1.
</event>
<event>
 7    1  0.6067783E-006  0.4604738E+02  0.7818608E-02  0.1517550E+00
          2   -1    0    0  502    0  0.00000000000E+00  0.00000000000E+00  0.43977314820E+02  0.43977314820E+02  0.00000000000E+00 0. -1.
          1   -1    0    0  501    0 -0.00000000000E+00 -0.00000000000E+00 -0.18570366997E+04  0.18570366997E+04  0.00000000000E+00 0. -1.
         25    2    1    2    0    0  0.26525024713E+02 -0.11782967495E+02 -0.20412850547E+03  0.24111258010E+03  0.12499765710E+03 0.  0.
          2    1    1    2  501    0  0.19917322592E+02  0.25838094692E+02 -0.16110043105E+04  0.16113346007E+04  0.00000000000E+00 0. -1.
          1    1    1    2  502    0 -0.46442347305E+02 -0.14055127197E+02  0.20734310843E+01  0.48566833746E+02  0.00000000000E+00 0. -1.
         22    1    3    3    0    0  0.70580920451E+02 -0.34200511025E+02 -0.13499410634E+03  0.15612414942E+03  0.00000000000E+00 0.  1.
         22    1    3    3    0    0 -0.44055895738E+02  0.22417543530E+02 -0.69134399128E+02  0.84988430684E+02  0.00000000000E+00 0.  1.
</event>
<event>
 7    1  0.6067783E-006  0.4380040E+02  0.7818608E-02  0.1482331E+00
          2   -1    0    0  502    0  0.00000000000E+00  0.00000000000E+00  0.41347278060E+03  0.41347278060E+03  0.00000000000E+00 0. -1.
          1   -1    0    0  501    0 -0.00000000000E+00 -0.00000000000E+00 -0.69000487679E+02  0.69000487679E+02  0.00000000000E+00 0. -1.
         25    2    1    2    0    0 -0.44289150571E+02  0.31046850691E+02  0.13248171792E+03  0.19000057858E+03  0.12499351376E+03 0.  0.
          2    1    1    2  501    0  0.41764755908E+02  0.13197730682E+02 -0.25634550421E+02  0.50750419767E+02  0.00000000000E+00 0. -1.
          1    1    1    2  502    0  0.25243946627E+01 -0.44244581373E+02  0.23762512542E+03  0.24172226993E+03  0.00000000000E+00 0. -1.
         22    1    3    3    0    0 -0.52752179800E+02 -0.33881722805E+02  0.32854585985E+02  0.70782677500E+02  0.00000000000E+00 0.  1.
         22    1    3    3    0    0  0.84630292287E+01  0.64928573496E+02  0.99627131935E+02  0.11921790108E+03  0.00000000000E+00 0.  1.
</event>
<event>
 7    1  0.6067783E-006  0.1817070E+03  0.7818608E-02  0.1360592E+00
          2   -1    0    0  502    0  0.00000000000E+00  0.00000000000E+00  0.94052287003E+03  0.94052287003E+03  0.00000000000E+00 0. -1.
          1   -1    0    0  501    0 -0.00000000000E+00 -0.00000000000E+00 -0.77942843632E+02  0.77942843632E+02  0.00000000000E+00 0. -1.
         25    2    1    2    0    0  0.55760180780E+02 -0.16275036096E+03  0.70060974596E+03  0.73217192699E+03  0.12499934714E+03 0.  0.
          2    1    1    2  501    0 -0.35526769143E+02  0.18040632990E+03  0.80881447620E+02  0.20087409928E+03  0.00000000000E+00 0. -1.
          1    1    1    2  502    0 -0.20233411638E+02 -0.17655968941E+02  0.81088832823E+02  0.85419687393E+02  0.00000000000E+00 0. -1.
         22    1    3    3    0    0 -0.10183157095E+02 -0.59363505228E+02  0.44057930377E+03  0.44467723727E+03  0.00000000000E+00 0. -1.
         22    1    3    3    0    0  0.65943337875E+02 -0.10338685573E+03  0.26003044219E+03  0.28749468971E+03  0.00000000000E+00 0. -1.
</event>
<event>
 7    1  0.6067783E-006  0.2377335E+03  0.7818608E-02  0.1324113E+00
          2   -1    0    0  502    0  0.00000000000E+00  0.00000000000E+00  0.17168576296E+04  0.17168576296E+04  0.00000000000E+00 0. -1.
          1   -1    0    0  501    0 -0.00000000000E+00 -0.00000000000E+00 -0.81372511562E+03  0.81372511562E+03  0.00000000000E+00 0. -1.
         25    2    1    2    0    0 -0.11026340047E+03 -0.21545841417E+03 -0.27980780306E+03  0.39050216361E+03  0.12497674749E+03 0.  0.
          2    1    1    2  501    0  0.82703030650E+02  0.22105429889E+03 -0.44934204401E+03  0.50755597411E+03  0.00000000000E+00 0. -1.
          1    1    1    2  502    0  0.27560369820E+02 -0.55958847180E+01  0.16322823611E+04  0.16325246075E+04  0.00000000000E+00 0. -1.
         22    1    3    3    0    0 -0.19157393195E+02 -0.20486646955E+02 -0.11790191240E+03  0.12119228262E+03  0.00000000000E+00 0. -1.
         22    1    3    3    0    0 -0.91106007275E+02 -0.19497176721E+03 -0.16190589066E+03  0.26930988100E+03  0.00000000000E+00 0. -1.
</event>
<event>
 7    1  0.6067783E-006  0.1856611E+03  0.7818608E-02  0.1249417E+00
          2   -1    0    0  502    0  0.00000000000E+00  0.00000000000E+00  0.14258395714E+04  0.14258395714E+04  0.00000000000E+00 0. -1.
          1   -1    0    0  501    0 -0.00000000000E+00 -0.00000000000E+00 -0.50087339014E+03  0.50087339014E+03  0.00000000000E+00 0. -1.
         25    2    1    2    0    0 -0.16127694923E+03 -0.15713057718E+03  0.20496891114E+03  0.32914740393E+03  0.12500194536E+03 0.  0.
          2    1    1    2  501    0  0.88575204249E+02  0.16066046002E+03 -0.41839442947E+03  0.45684926270E+03  0.00000000000E+00 0. -1.
          1    1    1    2  502    0  0.72701744977E+02 -0.35298828340E+01  0.11383916995E+04  0.11407162949E+04  0.00000000000E+00 0. -1.
         22    1    3    3    0    0 -0.23851790935E+02 -0.87810991287E+02  0.12802800945E+03  0.15706956843E+03  0.00000000000E+00 0.  1.
         22    1    3    3    0    0 -0.13742515829E+03 -0.69319585894E+02  0.76940901690E+02  0.17207783551E+03  0.00000000000E+00 0.  1.
</event>
<event>
 7    1  0.6067783E-006  0.9605371E+02  0.7818608E-02  0.1423350E+00
          2   -1    0    0  502    0  0.00000000000E+00  0.00000000000E+00  0.56044291259E+03  0.56044291259E+03  0.00000000000E+00 0. -1.
          1   -1    0    0  501    0 -0.00000000000E+00 -0.00000000000E+00 -0.13125596984E+03  0.13125596984E+03  0.00000000000E+00 0. -1.
         25    2    1    2    0    0 -0.90974694761E+02 -0.28314264770E+02 -0.31818518306E+02  0.16035984073E+03  0.12499907094E+03 0.  0.
          2    1    1    2  501    0  0.81177427729E+02  0.57427116057E+02  0.36807487357E+02  0.10603037092E+03  0.00000000000E+00 0. -1.
          1    1    1    2  502    0  0.97972670320E+01 -0.29112851287E+02  0.42419797370E+03  0.42530867078E+03  0.00000000000E+00 0. -1.
         22    1    3    3    0    0  0.45296162275E+01  0.11547477763E+02 -0.53249247069E+02  0.54674893500E+02  0.00000000000E+00 0. -1.
         22    1    3    3    0    0 -0.95504310989E+02 -0.39861742533E+02  0.21430728763E+02  0.10568494723E+03  0.00000000000E+00 0. -1.
</event>
<event>
 7    1  0.6067783E-006  0.1019299E+03  0.7818608E-02  0.1400021E+00
          2   -1    0    0  502    0  0.00000000000E+00  0.00000000000E+00  0.40595490555E+03  0.40595490555E+03  0.00000000000E+00 0. -1.
          1   -1    0    0  501    0 -0.00000000000E+00 -0.00000000000E+00 -0.12607015835E+04  0.12607015835E+04  0.00000000000E+00 0. -1.
         25    2    1    2    0    0 -0.17193682137E+02 -0.97619489639E+02  0.15362109708E+03  0.22147159111E+03  0.12500014695E+03 0.  0.
          2    1    1    2  501    0  0.50696045953E+02  0.88540915716E+02 -0.12232599556E+04  0.12275074345E+04  0.00000000000E+00 0. -1.
          1    1    1    2  502    0 -0.33502363816E+02  0.90785739229E+01  0.21489218048E+03  0.21767746351E+03  0.00000000000E+00 0. -1.
         22    1    3    3    0    0 -0.21586452650E+02  0.26688921717E+02  0.42922861106E+02  0.54960399252E+02  0.00000000000E+00 0.  1.
         22    1    3    3    0    0  0.43927705132E+01 -0.12430841136E+03  0.11069823597E+03  0.16651119186E+03  0.00000000000E+00 0.  1.
</event>
<event>
 7    1  0.6067783E-006  0.2843734E+02  0.7818608E-02  0.1677447E+00
          2   -1    0    0  502    0  0.00000000000E+00  0.00000000000E+00  0.23426671121E+03  0.23426671121E+03  0.00000000000E+00 0. -1.
          1   -1    0    0  501    0 -0.00000000000E+00 -0.00000000000E+00 -0.43941570042E+03  0.43941570042E+03  0.00000000000E+00 0. -1.
         25    2    1    2    0    0  0.37434003795E+02 -0.55972723381E+00  0.57098665964E+02  0.14242557796E+03  0.12499267846E+03 0.  0.
          2    1    1    2  501    0 -0.24346863279E+02 -0.14660524682E+02 -0.39549056930E+03  0.39651039223E+03  0.00000000000E+00 0. -1.
          1    1    1    2  502    0 -0.13087140516E+02  0.15220251916E+02  0.13324291413E+03  0.13474644144E+03  0.00000000000E+00 0. -1.
         22    1    3    3    0    0  0.10280753058E+02 -0.12578581874E+02 -0.38784615889E+02  0.42049506954E+02  0.00000000000E+00 0.  1.
         22    1    3    3    0    0  0.27153250737E+02  0.12018854640E+02  0.95883281853E+02  0.10037607101E+03  0.00000000000E+00 0.  1.
</event>
<event>
 7    1  0.6067783E-006  0.1152211E+03  0.7818608E-02  0.1253289E+00
          2   -1    0    0  502    0  0.00000000000E+00  0.00000000000E+00  0.13894430653E+04  0.13894430653E+04  0.00000000000E+00 0. -1.
          1   -1    0    0  501    0 -0.00000000000E+00 -0.00000000000E+00 -0.36634271837E+03  0.36634271837E+03  0.00000000000E+00 0. -1.
         25    2    1    2    0    0 -0.68112411969E+02  0.48191238442E+01 -0.42337705176E+02  0.14859629248E+03  0.12500340892E+03 0.  0.
          2    1    1    2  501    0  0.33646207907E+02  0.10771231962E+03 -0.25639400880E+03  0.28012836139E+03  0.00000000000E+00 0. -1.
          1    1    1    2  502    0  0.34466204062E+02 -0.11253144346E+03  0.13218320609E+04  0.13270611298E+04  0.00000000000E+00 0. -1.
         22    1    3    3    0    0 -0.62771619369E+02  0.74343287231E+01 -0.84773747967E+02  0.10574560883E+03  0.00000000000E+00 0. -1.
         22    1    3    3    0    0 -0.53407926004E+01 -0.26152048789E+01  0.42436042791E+02  0.42850683658E+02  0.00000000000E+00 0. -1.
</event>
<event>
 7    1  0.6067783E-006  0.8812151E+02  0.7818608E-02  0.1485273E+00
          2   -1    0    0  502    0  0.00000000000E+00  0.00000000000E+00  0.33841264874E+02  0.33841264874E+02  0.00000000000E+00 0. -1.
          1   -1    0    0  501    0 -0.00000000000E+00 -0.00000000000E+00 -0.16984905072E+04  0.16984905072E+04  0.00000000000E+00 0. -1.
         25    2    1    2    0    0 -0.64645660781E+02 -0.29806063877E+02 -0.62757622312E+03  0.64384937605E+03  0.12499056091E+03 0.  0.
          2    1    1    2  501    0 -0.12404650419E+02 -0.17280122675E+02 -0.98300283260E+03  0.98323295657E+03  0.00000000000E+00 0. -1.
          1    1    1    2  502    0  0.77050311200E+02  0.47086186552E+02 -0.54070186558E+02  0.10524943940E+03  0.00000000000E+00 0. -1.
         22    1    3    3    0    0  0.35278806540E+02  0.93676500503E+01 -0.15592263456E+03  0.16013811235E+03  0.00000000000E+00 0.  1.
         22    1    3    3    0    0 -0.99924467321E+02 -0.39173713927E+02 -0.47165358856E+03  0.48371126370E+03  0.00000000000E+00 0.  1.
</event>
<event>
 7    1  0.6067783E-006  0.8468344E+02  0.7818608E-02  0.1405342E+00
          2   -1    0    0  502    0  0.00000000000E+00  0.00000000000E+00  0.74232849894E+03  0.74232849894E+03  0.00000000000E+00 0. -1.
          1   -1    0    0  501    0 -0.00000000000E+00 -0.00000000000E+00 -0.27089664969E+03  0.27089664969E+03  0.00000000000E+00 0. -1.
         25    2    1    2    0    0  0.12105696623E+01  0.49889597877E+02  0.16816641195E+03  0.21539498715E+03  0.12499848369E+03 0.  0.
          2    1    1    2  501    0 -0.24339513597E+02 -0.82601172260E+02 -0.23902412355E+03  0.25406278204E+03  0.00000000000E+00 0. -1.
          1    1    1    2  502    0  0.23128943934E+02  0.32711574383E+02  0.54228956084E+03  0.54376737944E+03  0.00000000000E+00 0. -1.
         22    1    3    3    0    0  0.25554590807E+02  0.68670173791E+02  0.16945924740E+03  0.18462141374E+03  0.00000000000E+00 0. -1.
         22    1    3    3    0    0 -0.24344021145E+02 -0.18780575915E+02 -0.12928354490E+01  0.30773573414E+02  0.00000000000E+00 0. -1.
</event>
<event>
 7    1  0.6067783E-006  0.4631682E+02  0.7818608E-02  0.1508405E+00
          2   -1    0    0  502    0  0.00000000000E+00  0.00000000000E+00  0.42841996707E+03  0.42841996707E+03  0.00000000000E+00 0. -1.
          1   -1    0    0  501    0 -0.00000000000E+00 -0.00000000000E+00 -0.27888071061E+03  0.27888071061E+03  0.00000000000E+00 0. -1.
         25    2    1    2    0    0 -0.11782677496E+02 -0.23719753590E+02 -0.18776518329E+03  0.22711324047E+03  0.12499280675E+03 0.  0.
          2    1    1    2  501    0  0.11437161464E+02  0.58217238191E+02 -0.58241878891E+02  0.83139472826E+02  0.00000000000E+00 0. -1.
          1    1    1    2  502    0  0.34551603200E+00 -0.34497484601E+02  0.39554631864E+03  0.39704796438E+03  0.00000000000E+00 0. -1.
         22    1    3    3    0    0 -0.11863969416E+02 -0.28007092857E+02 -0.20607520048E+03  0.20830779935E+03  0.00000000000E+00 0. -1.
         22    1    3    3    0    0  0.81291920240E-01  0.42873392666E+01  0.18310017181E+02  0.18805441115E+02  0.00000000000E+00 0. -1.
</event>
<event>
 7    1  0.6067783E-006  0.2428594E+03  0.7818608E-02  0.1219315E+00
          2   -1    0    0  502    0  0.00000000000E+00  0.00000000000E+00  0.18228098769E+04  0.18228098769E+04  0.00000000000E+00 0. -1.
          1   -1    0    0  501    0 -0.00000000000E+00 -0.00000000000E+00 -0.56670277334E+02  0.56670277334E+02  0.00000000000E+00 0. -1.
         25    2    1    2    0    0  0.19487267067E+03  0.75267522569E+02  0.76233843990E+03  0.80026468887E+03  0.12499247004E+03 0.  0.
          2    1    1    2  501    0  0.54481854502E+02  0.52642724971E+02  0.66135460802E+02  0.10056554150E+03  0.00000000000E+00 0. -1.
          1    1    1    2  502    0 -0.24935452518E+03 -0.12791024754E+03  0.93766569883E+03  0.97864992383E+03  0.00000000000E+00 0. -1.
         22    1    3    3    0    0  0.19627409079E+03  0.82326588383E+02  0.58058675880E+03  0.61837057689E+03  0.00000000000E+00 0. -1.
         22    1    3    3    0    0 -0.14014201152E+01 -0.70590658146E+01  0.18175168111E+03  0.18189411198E+03  0.00000000000E+00 0. -1.
</event>
<event>
 7    1  0.6067783E-006  0.6124623E+02  0.7818608E-02  0.1415625E+00
          2   -1    0    0  502    0  0.00000000000E+00  0.00000000000E+00  0.16583519082E+04  0.16583519082E+04  0.00000000000E+00 0. -1.
          1   -1    0    0  501    0 -0.00000000000E+00 -0.00000000000E+00 -0.82803332578E+03  0.82803332578E+03  0.00000000000E+00 0. -1.
         25    2    1    2    0    0 -0.13660698105E+01  0.58219214015E+02  0.43338000921E+03  0.45479133132E+03  0.12500231852E+03 0.  0.
          2    1    1    2  501    0  0.48248296427E+02 -0.37827085482E+02 -0.81563853756E+03  0.81793949071E+03  0.00000000000E+00 0. -1.
          1    1    1    2  502    0 -0.46882226617E+02 -0.20392128533E+02  0.12125771107E+04  0.12136544119E+04  0.00000000000E+00 0. -1.
         22    1    3    3    0    0 -0.31071775919E+02 -0.30281728736E+02  0.11138807961E+03  0.11953971153E+03  0.00000000000E+00 0.  1.
         22    1    3    3    0    0  0.29705706108E+02  0.88500942751E+02  0.32199192961E+03  0.33525161979E+03  0.00000000000E+00 0.  1.
</event>
<event>
 7    1  0.6067783E-006  0.1150771E+03  0.7818608E-02  0.1276614E+00
          2   -1    0    0  502    0  0.00000000000E+00  0.00000000000E+00  0.38673774052E+04  0.38673774052E+04  0.00000000000E+00 0. -1.
          1   -1    0    0  501    0 -0.00000000000E+00 -0.00000000000E+00 -0.14454950470E+03  0.14454950470E+03  0.00000000000E+00 0. -1.
         25    2    1    2    0    0 -0.34787302022E+02 -0.28393011063E+02  0.18361174045E+04  0.18409156862E+04  0.12500848410E+03 0.  0.
          2    1    1    2  501    0  0.12195004594E+02  0.11551582868E+03 -0.11724095195E+03  0.16503958806E+03  0.00000000000E+00 0. -1.
          1    1    1    2  502    0  0.22592297428E+02 -0.87122817621E+02  0.20039514480E+04  0.20059716357E+04  0.00000000000E+00 0. -1.
         22    1    3    3    0    0 -0.79149273465E+02 -0.70527599245E+01  0.89855017834E+03  0.90205696711E+03  0.00000000000E+00 0.  1.
         22    1    3    3    0    0  0.44361971443E+02 -0.21340251138E+02  0.93756722612E+03  0.93885871905E+03  0.00000000000E+00 0.  1.
</event>
<event>
 7    1  0.6067783E-006  0.5192095E+02  0.7818608E-02  0.1540408E+00
          2   -1    0    0  502    0  0.00000000000E+00  0.00000000000E+00  0.20025933583E+02  0.20025933583E+02  0.00000000000E+00 0. -1.
          1   -1    0    0  501    0 -0.00000000000E+00 -0.00000000000E+00 -0.16690244504E+04  0.16690244504E+04  0.00000000000E+00 0. -1.
         25    2    1    2    0    0  0.53350766431E+02  0.19757160853E+02 -0.54063799542E+03  0.55781129238E+03  0.12500938416E+03 0.  0.
          2    1    1    2  501    0 -0.17426663092E+02  0.17754581229E+02 -0.10599355686E+04  0.10602274865E+04  0.00000000000E+00 0. -1.
          1    1    1    2  502    0 -0.35924103339E+02 -0.37511742082E+02 -0.48424952827E+02  0.71011605045E+02  0.00000000000E+00 0. -1.
         22    1    3    3    0    0  0.90038051045E+01 -0.43670682776E+02 -0.88509197859E+02  0.99106382974E+02  0.00000000000E+00 0.  1.
         22    1    3    3    0    0  0.44346961327E+02  0.63427843629E+02 -0.45212879756E+03  0.45870490941E+03  0.00000000000E+00 0.  1.
</event>
<event>
 7    1  0.6067783E-006  0.9099205E+02  0.7818608E-02  0.1402936E+00
          2   -1    0    0  502    0  0.00000000000E+00  0.00000000000E+00  0.10945708511E+04  0.10945708511E+04  0.00000000000E+00 0. -1.
          1   -1    0    0  501    0 -0.00000000000E+00 -0.00000000000E+00 -0.60041153969E+03  0.60041153969E+03  0.00000000000E+00 0. -1.
         25    2    1    2    0    0  0.74501901894E+02 -0.28482143021E+02  0.12548806707E+03  0.19425235205E+03  0.12499982177E+03 0.  0.
          2    1    1    2  501    0 -0.94380703166E+01 -0.36806858789E+02 -0.56311519641E+03  0.56439573568E+03  0.00000000000E+00 0. -1.
          1    1    1    2  502    0 -0.65063831577E+02  0.65289001810E+02  0.93178644072E+03  0.93633430304E+03  0.00000000000E+00 0. -1.
         22    1    3    3    0    0  0.10788677549E+03 -0.66485606408E+01  0.97003069629E+02  0.14523551633E+03  0.00000000000E+00 0. -1.
         22    1    3    3    0    0 -0.33384873601E+02 -0.21833582380E+02  0.28484997436E+02  0.49016835719E+02  0.00000000000E+00 0. -1.
</event>
<event>
 7    1  0.6067783E-006  0.1300435E+03  0.7818608E-02  0.1310264E+00
          2   -1    0    0  502    0  0.00000000000E+00  0.00000000000E+00  0.19056597627E+03  0.19056597627E+03  0.00000000000E+00 0. -1.
          1   -1    0    0  501    0 -0.00000000000E+00 -0.00000000000E+00 -0.13383160433E+04  0.13383160433E+04  0.00000000000E+00 0. -1.
         25    2    1    2    0    0 -0.13038926269E+03  0.92042719820E+02 -0.33010623437E+03  0.38738841172E+03  0.12500573373E+03 0.  0.
          2    1    1    2  501    0  0.64686606016E+01 -0.57853450757E+02 -0.95302614520E+03  0.95480243966E+03  0.00000000000E+00 0. -1.
          1    1    1    2  502    0  0.12392060209E+03 -0.34189269063E+02  0.13538231253E+03  0.18669116821E+03  0.00000000000E+00 0. -1.
         22    1    3    3    0    0  0.17034219259E+02  0.12174987787E+02 -0.10293181951E+03  0.10503977542E+03  0.00000000000E+00 0.  1.
         22    1    3    3    0    0 -0.14742348195E+03  0.79867732033E+02 -0.22717441487E+03  0.28234863630E+03  0.00000000000E+00 0.  1.
</event>
<event>
 7    1  0.6067783E-006  0.8884712E+02  0.7818608E-02  0.1365105E+00
          2   -1    0    0  502    0  0.00000000000E+00  0.00000000000E+00  0.11464504481E+04  0.11464504481E+04  0.00000000000E+00 0. -1.
          1   -1    0    0  501    0 -0.00000000000E+00 -0.00000000000E+00 -0.17060139197E+03  0.17060139197E+03  0.00000000000E+00 0. -1.
         25    2    1    2    0    0  0.78351500054E+02 -0.81826002740E+02  0.78587129753E+02  0.18610708218E+03  0.12500182715E+03 0.  0.
          2    1    1    2  501    0 -0.82132396801E+02  0.29076439418E+02 -0.99800177239E+02  0.13248111303E+03  0.00000000000E+00 0. -1.
          1    1    1    2  502    0  0.37808967473E+01  0.52749563321E+02  0.99706210362E+03  0.99846364485E+03  0.00000000000E+00 0. -1.
         22    1    3    3    0    0  0.21920644300E+02 -0.47539301234E+02  0.10313567403E+03  0.11566100062E+03  0.00000000000E+00 0.  1.
         22    1    3    3    0    0  0.56430855754E+02 -0.34286701505E+02 -0.24548544274E+02  0.70446081560E+02  0.00000000000E+00 0.  1.
</event>
<event>
 7    1  0.6067783E-006  0.1234541E+03  0.7818608E-02  0.1404696E+00
          2   -1    0    0  502    0  0.00000000000E+00  0.00000000000E+00  0.16427152079E+04  0.16427152079E+04  0.00000000000E+00 0. -1.
          1   -1    0    0  501    0 -0.00000000000E+00 -0.00000000000E+00 -0.11969852057E+04  0.11969852057E+04  0.00000000000E+00 0. -1.
         25    2    1    2    0    0  0.17768355990E+02 -0.14829101951E+03  0.26182693306E+02  0.19650988384E+03  0.12499864030E+03 0.  0.
          2    1    1    2  501    0 -0.97565823310E+01  0.25840367635E+02 -0.11091910926E+04  0.11095349456E+04  0.00000000000E+00 0. -1.
          1    1    1    2  502    0 -0.80117736588E+01  0.12245065187E+03  0.15287384016E+04  0.15336555842E+04  0.00000000000E+00 0. -1.
         22    1    3    3    0    0 -0.90342685009E+01 -0.15269979729E+03  0.49432281242E+02  0.16075570450E+03  0.00000000000E+00 0.  1.
         22    1    3    3    0    0  0.26802624491E+02  0.44087777862E+01 -0.23249587936E+02  0.35754179341E+02  0.00000000000E+00 0.  1.
</event>
<event>
 7    1  0.6067783E-006  0.7804502E+02  0.7818608E-02  0.1348094E+00
          2   -1    0    0  502    0  0.00000000000E+00  0.00000000000E+00  0.23530402155E+03  0.23530402155E+03  0.00000000000E+00 0. -1.
          1   -1    0    0  501    0 -0.00000000000E+00 -0.00000000000E+00 -0.56396930187E+03  0.56396930187E+03  0.00000000000E+00 0. -1.
         25    2    1    2    0    0  0.23255191997E+02  0.10389160230E+03 -0.30509451862E+03  0.34647144559E+03  0.12500211331E+03 0.  0.
          2    1    1    2  501    0 -0.59986158996E+02 -0.35114156716E+02 -0.22569720095E+03  0.23615793400E+03  0.00000000000E+00 0. -1.
          1    1    1    2  502    0  0.36730966999E+02 -0.68777445581E+02  0.20212643925E+03  0.21664394384E+03  0.00000000000E+00 0. -1.
         22    1    3    3    0    0  0.85400025477E+01  0.51529286979E+02 -0.19515322376E+02  0.55758827709E+02  0.00000000000E+00 0.  1.
         22    1    3    3    0    0  0.14715189449E+02  0.52362315319E+02 -0.28557919624E+03  0.29071261788E+03  0.00000000000E+00 0.  1.
</event>
<event>
 7    1  0.6067783E-006  0.1036473E+03  0.7818608E-02  0.1335195E+00
          2   -1    0    0  502    0  0.00000000000E+00  0.00000000000E+00  0.79590279582E+03  0.79590279582E+03  0.00000000000E+00 0. -1.
          1   -1    0    0  501    0 -0.00000000000E+00 -0.00000000000E+00 -0.43752430108E+03  0.43752430108E+03  0.00000000000E+00 0. -1.
         25    2    1    2    0    0  0.27077279934E+01  0.14321194405E+03 -0.27299556797E+03  0.33266946452E+03  0.12500159912E+03 0.  0.
          2    1    1    2  501    0  0.61636632514E+01 -0.85378907760E+02 -0.11983779817E+03  0.14727065731E+03  0.00000000000E+00 0. -1.
          1    1    1    2  502    0 -0.88713912448E+01 -0.57833036294E+02  0.75121186088E+03  0.75348697507E+03  0.00000000000E+00 0. -1.
         22    1    3    3    0    0  0.34409274219E+02  0.14175280135E+03 -0.26050566566E+03  0.29856499575E+03  0.00000000000E+00 0. -1.
         22    1    3    3    0    0 -0.31701546226E+02  0.14591427024E+01 -0.12489902305E+02  0.34104468770E+02  0.00000000000E+00 0. -1.
</event>
<event>
 7    1  0.6067783E-006  0.7762943E+02  0.7818608E-02  0.1451380E+00
          2   -1    0    0  502    0  0.00000000000E+00  0.00000000000E+00  0.26286704711E+04  0.26286704711E+04  0.00000000000E+00 0. -1.
          1   -1    0    0  501    0 -0.00000000000E+00 -0.00000000000E+00 -0.63664925667E+03  0.63664925667E+03  0.00000000000E+00 0. -1.
         25    2    1    2    0    0  0.79451425855E+02 -0.44437566049E+02  0.82900299007E+02  0.17545519376E+03  0.12499935638E+03 0.  0.
          2    1    1    2  501    0 -0.31713849396E+01  0.30636153322E+02 -0.58936855944E+03  0.59017279709E+03  0.00000000000E+00 0. -1.
          1    1    1    2  502    0 -0.76280040915E+02  0.13801412728E+02  0.24984894749E+04  0.24996917369E+04  0.00000000000E+00 0. -1.
         22    1    3    3    0    0  0.12947691339E+02 -0.76585286654E+02  0.24985713584E+02  0.81591879046E+02  0.00000000000E+00 0. -1.
         22    1    3    3    0    0  0.66503734515E+02  0.32147720605E+02  0.57914585423E+02  0.93863314715E+02  0.00000000000E+00 0. -1.
</event>
<event>
 7    1  0.6067783E-006  0.1763147E+03  0.7818608E-02  0.1364365E+00
          2   -1    0    0  502    0  0.00000000000E+00  0.00000000000E+00  0.15420649280E+04  0.15420649280E+04  0.00000000000E+00 0. -1.
          1   -1    0    0  501    0 -0.00000000000E+00 -0.00000000000E+00 -0.46324448057E+02  0.46324448057E+02  0.00000000000E+00 0. -1.
         25    2    1    2    0    0 -0.17521061201E+03  0.30650204874E+02  0.42086335585E+03  0.47369738918E+03  0.12500023440E+03 0.  0.
          2    1    1    2  501    0  0.80867848860E+01  0.25565923077E+02  0.14224346816E+01  0.26852110401E+02  0.00000000000E+00 0. -1.
          1    1    1    2  502    0  0.16712382712E+03 -0.56216127951E+02  0.10734546894E+04  0.10878398765E+04  0.00000000000E+00 0. -1.
         22    1    3    3    0    0  0.16673536902E+02 -0.56806885730E+01  0.69607827770E+02  0.71801996785E+02  0.00000000000E+00 0. -1.
         22    1    3    3    0    0 -0.19188414891E+03  0.36330893447E+02  0.35125552808E+03  0.40189539239E+03  0.00000000000E+00 0. -1.
</event>
<event>
 7    1  0.6067783E-006  0.9336551E+02  0.7818608E-02  0.1331294E+00
          2   -1    0    0  502    0  0.00000000000E+00  0.00000000000E+00  0.53699392527E+03  0.53699392527E+03  0.00000000000E+00 0. -1.
          1   -1    0    0  501    0 -0.00000000000E+00 -0.00000000000E+00 -0.10307976133E+04  0.10307976133E+04  0.00000000000E+00 0. -1.
         25    2    1    2    0    0  0.73754436509E+02 -0.81787079449E+02  0.33445917019E+03  0.37364493398E+03  0.12497502509E+03 0.  0.
          2    1    1    2  501    0 -0.75038482367E+01  0.93098968687E+02 -0.10027875924E+04  0.10071279368E+04  0.00000000000E+00 0. -1.
          1    1    1    2  502    0 -0.66250588272E+02 -0.11311889238E+02  0.17452473413E+03  0.18701866780E+03  0.00000000000E+00 0. -1.
         22    1    3    3    0    0  0.73752489805E+02 -0.10712798245E+03  0.21299125931E+03  0.24956183786E+03  0.00000000000E+00 0. -1.
         22    1    3    3    0    0  0.19467033790E-02  0.25340902998E+02  0.12146791088E+03  0.12408309612E+03  0.00000000000E+00 0. -1.
</event>
<event>
 7    1  0.6067783E-006  0.1414705E+03  0.7818608E-02  0.1388364E+00
          2   -1    0    0  502    0  0.00000000000E+00  0.00000000000E+00  0.13352014856E+03  0.13352014856E+03  0.00000000000E+00 0. -1.
          1   -1    0    0  501    0 -0.00000000000E+00 -0.00000000000E+00 -0.78159843520E+03  0.78159843520E+03  0.00000000000E+00 0. -1.
         25    2    1    2    0    0 -0.15611953381E+03 -0.36114054744E+02 -0.86811159043E+02  0.22099461231E+03  0.12499963020E+03 0.  0.
          2    1    1    2  501    0  0.27412319447E+02  0.14170224032E+01 -0.56014508001E+03  0.56081721966E+03  0.00000000000E+00 0. -1.
          1    1    1    2  502    0  0.12870721436E+03  0.34697032341E+02 -0.11220475848E+01  0.13330675179E+03  0.00000000000E+00 0. -1.
         22    1    3    3    0    0 -0.14512727788E+03  0.14899542123E+02 -0.40966510162E+02  0.15153276244E+03  0.00000000000E+00 0.  1.
         22    1    3    3    0    0 -0.10992255931E+02 -0.51013596867E+02 -0.45844648881E+02  0.69461849866E+02  0.00000000000E+00 0.  1.
</event>
<event>
 7    1  0.6067783E-006  0.6689417E+02  0.7818608E-02  0.1407161E+00
          2   -1    0    0  502    0  0.00000000000E+00  0.00000000000E+00  0.93947460230E+03  0.93947460230E+03  0.00000000000E+00 0. -1.
          1   -1    0    0  501    0 -0.00000000000E+00 -0.00000000000E+00 -0.33655600228E+03  0.33655600228E+03  0.00000000000E+00 0. -1.
         25    2    1    2    0    0 -0.18718112123E+02 -0.15987142027E+01  0.10461275560E+03  0.16407989407E+03  0.12500183757E+03 0.  0.
          2    1    1    2  501    0  0.67815791299E+02 -0.78447857261E+01 -0.30223545860E+03  0.30984963231E+03  0.00000000000E+00 0. -1.
          1    1    1    2  502    0 -0.49097679176E+02  0.94434999288E+01  0.80054130302E+03  0.80210107819E+03  0.00000000000E+00 0. -1.
         22    1    3    3    0    0 -0.67303649347E+02 -0.21578681914E+02  0.77760989470E+02  0.10508183579E+03  0.00000000000E+00 0. -1.
         22    1    3    3    0    0  0.48585537225E+02  0.19979967712E+02  0.26851766126E+02  0.58998058284E+02  0.00000000000E+00 0. -1.
</event>
<event>
 7    1  0.6067783E-006  0.1289273E+03  0.7818608E-02  0.1373011E+00
          2   -1    0    0  502    0  0.00000000000E+00  0.00000000000E+00  0.14301740185E+04  0.14301740185E+04  0.00000000000E+00 0. -1.
          1   -1    0    0  501    0 -0.00000000000E+00 -0.00000000000E+00 -0.13886151985E+04  0.13886151985E+04  0.00000000000E+00 0. -1.
         25    2    1    2    0    0 -0.10837341579E+03  0.11129947092E+03  0.36924625149E+02  0.20277112034E+03  0.12498131790E+03 0.  0.
          2    1    1    2  501    0  0.33260188735E+02 -0.76680893667E+01 -0.13023423580E+04  0.13027895675E+04  0.00000000000E+00 0. -1.
          1    1    1    2  502    0  0.75113227053E+02 -0.10363138156E+03  0.13069765528E+04  0.13132285291E+04  0.00000000000E+00 0. -1.
         22    1    3    3    0    0  0.67404180279E+01  0.18799646515E+02  0.50665730997E+02  0.54459858995E+02  0.00000000000E+00 0. -1.
         22    1    3    3    0    0 -0.11511383382E+03  0.92499824409E+02 -0.13741105847E+02  0.14831126134E+03  0.00000000000E+00 0. -1.
</event>
<event>
 7    1  0.6067783E-006  0.4932565E+02  0.7818608E-02  0.1465160E+00
          2   -1    0    0  502    0  0.00000000000E+00  0.00000000000E+00  0.44401540476E+03  0.44401540476E+03  0.00000000000E+00 0. -1.
          1   -1    0    0  501    0 -0.00000000000E+00 -0.00000000000E+00 -0.32825556205E+04  0.32825556205E+04  0.00000000000E+00 0. -1.
         25    2    1    2    0    0  0.22095042789E+02 -0.28591727481E+02  0.23586823810E+03  0.26937806360E+03  0.12500015042E+03 0.  0.
          2    1    1    2  501    0 -0.48976685089E+02 -0.60461198987E+01 -0.32631006143E+04  0.32634737459E+04  0.00000000000E+00 0. -1.
          1    1    1    2  502    0  0.26881642300E+02  0.34637847380E+02  0.18869216041E+03  0.19371921579E+03  0.00000000000E+00 0. -1.
         22    1    3    3    0    0  0.14271146525E+01 -0.18398612710E+02 -0.10968779701E+02  0.21467643886E+02  0.00000000000E+00 0.  1.
         22    1    3    3    0    0  0.20667928136E+02 -0.10193114771E+02  0.24683701780E+03  0.24791041971E+03  0.00000000000E+00 0.  1.
</event>
<event>
 7    1  0.6067783E-006  0.1268982E+03  0.7818608E-02  0.1306944E+00
          2   -1    0    0  502    0  0.00000000000E+00  0.00000000000E+00  0.15999470559E+04  0.15999470559E+04  0.00000000000E+00 0. -1.
          1   -1    0    0  501    0 -0.00000000000E+00 -0.00000000000E+00 -0.95983132030E+03  0.95983132030E+03  0.00000000000E+00 0. -1.
         25    2    1    2    0    0  0.81842261912E+02 -0.38516829982E+02  0.11343832558E+03  0.19150695998E+03  0.12499983993E+03 0.  0.
          2    1    1    2  501    0  0.48395383668E+02  0.37925572102E+02 -0.91683560990E+03  0.91889498734E+03  0.00000000000E+00 0. -1.
          1    1    1    2  502    0 -0.13023764558E+03  0.59125788016E+00  0.14435130199E+04  0.14493764288E+04  0.00000000000E+00 0. -1.
         22    1    3    3    0    0  0.64374525221E+02 -0.13931634546E+02 -0.80283073228E+01  0.66352269419E+02  0.00000000000E+00 0. -1.
         22    1    3    3    0    0  0.17467736691E+02 -0.24585195435E+02  0.12146663291E+03  0.12515469056E+03  0.00000000000E+00 0. -1.
</event>
<event>
 7    1  0.6067783E-006  0.7667264E+02  0.7818608E-02  0.1513702E+00
          2   -1    0    0  502    0  0.00000000000E+00  0.00000000000E+00  0.24883762339E+03  0.24883762339E+03  0.00000000000E+00 0. -1.
          1   -1    0    0  501    0 -0.00000000000E+00 -0.00000000000E+00 -0.29930479088E+04  0.29930479088E+04  0.00000000000E+00 0. -1.
         25    2    1    2    0    0 -0.45460566199E+02 -0.34442481126E+02 -0.14693737017E+03  0.20116746615E+03  0.12499924440E+03 0.  0.
          2    1    1    2  501    0  0.60084680708E+02  0.48241324818E+02 -0.28180119359E+04  0.28190652112E+04  0.00000000000E+00 0. -1.
          1    1    1    2  502    0 -0.14624114509E+02 -0.13798843691E+02  0.22073902065E+03  0.22165285482E+03  0.00000000000E+00 0. -1.
         22    1    3    3    0    0 -0.24712206046E+02 -0.26394364651E+02 -0.16720326523E+03  0.17106807860E+03  0.00000000000E+00 0. -1.
         22    1    3    3    0    0 -0.20748360153E+02 -0.80481164756E+01  0.20265895067E+02  0.30099387547E+02  0.00000000000E+00 0. -1.
</event>
<event>
 7    1  0.6067783E-006  0.7556143E+02  0.7818608E-02  0.1425814E+00
          2   -1    0    0  502    0  0.00000000000E+00  0.00000000000E+00  0.34715106458E+03  0.34715106458E+03  0.00000000000E+00 0. -1.
          1   -1    0    0  501    0 -0.00000000000E+00 -0.00000000000E+00 -0.37506874092E+03  0.37506874092E+03  0.00000000000E+00 0. -1.
         25    2    1    2    0    0  0.20422020789E+01 -0.11282309569E+03 -0.16280345297E+03  0.23422967082E+03  0.12500141152E+03 0.  0.
          2    1    1    2  501    0  0.24425810604E+01  0.38241556900E+02 -0.16990623846E+03  0.17417380039E+03  0.00000000000E+00 0. -1.
          1    1    1    2  502    0 -0.44847831394E+01  0.74581538790E+02  0.30479201509E+03  0.31381633429E+03  0.00000000000E+00 0. -1.
         22    1    3    3    0    0  0.34806720326E+02  0.87190192717E+00 -0.86999929458E+02  0.93708354582E+02  0.00000000000E+00 0. -1.
         22    1    3    3    0    0 -0.32764518247E+02 -0.11369499762E+03 -0.75803523514E+02  0.14052131623E+03  0.00000000000E+00 0. -1.
</event>
<event>
 7    1  0.6067783E-006  0.5421211E+02  0.7818608E-02  0.1433688E+00
          2   -1    0    0  502    0  0.00000000000E+00  0.00000000000E+00  0.33544707347E+03  0.33544707347E+03  0.00000000000E+00 0. -1.
          1   -1    0    0  501    0 -0.00000000000E+00 -0.00000000000E+00 -0.58043094379E+03  0.58043094379E+03  0.00000000000E+00 0. -1.
         25    2    1    2    0    0  0.16713631971E+02 -0.27121058964E+02  0.12732482109E+03  0.18125011577E+03  0.12500038828E+03 0.  0.
          2    1    1    2  501    0 -0.41400088359E+02 -0.28592912214E+02 -0.54715661956E+03  0.54946509287E+03  0.00000000000E+00 0. -1.
          1    1    1    2  502    0  0.24686456388E+02  0.55713971178E+02  0.17484792816E+03  0.18516280862E+03  0.00000000000E+00 0. -1.
         22    1    3    3    0    0 -0.36001471120E+02 -0.40960291366E+02  0.11210243103E+03  0.12466277084E+03  0.00000000000E+00 0. -1.
         22    1    3    3    0    0  0.52715103091E+02  0.13839232402E+02  0.15222390064E+02  0.56587344934E+02  0.00000000000E+00 0. -1.
</event>
<event>
 7    1  0.6067783E-006  0.9642037E+02  0.7818608E-02  0.1291245E+00
          2   -1    0    0  502    0  0.00000000000E+00  0.00000000000E+00  0.13618582442E+04  0.13618582442E+04  0.00000000000E+00 0. -1.
          1   -1    0    0  501    0 -0.00000000000E+00 -0.00000000000E+00 -0.52387670480E+02  0.52387670480E+02  0.00000000000E+00 0. -1.
         25    2    1    2    0    0 -0.10930005210E+03  0.48136893640E+02  0.50245866254E+03  0.53136896364E+03  0.12499842416E+03 0.  0.
          2    1    1    2  501    0  0.81083954399E+02  0.46638491539E+02  0.28038392412E+02  0.97651973882E+02  0.00000000000E+00 0. -1.
          1    1    1    2  502    0  0.28216097700E+02 -0.94775385180E+02  0.77897351875E+03  0.78522497713E+03  0.00000000000E+00 0. -1.
         22    1    3    3    0    0 -0.66995062137E+02  0.93664094905E+01  0.78849800251E+02  0.10389109190E+03  0.00000000000E+00 0. -1.
         22    1    3    3    0    0 -0.42304989962E+02  0.38770484150E+02  0.42360886228E+03  0.42747787174E+03  0.00000000000E+00 0. -1.
</event>
<event>
 7    1  0.6067783E-006  0.5750426E+02  0.7818608E-02  0.1456294E+00
          2   -1    0    0  502    0  0.00000000000E+00  0.00000000000E+00  0.85167541663E+03  0.85167541663E+03  0.00000000000E+00 0. -1.
          1   -1    0    0  501    0 -0.00000000000E+00 -0.00000000000E+00 -0.56292377405E+03  0.56292377405E+03  0.00000000000E+00 0. -1.
         25    2    1    2    0    0 -0.81373602909E+02 -0.45247673982E+02  0.53813359500E+02  0.16489415406E+03  0.12500075652E+03 0.  0.
          2    1    1    2  501    0  0.39536675850E+02  0.67489416323E+01 -0.50549922183E+03  0.50708792159E+03  0.00000000000E+00 0. -1.
          1    1    1    2  502    0  0.41836927059E+02  0.38498732350E+02  0.74043750491E+03  0.74261711503E+03  0.00000000000E+00 0. -1.
         22    1    3    3    0    0  0.30440911261E+02 -0.17330965838E+02 -0.52068612590E+01  0.35413597099E+02  0.00000000000E+00 0.  1.
         22    1    3    3    0    0 -0.11181451417E+03 -0.27916708144E+02  0.59020220759E+02  0.12948055696E+03  0.00000000000E+00 0.  1.
</event>
<event>
 7    1  0.6067783E-006  0.1210154E+03  0.7818608E-02  0.1405489E+00
          2   -1    0    0  502    0  0.00000000000E+00  0.00000000000E+00  0.13138851036E+04  0.13138851036E+04  0.00000000000E+00 0. -1.
          1   -1    0    0  501    0 -0.00000000000E+00 -0.00000000000E+00 -0.54629685592E+03  0.54629685592E+03  0.00000000000E+00 0. -1.
         25    2    1    2    0    0 -0.19487012815E+02 -0.14610407258E+03  0.47901319074E+02  0.19911799451E+03  0.12500918237E+03 0.  0.
          2    1    1    2  501    0  0.16075071375E+02  0.11831044375E+03 -0.46294835219E+03  0.47809721377E+03  0.00000000000E+00 0. -1.
          1    1    1    2  502    0  0.34119414403E+01  0.27793628830E+02  0.11826352808E+04  0.11829667513E+04  0.00000000000E+00 0. -1.
         22    1    3    3    0    0  0.12596985137E+02 -0.10819261234E+03 -0.24187600022E+02  0.11157672425E+03  0.00000000000E+00 0.  1.
         22    1    3    3    0    0 -0.32083997953E+02 -0.37911460238E+02  0.72088919095E+02  0.87541270258E+02  0.00000000000E+00 0.  1.
</event>
<event>
 7    1  0.6067783E-006  0.8230080E+02  0.7818608E-02  0.1376826E+00
          2   -1    0    0  502    0  0.00000000000E+00  0.00000000000E+00  0.36700965259E+03  0.36700965259E+03  0.00000000000E+00 0. -1.
          1   -1    0    0  501    0 -0.00000000000E+00 -0.00000000000E+00 -0.11240931209E+04  0.11240931209E+04  0.00000000000E+00 0. -1.
         25    2    1    2    0    0  0.82617566727E+02  0.10364430271E+03 -0.82438285785E+02  0.19997154611E+03  0.12499897789E+03 0.  0.
          2    1    1    2  501    0 -0.52814234274E+02 -0.61252614776E+02 -0.97903096429E+03  0.98236594770E+03  0.00000000000E+00 0. -1.
          1    1    1    2  502    0 -0.29803332453E+02 -0.42391687936E+02  0.30438578174E+03  0.30876527971E+03  0.00000000000E+00 0. -1.
         22    1    3    3    0    0  0.70931527189E+02  0.11273030185E+03 -0.18650623929E+02  0.13448884072E+03  0.00000000000E+00 0. -1.
         22    1    3    3    0    0  0.11686039538E+02 -0.90859991382E+01 -0.63787661857E+02  0.65482705393E+02  0.00000000000E+00 0. -1.
</event>
<event>
 7    1  0.6067783E-006  0.1452886E+03  0.7818608E-02  0.1371079E+00
          2   -1    0    0  502    0  0.00000000000E+00  0.00000000000E+00  0.36207380093E+03  0.36207380093E+03  0.00000000000E+00 0. -1.
          1   -1    0    0  501    0 -0.00000000000E+00 -0.00000000000E+00 -0.83068493470E+03  0.83068493470E+03  0.00000000000E+00 0. -1.
         25    2    1    2    0    0 -0.14662664575E+03  0.89440610701E+02 -0.61156864483E+03  0.64740884853E+03  0.12499205471E+03 0.  0.
          2    1    1    2  501    0  0.30629263487E+02 -0.29973672493E+01 -0.18466388074E+03  0.18721080322E+03  0.00000000000E+00 0. -1.
          1    1    1    2  502    0  0.11599738227E+03 -0.86443243452E+02  0.32762139180E+03  0.35813908387E+03  0.00000000000E+00 0. -1.
         22    1    3    3    0    0  0.78517803966E+01  0.44890761688E+02 -0.80121972611E+02  0.92175709573E+02  0.00000000000E+00 0.  1.
         22    1    3    3    0    0 -0.15447842615E+03  0.44549849013E+02 -0.53144667221E+03  0.55523313896E+03  0.00000000000E+00 0.  1.
</event>
<event>
 7    1  0.6067783E-006  0.9563931E+02  0.7818608E-02  0.1344807E+00
          2   -1    0    0  502    0  0.00000000000E+00  0.00000000000E+00  0.42215351341E+03  0.42215351341E+03  0.00000000000E+00 0. -1.
          1   -1    0    0  501    0 -0.00000000000E+00 -0.00000000000E+00 -0.44548200414E+03  0.44548200414E+03  0.00000000000E+00 0. -1.
         25    2    1    2    0    0  0.38899693035E+02  0.39746888385E+02 -0.22781044764E+01  0.13683100606E+03  0.12499813281E+03 0.  0.
          2    1    1    2  501    0  0.57310010414E+02 -0.10928821805E+02 -0.36646755312E+03  0.37108266455E+03  0.00000000000E+00 0. -1.
          1    1    1    2  502    0 -0.96209703450E+02 -0.28818066580E+02  0.34541716687E+03  0.35972184694E+03  0.00000000000E+00 0. -1.
         22    1    3    3    0    0 -0.21018759692E+02 -0.20286162773E+02 -0.35292728007E+02  0.45813680372E+02  0.00000000000E+00 0.  1.
         22    1    3    3    0    0  0.59918452728E+02  0.60033051159E+02  0.33014623530E+02  0.91017325689E+02  0.00000000000E+00 0.  1.
</event>
<event>
 7    1  0.6067783E-006  0.5894400E+02  0.7818608E-02  0.1407677E+00
          2   -1    0    0  502    0  0.00000000000E+00  0.00000000000E+00  0.18595641655E+04  0.18595641655E+04  0.00000000000E+00 0. -1.
          1   -1    0    0  501    0 -0.00000000000E+00 -0.00000000000E+00 -0.35499771363E+02  0.35499771363E+02  0.00000000000E+00 0. -1.
         25    2    1    2    0    0  0.39530411388E+02  0.91257717838E+01  0.63325185798E+03  0.64674495333E+03  0.12500074357E+03 0.  0.
          2    1    1    2  501    0 -0.38496394006E+02  0.47377360142E+02  0.50977735497E+01  0.61258255776E+02  0.00000000000E+00 0. -1.
          1    1    1    2  502    0 -0.10340173822E+01 -0.56503131926E+02  0.11857147626E+04  0.11870607278E+04  0.00000000000E+00 0. -1.
         22    1    3    3    0    0 -0.26031973593E+02  0.26015545454E+02  0.44800097455E+03  0.44951011719E+03  0.00000000000E+00 0.  1.
         22    1    3    3    0    0  0.65562384981E+02 -0.16889773670E+02  0.18525088343E+03  0.19723483615E+03  0.00000000000E+00 0.  1.
</event>
<event>
 7    1  0.6067783E-006  0.7789303E+02  0.7818608E-02  0.1482935E+00
          2   -1    0    0  502    0  0.00000000000E+00  0.00000000000E+00  0.16631945699E+03  0.16631945699E+03  0.00000000000E+00 0. -1.
          1   -1    0    0  501    0 -0.00000000000E+00 -0.00000000000E+00 -0.53137296436E+03  0.53137296436E+03  0.00000000000E+00 0. -1.
         25    2    1    2    0    0  0.54397077726E+02  0.45656543039E+01  0.28341616738E+02  0.13931369912E+03  0.12500068904E+03 0.  0.
          2    1    1    2  501    0 -0.78074605899E+02 -0.10715780822E+02 -0.47072268778E+03  0.47727384260E+03  0.00000000000E+00 0. -1.
          1    1    1    2  502    0  0.23677528173E+02  0.61501265177E+01  0.77327563664E+02  0.81104879624E+02  0.00000000000E+00 0. -1.
         22    1    3    3    0    0  0.67261164436E+02  0.45202589316E+02 -0.10412490865E+02  0.81705313708E+02  0.00000000000E+00 0.  1.
         22    1    3    3    0    0 -0.12864086710E+02 -0.40636935013E+02  0.38754107602E+02  0.57608385415E+02  0.00000000000E+00 0.  1.
</event>
<event>
 7    1  0.6067783E-006  0.4096569E+02  0.7818608E-02  0.1561132E+00
          2   -1    0    0  502    0  0.00000000000E+00  0.00000000000E+00  0.15007079064E+04  0.15007079064E+04  0.00000000000E+00 0. -1.
          1   -1    0    0  501    0 -0.00000000000E+00 -0.00000000000E+00 -0.37827982673E+03  0.37827982673E+03  0.00000000000E+00 0. -1.
         25    2    1    2    0    0  0.59234079287E+01 -0.17244985810E+02  0.48370371860E+02  0.13526698186E+03  0.12499994884E+03 0.  0.
          2    1    1    2  501    0  0.93303933684E+01  0.40252463599E+02 -0.33342090855E+03  0.33597145611E+03  0.00000000000E+00 0. -1.
          1    1    1    2  502    0 -0.15253801297E+02 -0.23007477789E+02  0.14074786164E+04  0.14077492952E+04  0.00000000000E+00 0. -1.
         22    1    3    3    0    0  0.51978694846E+02 -0.45238965753E+02  0.42719210147E+02  0.81075764911E+02  0.00000000000E+00 0. -1.
         22    1    3    3    0    0 -0.46055286917E+02  0.27993979942E+02  0.56511617124E+01  0.54191216952E+02  0.00000000000E+00 0. -1.
</event>
<event>
 7    1  0.6067783E-006  0.2152826E+03  0.7818608E-02  0.1272649E+00
          2   -1    0    0  502    0  0.00000000000E+00  0.00000000000E+00  0.43273126305E+04  0.43273126305E+04  0.00000000000E+00 0. -1.
          1   -1    0    0  501    0 -0.00000000000E+00 -0.00000000000E+00 -0.21592243309E+04  0.21592243309E+04  0.00000000000E+00 0. -1.
         25    2    1    2    0    0  0.24689059450E+02  0.16898947568E+03  0.10801053379E+04  0.11006455031E+04  0.12500395958E+03 0.  0.
          2    1    1    2  501    0 -0.61977592319E+01 -0.21541967241E+03 -0.21433574357E+04  0.21541646048E+04  0.00000000000E+00 0. -1.
          1    1    1    2  502    0 -0.18491300218E+02  0.46430196729E+02  0.32313403974E+04  0.32317268535E+04  0.00000000000E+00 0. -1.
         22    1    3    3    0    0 -0.12178393942E+02 -0.18104082817E+01  0.33886165963E+03  0.33908526247E+03  0.00000000000E+00 0. -1.
         22    1    3    3    0    0  0.36867453391E+02  0.17079988396E+03  0.74124367828E+03  0.76156024061E+03  0.00000000000E+00 0. -1.
</event>
<event>
 7    1  0.6067783E-006  0.1115968E+03  0.7818608E-02  0.1429319E+00
          2   -1    0    0  502    0  0.00000000000E+00  0.00000000000E+00  0.60320086218E+03  0.60320086218E+03  0.00000000000E+00 0. -1.
          1   -1    0    0  501    0 -0.00000000000E+00 -0.00000000000E+00 -0.61712915700E+02  0.61712915700E+02  0.00000000000E+00 0. -1.
         25    2    1    2    0    0  0.70223501508E+02  0.10635447138E+03  0.30754476194E+03  0.35560085493E+03  0.12500229474E+03 0.  0.
          2    1    1    2  501    0 -0.21366576345E+02 -0.13479456724E+02 -0.21487375668E+02  0.33165247645E+02  0.00000000000E+00 0. -1.
          1    1    1    2  502    0 -0.48856925164E+02 -0.92875014653E+02  0.25543056021E+03  0.27614767530E+03  0.00000000000E+00 0. -1.
         22    1    3    3    0    0  0.91027811656E+02  0.65014626264E+02  0.12709359496E+03  0.16930961580E+03  0.00000000000E+00 0.  1.
         22    1    3    3    0    0 -0.20804310148E+02  0.41339845112E+02  0.18045116697E+03  0.18629123913E+03  0.00000000000E+00 0.  1.
</event>
<event>
 7    1  0.6067783E-006  0.1586973E+03  0.7818608E-02  0.1330814E+00
          2   -1    0    0  502    0  0.00000000000E+00  0.00000000000E+00  0.23792835157E+04  0.23792835157E+04  0.00000000000E+00 0. -1.
          1   -1    0    0  501    0 -0.00000000000E+00 -0.00000000000E+00 -0.11604655901E+03  0.11604655901E+03  0.00000000000E+00 0. -1.
         25    2    1    2    0    0  0.18286648614E+03  0.42146722997E+02  0.32476504362E+03  0.39536409306E+03  0.12499573798E+03 0.  0.
          2    1    1    2  501    0 -0.14421521850E+03 -0.51245164952E+02 -0.78391097428E+01  0.15324995210E+03  0.00000000000E+00 0. -1.
          1    1    1    2  502    0 -0.38651267643E+02  0.90984419549E+01  0.19463110229E+04  0.19467160296E+04  0.00000000000E+00 0. -1.
         22    1    3    3    0    0  0.77640588686E+02  0.55500243797E+02  0.66940894626E+02  0.11657367390E+03  0.00000000000E+00 0.  1.
         22    1    3    3    0    0  0.10522589746E+03 -0.13353520800E+02  0.25782414899E+03  0.27879041916E+03  0.00000000000E+00 0.  1.
</event>
<event>
 7    1  0.6067783E-006  0.7662609E+02  0.7818608E-02  0.1427787E+00
          2   -1    0    0  502    0  0.00000000000E+00  0.00000000000E+00  0.18667431657E+04  0.18667431657E+04  0.00000000000E+00 0. -1.
          1   -1    0    0  501    0 -0.00000000000E+00 -0.00000000000E+00 -0.15442314159E+03  0.15442314159E+03  0.00000000000E+00 0. -1.
         25    2    1    2    0    0 -0.33005346339E+02  0.10839027538E+03  0.12131929001E+04  0.12248669593E+04  0.12499700219E+03 0.  0.
          2    1    1    2  501    0  0.25595217112E+02 -0.71911818242E+02 -0.13820399206E+03  0.15788213376E+03  0.00000000000E+00 0. -1.
          1    1    1    2  502    0  0.74101292268E+01 -0.36478457140E+02  0.63733111604E+03  0.63841721415E+03  0.00000000000E+00 0. -1.
         22    1    3    3    0    0 -0.14388838776E+02 -0.18827088508E+02  0.59701797490E+02  0.64232410562E+02  0.00000000000E+00 0.  1.
         22    1    3    3    0    0 -0.18616507562E+02  0.12721736389E+03  0.11534911026E+04  0.11606345488E+04  0.00000000000E+00 0.  1.
</event>
<event>
 7    1  0.6067783E-006  0.2020380E+03  0.7818608E-02  0.1269587E+00
          2   -1    0    0  502    0  0.00000000000E+00  0.00000000000E+00  0.10116384070E+04  0.10116384070E+04  0.00000000000E+00 0. -1.
          1   -1    0    0  501    0 -0.00000000000E+00 -0.00000000000E+00 -0.58459163725E+03  0.58459163725E+03  0.00000000000E+00 0. -1.
         25    2    1    2    0    0  0.47044238131E+02  0.24157792886E+03  0.74354434224E+03  0.79313186112E+03  0.12500761656E+03 0.  0.
          2    1    1    2  501    0 -0.10377030072E+02 -0.20078402270E+03 -0.53829664680E+03  0.57461742619E+03  0.00000000000E+00 0. -1.
          1    1    1    2  502    0 -0.36667208059E+02 -0.40793906154E+02  0.22179907427E+03  0.22848075690E+03  0.00000000000E+00 0. -1.
         22    1    3    3    0    0  0.26849784729E+02  0.19427726790E+03  0.69595353501E+03  0.72306008786E+03  0.00000000000E+00 0.  1.
         22    1    3    3    0    0  0.20194453403E+02  0.47300660956E+02  0.47590807222E+02  0.70071773255E+02  0.00000000000E+00 0.  1.
</event>
<event>
 7    1  0.6067783E-006  0.8394134E+02  0.7818608E-02  0.1354711E+00
          2   -1    0    0  502    0  0.00000000000E+00  0.00000000000E+00  0.55788496905E+03  0.55788496905E+03  0.00000000000E+00 0. -1.
          1   -1    0    0  501    0 -0.00000000000E+00 -0.00000000000E+00 -0.49716364192E+03  0.49716364192E+03  0.00000000000E+00 0. -1.
         25    2    1    2    0    0  0.39538560428E+02  0.14883869327E+02  0.46512347281E+02  0.13990552240E+03  0.12500131768E+03 0.  0.
          2    1    1    2  501    0  0.44894482281E+02 -0.41423614166E+02 -0.44414310880E+03  0.44832413658E+03  0.00000000000E+00 0. -1.
          1    1    1    2  502    0 -0.84433042709E+02  0.26539744839E+02  0.45835208865E+03  0.46681895198E+03  0.00000000000E+00 0. -1.
         22    1    3    3    0    0  0.34300299282E+02  0.48481035052E+02  0.74916139195E+02  0.95599943527E+02  0.00000000000E+00 0. -1.
         22    1    3    3    0    0  0.52382611461E+01 -0.33597165725E+02 -0.28403791914E+02  0.44305578878E+02  0.00000000000E+00 0. -1.
</event>
<event>
 7    1  0.6067783E-006  0.1583292E+03  0.7818608E-02  0.1225745E+00
          2   -1    0    0  502    0  0.00000000000E+00  0.00000000000E+00  0.17619797463E+04  0.17619797463E+04  0.00000000000E+00 0. -1.
          1   -1    0    0  501    0 -0.00000000000E+00 -0.00000000000E+00 -0.69498846806E+03  0.69498846806E+03  0.00000000000E+00 0. -1.
         25    2    1    2    0    0 -0.84918965519E+02  0.23537014097E+03 -0.26527258225E+03  0.38549361018E+03  0.12500178651E+03 0.  0.
          2    1    1    2  501    0 -0.80557398662E+01 -0.10835399165E+03 -0.35788331525E+03  0.37401330161E+03  0.00000000000E+00 0. -1.
          1    1    1    2  502    0  0.92974705385E+02 -0.12701614932E+03  0.16901471757E+04  0.16974613025E+04  0.00000000000E+00 0. -1.
         22    1    3    3    0    0 -0.80717634332E+02  0.24845825608E+03 -0.23159049681E+03  0.34911459397E+03  0.00000000000E+00 0. -1.
         22    1    3    3    0    0 -0.42013311865E+01 -0.13088115114E+02 -0.33682085441E+02  0.36379016213E+02  0.00000000000E+00 0. -1.
</event>
<event>
 7    1  0.6067783E-006  0.9856735E+02  0.7818608E-02  0.1303676E+00
          2   -1    0    0  502    0  0.00000000000E+00  0.00000000000E+00  0.48750107280E+03  0.48750107280E+03  0.00000000000E+00 0. -1.
          1   -1    0    0  501    0 -0.00000000000E+00 -0.00000000000E+00 -0.68986347048E+02  0.68986347048E+02  0.00000000000E+00 0. -1.
         25    2    1    2    0    0  0.41320831354E+02  0.20224698257E+02  0.17413713195E+03  0.21923900389E+03  0.12500220230E+03 0.  0.
          2    1    1    2  501    0 -0.80306639186E+02  0.70305019177E+02  0.46990394523E+02  0.11661924882E+03  0.00000000000E+00 0. -1.
          1    1    1    2  502    0  0.38985807832E+02 -0.90529717434E+02  0.19738719928E+03  0.22062916714E+03  0.00000000000E+00 0. -1.
         22    1    3    3    0    0 -0.43792069093E+01  0.53882029872E+02  0.24793526982E+02  0.59474108454E+02  0.00000000000E+00 0. -1.
         22    1    3    3    0    0  0.45700038263E+02 -0.33657331615E+02  0.14934360497E+03  0.15976489543E+03  0.00000000000E+00 0. -1.
</event>
<event>
 7    1  0.6067783E-006  0.7226543E+02  0.7818608E-02  0.1492044E+00
          2   -1    0    0  502    0  0.00000000000E+00  0.00000000000E+00  0.20818320120E+03  0.20818320120E+03  0.00000000000E+00 0. -1.
          1   -1    0    0  501    0 -0.00000000000E+00 -0.00000000000E+00 -0.47633934213E+04  0.47633934213E+04  0.00000000000E+00 0. -1.
         25    2    1    2    0    0 -0.91256676809E+01 -0.88599919987E+02  0.73748500716E+02  0.17028510108E+03  0.12499980264E+03 0.  0.
          2    1    1    2  501    0  0.23348248704E+02  0.68354872198E+02 -0.47130666048E+04  0.47136200898E+04  0.00000000000E+00 0. -1.
          1    1    1    2  502    0 -0.14222581023E+02  0.20245047789E+02  0.84107884014E+02  0.87671431631E+02  0.00000000000E+00 0. -1.
         22    1    3    3    0    0 -0.62183605896E+02 -0.46172251481E+02  0.11798558612E+02  0.78344646495E+02  0.00000000000E+00 0. -1.
         22    1    3    3    0    0  0.53057938215E+02 -0.42427668506E+02  0.61949942104E+02  0.91940454585E+02  0.00000000000E+00 0. -1.
</event>
<event>
 7    1  0.6067783E-006  0.1000311E+03  0.7818608E-02  0.1295323E+00
          2   -1    0    0  502    0  0.00000000000E+00  0.00000000000E+00  0.25420345412E+04  0.25420345412E+04  0.00000000000E+00 0. -1.
          1   -1    0    0  501    0 -0.00000000000E+00 -0.00000000000E+00 -0.47164924618E+02  0.47164924618E+02  0.00000000000E+00 0. -1.
         25    2    1    2    0    0 -0.39427197573E+02  0.21965037110E+02  0.67950793562E+03  0.69238106256E+03  0.12499413769E+03 0.  0.
          2    1    1    2  501    0 -0.78875855987E+02 -0.36240392714E+02  0.98289356313E+01  0.87357739768E+02  0.00000000000E+00 0. -1.
          1    1    1    2  502    0  0.11830305356E+03  0.14275355604E+02  0.18055327454E+04  0.18094606635E+04  0.00000000000E+00 0. -1.
         22    1    3    3    0    0  0.23655927711E+02 -0.13047490693E+02  0.36882583279E+02  0.45718321038E+02  0.00000000000E+00 0. -1.
         22    1    3    3    0    0 -0.63083125284E+02  0.35012527804E+02  0.64262535235E+03  0.64666274153E+03  0.00000000000E+00 0. -1.
</event>
<event>
 7    1  0.6067783E-006  0.5015306E+02  0.7818608E-02  0.1550798E+00
          2   -1    0    0  502    0  0.00000000000E+00  0.00000000000E+00  0.50788247717E+03  0.50788247717E+03  0.00000000000E+00 0. -1.
          1   -1    0    0  501    0 -0.00000000000E+00 -0.00000000000E+00 -0.10150442583E+03  0.10150442583E+03  0.00000000000E+00 0. -1.
         25    2    1    2    0    0  0.18191239916E+02 -0.56032933172E+01  0.46046284237E+03  0.47750743204E+03  0.12500000138E+03 0.  0.
          2    1    1    2  501    0 -0.67640109559E+01 -0.49694842413E+02 -0.56262405827E+02  0.75370999172E+02  0.00000000000E+00 0. -1.
          1    1    1    2  502    0 -0.11427228960E+02  0.55298135730E+02  0.21776147997E+01  0.56508471782E+02  0.00000000000E+00 0. -1.
         22    1    3    3    0    0 -0.45919928111E+02 -0.33062764684E+02  0.21629874402E+03  0.22357757686E+03  0.00000000000E+00 0. -1.
         22    1    3    3    0    0  0.64111168027E+02  0.27459471367E+02  0.24416409835E+03  0.25392985518E+03  0.00000000000E+00 0. -1.
</event>
<event>
 7    1  0.6067783E-006  0.1421673E+03  0.7818608E-02  0.1332782E+00
          2   -1    0    0  502    0  0.00000000000E+00  0.00000000000E+00  0.26567144508E+04  0.26567144508E+04  0.00000000000E+00 0. -1.
          1   -1    0    0  501    0 -0.00000000000E+00 -0.00000000000E+00 -0.21177221370E+02  0.21177221370E+02  0.00000000000E+00 0. -1.
         25    2    1    2    0    0 -0.28465094962E+02  0.12444620412E+03  0.79117027071E+03  0.81109559199E+03  0.12501417012E+03 0.  0.
          2    1    1    2  501    0  0.36921342576E+02  0.23126061070E+02  0.49861173098E+02  0.66212814628E+02  0.00000000000E+00 0. -1.
          1    1    1    2  502    0 -0.84562476138E+01 -0.14757226519E+03  0.17945057856E+04  0.18005832656E+04  0.00000000000E+00 0. -1.
         22    1    3    3    0    0 -0.60946117166E+01  0.10437373619E+03  0.27742675262E+03  0.29647364835E+03  0.00000000000E+00 0. -1.
         22    1    3    3    0    0 -0.22370483246E+02  0.20072467936E+02  0.51374351809E+03  0.51462194363E+03  0.00000000000E+00 0. -1.
</event>
<event>
 7    1  0.6067783E-006  0.7611656E+02  0.7818608E-02  0.1425817E+00
          2   -1    0    0  502    0  0.00000000000E+00  0.00000000000E+00  0.49915100247E+03  0.49915100247E+03  0.00000000000E+00 0. -1.
          1   -1    0    0  501    0 -0.00000000000E+00 -0.00000000000E+00 -0.49086091005E+03  0.49086091005E+03  0.00000000000E+00 0. -1.
         25    2    1    2    0    0  0.98399708221E+02  0.22043780669E+02 -0.63348939769E+02  0.17264592121E+03  0.12500038038E+03 0.  0.
          2    1    1    2  501    0 -0.74369542339E+02  0.74438440528E+01 -0.36828897273E+03  0.37579649689E+03  0.00000000000E+00 0. -1.
          1    1    1    2  502    0 -0.24030165882E+02 -0.29487624722E+02  0.43992800493E+03  0.44156949442E+03  0.00000000000E+00 0. -1.
         22    1    3    3    0    0  0.55090780307E+02 -0.51397237560E+02 -0.29801684322E+02  0.81023518142E+02  0.00000000000E+00 0. -1.
         22    1    3    3    0    0  0.43308927914E+02  0.73441018229E+02 -0.33547255447E+02  0.91622403066E+02  0.00000000000E+00 0. -1.
</event>
<event>
 7    1  0.6067783E-006  0.1493177E+03  0.7818608E-02  0.1235603E+00
          2   -1    0    0  502    0  0.00000000000E+00  0.00000000000E+00  0.64000728726E+03  0.64000728726E+03  0.00000000000E+00 0. -1.
          1   -1    0    0  501    0 -0.00000000000E+00 -0.00000000000E+00 -0.10624318524E+04  0.10624318524E+04  0.00000000000E+00 0. -1.
         25    2    1    2    0    0  0.15454393397E+03  0.33196151745E+02 -0.22649999682E+03  0.30317190747E+03  0.12500057961E+03 0.  0.
          2    1    1    2  501    0 -0.13682423270E+03  0.69357325373E+02 -0.78562117730E+03  0.80045733394E+03  0.00000000000E+00 0. -1.
          1    1    1    2  502    0 -0.17719701274E+02 -0.10255347712E+03  0.58969660903E+03  0.59880989820E+03  0.00000000000E+00 0. -1.
         22    1    3    3    0    0  0.15326477025E+03  0.19781009612E+02 -0.23911959638E+03  0.28470960558E+03  0.00000000000E+00 0. -1.
         22    1    3    3    0    0  0.12791637227E+01  0.13415142134E+02  0.12619599552E+02  0.18462301892E+02  0.00000000000E+00 0. -1.
</event>
<event>
 7    1  0.6067783E-006  0.1068630E+03  0.7818608E-02  0.1327259E+00
          2   -1    0    0  502    0  0.00000000000E+00  0.00000000000E+00  0.37196125269E+02  0.37196125269E+02  0.00000000000E+00 0. -1.
          1   -1    0    0  501    0 -0.00000000000E+00 -0.00000000000E+00 -0.16412722882E+04  0.16412722882E+04  0.00000000000E+00 0. -1.
         25    2    1    2    0    0 -0.38754691915E+02  0.15516630371E+03 -0.50310613510E+03  0.54251238870E+03  0.12500160303E+03 0.  0.
          2    1    1    2  501    0  0.34286526957E+02 -0.94486028499E+02 -0.10547970209E+04  0.10595753540E+04  0.00000000000E+00 0. -1.
          1    1    1    2  502    0  0.44681649578E+01 -0.60680275215E+02 -0.46173006936E+02  0.76380670774E+02  0.00000000000E+00 0. -1.
         22    1    3    3    0    0 -0.47769719435E+02  0.82315570904E+00 -0.10177198480E+03  0.11242846869E+03  0.00000000000E+00 0.  1.
         22    1    3    3    0    0  0.90150275205E+01  0.15434314801E+03 -0.40133415030E+03  0.43008392002E+03  0.00000000000E+00 0.  1.
</event>
<event>
 7    1  0.6067783E-006  0.4353593E+02  0.7818608E-02  0.1547137E+00
          2   -1    0    0  502    0  0.00000000000E+00  0.00000000000E+00  0.17349584625E+04  0.17349584625E+04  0.00000000000E+00 0. -1.
          1   -1    0    0  501    0 -0.00000000000E+00 -0.00000000000E+00 -0.83821657112E+03  0.83821657112E+03  0.00000000000E+00 0. -1.
         25    2    1    2    0    0 -0.69487351777E-01 -0.15509697490E+02 -0.17171919947E+02  0.12712181551E+03  0.12499810238E+03 0.  0.
          2    1    1    2  501    0  0.63791772126E+01 -0.27678577510E+02 -0.76552277951E+03  0.76604955682E+03  0.00000000000E+00 0. -1.
          1    1    1    2  502    0 -0.63096898608E+01  0.43188275000E+02  0.16794365909E+04  0.16800036613E+04  0.00000000000E+00 0. -1.
         22    1    3    3    0    0 -0.13478238652E+02 -0.69231156322E+02 -0.77354128465E+01  0.70953876108E+02  0.00000000000E+00 0. -1.
         22    1    3    3    0    0  0.13408751300E+02  0.53721458832E+02 -0.94365071003E+01  0.56167939402E+02  0.00000000000E+00 0. -1.
</event>
<event>
 7    1  0.6067783E-006  0.1058250E+03  0.7818608E-02  0.1269386E+00
          2   -1    0    0  502    0  0.00000000000E+00  0.00000000000E+00  0.18159366946E+04  0.18159366946E+04  0.00000000000E+00 0. -1.
          1   -1    0    0  501    0 -0.00000000000E+00 -0.00000000000E+00 -0.70547223408E+03  0.70547223408E+03  0.00000000000E+00 0. -1.
         25    2    1    2    0    0  0.10805453527E+03 -0.17748892171E+03 -0.28313173360E+03  0.37278658311E+03  0.12501263157E+03 0.  0.
          2    1    1    2  501    0 -0.67660941593E+02  0.80193212221E+02 -0.36861907619E+03  0.38326097849E+03  0.00000000000E+00 0. -1.
          1    1    1    2  502    0 -0.40393593680E+02  0.97295709486E+02  0.17622152703E+04  0.17653613671E+04  0.00000000000E+00 0. -1.
         22    1    3    3    0    0  0.11754986739E+03 -0.18124302102E+03 -0.28914885511E+03  0.36093498639E+03  0.00000000000E+00 0. -1.
         22    1    3    3    0    0 -0.94953321135E+01  0.37540993145E+01  0.60171215044E+01  0.11851596720E+02  0.00000000000E+00 0. -1.
</event>
<event>
 7    1  0.6067783E-006  0.6474269E+02  0.7818608E-02  0.1468456E+00
          2   -1    0    0  502    0  0.00000000000E+00  0.00000000000E+00  0.30858843970E+03  0.30858843970E+03  0.00000000000E+00 0. -1.
          1   -1    0    0  501    0 -0.00000000000E+00 -0.00000000000E+00 -0.59931745537E+03  0.59931745537E+03  0.00000000000E+00 0. -1.
         25    2    1    2    0    0  0.88672458034E+02  0.26340191195E+02 -0.29016820309E+03  0.32920934021E+03  0.12499837243E+03 0.  0.
          2    1    1    2  501    0 -0.56468187640E+02 -0.21137480681E+02 -0.28555005247E+03  0.29184633246E+03  0.00000000000E+00 0. -1.
          1    1    1    2  502    0 -0.32204270394E+02 -0.52027105140E+01  0.28498923990E+03  0.28685022239E+03  0.00000000000E+00 0. -1.
         22    1    3    3    0    0  0.55098360694E+02 -0.17808609127E+01 -0.25143405801E+02  0.60590359563E+02  0.00000000000E+00 0. -1.
         22    1    3    3    0    0  0.33574097340E+02  0.28121052108E+02 -0.26502479729E+03  0.26861898065E+03  0.00000000000E+00 0. -1.
</event>
<event>
 7    1  0.6067783E-006  0.9951795E+02  0.7818608E-02  0.1426000E+00
          2   -1    0    0  502    0  0.00000000000E+00  0.00000000000E+00  0.66514053157E+03  0.66514053157E+03  0.00000000000E+00 0. -1.
          1   -1    0    0  501    0 -0.00000000000E+00 -0.00000000000E+00 -0.18098725918E+03  0.18098725918E+03  0.00000000000E+00 0. -1.
         25    2    1    2    0    0 -0.12009540366E+01 -0.72016224309E+02 -0.75312567365E+01  0.14446337306E+03  0.12500066989E+03 0.  0.
          2    1    1    2  501    0 -0.12964210098E+01 -0.29024793914E+02 -0.98598926074E+02  0.10279040613E+03  0.00000000000E+00 0. -1.
          1    1    1    2  502    0  0.24973750463E+01  0.10104101822E+03  0.59028345520E+03  0.59887401157E+03  0.00000000000E+00 0. -1.
         22    1    3    3    0    0  0.14551776581E+01 -0.69399211645E+02 -0.60066985269E+02  0.91795483758E+02  0.00000000000E+00 0. -1.
         22    1    3    3    0    0 -0.26561316947E+01 -0.26170126632E+01  0.52535728533E+02  0.52667889300E+02  0.00000000000E+00 0. -1.
</event>
<event>
 7    1  0.6067783E-006  0.6439417E+02  0.7818608E-02  0.1389341E+00
          2   -1    0    0  502    0  0.00000000000E+00  0.00000000000E+00  0.18487131302E+03  0.18487131302E+03  0.00000000000E+00 0. -1.
          1   -1    0    0  501    0 -0.00000000000E+00 -0.00000000000E+00 -0.52122226321E+03  0.52122226321E+03  0.00000000000E+00 0. -1.
         25    2    1    2    0    0  0.10480431080E+03 -0.42514920318E+02 -0.21542978097E+03  0.27354533492E+03  0.12500239085E+03 0.  0.
          2    1    1    2  501    0 -0.59797846718E+02 -0.20091338156E+01 -0.26685166480E+03  0.27347692791E+03  0.00000000000E+00 0. -1.
          1    1    1    2  502    0 -0.45006464079E+02  0.44524054134E+02  0.14593049558E+03  0.15907131340E+03  0.00000000000E+00 0. -1.
         22    1    3    3    0    0  0.11464052933E+03 -0.65425593911E+02 -0.13281661699E+03  0.18725173712E+03  0.00000000000E+00 0. -1.
         22    1    3    3    0    0 -0.98362185344E+01  0.22910673593E+02 -0.82613163982E+02  0.86293597808E+02  0.00000000000E+00 0. -1.
</event>
<event>
 7    1  0.6067783E-006  0.6794178E+02  0.7818608E-02  0.1391245E+00
          2   -1    0    0  502    0  0.00000000000E+00  0.00000000000E+00  0.42756681690E+04  0.42756681690E+04  0.00000000000E+00 0. -1.
          1   -1    0    0  501    0 -0.00000000000E+00 -0.00000000000E+00 -0.36433910011E+02  0.36433910011E+02  0.00000000000E+00 0. -1.
         25    2    1    2    0    0 -0.57961062561E+02  0.35494658085E+02  0.35572194236E+03  0.38312146115E+03  0.12499839274E+03 0.  0.
          2    1    1    2  501    0 -0.75347417592E+01 -0.55335928905E+02  0.12327503116E+02  0.57190949408E+02  0.00000000000E+00 0. -1.
          1    1    1    2  502    0  0.65495804320E+02  0.19841270820E+02  0.38711848135E+04  0.38717896684E+04  0.00000000000E+00 0. -1.
         22    1    3    3    0    0 -0.31252873264E+02  0.54754245870E+02  0.34147018953E+03  0.34724150078E+03  0.00000000000E+00 0.  1.
         22    1    3    3    0    0 -0.26708189296E+02 -0.19259587785E+02  0.14251752838E+02  0.35879960369E+02  0.00000000000E+00 0.  1.
</event>
<event>
 7    1  0.6067783E-006  0.7663053E+02  0.7818608E-02  0.1435238E+00
          2   -1    0    0  502    0  0.00000000000E+00  0.00000000000E+00  0.77732746284E+02  0.77732746284E+02  0.00000000000E+00 0. -1.
          1   -1    0    0  501    0 -0.00000000000E+00 -0.00000000000E+00 -0.14588294334E+04  0.14588294334E+04  0.00000000000E+00 0. -1.
         25    2    1    2    0    0  0.99761927196E+02  0.66223102258E+01 -0.57303775795E+03  0.59497409147E+03  0.12500240145E+03 0.  0.
          2    1    1    2  501    0 -0.25833337437E+02 -0.23882480234E+02 -0.85276205548E+03  0.85348746766E+03  0.00000000000E+00 0. -1.
          1    1    1    2  502    0 -0.73928589759E+02  0.17260170009E+02  0.44703126269E+02  0.88100620604E+02  0.00000000000E+00 0. -1.
         22    1    3    3    0    0  0.11160497195E+03 -0.16661150873E+02 -0.29718210637E+03  0.31788436272E+03  0.00000000000E+00 0.  1.
         22    1    3    3    0    0 -0.11843044758E+02  0.23283461099E+02 -0.27585565158E+03  0.27708972875E+03  0.00000000000E+00 0.  1.
</event>
<event>
 7    1  0.6067783E-006  0.6795706E+02  0.7818608E-02  0.1508366E+00
          2   -1    0    0  502    0  0.00000000000E+00  0.00000000000E+00  0.10587812779E+04  0.10587812779E+04  0.00000000000E+00 0. -1.
          1   -1    0    0  501    0 -0.00000000000E+00 -0.00000000000E+00 -0.10341785268E+03  0.10341785268E+03  0.00000000000E+00 0. -1.
         25    2    1    2    0    0  0.55469325269E+02 -0.47334991980E+02  0.13710904727E+03  0.19935141775E+03  0.12499859761E+03 0.  0.
          2    1    1    2  501    0 -0.63021670566E+02  0.25060901048E+02 -0.56197764597E+02  0.88079330538E+02  0.00000000000E+00 0. -1.
          1    1    1    2  502    0  0.75523452974E+01  0.22274090932E+02  0.87445214254E+03  0.87476838228E+03  0.00000000000E+00 0. -1.
         22    1    3    3    0    0 -0.30421839376E+02  0.19026797215E+02  0.39665691582E+02  0.53487142492E+02  0.00000000000E+00 0.  1.
         22    1    3    3    0    0  0.85891164645E+02 -0.66361789195E+02  0.97443355689E+02  0.14586427526E+03  0.00000000000E+00 0.  1.
</event>
<event>
 7    1  0.6067783E-006  0.5924631E+02  0.7818608E-02  0.1456110E+00
          2   -1    0    0  502    0  0.00000000000E+00  0.00000000000E+00  0.25018759432E+04  0.25018759432E+04  0.00000000000E+00 0. -1.
          1   -1    0    0  501    0 -0.00000000000E+00 -0.00000000000E+00 -0.60321941764E+02  0.60321941764E+02  0.00000000000E+00 0. -1.
         25    2    1    2    0    0  0.96766744288E+02  0.58314407512E+01  0.15974969754E+04  0.16053101307E+04  0.12500488352E+03 0.  0.
          2    1    1    2  501    0 -0.58017845798E+02 -0.10083437047E+02 -0.40501253012E+02  0.71470956543E+02  0.00000000000E+00 0. -1.
          1    1    1    2  502    0 -0.38748898490E+02  0.42519962956E+01  0.88455827906E+03  0.88541679771E+03  0.00000000000E+00 0. -1.
         22    1    3    3    0    0  0.11720065043E+03  0.48039370452E+01  0.91258448346E+03  0.92009212024E+03  0.00000000000E+00 0. -1.
         22    1    3    3    0    0 -0.20433906139E+02  0.10275037060E+01  0.68491249196E+03  0.68521801051E+03  0.00000000000E+00 0. -1.
</event>
<event>
 7    1  0.7064499E-006  0.1221048E+03  0.7818608E-02  0.1311375E+00
          2   -1    0    0  502    0  0.00000000000E+00  0.00000000000E+00  0.11663987402E+04  0.11663987402E+04  0.00000000000E+00 0. -1.
          1   -1    0    0  501    0 -0.00000000000E+00 -0.00000000000E+00 -0.93458285575E+03  0.93458285575E+03  0.00000000000E+00 0. -1.
         25    2    1    2    0    0 -0.65214373366E+02 -0.22805516465E+02 -0.23083710064E+03  0.27144359994E+03  0.12499141908E+03 0.  0.
          2    1    1    2  501    0 -0.31888664265E+02 -0.52443482438E+02 -0.67876190131E+03  0.68153130847E+03  0.00000000000E+00 0. -1.
          1    1    1    2  502    0  0.97103037630E+02  0.75248998902E+02  0.11414148864E+04  0.11480066875E+04  0.00000000000E+00 0. -1.
         22    1    3    3    0    0  0.14943582988E+02  0.21949818664E+02 -0.41556764328E+01  0.26877032174E+02  0.00000000000E+00 0. -1.
         22    1    3    3    0    0 -0.80157956353E+02 -0.44755335129E+02 -0.22668142420E+03  0.24456656776E+03  0.00000000000E+00 0. -1.
</event>
<event>
 7    1  0.6067783E-006  0.4353339E+02  0.7818608E-02  0.1492296E+00
          2   -1    0    0  502    0  0.00000000000E+00  0.00000000000E+00  0.81398289634E+03  0.81398289634E+03  0.00000000000E+00 0. -1.
          1   -1    0    0  501    0 -0.00000000000E+00 -0.00000000000E+00 -0.58867144365E+03  0.58867144365E+03  0.00000000000E+00 0. -1.
         25    2    1    2    0    0 -0.15537993636E+02  0.39981579259E+01 -0.16588629163E+03  0.20832908137E+03  0.12500131952E+03 0.  0.
          2    1    1    2  501    0 -0.92314897763E+01 -0.39946524852E+02 -0.39991388692E+03  0.40201002749E+03  0.00000000000E+00 0. -1.
          1    1    1    2  502    0  0.24769483412E+02  0.35948366926E+02  0.79111163124E+03  0.79231523113E+03  0.00000000000E+00 0. -1.
         22    1    3    3    0    0  0.17877823906E+02  0.25913357717E+02 -0.16539537194E+03  0.16836492436E+03  0.00000000000E+00 0. -1.
         22    1    3    3    0    0 -0.33415817542E+02 -0.21915199791E+02 -0.49091969468E+00  0.39964157016E+02  0.00000000000E+00 0. -1.
</event>
<event>
 7    1  0.6067783E-006  0.8623196E+02  0.7818608E-02  0.1385850E+00
          2   -1    0    0  502    0  0.00000000000E+00  0.00000000000E+00  0.70230791219E+03  0.70230791219E+03  0.00000000000E+00 0. -1.
          1   -1    0    0  501    0 -0.00000000000E+00 -0.00000000000E+00 -0.53159770280E+03  0.53159770280E+03  0.00000000000E+00 0. -1.
         25    2    1    2    0    0 -0.21736305349E+02  0.55681822466E+02 -0.19981761763E+03  0.24315563368E+03  0.12499859820E+03 0.  0.
          2    1    1    2  501    0  0.74014571980E+00 -0.96559927185E+02 -0.30179068417E+03  0.31686272171E+03  0.00000000000E+00 0. -1.
          1    1    1    2  502    0  0.20996159629E+02  0.40878104719E+02  0.67231851119E+03  0.67388725961E+03  0.00000000000E+00 0. -1.
         22    1    3    3    0    0 -0.32368354503E+00  0.57462065699E+02 -0.21117401909E+03  0.21885259904E+03  0.00000000000E+00 0. -1.
         22    1    3    3    0    0 -0.21412621804E+02 -0.17802432324E+01  0.11356401466E+02  0.24303034641E+02  0.00000000000E+00 0. -1.
</event>
<event>
 7    1  0.6067783E-006  0.3559834E+02  0.7818608E-02  0.1573897E+00
          2   -1    0    0  502    0  0.00000000000E+00  0.00000000000E+00  0.83809254700E+03  0.83809254700E+03  0.00000000000E+00 0. -1.
          1   -1    0    0  501    0 -0.00000000000E+00 -0.00000000000E+00 -0.29788379667E+03  0.29788379667E+03  0.00000000000E+00 0. -1.
         25    2    1    2    0    0 -0.68895341618E+01 -0.93489675057E+00  0.95763406375E+02  0.15758748450E+03  0.12495937563E+03 0.  0.
          2    1    1    2  501    0 -0.26610325190E+02 -0.12313405785E+02 -0.26570873884E+03  0.26732164758E+03  0.00000000000E+00 0. -1.
          1    1    1    2  502    0  0.33499859352E+02  0.13248302536E+02  0.71015408279E+03  0.71106721159E+03  0.00000000000E+00 0. -1.
         22    1    3    3    0    0  0.37126110989E+01  0.49090870228E+02  0.94360660862E+02  0.10643134566E+03  0.00000000000E+00 0.  1.
         22    1    3    3    0    0 -0.10602145261E+02 -0.50025766979E+02  0.14027455134E+01  0.51156138839E+02  0.00000000000E+00 0.  1.
</event>
<event>
 7    1  0.6067783E-006  0.4688740E+03  0.7818608E-02  0.1244910E+00
          2   -1    0    0  502    0  0.00000000000E+00  0.00000000000E+00  0.80401285404E+03  0.80401285404E+03  0.00000000000E+00 0. -1.
          1   -1    0    0  501    0 -0.00000000000E+00 -0.00000000000E+00 -0.87632317455E+03  0.87632317455E+03  0.00000000000E+00 0. -1.
         25    2    1    2    0    0  0.46988451170E+03 -0.74914257820E+02  0.54079903978E+02  0.49492760187E+03  0.12500037889E+03 0.  0.
          2    1    1    2  501    0 -0.15055793527E+02 -0.26127697930E+02 -0.55291838092E+03  0.55374007393E+03  0.00000000000E+00 0. -1.
          1    1    1    2  502    0 -0.45482871817E+03  0.10104195575E+03  0.42652815643E+03  0.63166835279E+03  0.00000000000E+00 0. -1.
         22    1    3    3    0    0  0.77203495949E+02 -0.44766238462E+02  0.47364757133E+02  0.10103373749E+03  0.00000000000E+00 0. -1.
         22    1    3    3    0    0  0.39268101575E+03 -0.30148019358E+02  0.67151468451E+01  0.39389386438E+03  0.00000000000E+00 0. -1.
</event>
<event>
 7    1  0.6067783E-006  0.1053747E+03  0.7818608E-02  0.1430586E+00
          2   -1    0    0  502    0  0.00000000000E+00  0.00000000000E+00  0.71564433214E+03  0.71564433214E+03  0.00000000000E+00 0. -1.
          1   -1    0    0  501    0 -0.00000000000E+00 -0.00000000000E+00 -0.83972789030E+03  0.83972789030E+03  0.00000000000E+00 0. -1.
         25    2    1    2    0    0 -0.92204113345E+02  0.11084656704E+02  0.19908738541E+03  0.25275423045E+03  0.12499778338E+03 0.  0.
          2    1    1    2  501    0 -0.15900081033E+02 -0.21198774932E+02 -0.80665612888E+03  0.80709126553E+03  0.00000000000E+00 0. -1.
          1    1    1    2  502    0  0.10810419438E+03  0.10114118228E+02  0.48348518530E+03  0.49552672646E+03  0.00000000000E+00 0. -1.
         22    1    3    3    0    0 -0.18844299605E+02 -0.43377456024E+02  0.12961968202E+03  0.13797816235E+03  0.00000000000E+00 0.  1.
         22    1    3    3    0    0 -0.73359813740E+02  0.54462112728E+02  0.69467703392E+02  0.11477606810E+03  0.00000000000E+00 0.  1.
</event>
<event>
 7    1  0.6067783E-006  0.3306503E+02  0.7818608E-02  0.1606048E+00
          2   -1    0    0  502    0  0.00000000000E+00  0.00000000000E+00  0.57184377228E+03  0.57184377228E+03  0.00000000000E+00 0. -1.
          1   -1    0    0  501    0 -0.00000000000E+00 -0.00000000000E+00 -0.44109190932E+03  0.44109190932E+03  0.00000000000E+00 0. -1.
         25    2    1    2    0    0  0.41473774673E+01  0.14233304297E+02  0.59137700669E+02  0.13907567552E+03  0.12499995276E+03 0.  0.
          2    1    1    2  501    0 -0.21743283326E+02  0.14163826313E+02 -0.40011190382E+03  0.40095251579E+03  0.00000000000E+00 0. -1.
          1    1    1    2  502    0  0.17595905859E+02 -0.28397130610E+02  0.47172606610E+03  0.47290749029E+03  0.00000000000E+00 0. -1.
         22    1    3    3    0    0  0.40331593176E+02  0.37302302595E+02 -0.11779436153E+02  0.56185890604E+02  0.00000000000E+00 0. -1.
         22    1    3    3    0    0 -0.36184215708E+02 -0.23068998298E+02  0.70917136822E+02  0.82889784919E+02  0.00000000000E+00 0. -1.
</event>
<event>
 7    1  0.6067783E-006  0.5517444E+02  0.7818608E-02  0.1441155E+00
          2   -1    0    0  502    0  0.00000000000E+00  0.00000000000E+00  0.35977776033E+03  0.35977776033E+03  0.00000000000E+00 0. -1.
          1   -1    0    0  501    0 -0.00000000000E+00 -0.00000000000E+00 -0.41078347194E+03  0.41078347194E+03  0.00000000000E+00 0. -1.
         25    2    1    2    0    0  0.10312396666E+02  0.61297914896E+02  0.72833151959E+02  0.15745933333E+03  0.12499997494E+03 0.  0.
          2    1    1    2  501    0  0.36003209399E+02 -0.29812050843E+02 -0.36374977604E+03  0.36674090177E+03  0.00000000000E+00 0. -1.
          1    1    1    2  502    0 -0.46315606066E+02 -0.31485864053E+02  0.23991091247E+03  0.24636099716E+03  0.00000000000E+00 0. -1.
         22    1    3    3    0    0  0.42036043350E+01  0.83050259040E+02  0.20760433876E+01  0.83182484767E+02  0.00000000000E+00 0.  1.
         22    1    3    3    0    0  0.61087923314E+01 -0.21752344143E+02  0.70757108572E+02  0.74276848566E+02  0.00000000000E+00 0.  1.
</event>
<event>
 7    1  0.6067783E-006  0.7946477E+02  0.7818608E-02  0.1402182E+00
          2   -1    0    0  502    0  0.00000000000E+00  0.00000000000E+00  0.53047171173E+03  0.53047171173E+03  0.00000000000E+00 0. -1.
          1   -1    0    0  501    0 -0.00000000000E+00 -0.00000000000E+00 -0.23088870329E+04  0.23088870329E+04  0.00000000000E+00 0. -1.
         25    2    1    2    0    0 -0.82148715059E+01 -0.10041728081E+03 -0.20162723455E+03  0.25774097874E+03  0.12500302401E+03 0.  0.
          2    1    1    2  501    0  0.38707839065E+02  0.69017694484E+02 -0.20774949742E+04  0.20790014686E+04  0.00000000000E+00 0. -1.
          1    1    1    2  502    0 -0.30492967559E+02  0.31399586321E+02  0.50070688751E+03  0.50261629728E+03  0.00000000000E+00 0. -1.
         22    1    3    3    0    0  0.25710842835E+01  0.84563216981E+01  0.13647803829E+02  0.16259840110E+02  0.00000000000E+00 0. -1.
         22    1    3    3    0    0 -0.10785955789E+02 -0.10887360250E+03 -0.21527503838E+03  0.24148113863E+03  0.00000000000E+00 0. -1.
</event>
<event>
 7    1  0.6067783E-006  0.1294266E+03  0.7818608E-02  0.1302800E+00
          2   -1    0    0  502    0  0.00000000000E+00  0.00000000000E+00  0.34052688023E+03  0.34052688023E+03  0.00000000000E+00 0. -1.
          1   -1    0    0  501    0 -0.00000000000E+00 -0.00000000000E+00 -0.16639658926E+03  0.16639658926E+03  0.00000000000E+00 0. -1.
         25    2    1    2    0    0  0.14085851861E+03 -0.25900157096E+02  0.76170633886E+02  0.20479235793E+03  0.12500401592E+03 0.  0.
          2    1    1    2  501    0 -0.17208101703E+02  0.60202633471E+02 -0.67942541848E+02  0.92394073585E+02  0.00000000000E+00 0. -1.
          1    1    1    2  502    0 -0.12365041691E+03 -0.34302476374E+02  0.16590219893E+03  0.20973703797E+03  0.00000000000E+00 0. -1.
         22    1    3    3    0    0 -0.13341221232E+02  0.13313102359E+02  0.36088422329E+02  0.40713647645E+02  0.00000000000E+00 0. -1.
         22    1    3    3    0    0  0.15419973985E+03 -0.39213259455E+02  0.40082211557E+02  0.16407871029E+03  0.00000000000E+00 0. -1.
</event>
<event>
 7    1  0.6067783E-006  0.7268304E+02  0.7818608E-02  0.1481608E+00
          2   -1    0    0  502    0  0.00000000000E+00  0.00000000000E+00  0.35213005544E+03  0.35213005544E+03  0.00000000000E+00 0. -1.
          1   -1    0    0  501    0 -0.00000000000E+00 -0.00000000000E+00 -0.12047336132E+04  0.12047336132E+04  0.00000000000E+00 0. -1.
         25    2    1    2    0    0 -0.10396052798E+02  0.98181961632E+02 -0.75561835188E+03  0.77222523302E+03  0.12499976525E+03 0.  0.
          2    1    1    2  501    0  0.60660600162E+01 -0.25758386317E+02 -0.43657925813E+03  0.43738054390E+03  0.00000000000E+00 0. -1.
          1    1    1    2  502    0  0.43299927821E+01 -0.72423575316E+02  0.33959405221E+03  0.34725789177E+03  0.00000000000E+00 0. -1.
         22    1    3    3    0    0  0.41323826668E+02  0.66150759798E+02 -0.60147722744E+03  0.60651334429E+03  0.00000000000E+00 0.  1.
         22    1    3    3    0    0 -0.51719879467E+02  0.32031201834E+02 -0.15414112444E+03  0.16571188873E+03  0.00000000000E+00 0.  1.
</event>
<event>
 7    1  0.6067783E-006  0.6973622E+02  0.7818608E-02  0.1433563E+00
          2   -1    0    0  502    0  0.00000000000E+00  0.00000000000E+00  0.62189115083E+03  0.62189115083E+03  0.00000000000E+00 0. -1.
          1   -1    0    0  501    0 -0.00000000000E+00 -0.00000000000E+00 -0.16835212609E+03  0.16835212609E+03  0.00000000000E+00 0. -1.
         25    2    1    2    0    0  0.35580608596E+02 -0.60691460864E+02  0.29192313772E+03  0.32525928300E+03  0.12500019885E+03 0.  0.
          2    1    1    2  501    0  0.27966603480E+02  0.27397564551E+02 -0.14494571243E+03  0.15013999136E+03  0.00000000000E+00 0. -1.
          1    1    1    2  502    0 -0.63547212076E+02  0.33293896313E+02  0.30656159945E+03  0.31484400256E+03  0.00000000000E+00 0. -1.
         22    1    3    3    0    0  0.55342854229E+02 -0.63486146905E+02  0.93518277975E+02  0.12585305192E+03  0.00000000000E+00 0.  1.
         22    1    3    3    0    0 -0.19762245633E+02  0.27946860413E+01  0.19840485975E+03  0.19940623108E+03  0.00000000000E+00 0.  1.
</event>
<event>
 7    1  0.6067783E-006  0.1649452E+03  0.7818608E-02  0.1288238E+00
          2   -1    0    0  502    0  0.00000000000E+00  0.00000000000E+00  0.81735868611E+02  0.81735868611E+02  0.00000000000E+00 0. -1.
          1   -1    0    0  501    0 -0.00000000000E+00 -0.00000000000E+00 -0.10459203891E+04  0.10459203891E+04  0.00000000000E+00 0. -1.
         25    2    1    2    0    0 -0.57117490574E+02 -0.11186087920E+03 -0.43817864337E+03  0.47265265901E+03  0.12499899412E+03 0.  0.
          2    1    1    2  501    0 -0.48014232800E+02 -0.29288684649E+02 -0.46551276974E+03  0.46889799785E+03  0.00000000000E+00 0. -1.
          1    1    1    2  502    0  0.10513172337E+03  0.14114956385E+03 -0.60493107403E+02  0.18610560088E+03  0.00000000000E+00 0. -1.
         22    1    3    3    0    0 -0.78505433822E+02 -0.98463539754E+02 -0.22382659797E+03  0.25682001044E+03  0.00000000000E+00 0. -1.
         22    1    3    3    0    0  0.21387943249E+02 -0.13397339449E+02 -0.21435204540E+03  0.21583264857E+03  0.00000000000E+00 0. -1.
</event>
<event>
 7    1  0.6067783E-006  0.6395025E+02  0.7818608E-02  0.1423875E+00
          2   -1    0    0  502    0  0.00000000000E+00  0.00000000000E+00  0.24178085938E+04  0.24178085938E+04  0.00000000000E+00 0. -1.
          1   -1    0    0  501    0 -0.00000000000E+00 -0.00000000000E+00 -0.52839230457E+02  0.52839230457E+02  0.00000000000E+00 0. -1.
         25    2    1    2    0    0 -0.17185494352E+02  0.10669463251E+03  0.57242027530E+03  0.59579262200E+03  0.12499916409E+03 0.  0.
          2    1    1    2  501    0  0.11457240575E+02 -0.61100740615E+02 -0.17217036869E+02  0.64505776671E+02  0.00000000000E+00 0. -1.
          1    1    1    2  502    0  0.57282537767E+01 -0.45593891894E+02  0.18097661249E+04  0.18103494256E+04  0.00000000000E+00 0. -1.
         22    1    3    3    0    0  0.28122982441E+02  0.88031266334E+01  0.27528156223E+02  0.40326127572E+02  0.00000000000E+00 0.  1.
         22    1    3    3    0    0 -0.45308476793E+02  0.97891505876E+02  0.54489211908E+03  0.55546649442E+03  0.00000000000E+00 0.  1.
</event>
<event>
 7    1  0.6067783E-006  0.1348598E+03  0.7818608E-02  0.1386743E+00
          2   -1    0    0  502    0  0.00000000000E+00  0.00000000000E+00  0.58191300497E+02  0.58191300497E+02  0.00000000000E+00 0. -1.
          1   -1    0    0  501    0 -0.00000000000E+00 -0.00000000000E+00 -0.34229841905E+04  0.34229841905E+04  0.00000000000E+00 0. -1.
         25    2    1    2    0    0  0.33706086511E+00 -0.15648000762E+03 -0.15774175997E+04  0.15900807581E+04  0.12499770851E+03 0.  0.
          2    1    1    2  501    0 -0.16916827548E+02  0.23767704209E+02 -0.17526813621E+04  0.17529241397E+04  0.00000000000E+00 0. -1.
          1    1    1    2  502    0  0.16579766683E+02  0.13271230341E+03 -0.34693928223E+02  0.13817059309E+03  0.00000000000E+00 0. -1.
         22    1    3    3    0    0 -0.61582579063E+02 -0.62748552250E+02 -0.70364715901E+03  0.70911855090E+03  0.00000000000E+00 0. -1.
         22    1    3    3    0    0  0.61919639928E+02 -0.93731455372E+02 -0.87377044069E+03  0.88096220722E+03  0.00000000000E+00 0. -1.
</event>
<event>
 7    1  0.6067783E-006  0.7679392E+02  0.7818608E-02  0.1429918E+00
          2   -1    0    0  502    0  0.00000000000E+00  0.00000000000E+00  0.89188963687E+03  0.89188963687E+03  0.00000000000E+00 0. -1.
          1   -1    0    0  501    0 -0.00000000000E+00 -0.00000000000E+00 -0.53827100928E+03  0.53827100928E+03  0.00000000000E+00 0. -1.
         25    2    1    2    0    0  0.36708633019E+02  0.55572258414E+02  0.58658299311E+03  0.60344088203E+03  0.12500196262E+03 0.  0.
          2    1    1    2  501    0 -0.68025417997E+01 -0.76577679099E+02 -0.52591191745E+03  0.53150142091E+03  0.00000000000E+00 0. -1.
          1    1    1    2  502    0 -0.29906091219E+02  0.21005420685E+02  0.29294755193E+03  0.29521834322E+03  0.00000000000E+00 0. -1.
         22    1    3    3    0    0  0.58673977646E+02  0.44118572955E+02  0.15886595125E+03  0.17500707014E+03  0.00000000000E+00 0. -1.
         22    1    3    3    0    0 -0.21965344627E+02  0.11453685459E+02  0.42771704185E+03  0.42843381189E+03  0.00000000000E+00 0. -1.
</event>
<event>
 7    1  0.6067783E-006  0.5337892E+02  0.7818608E-02  0.1471547E+00
          2   -1    0    0  502    0  0.00000000000E+00  0.00000000000E+00  0.18332588404E+04  0.18332588404E+04  0.00000000000E+00 0. -1.
          1   -1    0    0  501    0 -0.00000000000E+00 -0.00000000000E+00 -0.12280087587E+03  0.12280087587E+03  0.00000000000E+00 0. -1.
         25    2    1    2    0    0 -0.60772051354E+02 -0.11271439789E+02  0.67438068174E+03  0.68864706322E+03  0.12500074478E+03 0.  0.
          2    1    1    2  501    0  0.25428118476E+02 -0.29173811612E+02 -0.11178493665E+03  0.11829443163E+03  0.00000000000E+00 0. -1.
          1    1    1    2  502    0  0.35343932878E+02  0.40445251401E+02  0.11478622194E+04  0.11491182214E+04  0.00000000000E+00 0. -1.
         22    1    3    3    0    0 -0.61598439149E+02 -0.58207082420E+02  0.53250818111E+03  0.53920997310E+03  0.00000000000E+00 0.  1.
         22    1    3    3    0    0  0.82638779501E+00  0.46935642632E+02  0.14187250063E+03  0.14943709011E+03  0.00000000000E+00 0.  1.
</event>
<event>
 7    1  0.6067783E-006  0.9188163E+02  0.7818608E-02  0.1371672E+00
          2   -1    0    0  502    0  0.00000000000E+00  0.00000000000E+00  0.52048953714E+03  0.52048953714E+03  0.00000000000E+00 0. -1.
          1   -1    0    0  501    0 -0.00000000000E+00 -0.00000000000E+00 -0.43175831936E+03  0.43175831936E+03  0.00000000000E+00 0. -1.
         25    2    1    2    0    0 -0.14298840867E+02  0.12667339331E+03  0.31749939589E+03  0.36425391777E+03  0.12499777917E+03 0.  0.
          2    1    1    2  501    0  0.36698827261E+02 -0.83738919773E+02 -0.39986075187E+03  0.41017999889E+03  0.00000000000E+00 0. -1.
          1    1    1    2  502    0 -0.22399986394E+02 -0.42934473541E+02  0.17109257376E+03  0.17781393984E+03  0.00000000000E+00 0. -1.
         22    1    3    3    0    0  0.22748287653E+02  0.58495237641E+02  0.26055410699E+03  0.26800675381E+03  0.00000000000E+00 0.  1.
         22    1    3    3    0    0 -0.37047128520E+02  0.68178155673E+02  0.56945288898E+02  0.96247163960E+02  0.00000000000E+00 0.  1.
</event>
<event>
 7    1  0.6067783E-006  0.1147381E+03  0.7818608E-02  0.1358992E+00
          2   -1    0    0  502    0  0.00000000000E+00  0.00000000000E+00  0.19035822889E+04  0.19035822889E+04  0.00000000000E+00 0. -1.
          1   -1    0    0  501    0 -0.00000000000E+00 -0.00000000000E+00 -0.19649289682E+04  0.19649289682E+04  0.00000000000E+00 0. -1.
         25    2    1    2    0    0 -0.43349406290E+02 -0.84813790004E+02  0.36440855071E+03  0.39685757287E+03  0.12501916379E+03 0.  0.
          2    1    1    2  501    0  0.28376911150E+02 -0.32444374903E+02 -0.19461716203E+04  0.19466488801E+04  0.00000000000E+00 0. -1.
          1    1    1    2  502    0  0.14972495141E+02  0.11725816491E+03  0.15204163903E+04  0.15250048042E+04  0.00000000000E+00 0. -1.
         22    1    3    3    0    0 -0.70591841979E+02 -0.59960125369E+02  0.34058775348E+03  0.35295671492E+03  0.00000000000E+00 0.  1.
         22    1    3    3    0    0  0.27242435689E+02 -0.24853664635E+02  0.23820797232E+02  0.43900857951E+02  0.00000000000E+00 0.  1.
</event>
<event>
 7    1  0.6067783E-006  0.3526544E+03  0.7818608E-02  0.1196770E+00
          2   -1    0    0  502    0  0.00000000000E+00  0.00000000000E+00  0.21525084444E+04  0.21525084444E+04  0.00000000000E+00 0. -1.
          1   -1    0    0  501    0 -0.00000000000E+00 -0.00000000000E+00 -0.78973268017E+03  0.78973268017E+03  0.00000000000E+00 0. -1.
         25    2    1    2    0    0  0.25647158587E+03  0.29505180877E+03  0.69703186814E+03  0.80889532320E+03  0.12499989787E+03 0.  0.
          2    1    1    2  501    0 -0.26544898475E+03 -0.22923485537E+03 -0.69103282798E+03  0.77494396685E+03  0.00000000000E+00 0. -1.
          1    1    1    2  502    0  0.89773988753E+01 -0.65816953395E+02  0.13567767241E+04  0.13584018345E+04  0.00000000000E+00 0. -1.
         22    1    3    3    0    0  0.71811822662E+02  0.66829488464E+02  0.29642947093E+03  0.31223957090E+03  0.00000000000E+00 0. -1.
         22    1    3    3    0    0  0.18465976321E+03  0.22822232030E+03  0.40060239721E+03  0.49665575229E+03  0.00000000000E+00 0. -1.
</event>
<event>
 7    1  0.6067783E-006  0.6605835E+02  0.7818608E-02  0.1407920E+00
          2   -1    0    0  502    0  0.00000000000E+00  0.00000000000E+00  0.34607958454E+03  0.34607958454E+03  0.00000000000E+00 0. -1.
          1   -1    0    0  501    0 -0.00000000000E+00 -0.00000000000E+00 -0.12879985141E+04  0.12879985141E+04  0.00000000000E+00 0. -1.
         25    2    1    2    0    0  0.32938859995E+02 -0.15573139623E+02 -0.26892273511E+03  0.29878440747E+03  0.12500077403E+03 0.  0.
          2    1    1    2  501    0 -0.23725418925E+02  0.65053021974E+02 -0.10010295817E+04  0.10034216535E+04  0.00000000000E+00 0. -1.
          1    1    1    2  502    0 -0.92134410696E+01 -0.49479882350E+02  0.32803338727E+03  0.33187203771E+03  0.00000000000E+00 0. -1.
         22    1    3    3    0    0  0.80472287520E+02 -0.13466353073E+02 -0.15119417741E+03  0.17180457213E+03  0.00000000000E+00 0. -1.
         22    1    3    3    0    0 -0.47533427525E+02 -0.21067865504E+01 -0.11772855770E+03  0.12697983533E+03  0.00000000000E+00 0. -1.
</event>
<event>
 7    1  0.6067783E-006  0.1186840E+03  0.7818608E-02  0.1382923E+00
          2   -1    0    0  502    0  0.00000000000E+00  0.00000000000E+00  0.83358073256E+03  0.83358073256E+03  0.00000000000E+00 0. -1.
          1   -1    0    0  501    0 -0.00000000000E+00 -0.00000000000E+00 -0.97011669481E+02  0.97011669481E+02  0.00000000000E+00 0. -1.
         25    2    1    2    0    0  0.85933597803E+02  0.84546145242E+02  0.23705026738E+03  0.29385377257E+03  0.12499830590E+03 0.  0.
          2    1    1    2  501    0  0.19134715582E+02 -0.28335189554E+02 -0.57619391618E+02  0.67000108939E+02  0.00000000000E+00 0. -1.
          1    1    1    2  502    0 -0.10506831338E+03 -0.56210955688E+02  0.55713818731E+03  0.56973852053E+03  0.00000000000E+00 0. -1.
         22    1    3    3    0    0  0.49612395782E+02  0.10237926958E+03  0.22417662715E+03  0.25139225290E+03  0.00000000000E+00 0. -1.
         22    1    3    3    0    0  0.36321202021E+02 -0.17833124337E+02  0.12873640228E+02  0.42461519669E+02  0.00000000000E+00 0. -1.
</event>
<event>
 7    1  0.6067783E-006  0.5517705E+02  0.7818608E-02  0.1438061E+00
          2   -1    0    0  502    0  0.00000000000E+00  0.00000000000E+00  0.32856350093E+04  0.32856350093E+04  0.00000000000E+00 0. -1.
          1   -1    0    0  501    0 -0.00000000000E+00 -0.00000000000E+00 -0.52537124882E+03  0.52537124882E+03  0.00000000000E+00 0. -1.
         25    2    1    2    0    0 -0.47777895697E+01 -0.66632714376E+02  0.12848814835E+03  0.19130259642E+03  0.12499893292E+03 0.  0.
          2    1    1    2  501    0 -0.36115614881E+02  0.41813480235E+02 -0.49223533985E+03  0.49532649289E+03  0.00000000000E+00 0. -1.
          1    1    1    2  502    0  0.40893404451E+02  0.24819234141E+02  0.31240109520E+04  0.31243771688E+04  0.00000000000E+00 0. -1.
         22    1    3    3    0    0 -0.63927244776E+02 -0.47200328901E+02  0.71144790751E+02  0.10665901239E+03  0.00000000000E+00 0.  1.
         22    1    3    3    0    0  0.59149455206E+02 -0.19432385475E+02  0.57343357595E+02  0.84643584025E+02  0.00000000000E+00 0.  1.
</event>
<event>
 7    1  0.6067783E-006  0.1103091E+03  0.7818608E-02  0.1329745E+00
          2   -1    0    0  502    0  0.00000000000E+00  0.00000000000E+00  0.28578542001E+04  0.28578542001E+04  0.00000000000E+00 0. -1.
          1   -1    0    0  501    0 -0.00000000000E+00 -0.00000000000E+00 -0.30831332543E+03  0.30831332543E+03  0.00000000000E+00 0. -1.
         25    2    1    2    0    0 -0.89312936823E+02 -0.12887095819E+03  0.82456672816E+03  0.84859729104E+03  0.12499019413E+03 0.  0.
          2    1    1    2  501    0  0.47956792973E+02  0.32023138996E+02 -0.29210568612E+03  0.29774329092E+03  0.00000000000E+00 0. -1.
          1    1    1    2  502    0  0.41356143850E+02  0.96847819191E+02  0.20170798326E+04  0.20198269435E+04  0.00000000000E+00 0. -1.
         22    1    3    3    0    0 -0.78702478265E+01 -0.99729381238E+02  0.59347123203E+03  0.60184382819E+03  0.00000000000E+00 0. -1.
         22    1    3    3    0    0 -0.81442688997E+02 -0.29141576949E+02  0.23109549613E+03  0.24675346286E+03  0.00000000000E+00 0. -1.
</event>
<event>
 7    1  0.6067783E-006  0.9349558E+02  0.7818608E-02  0.1370944E+00
          2   -1    0    0  502    0  0.00000000000E+00  0.00000000000E+00  0.12426681921E+03  0.12426681921E+03  0.00000000000E+00 0. -1.
          1   -1    0    0  501    0 -0.00000000000E+00 -0.00000000000E+00 -0.16230982499E+04  0.16230982499E+04  0.00000000000E+00 0. -1.
         25    2    1    2    0    0  0.13254367921E+03  0.26951978793E+02 -0.34134064416E+03  0.38784983433E+03  0.12497928859E+03 0.  0.
          2    1    1    2  501    0 -0.90572362741E+02 -0.39155801763E+01 -0.12510959846E+04  0.12543762782E+04  0.00000000000E+00 0. -1.
          1    1    1    2  502    0 -0.41971316468E+02 -0.23036398617E+02  0.93605198104E+02  0.10513895653E+03  0.00000000000E+00 0. -1.
         22    1    3    3    0    0  0.40435679428E+02  0.50183351074E+02 -0.50459931436E+02  0.81851191661E+02  0.00000000000E+00 0. -1.
         22    1    3    3    0    0  0.92107999781E+02 -0.23231372281E+02 -0.29088071272E+03  0.30599864267E+03  0.00000000000E+00 0. -1.
</event>
<event>
 7    1  0.6067783E-006  0.5868749E+02  0.7818608E-02  0.1440190E+00
          2   -1    0    0  502    0  0.00000000000E+00  0.00000000000E+00  0.24769039501E+03  0.24769039501E+03  0.00000000000E+00 0. -1.
          1   -1    0    0  501    0 -0.00000000000E+00 -0.00000000000E+00 -0.95228223533E+03  0.95228223533E+03  0.00000000000E+00 0. -1.
         25    2    1    2    0    0  0.21212973382E+01  0.32574357296E+02 -0.46727697247E+03  0.48480732350E+03  0.12499913305E+03 0.  0.
          2    1    1    2  501    0 -0.43174532510E+02  0.97581333972E+01 -0.47154918152E+03  0.47362209832E+03  0.00000000000E+00 0. -1.
          1    1    1    2  502    0  0.41053235172E+02 -0.42332490693E+02  0.23423431366E+03  0.24154320852E+03  0.00000000000E+00 0. -1.
         22    1    3    3    0    0 -0.56800025169E+02  0.26471203288E+02 -0.15924647936E+03  0.17113272232E+03  0.00000000000E+00 0.  1.
         22    1    3    3    0    0  0.58921322507E+02  0.61031540080E+01 -0.30803049311E+03  0.31367460117E+03  0.00000000000E+00 0.  1.
</event>
<event>
 7    1  0.6067783E-006  0.1508706E+03  0.7818608E-02  0.1273838E+00
          2   -1    0    0  502    0  0.00000000000E+00  0.00000000000E+00  0.27711943540E+04  0.27711943540E+04  0.00000000000E+00 0. -1.
          1   -1    0    0  501    0 -0.00000000000E+00 -0.00000000000E+00 -0.49683216592E+03  0.49683216592E+03  0.00000000000E+00 0. -1.
         25    2    1    2    0    0  0.12980420707E+03  0.93730987881E+02  0.20992933538E+03  0.29211290379E+03  0.12499996978E+03 0.  0.
          2    1    1    2  501    0 -0.71415932736E+02 -0.13324703650E+03 -0.44269387825E+03  0.46779576529E+03  0.00000000000E+00 0. -1.
          1    1    1    2  502    0 -0.58388274339E+02  0.39516048617E+02  0.25071267310E+04  0.25081178509E+04  0.00000000000E+00 0. -1.
         22    1    3    3    0    0  0.10605805362E+02 -0.20880109190E+02  0.75363177110E+02  0.78918125492E+02  0.00000000000E+00 0. -1.
         22    1    3    3    0    0  0.11919840171E+03  0.11461109707E+03  0.13456615827E+03  0.21319477830E+03  0.00000000000E+00 0. -1.
</event>
<event>
 7    1  0.6067783E-006  0.1111103E+03  0.7818608E-02  0.1434950E+00
          2   -1    0    0  502    0  0.00000000000E+00  0.00000000000E+00  0.17060122242E+04  0.17060122242E+04  0.00000000000E+00 0. -1.
          1   -1    0    0  501    0 -0.00000000000E+00 -0.00000000000E+00 -0.80625488175E+03  0.80625488175E+03  0.00000000000E+00 0. -1.
         25    2    1    2    0    0  0.70787993386E+02  0.55516846021E+02  0.32207333665E+03  0.35700016545E+03  0.12499929500E+03 0.  0.
          2    1    1    2  501    0  0.21412908642E+02  0.11523242486E+02 -0.78622563112E+03  0.78660157691E+03  0.00000000000E+00 0. -1.
          1    1    1    2  502    0 -0.92200902028E+02 -0.67040088506E+02  0.13639096369E+04  0.13686653636E+04  0.00000000000E+00 0. -1.
         22    1    3    3    0    0  0.23006501667E+02  0.42167734982E+01 -0.37778287727E+01  0.23692874201E+02  0.00000000000E+00 0. -1.
         22    1    3    3    0    0  0.47781491719E+02  0.51300072522E+02  0.32585116543E+03  0.33330729125E+03  0.00000000000E+00 0. -1.
</event>
<event>
 7    1  0.6067783E-006  0.9671305E+02  0.7818608E-02  0.1374578E+00
          2   -1    0    0  502    0  0.00000000000E+00  0.00000000000E+00  0.19938819771E+04  0.19938819771E+04  0.00000000000E+00 0. -1.
          1   -1    0    0  501    0 -0.00000000000E+00 -0.00000000000E+00 -0.36990870816E+02  0.36990870816E+02  0.00000000000E+00 0. -1.
         25    2    1    2    0    0 -0.88655456020E+02 -0.98755410345E+02  0.64284305802E+03  0.66819482385E+03  0.12499881764E+03 0.  0.
          2    1    1    2  501    0  0.72398245141E+02  0.56881919577E+02  0.64718653749E+02  0.11254138269E+03  0.00000000000E+00 0. -1.
          1    1    1    2  502    0  0.16257210879E+02  0.41873490768E+02  0.12493293945E+04  0.12501366414E+04  0.00000000000E+00 0. -1.
         22    1    3    3    0    0  0.22471402051E+02 -0.60729534109E+02  0.21775742986E+03  0.22718128990E+03  0.00000000000E+00 0.  1.
         22    1    3    3    0    0 -0.11112685807E+03 -0.38025876237E+02  0.42508562817E+03  0.44101353394E+03  0.00000000000E+00 0.  1.
</event>
<event>
 7    1  0.6067783E-006  0.9913364E+02  0.7818608E-02  0.1303110E+00
          2   -1    0    0  502    0  0.00000000000E+00  0.00000000000E+00  0.11731781568E+04  0.11731781568E+04  0.00000000000E+00 0. -1.
          1   -1    0    0  501    0 -0.00000000000E+00 -0.00000000000E+00 -0.22474748589E+03  0.22474748589E+03  0.00000000000E+00 0. -1.
         25    2    1    2    0    0 -0.16100646135E+02  0.63527465041E+00 -0.55453857189E+01  0.12615594384E+03  0.12499974593E+03 0.  0.
          2    1    1    2  501    0  0.35332536703E+02  0.96614981568E+02 -0.13976635945E+03  0.17354387931E+03  0.00000000000E+00 0. -1.
          1    1    1    2  502    0 -0.19231890568E+02 -0.97250256219E+02  0.10937424160E+04  0.10982258195E+04  0.00000000000E+00 0. -1.
         22    1    3    3    0    0 -0.90793645200E+01  0.31707450085E+02 -0.56874176112E+02  0.65745487750E+02  0.00000000000E+00 0.  1.
         22    1    3    3    0    0 -0.70212816151E+01 -0.31072175435E+02  0.51328790394E+02  0.60410456090E+02  0.00000000000E+00 0.  1.
</event>
<event>
 7    1  0.6067783E-006  0.6719140E+02  0.7818608E-02  0.1457909E+00
          2   -1    0    0  502    0  0.00000000000E+00  0.00000000000E+00  0.66337598341E+02  0.66337598341E+02  0.00000000000E+00 0. -1.
          1   -1    0    0  501    0 -0.00000000000E+00 -0.00000000000E+00 -0.87361131111E+03  0.87361131111E+03  0.00000000000E+00 0. -1.
         25    2    1    2    0    0 -0.49724166453E+02 -0.16042929560E+02 -0.82965173338E+02  0.15886588078E+03  0.12500111908E+03 0.  0.
          2    1    1    2  501    0 -0.64211558331E+01 -0.33310853127E+02 -0.70235318535E+03  0.70317198547E+03  0.00000000000E+00 0. -1.
          1    1    1    2  502    0  0.56145322286E+02  0.49353782687E+02 -0.21955354088E+02  0.77911043205E+02  0.00000000000E+00 0. -1.
         22    1    3    3    0    0 -0.21350746413E+02 -0.56739992831E+02  0.17986481130E+01  0.60650773234E+02  0.00000000000E+00 0.  1.
         22    1    3    3    0    0 -0.28373420040E+02  0.40697063272E+02 -0.84763821451E+02  0.98215107548E+02  0.00000000000E+00 0.  1.
</event>
<event>
 7    1  0.6067783E-006  0.6357132E+02  0.7818608E-02  0.1447612E+00
          2   -1    0    0  502    0  0.00000000000E+00  0.00000000000E+00  0.10197183531E+04  0.10197183531E+04  0.00000000000E+00 0. -1.
          1   -1    0    0  501    0 -0.00000000000E+00 -0.00000000000E+00 -0.97634559192E+02  0.97634559192E+02  0.00000000000E+00 0. -1.
         25    2    1    2    0    0 -0.10190813957E+02 -0.23800255004E+02  0.44261849857E+03  0.46065749119E+03  0.12499553625E+03 0.  0.
          2    1    1    2  501    0  0.25081758615E+02  0.59488507392E+02 -0.76094430019E+02  0.99791479630E+02  0.00000000000E+00 0. -1.
          1    1    1    2  502    0 -0.14890944658E+02 -0.35688252388E+02  0.55555972532E+03  0.55690394144E+03  0.00000000000E+00 0. -1.
         22    1    3    3    0    0  0.16088939303E+02  0.43457283631E+02  0.26328737570E+03  0.26733430694E+03  0.00000000000E+00 0. -1.
         22    1    3    3    0    0 -0.26279753260E+02 -0.67257538635E+02  0.17933112287E+03  0.19332318424E+03  0.00000000000E+00 0. -1.
</event>
<event>
 7    1  0.6067783E-006  0.4941260E+02  0.7818608E-02  0.1478770E+00
          2   -1    0    0  502    0  0.00000000000E+00  0.00000000000E+00  0.10232876061E+04  0.10232876061E+04  0.00000000000E+00 0. -1.
          1   -1    0    0  501    0 -0.00000000000E+00 -0.00000000000E+00 -0.16101862562E+02  0.16101862562E+02  0.00000000000E+00 0. -1.
         25    2    1    2    0    0 -0.28057843835E+02 -0.49814463936E+01  0.38747551548E+03  0.40813446836E+03  0.12499764701E+03 0.  0.
          2    1    1    2  501    0 -0.76172869584E+00 -0.39706049904E+02  0.84028187963E+02  0.92940233494E+02  0.00000000000E+00 0. -1.
          1    1    1    2  502    0  0.28819572531E+02  0.44687496297E+02  0.53568204013E+03  0.53831476684E+03  0.00000000000E+00 0. -1.
         22    1    3    3    0    0 -0.47644598002E+02  0.48296430394E+02  0.25783831412E+03  0.26661423281E+03  0.00000000000E+00 0. -1.
         22    1    3    3    0    0  0.19586754167E+02 -0.53277876788E+02  0.12963720136E+03  0.14152023555E+03  0.00000000000E+00 0. -1.
</event>
<event>
 7    1  0.6067783E-006  0.5611199E+02  0.7818608E-02  0.1537081E+00
          2   -1    0    0  502    0  0.00000000000E+00  0.00000000000E+00  0.18352855981E+04  0.18352855981E+04  0.00000000000E+00 0. -1.
          1   -1    0    0  501    0 -0.00000000000E+00 -0.00000000000E+00 -0.13334811365E+03  0.13334811365E+03  0.00000000000E+00 0. -1.
         25    2    1    2    0    0 -0.18880665673E+01 -0.65324061467E+02  0.20228058883E+03  0.24660324206E+03  0.12499969829E+03 0.  0.
          2    1    1    2  501    0 -0.18110338327E+02  0.52935725544E+02 -0.10405695617E+03  0.11814408796E+03  0.00000000000E+00 0. -1.
          1    1    1    2  502    0  0.19998404894E+02  0.12388335923E+02  0.16037138518E+04  0.16038863817E+04  0.00000000000E+00 0. -1.
         22    1    3    3    0    0 -0.27585138350E+01  0.36914340583E+02  0.37590336283E+02  0.52757097353E+02  0.00000000000E+00 0. -1.
         22    1    3    3    0    0  0.87044726773E+00 -0.10223840205E+03  0.16469025255E+03  0.19384614470E+03  0.00000000000E+00 0. -1.
</event>
<event>
 7    1  0.6067783E-006  0.6257728E+02  0.7818608E-02  0.1392198E+00
          2   -1    0    0  502    0  0.00000000000E+00  0.00000000000E+00  0.14545366832E+04  0.14545366832E+04  0.00000000000E+00 0. -1.
          1   -1    0    0  501    0 -0.00000000000E+00 -0.00000000000E+00 -0.36422496345E+03  0.36422496345E+03  0.00000000000E+00 0. -1.
         25    2    1    2    0    0  0.23294825456E+02  0.45689592683E+02  0.86515291567E+03  0.87563977789E+03  0.12500106146E+03 0.  0.
          2    1    1    2  501    0  0.48662866368E+02 -0.39342617745E+02 -0.35399345756E+03  0.35948196635E+03  0.00000000000E+00 0. -1.
          1    1    1    2  502    0 -0.71957691824E+02 -0.63469749375E+01  0.57915226167E+03  0.58363990242E+03  0.00000000000E+00 0. -1.
         22    1    3    3    0    0 -0.42207675937E+02  0.25134207528E+02  0.59038270246E+03  0.59242294997E+03  0.00000000000E+00 0. -1.
         22    1    3    3    0    0  0.65502501394E+02  0.20555385155E+02  0.27477021321E+03  0.28321682792E+03  0.00000000000E+00 0. -1.
</event>
<event>
 7    1  0.6067783E-006  0.3522292E+02  0.7818608E-02  0.1546711E+00
          2   -1    0    0  502    0  0.00000000000E+00  0.00000000000E+00  0.26045251110E+03  0.26045251110E+03  0.00000000000E+00 0. -1.
          1   -1    0    0  501    0 -0.00000000000E+00 -0.00000000000E+00 -0.10945969650E+03  0.10945969650E+03  0.00000000000E+00 0. -1.
         25    2    1    2    0    0  0.28732263497E+02  0.15640559932E+02  0.22988022679E+03  0.26370487727E+03  0.12500069420E+03 0.  0.
          2    1    1    2  501    0 -0.29953094762E+02  0.19561196042E+02 -0.36751746026E+02  0.51288586570E+02  0.00000000000E+00 0. -1.
          1    1    1    2  502    0  0.12208312643E+01 -0.35201755974E+02 -0.42135666165E+02  0.54918743756E+02  0.00000000000E+00 0. -1.
         22    1    3    3    0    0  0.11363521367E+02  0.70504940970E+02  0.13536393054E+03  0.15304728031E+03  0.00000000000E+00 0. -1.
         22    1    3    3    0    0  0.17368742131E+02 -0.54864381039E+02  0.94516296242E+02  0.11065759696E+03  0.00000000000E+00 0. -1.
</event>
<event>
 7    1  0.6067783E-006  0.5773132E+02  0.7818608E-02  0.1462104E+00
          2   -1    0    0  502    0  0.00000000000E+00  0.00000000000E+00  0.76464891448E+03  0.76464891448E+03  0.00000000000E+00 0. -1.
          1   -1    0    0  501    0 -0.00000000000E+00 -0.00000000000E+00 -0.52179516606E+03  0.52179516606E+03  0.00000000000E+00 0. -1.
         25    2    1    2    0    0 -0.47904574037E+02 -0.21391881893E+02  0.18324755083E+03  0.22794135250E+03  0.12500053787E+03 0.  0.
          2    1    1    2  501    0  0.25090657365E+02  0.52153465196E+02 -0.49711155916E+03  0.50046920712E+03  0.00000000000E+00 0. -1.
          1    1    1    2  502    0  0.22813916672E+02 -0.30761583302E+02  0.55671775675E+03  0.55803352093E+03  0.00000000000E+00 0. -1.
         22    1    3    3    0    0 -0.70911680763E+02 -0.58254471379E+02  0.11667216231E+03  0.14844003288E+03  0.00000000000E+00 0. -1.
         22    1    3    3    0    0  0.23007106726E+02  0.36862589486E+02  0.66575388529E+02  0.79501319620E+02  0.00000000000E+00 0. -1.
</event>
<event>
 7    1  0.6067783E-006  0.1199003E+03  0.7818608E-02  0.1329166E+00
          2   -1    0    0  502    0  0.00000000000E+00  0.00000000000E+00  0.53043273628E+03  0.53043273628E+03  0.00000000000E+00 0. -1.
          1   -1    0    0  501    0 -0.00000000000E+00 -0.00000000000E+00 -0.50376828216E+03  0.50376828216E+03  0.00000000000E+00 0. -1.
         25    2    1    2    0    0  0.11099746574E+03  0.40300162424E+02  0.29167617103E+03  0.33859231762E+03  0.12500091325E+03 0.  0.
          2    1    1    2  501    0 -0.21373265997E+02  0.48853021633E+02 -0.46008005728E+03  0.46315990039E+03  0.00000000000E+00 0. -1.
          1    1    1    2  502    0 -0.89624199738E+02 -0.89153184057E+02  0.19506834037E+03  0.23244880043E+03  0.00000000000E+00 0. -1.
         22    1    3    3    0    0  0.10116282728E+03  0.72237011585E+01  0.28621793528E+03  0.30365573592E+03  0.00000000000E+00 0.  1.
         22    1    3    3    0    0  0.98346384569E+01  0.33076461266E+02  0.54582357519E+01  0.34936581701E+02  0.00000000000E+00 0.  1.
</event>
<event>
 7    1  0.6067783E-006  0.4520827E+02  0.7818608E-02  0.1494053E+00
          2   -1    0    0  502    0  0.00000000000E+00  0.00000000000E+00  0.19484711678E+04  0.19484711678E+04  0.00000000000E+00 0. -1.
          1   -1    0    0  501    0 -0.00000000000E+00 -0.00000000000E+00 -0.18896843139E+04  0.18896843139E+04  0.00000000000E+00 0. -1.
         25    2    1    2    0    0 -0.16339684875E+02  0.78588281228E+02  0.11494998027E+04  0.11590597138E+04  0.12500608252E+03 0.  0.
          2    1    1    2  501    0  0.84823863612E+01 -0.38068590033E+02 -0.18841661447E+04  0.18845697730E+04  0.00000000000E+00 0. -1.
          1    1    1    2  502    0  0.78572985143E+01 -0.40519691196E+02  0.79345319587E+03  0.79452599489E+03  0.00000000000E+00 0. -1.
         22    1    3    3    0    0 -0.53922781266E+02  0.69282225806E+02  0.44970217058E+03  0.45819181068E+03  0.00000000000E+00 0. -1.
         22    1    3    3    0    0  0.37583096390E+02  0.93060554229E+01  0.69979763207E+03  0.70086790314E+03  0.00000000000E+00 0. -1.
</event>
<event>
 7    1  0.6067783E-006  0.8979688E+02  0.7818608E-02  0.1346334E+00
          2   -1    0    0  502    0  0.00000000000E+00  0.00000000000E+00  0.22032619393E+04  0.22032619393E+04  0.00000000000E+00 0. -1.
          1   -1    0    0  501    0 -0.00000000000E+00 -0.00000000000E+00 -0.71049400741E+02  0.71049400741E+02  0.00000000000E+00 0. -1.
         25    2    1    2    0    0  0.10651649849E+03  0.61263481830E+02  0.10939145231E+04  0.11078688481E+04  0.12500168810E+03 0.  0.
          2    1    1    2  501    0 -0.89223753166E+02 -0.24225001682E+01 -0.31677173407E+02  0.94711086738E+02  0.00000000000E+00 0. -1.
          1    1    1    2  502    0 -0.17292745320E+02 -0.58840981662E+02  0.10699751888E+04  0.10717314052E+04  0.00000000000E+00 0. -1.
         22    1    3    3    0    0  0.30711010941E+02 -0.34067323039E+02  0.17471460248E+03  0.18063482779E+03  0.00000000000E+00 0. -1.
         22    1    3    3    0    0  0.75805487544E+02  0.95330804869E+02  0.91919992061E+03  0.92723402027E+03  0.00000000000E+00 0. -1.
</event>
<event>
 7    1  0.6067783E-006  0.2367262E+03  0.7818608E-02  0.1177143E+00
          2   -1    0    0  502    0  0.00000000000E+00  0.00000000000E+00  0.18619474673E+03  0.18619474673E+03  0.00000000000E+00 0. -1.
          1   -1    0    0  501    0 -0.00000000000E+00 -0.00000000000E+00 -0.39689790894E+04  0.39689790894E+04  0.00000000000E+00 0. -1.
         25    2    1    2    0    0  0.28459588037E+02  0.23563259252E+03 -0.35260677311E+03  0.44304417280E+03  0.12499574312E+03 0.  0.
          2    1    1    2  501    0  0.93625886971E+02 -0.22020231032E+03 -0.35394682752E+04  0.35475471153E+04  0.00000000000E+00 0. -1.
          1    1    1    2  502    0 -0.12208547501E+03 -0.15430282199E+02  0.10929070556E+03  0.16458254810E+03  0.00000000000E+00 0. -1.
         22    1    3    3    0    0  0.35166500044E+02  0.13132172167E+03 -0.97334847301E+02  0.16720092646E+03  0.00000000000E+00 0.  1.
         22    1    3    3    0    0 -0.67069120067E+01  0.10431087084E+03 -0.25527192581E+03  0.27584324634E+03  0.00000000000E+00 0.  1.
</event>
<event>
 7    1  0.6067783E-006  0.7565525E+02  0.7818608E-02  0.1488775E+00
          2   -1    0    0  502    0  0.00000000000E+00  0.00000000000E+00  0.79266995062E+03  0.79266995062E+03  0.00000000000E+00 0. -1.
          1   -1    0    0  501    0 -0.00000000000E+00 -0.00000000000E+00 -0.52929466768E+03  0.52929466768E+03  0.00000000000E+00 0. -1.
         25    2    1    2    0    0  0.64896578599E+02  0.67649545816E+02  0.17973415159E+03  0.23815408688E+03  0.12499990755E+03 0.  0.
          2    1    1    2  501    0 -0.61471233236E+02 -0.43716384365E+02 -0.49698726230E+03  0.50267899664E+03  0.00000000000E+00 0. -1.
          1    1    1    2  502    0 -0.34253453627E+01 -0.23933161451E+02  0.58062839365E+03  0.58113153478E+03  0.00000000000E+00 0. -1.
         22    1    3    3    0    0 -0.33154385786E+02  0.21676867374E+02  0.17993865947E+02  0.43507230292E+02  0.00000000000E+00 0.  1.
         22    1    3    3    0    0  0.98050964385E+02  0.45972678441E+02  0.16174028564E+03  0.19464685659E+03  0.00000000000E+00 0.  1.
</event>
<event>
 7    1  0.6067783E-006  0.5169306E+02  0.7818608E-02  0.1477394E+00
          2   -1    0    0  502    0  0.00000000000E+00  0.00000000000E+00  0.14888759522E+04  0.14888759522E+04  0.00000000000E+00 0. -1.
          1   -1    0    0  501    0 -0.00000000000E+00 -0.00000000000E+00 -0.22062522404E+03  0.22062522404E+03  0.00000000000E+00 0. -1.
         25    2    1    2    0    0 -0.18696694986E+02  0.45190687241E+02  0.24579278080E+03  0.28005605898E+03  0.12500216182E+03 0.  0.
          2    1    1    2  501    0  0.38194433768E+02  0.32593151337E+01 -0.20112633025E+03  0.20474676707E+03  0.00000000000E+00 0. -1.
          1    1    1    2  502    0 -0.19497738782E+02 -0.48450002375E+02  0.12235842776E+04  0.12246983502E+04  0.00000000000E+00 0. -1.
         22    1    3    3    0    0  0.53146325579E+01 -0.31966234237E+02  0.15351258303E+02  0.35857308627E+02  0.00000000000E+00 0.  1.
         22    1    3    3    0    0 -0.24011327544E+02  0.77156921478E+02  0.23044152249E+03  0.24419875035E+03  0.00000000000E+00 0.  1.
</event>
<event>
 7    1  0.6067783E-006  0.1269759E+03  0.7818608E-02  0.1292795E+00
          2   -1    0    0  502    0  0.00000000000E+00  0.00000000000E+00  0.10616104471E+04  0.10616104471E+04  0.00000000000E+00 0. -1.
          1   -1    0    0  501    0 -0.00000000000E+00 -0.00000000000E+00 -0.88332303930E+02  0.88332303930E+02  0.00000000000E+00 0. -1.
         25    2    1    2    0    0  0.48164371842E+02  0.12948401888E+03  0.91734811399E+02  0.20766953624E+03  0.12500177119E+03 0.  0.
          2    1    1    2  501    0  0.21602286052E+02 -0.12364663923E+03  0.10805568026E+03  0.16562361001E+03  0.00000000000E+00 0. -1.
          1    1    1    2  502    0 -0.69766657894E+02 -0.58373796472E+01  0.77348765147E+03  0.77664960474E+03  0.00000000000E+00 0. -1.
         22    1    3    3    0    0 -0.41151914612E+02  0.33618738091E+02  0.41190130845E+02  0.67233373455E+02  0.00000000000E+00 0.  1.
         22    1    3    3    0    0  0.89316286454E+02  0.95865280791E+02  0.50544680554E+02  0.14043616279E+03  0.00000000000E+00 0.  1.
</event>
<event>
 7    1  0.6067783E-006  0.6728655E+02  0.7818608E-02  0.1516991E+00
          2   -1    0    0  502    0  0.00000000000E+00  0.00000000000E+00  0.44456796408E+03  0.44456796408E+03  0.00000000000E+00 0. -1.
          1   -1    0    0  501    0 -0.00000000000E+00 -0.00000000000E+00 -0.77397105330E+03  0.77397105330E+03  0.00000000000E+00 0. -1.
         25    2    1    2    0    0  0.26011340814E+01  0.46406201224E+02  0.12247681798E+03  0.18106813753E+03  0.12499919230E+03 0.  0.
          2    1    1    2  501    0 -0.13061010645E+02 -0.66225181413E+02 -0.74271380799E+03  0.74577487570E+03  0.00000000000E+00 0. -1.
          1    1    1    2  502    0  0.10459876564E+02  0.19818980189E+02  0.29083390079E+03  0.29169600416E+03  0.00000000000E+00 0. -1.
         22    1    3    3    0    0 -0.45130688567E+02  0.15647788312E+02  0.11406749090E+03  0.12366497002E+03  0.00000000000E+00 0.  1.
         22    1    3    3    0    0  0.47731822649E+02  0.30758412912E+02  0.84093270820E+01  0.57403167511E+02  0.00000000000E+00 0.  1.
</event>
<event>
 7    1  0.6067783E-006  0.6607148E+02  0.7818608E-02  0.1448376E+00
          2   -1    0    0  502    0  0.00000000000E+00  0.00000000000E+00  0.18758438993E+03  0.18758438993E+03  0.00000000000E+00 0. -1.
          1   -1    0    0  501    0 -0.00000000000E+00 -0.00000000000E+00 -0.56659479312E+03  0.56659479312E+03  0.00000000000E+00 0. -1.
         25    2    1    2    0    0 -0.43083681954E+02 -0.97986212752E+00 -0.86928640682E+02  0.15823712920E+03  0.12500094682E+03 0.  0.
          2    1    1    2  501    0  0.60289192658E+02 -0.31773542367E+02 -0.43909132009E+03  0.44434843549E+03  0.00000000000E+00 0. -1.
          1    1    1    2  502    0 -0.17205510704E+02  0.32753404494E+02  0.14700955759E+03  0.15159361836E+03  0.00000000000E+00 0. -1.
         22    1    3    3    0    0 -0.15568760214E+02  0.22681046096E+02  0.27073930287E+02  0.38598106790E+02  0.00000000000E+00 0. -1.
         22    1    3    3    0    0 -0.27514921740E+02 -0.23660908223E+02 -0.11400257097E+03  0.11963902241E+03  0.00000000000E+00 0. -1.
</event>
<event>
 7    1  0.6067783E-006  0.5274741E+02  0.7818608E-02  0.1571670E+00
          2   -1    0    0  502    0  0.00000000000E+00  0.00000000000E+00  0.49601617031E+02  0.49601617031E+02  0.00000000000E+00 0. -1.
          1   -1    0    0  501    0 -0.00000000000E+00 -0.00000000000E+00 -0.91463466744E+03  0.91463466744E+03  0.00000000000E+00 0. -1.
         25    2    1    2    0    0  0.36504700319E+02 -0.81998297907E+01 -0.23749980145E+03  0.27098260519E+03  0.12500234507E+03 0.  0.
          2    1    1    2  501    0  0.17674282475E+02  0.94985534802E+01 -0.63778286365E+03  0.63809841243E+03  0.00000000000E+00 0. -1.
          1    1    1    2  502    0 -0.54178982794E+02 -0.12987236895E+01  0.10249614693E+02  0.55155266849E+02  0.00000000000E+00 0. -1.
         22    1    3    3    0    0  0.24514368785E+02  0.55345827312E+02 -0.76995932771E+02  0.97941250457E+02  0.00000000000E+00 0. -1.
         22    1    3    3    0    0  0.11990331534E+02 -0.63545657103E+02 -0.16050386868E+03  0.17304135473E+03  0.00000000000E+00 0. -1.
</event>
<event>
 7    1  0.6067783E-006  0.1414831E+03  0.7818608E-02  0.1220799E+00
          2   -1    0    0  502    0  0.00000000000E+00  0.00000000000E+00  0.65667244616E+03  0.65667244616E+03  0.00000000000E+00 0. -1.
          1   -1    0    0  501    0 -0.00000000000E+00 -0.00000000000E+00 -0.25510410239E+04  0.25510410239E+04  0.00000000000E+00 0. -1.
         25    2    1    2    0    0  0.61927075594E+02  0.78967242143E+02 -0.37575561869E+03  0.40852102731E+03  0.12500542690E+03 0.  0.
          2    1    1    2  501    0 -0.15501903907E+03  0.89337615894E+01 -0.21496737351E+04  0.21552744331E+04  0.00000000000E+00 0. -1.
          1    1    1    2  502    0  0.93091963478E+02 -0.87901003733E+02  0.63106077603E+03  0.64391800967E+03  0.00000000000E+00 0. -1.
         22    1    3    3    0    0 -0.53937038286E+01 -0.61588630846E+01  0.69409450948E+01  0.10733142797E+02  0.00000000000E+00 0.  1.
         22    1    3    3    0    0  0.67320779423E+02  0.85126105228E+02 -0.38269656378E+03  0.39778788451E+03  0.00000000000E+00 0.  1.
</event>
<event>
 7    1  0.6067783E-006  0.8070450E+02  0.7818608E-02  0.1405568E+00
          2   -1    0    0  502    0  0.00000000000E+00  0.00000000000E+00  0.31407142214E+03  0.31407142214E+03  0.00000000000E+00 0. -1.
          1   -1    0    0  501    0 -0.00000000000E+00 -0.00000000000E+00 -0.14589399387E+04  0.14589399387E+04  0.00000000000E+00 0. -1.
         25    2    1    2    0    0  0.96130534621E+02 -0.58081172548E+02 -0.70940713151E+03  0.72903843897E+03  0.12499625983E+03 0.  0.
          2    1    1    2  501    0 -0.18223000412E+02  0.37799769691E+02 -0.73378196775E+03  0.73498086813E+03  0.00000000000E+00 0. -1.
          1    1    1    2  502    0 -0.77907534210E+02  0.20281402857E+02  0.29832058272E+03  0.30899205372E+03  0.00000000000E+00 0. -1.
         22    1    3    3    0    0  0.66580112993E+02 -0.37710947879E+02 -0.67498597794E+03  0.67930927967E+03  0.00000000000E+00 0.  1.
         22    1    3    3    0    0  0.29550421628E+02 -0.20370224670E+02 -0.34421153571E+02  0.49729159300E+02  0.00000000000E+00 0.  1.
</event>
<event>
 7    1  0.6067783E-006  0.1331185E+03  0.7818608E-02  0.1261943E+00
          2   -1    0    0  502    0  0.00000000000E+00  0.00000000000E+00  0.17768694626E+04  0.17768694626E+04  0.00000000000E+00 0. -1.
          1   -1    0    0  501    0 -0.00000000000E+00 -0.00000000000E+00 -0.18942757252E+04  0.18942757252E+04  0.00000000000E+00 0. -1.
         25    2    1    2    0    0 -0.23892306976E+01 -0.13468954178E+03  0.80002070308E+03  0.82085682342E+03  0.12500327239E+03 0.  0.
          2    1    1    2  501    0 -0.86467578494E+02  0.23789210234E+02 -0.18775576327E+04  0.18796981759E+04  0.00000000000E+00 0. -1.
          1    1    1    2  502    0  0.88856809191E+02  0.11090033155E+03  0.96013066699E+03  0.97059018838E+03  0.00000000000E+00 0. -1.
         22    1    3    3    0    0 -0.35301086792E+02 -0.98688118989E+02  0.28730774697E+03  0.30582879693E+03  0.00000000000E+00 0. -1.
         22    1    3    3    0    0  0.32911856094E+02 -0.36001422794E+02  0.51271295610E+03  0.51502802649E+03  0.00000000000E+00 0. -1.
</event>
<event>
 7    1  0.6067783E-006  0.9204994E+02  0.7818608E-02  0.1398218E+00
          2   -1    0    0  502    0  0.00000000000E+00  0.00000000000E+00  0.58411469738E+03  0.58411469738E+03  0.00000000000E+00 0. -1.
          1   -1    0    0  501    0 -0.00000000000E+00 -0.00000000000E+00 -0.28468003342E+03  0.28468003342E+03  0.00000000000E+00 0. -1.
         25    2    1    2    0    0 -0.14238926820E+02 -0.80712868725E+02  0.80022118432E+01  0.14968174239E+03  0.12499309739E+03 0.  0.
          2    1    1    2  501    0 -0.23277527453E+02  0.91328828691E+02 -0.20264998349E+03  0.22349455037E+03  0.00000000000E+00 0. -1.
          1    1    1    2  502    0  0.37516454273E+02 -0.10615959967E+02  0.49408243561E+03  0.49561843804E+03  0.00000000000E+00 0. -1.
         22    1    3    3    0    0  0.13357089181E+02  0.13533336111E+02  0.41721884466E+02  0.45850612440E+02  0.00000000000E+00 0.  1.
         22    1    3    3    0    0 -0.27596016000E+02 -0.94246204836E+02 -0.33719672623E+02  0.10383112995E+03  0.00000000000E+00 0.  1.
</event>
<event>
 7    1  0.6122433E-006  0.7808563E+02  0.7818608E-02  0.1346336E+00
          2   -1    0    0  502    0  0.00000000000E+00  0.00000000000E+00  0.15167094365E+04  0.15167094365E+04  0.00000000000E+00 0. -1.
          1   -1    0    0  501    0 -0.00000000000E+00 -0.00000000000E+00 -0.53589201675E+03  0.53589201675E+03  0.00000000000E+00 0. -1.
         25    2    1    2    0    0  0.84872763553E+02  0.31746648393E+02 -0.15972142067E+03  0.22214166407E+03  0.12499900406E+03 0.  0.
          2    1    1    2  501    0 -0.28979674696E+02 -0.74757216019E+02 -0.33945054247E+03  0.34879095986E+03  0.00000000000E+00 0. -1.
          1    1    1    2  502    0 -0.55893088857E+02  0.43010567626E+02  0.14799893829E+04  0.14816688294E+04  0.00000000000E+00 0. -1.
         22    1    3    3    0    0  0.57454449967E+02  0.52336541348E+02 -0.22802131377E+02  0.80994225576E+02  0.00000000000E+00 0.  1.
         22    1    3    3    0    0  0.27418313586E+02 -0.20589892955E+02 -0.13691928930E+03  0.14114743849E+03  0.00000000000E+00 0.  1.
</event>
<event>
 7    1  0.6067783E-006  0.4042672E+02  0.7818608E-02  0.1507601E+00
          2   -1    0    0  502    0  0.00000000000E+00  0.00000000000E+00  0.21396882174E+04  0.21396882174E+04  0.00000000000E+00 0. -1.
          1   -1    0    0  501    0 -0.00000000000E+00 -0.00000000000E+00 -0.93606784486E+01  0.93606784486E+01  0.00000000000E+00 0. -1.
         25    2    1    2    0    0 -0.55547714708E+01 -0.10617967993E+02  0.13145012899E+04  0.13204855859E+04  0.12499977880E+03 0.  0.
          2    1    1    2  501    0  0.42300018463E+02 -0.45226423597E+01  0.71656257196E+02  0.83332856973E+02  0.00000000000E+00 0. -1.
          1    1    1    2  502    0 -0.36745246993E+02  0.15140610353E+02  0.74416999188E+03  0.74523045299E+03  0.00000000000E+00 0. -1.
         22    1    3    3    0    0  0.16475458589E+02 -0.57815312058E+02  0.99065968237E+03  0.99248206902E+03  0.00000000000E+00 0.  1.
         22    1    3    3    0    0 -0.22030230060E+02  0.47197344065E+02  0.32384160749E+03  0.32800351685E+03  0.00000000000E+00 0.  1.
</event>
<event>
 7    1  0.6067783E-006  0.5284689E+02  0.7818608E-02  0.1455948E+00
          2   -1    0    0  502    0  0.00000000000E+00  0.00000000000E+00  0.14831444937E+04  0.14831444937E+04  0.00000000000E+00 0. -1.
          1   -1    0    0  501    0 -0.00000000000E+00 -0.00000000000E+00 -0.80006226971E+02  0.80006226971E+02  0.00000000000E+00 0. -1.
         25    2    1    2    0    0 -0.23714324048E+01 -0.11090757723E+02  0.64169273328E+03  0.65385266521E+03  0.12500046105E+03 0.  0.
          2    1    1    2  501    0  0.34125318658E+02  0.41191770719E+02 -0.63593912990E+02  0.83099248600E+02  0.00000000000E+00 0. -1.
          1    1    1    2  502    0 -0.31753886253E+02 -0.30101012996E+02  0.82503944647E+03  0.82619880689E+03  0.00000000000E+00 0. -1.
         22    1    3    3    0    0 -0.63365606617E+02 -0.75987508647E+01  0.29585245537E+03  0.30265758948E+03  0.00000000000E+00 0. -1.
         22    1    3    3    0    0  0.60994174212E+02 -0.34920068585E+01  0.34584027791E+03  0.35119507574E+03  0.00000000000E+00 0. -1.
</event>
<event>
 7    1  0.6067783E-006  0.4303268E+02  0.7818608E-02  0.1492595E+00
          2   -1    0    0  502    0  0.00000000000E+00  0.00000000000E+00  0.36179147705E+04  0.36179147705E+04  0.00000000000E+00 0. -1.
          1   -1    0    0  501    0 -0.00000000000E+00 -0.00000000000E+00 -0.62878328249E+02  0.62878328249E+02  0.00000000000E+00 0. -1.
         25    2    1    2    0    0 -0.11763122963E+02 -0.33082927572E+02  0.13149786225E+04  0.13213729678E+04  0.12499956505E+03 0.  0.
          2    1    1    2  501    0 -0.29595438156E+02  0.31459985447E+02 -0.51654788572E+02  0.67333779238E+02  0.00000000000E+00 0. -1.
          1    1    1    2  502    0  0.41358561119E+02  0.16229421247E+01  0.22917126083E+04  0.22920863517E+04  0.00000000000E+00 0. -1.
         22    1    3    3    0    0  0.44494011581E+02  0.12372774898E+02  0.80102975990E+03  0.80235994346E+03  0.00000000000E+00 0.  1.
         22    1    3    3    0    0 -0.56257134544E+02 -0.45455702470E+02  0.51394886258E+03  0.51901302433E+03  0.00000000000E+00 0.  1.
</event>
<event>
 7    1  0.8172575E-006  0.6065095E+02  0.7818608E-02  0.1414228E+00
          2   -1    0    0  502    0  0.00000000000E+00  0.00000000000E+00  0.80373577913E+03  0.80373577913E+03  0.00000000000E+00 0. -1.
          1   -1    0    0  501    0 -0.00000000000E+00 -0.00000000000E+00 -0.12670562725E+04  0.12670562725E+04  0.00000000000E+00 0. -1.
         25    2    1    2    0    0  0.33189367616E+02 -0.18788368665E+02 -0.66700220597E+03  0.67968442447E+03  0.12499774866E+03 0.  0.
          2    1    1    2  501    0 -0.31117495144E+02 -0.41897239825E+02 -0.59140620214E+03  0.59370444932E+03  0.00000000000E+00 0. -1.
          1    1    1    2  502    0 -0.20718724722E+01  0.60685608490E+02  0.79508791478E+03  0.79740317780E+03  0.00000000000E+00 0. -1.
         22    1    3    3    0    0 -0.16594184403E+02 -0.60094122791E+02 -0.24788434775E+03  0.25560383489E+03  0.00000000000E+00 0. -1.
         22    1    3    3    0    0  0.49783552019E+02  0.41305754126E+02 -0.41911785822E+03  0.42408058958E+03  0.00000000000E+00 0. -1.
</event>
<event>
 7    1  0.6067783E-006  0.8526074E+02  0.7818608E-02  0.1389270E+00
          2   -1    0    0  502    0  0.00000000000E+00  0.00000000000E+00  0.11642836583E+04  0.11642836583E+04  0.00000000000E+00 0. -1.
          1   -1    0    0  501    0 -0.00000000000E+00 -0.00000000000E+00 -0.48057335552E+03  0.48057335552E+03  0.00000000000E+00 0. -1.
         25    2    1    2    0    0 -0.43766487834E+02 -0.13213185871E+02 -0.84518976564E+01  0.13336728727E+03  0.12500122000E+03 0.  0.
          2    1    1    2  501    0 -0.42460107487E+02  0.15538883782E+02 -0.40672090940E+03  0.40922636252E+03  0.00000000000E+00 0. -1.
          1    1    1    2  502    0  0.86226595321E+02 -0.23256979112E+01  0.10988831099E+04  0.11022633641E+04  0.00000000000E+00 0. -1.
         22    1    3    3    0    0  0.83995176228E+01  0.23793275053E+02 -0.50757053041E+02  0.56682892194E+02  0.00000000000E+00 0. -1.
         22    1    3    3    0    0 -0.52166005457E+02 -0.37006460924E+02  0.42305155385E+02  0.76684395072E+02  0.00000000000E+00 0. -1.
</event>
<event>
 7    1  0.6067783E-006  0.6516651E+02  0.7818608E-02  0.1479486E+00
          2   -1    0    0  502    0  0.00000000000E+00  0.00000000000E+00  0.33813493434E+03  0.33813493434E+03  0.00000000000E+00 0. -1.
          1   -1    0    0  501    0 -0.00000000000E+00 -0.00000000000E+00 -0.16022248974E+04  0.16022248974E+04  0.00000000000E+00 0. -1.
         25    2    1    2    0    0  0.61902632381E+02 -0.36968101782E+02 -0.41459619087E+03  0.43899236109E+03  0.12500286064E+03 0.  0.
          2    1    1    2  501    0 -0.64708008064E+02  0.71390789073E+01 -0.11738382815E+04  0.11756421240E+04  0.00000000000E+00 0. -1.
          1    1    1    2  502    0  0.28053756833E+01  0.29829022875E+02  0.32434450927E+03  0.32572534662E+03  0.00000000000E+00 0. -1.
         22    1    3    3    0    0  0.58483480742E+02  0.16279315318E+02 -0.81365303332E+02  0.10151672874E+03  0.00000000000E+00 0. -1.
         22    1    3    3    0    0  0.34191516390E+01 -0.53247417101E+02 -0.33323088753E+03  0.33747563235E+03  0.00000000000E+00 0. -1.
</event>
<event>
 7    1  0.6067783E-006  0.1005046E+03  0.7818608E-02  0.1288163E+00
          2   -1    0    0  502    0  0.00000000000E+00  0.00000000000E+00  0.12793105776E+03  0.12793105776E+03  0.00000000000E+00 0. -1.
          1   -1    0    0  501    0 -0.00000000000E+00 -0.00000000000E+00 -0.17037379042E+04  0.17037379042E+04  0.00000000000E+00 0. -1.
         25    2    1    2    0    0 -0.41556494260E+02  0.27118810114E+02 -0.46326785070E+03  0.48239371088E+03  0.12499687484E+03 0.  0.
          2    1    1    2  501    0 -0.15936331526E+02 -0.10955513267E+03 -0.12065719866E+04  0.12116403149E+04  0.00000000000E+00 0. -1.
          1    1    1    2  502    0  0.57492825786E+02  0.82436322557E+02  0.94032990872E+02  0.13763493621E+03  0.00000000000E+00 0. -1.
         22    1    3    3    0    0 -0.57186351086E+02 -0.35608277833E+02 -0.28228569784E+03  0.29021275541E+03  0.00000000000E+00 0.  1.
         22    1    3    3    0    0  0.15629856826E+02  0.62727087947E+02 -0.18098215287E+03  0.19218095547E+03  0.00000000000E+00 0.  1.
</event>
<event>
 7    1  0.6067783E-006  0.1126160E+03  0.7818608E-02  0.1271739E+00
          2   -1    0    0  502    0  0.00000000000E+00  0.00000000000E+00  0.81901000699E+03  0.81901000699E+03  0.00000000000E+00 0. -1.
          1   -1    0    0  501    0 -0.00000000000E+00 -0.00000000000E+00 -0.23151538593E+03  0.23151538593E+03  0.00000000000E+00 0. -1.
         25    2    1    2    0    0  0.22956749457E+02  0.25535652533E+02  0.14003693102E+03  0.19082618981E+03  0.12500084309E+03 0.  0.
          2    1    1    2  501    0 -0.11933662131E+03 -0.25469630550E+02 -0.18407891373E+03  0.22085057787E+03  0.00000000000E+00 0. -1.
          1    1    1    2  502    0  0.96379871851E+02 -0.66021983224E-01  0.63153660378E+03  0.63884862524E+03  0.00000000000E+00 0. -1.
         22    1    3    3    0    0  0.39220005399E+02  0.50185238814E+02  0.14724304633E+03  0.16042843174E+03  0.00000000000E+00 0.  1.
         22    1    3    3    0    0 -0.16263255942E+02 -0.24649586282E+02 -0.72061153162E+01  0.30397758069E+02  0.00000000000E+00 0.  1.
</event>
<event>
 7    1  0.6067783E-006  0.8599236E+02  0.7818608E-02  0.1351141E+00
          2   -1    0    0  502    0  0.00000000000E+00  0.00000000000E+00  0.86637478781E+03  0.86637478781E+03  0.00000000000E+00 0. -1.
          1   -1    0    0  501    0 -0.00000000000E+00 -0.00000000000E+00 -0.13586593175E+03  0.13586593175E+03  0.00000000000E+00 0. -1.
         25    2    1    2    0    0  0.56172931805E+02  0.60493478954E+02  0.75650066032E+02  0.16781795778E+03  0.12500030080E+03 0.  0.
          2    1    1    2  501    0 -0.55291514852E+02  0.26846715319E+02 -0.76349581089E+02  0.98016102098E+02  0.00000000000E+00 0. -1.
          1    1    1    2  502    0 -0.88141695301E+00 -0.87340194273E+02  0.73120837112E+03  0.73640665968E+03  0.00000000000E+00 0. -1.
         22    1    3    3    0    0 -0.13111687000E+02 -0.13908666415E+02  0.62436106990E+02  0.65296514405E+02  0.00000000000E+00 0.  1.
         22    1    3    3    0    0  0.69284618805E+02  0.74402145369E+02  0.13213959042E+02  0.10252144338E+03  0.00000000000E+00 0.  1.
</event>
<event>
 7    1  0.6067783E-006  0.6808011E+02  0.7818608E-02  0.1386544E+00
          2   -1    0    0  502    0  0.00000000000E+00  0.00000000000E+00  0.65194900612E+03  0.65194900612E+03  0.00000000000E+00 0. -1.
          1   -1    0    0  501    0 -0.00000000000E+00 -0.00000000000E+00 -0.53176178622E+02  0.53176178622E+02  0.00000000000E+00 0. -1.
         25    2    1    2    0    0 -0.37488428611E+02  0.32429360190E+02  0.37591116468E+03  0.39923755165E+03  0.12499749291E+03 0.  0.
          2    1    1    2  501    0 -0.29419631950E+02 -0.61395333761E+02 -0.34042269587E+01  0.68165170819E+02  0.00000000000E+00 0. -1.
          1    1    1    2  502    0  0.66908060561E+02  0.28965973570E+02  0.22626588977E+03  0.23772246227E+03  0.00000000000E+00 0. -1.
         22    1    3    3    0    0 -0.16022917685E+02 -0.44216774206E+02  0.79919752505E+02  0.92730921773E+02  0.00000000000E+00 0. -1.
         22    1    3    3    0    0 -0.21465510926E+02  0.76646134397E+02  0.29599141218E+03  0.30650662988E+03  0.00000000000E+00 0. -1.
</event>
<event>
 7    1  0.6067783E-006  0.1333493E+03  0.7818608E-02  0.1425562E+00
          2   -1    0    0  502    0  0.00000000000E+00  0.00000000000E+00  0.48260402685E+03  0.48260402685E+03  0.00000000000E+00 0. -1.
          1   -1    0    0  501    0 -0.00000000000E+00 -0.00000000000E+00 -0.25411779156E+03  0.25411779156E+03  0.00000000000E+00 0. -1.
         25    2    1    2    0    0 -0.19177826111E+02  0.12406380259E+03  0.30383512714E+03  0.35171033944E+03  0.12499904902E+03 0.  0.
          2    1    1    2  501    0  0.81500065466E+01  0.20170816973E+02 -0.19565807619E+03  0.19686382919E+03  0.00000000000E+00 0. -1.
          1    1    1    2  502    0  0.11027819564E+02 -0.14423461956E+03  0.12030918434E+03  0.18814764979E+03  0.00000000000E+00 0. -1.
         22    1    3    3    0    0  0.50346597075E+02  0.41458181904E+02  0.80162333108E+02  0.10334195824E+03  0.00000000000E+00 0. -1.
         22    1    3    3    0    0 -0.69524423185E+02  0.82605620685E+02  0.22367279403E+03  0.24836838120E+03  0.00000000000E+00 0. -1.
</event>
<event>
 7    1  0.6067783E-006  0.5862201E+02  0.7818608E-02  0.1481767E+00
          2   -1    0    0  502    0  0.00000000000E+00  0.00000000000E+00  0.38630410449E+03  0.38630410449E+03  0.00000000000E+00 0. -1.
          1   -1    0    0  501    0 -0.00000000000E+00 -0.00000000000E+00 -0.76710344190E+03  0.76710344190E+03  0.00000000000E+00 0. -1.
         25    2    1    2    0    0  0.36023274615E+02  0.78283843776E+01  0.14611485949E+03  0.19578794144E+03  0.12499762371E+03 0.  0.
          2    1    1    2  501    0  0.15380709055E+02  0.28940241038E+02 -0.73725807682E+03  0.73798616220E+03  0.00000000000E+00 0. -1.
          1    1    1    2  502    0 -0.51403983670E+02 -0.36768625416E+02  0.21034387992E+03  0.21963344275E+03  0.00000000000E+00 0. -1.
         22    1    3    3    0    0  0.15332216106E+02  0.56333608219E+02  0.12685821509E+03  0.13964798245E+03  0.00000000000E+00 0.  1.
         22    1    3    3    0    0  0.20691058509E+02 -0.48505223842E+02  0.19256644399E+02  0.56139958992E+02  0.00000000000E+00 0.  1.
</event>
<event>
 7    1  0.6067783E-006  0.2965594E+03  0.7818608E-02  0.1223850E+00
          2   -1    0    0  502    0  0.00000000000E+00  0.00000000000E+00  0.39320757314E+03  0.39320757314E+03  0.00000000000E+00 0. -1.
          1   -1    0    0  501    0 -0.00000000000E+00 -0.00000000000E+00 -0.14779367968E+04  0.14779367968E+04  0.00000000000E+00 0. -1.
         25    2    1    2    0    0 -0.31460786133E+03  0.14185795717E+03 -0.72940362908E+03  0.81655143635E+03  0.12499923073E+03 0.  0.
          2    1    1    2  501    0  0.38258244641E+02 -0.45129770221E+02 -0.64206320304E+03  0.64478333271E+03  0.00000000000E+00 0. -1.
          1    1    1    2  502    0  0.27634961669E+03 -0.96728186947E+02  0.28673760850E+03  0.40980960082E+03  0.00000000000E+00 0. -1.
         22    1    3    3    0    0  0.60768360987E+01 -0.78017398712E+01 -0.69751633165E+01  0.12101569538E+02  0.00000000000E+00 0.  1.
         22    1    3    3    0    0 -0.32068469743E+03  0.14965969704E+03 -0.72242846576E+03  0.80444986682E+03  0.00000000000E+00 0.  1.
</event>
<event>
 7    1  0.6067783E-006  0.9726704E+02  0.7818608E-02  0.1357722E+00
          2   -1    0    0  502    0  0.00000000000E+00  0.00000000000E+00  0.68654413850E+03  0.68654413850E+03  0.00000000000E+00 0. -1.
          1   -1    0    0  501    0 -0.00000000000E+00 -0.00000000000E+00 -0.34738468046E+03  0.34738468046E+03  0.00000000000E+00 0. -1.
         25    2    1    2    0    0  0.10500603058E+03  0.16951259762E+02 -0.61949482998E+02  0.17543212671E+03  0.12500032389E+03 0.  0.
          2    1    1    2  501    0 -0.13276321059E+02 -0.49647770963E+02 -0.22197603811E+03  0.22784758800E+03  0.00000000000E+00 0. -1.
          1    1    1    2  502    0 -0.91729709522E+02  0.32696511202E+02  0.62308497915E+03  0.63064910425E+03  0.00000000000E+00 0. -1.
         22    1    3    3    0    0  0.56103641099E+02 -0.84084757953E+01 -0.95393717484E+02  0.11098775764E+03  0.00000000000E+00 0.  1.
         22    1    3    3    0    0  0.48902389482E+02  0.25359735557E+02  0.33444234487E+02  0.64444369071E+02  0.00000000000E+00 0.  1.
</event>
<event>
 7    1  0.6067783E-006  0.4997704E+02  0.7818608E-02  0.1474650E+00
          2   -1    0    0  502    0  0.00000000000E+00  0.00000000000E+00  0.33450960176E+03  0.33450960176E+03  0.00000000000E+00 0. -1.
          1   -1    0    0  501    0 -0.00000000000E+00 -0.00000000000E+00 -0.16284011244E+03  0.16284011244E+03  0.00000000000E+00 0. -1.
         25    2    1    2    0    0 -0.41362768916E+02 -0.72707566506E+02 -0.60083579195E+02  0.16196382846E+03  0.12499990544E+03 0.  0.
          2    1    1    2  501    0  0.17384546800E+02  0.40155911812E+02 -0.40813621752E+02  0.59837040714E+02  0.00000000000E+00 0. -1.
          1    1    1    2  502    0  0.23978222116E+02  0.32551654694E+02  0.27256669026E+03  0.27554884503E+03  0.00000000000E+00 0. -1.
         22    1    3    3    0    0  0.16707302719E+02  0.72540194071E+01 -0.60455925156E+02  0.63140111246E+02  0.00000000000E+00 0.  1.
         22    1    3    3    0    0 -0.58070071635E+02 -0.79961585913E+02  0.37234596101E+00  0.98823717209E+02  0.00000000000E+00 0.  1.
</event>
<event>
 7    1  0.6067783E-006  0.1807194E+03  0.7818608E-02  0.1312622E+00
          2   -1    0    0  502    0  0.00000000000E+00  0.00000000000E+00  0.22737326280E+04  0.22737326280E+04  0.00000000000E+00 0. -1.
          1   -1    0    0  501    0 -0.00000000000E+00 -0.00000000000E+00 -0.23444442701E+03  0.23444442701E+03  0.00000000000E+00 0. -1.
         25    2    1    2    0    0 -0.12571837382E+03 -0.17244056608E+03  0.57907538813E+03  0.62967659725E+03  0.12499381441E+03 0.  0.
          2    1    1    2  501    0  0.88467031651E+02  0.15530052530E+03 -0.17065395000E+03  0.24711827026E+03  0.00000000000E+00 0. -1.
          1    1    1    2  502    0  0.37251342171E+02  0.17140040789E+02  0.16308667629E+04  0.16313821875E+04  0.00000000000E+00 0. -1.
         22    1    3    3    0    0 -0.14206630615E+03 -0.17663663617E+03  0.50247779818E+03  0.55124157521E+03  0.00000000000E+00 0. -1.
         22    1    3    3    0    0  0.16347932331E+02  0.41960700856E+01  0.76597589952E+02  0.78435022038E+02  0.00000000000E+00 0. -1.
</event>
<event>
 7    1  0.6067783E-006  0.9199512E+02  0.7818608E-02  0.1457869E+00
          2   -1    0    0  502    0  0.00000000000E+00  0.00000000000E+00  0.64374650929E+03  0.64374650929E+03  0.00000000000E+00 0. -1.
          1   -1    0    0  501    0 -0.00000000000E+00 -0.00000000000E+00 -0.11198264889E+04  0.11198264889E+04  0.00000000000E+00 0. -1.
         25    2    1    2    0    0 -0.81080039515E+02 -0.10402350820E+02 -0.15670226714E+03  0.21647744687E+03  0.12499881105E+03 0.  0.
          2    1    1    2  501    0  0.92237534902E+02 -0.11728862373E+02 -0.93066893621E+03  0.93530208910E+03  0.00000000000E+00 0. -1.
          1    1    1    2  502    0 -0.11157495387E+02  0.22131213193E+02  0.61129122370E+03  0.61179346226E+03  0.00000000000E+00 0. -1.
         22    1    3    3    0    0 -0.49035235022E+01  0.28184208152E+02  0.90644033957E+01  0.30009290908E+02  0.00000000000E+00 0.  1.
         22    1    3    3    0    0 -0.76176516013E+02 -0.38586558971E+02 -0.16576667054E+03  0.18646815596E+03  0.00000000000E+00 0.  1.
</event>
<event>
 7    1  0.6067783E-006  0.1763866E+03  0.7818608E-02  0.1339301E+00
          2   -1    0    0  502    0  0.00000000000E+00  0.00000000000E+00  0.14582672478E+03  0.14582672478E+03  0.00000000000E+00 0. -1.
          1   -1    0    0  501    0 -0.00000000000E+00 -0.00000000000E+00 -0.95349104725E+03  0.95349104725E+03  0.00000000000E+00 0. -1.
         25    2    1    2    0    0 -0.23379136653E+02  0.16071250501E+03 -0.13380724429E+03  0.24476045541E+03  0.12501283379E+03 0.  0.
          2    1    1    2  501    0 -0.29327886402E+02  0.15505963515E+02 -0.66975855757E+03  0.67057966363E+03  0.00000000000E+00 0. -1.
          1    1    1    2  502    0  0.52707023055E+02 -0.17621846853E+03 -0.40985205971E+01  0.18397765299E+03  0.00000000000E+00 0. -1.
         22    1    3    3    0    0 -0.16344255249E+02  0.33506430570E+02  0.22163497734E+02  0.43370914228E+02  0.00000000000E+00 0.  1.
         22    1    3    3    0    0 -0.70348814038E+01  0.12720607444E+03 -0.15597074202E+03  0.20138954118E+03  0.00000000000E+00 0.  1.
</event>
<event>
 7    1  0.6067783E-006  0.9924412E+02  0.7818608E-02  0.1370596E+00
          2   -1    0    0  502    0  0.00000000000E+00  0.00000000000E+00  0.18460738273E+03  0.18460738273E+03  0.00000000000E+00 0. -1.
          1   -1    0    0  501    0 -0.00000000000E+00 -0.00000000000E+00 -0.10026397275E+04  0.10026397275E+04  0.00000000000E+00 0. -1.
         25    2    1    2    0    0 -0.67830373483E+02 -0.83824999995E+02 -0.98375461708E+02  0.19217460649E+03  0.12500303085E+03 0.  0.
          2    1    1    2  501    0  0.24339291932E+02  0.96261019547E+02 -0.85068306237E+03  0.85645797189E+03  0.00000000000E+00 0. -1.
          1    1    1    2  502    0  0.43491081551E+02 -0.12436019552E+02  0.13102617934E+03  0.13861453181E+03  0.00000000000E+00 0. -1.
         22    1    3    3    0    0 -0.57502492538E+02 -0.65068492655E+02 -0.12857688448E+03  0.15515302320E+03  0.00000000000E+00 0. -1.
         22    1    3    3    0    0 -0.10327880944E+02 -0.18756507340E+02  0.30201422770E+02  0.37021583296E+02  0.00000000000E+00 0. -1.
</event>
<event>
 7    1  0.6067783E-006  0.7454962E+02  0.7818608E-02  0.1412868E+00
          2   -1    0    0  502    0  0.00000000000E+00  0.00000000000E+00  0.20901462170E+04  0.20901462170E+04  0.00000000000E+00 0. -1.
          1   -1    0    0  501    0 -0.00000000000E+00 -0.00000000000E+00 -0.39542928835E+02  0.39542928835E+02  0.00000000000E+00 0. -1.
         25    2    1    2    0    0  0.28349262691E+02  0.10636635454E+03  0.10495302365E+04  0.10626655390E+04  0.12500739339E+03 0.  0.
          2    1    1    2  501    0 -0.18740004113E+02 -0.38601077436E+02 -0.17363693601E+02  0.46289618586E+02  0.00000000000E+00 0. -1.
          1    1    1    2  502    0 -0.96092585780E+01 -0.67765277102E+02  0.10184367453E+04  0.10207339883E+04  0.00000000000E+00 0. -1.
         22    1    3    3    0    0 -0.28902466902E+02  0.64336031577E+02  0.80348445786E+03  0.80657408313E+03  0.00000000000E+00 0.  1.
         22    1    3    3    0    0  0.57251729594E+02  0.42030322961E+02  0.24604577862E+03  0.25609145586E+03  0.00000000000E+00 0.  1.
</event>
<event>
 7    1  0.6067783E-006  0.1371929E+03  0.7818608E-02  0.1402822E+00
          2   -1    0    0  502    0  0.00000000000E+00  0.00000000000E+00  0.19072753125E+04  0.19072753125E+04  0.00000000000E+00 0. -1.
          1   -1    0    0  501    0 -0.00000000000E+00 -0.00000000000E+00 -0.17703286081E+03  0.17703286081E+03  0.00000000000E+00 0. -1.
         25    2    1    2    0    0  0.91860440581E+02 -0.69973301454E+02  0.30866364207E+03  0.35246691681E+03  0.12500032021E+03 0.  0.
          2    1    1    2  501    0 -0.10497887840E+03  0.91517985686E+02 -0.12374996357E+03  0.18630662923E+03  0.00000000000E+00 0. -1.
          1    1    1    2  502    0  0.13118437818E+02 -0.21544684233E+02  0.15453287732E+04  0.15455346272E+04  0.00000000000E+00 0. -1.
         22    1    3    3    0    0  0.90511525799E+02 -0.48759389510E+02  0.31412374650E+03  0.33052010904E+03  0.00000000000E+00 0. -1.
         22    1    3    3    0    0  0.13489147818E+01 -0.21213911944E+02 -0.54601044262E+01  0.21946807772E+02  0.00000000000E+00 0. -1.
</event>
<event>
 7    1  0.6067783E-006  0.6007389E+02  0.7818608E-02  0.1409121E+00
          2   -1    0    0  502    0  0.00000000000E+00  0.00000000000E+00  0.84235721249E+02  0.84235721249E+02  0.00000000000E+00 0. -1.
          1   -1    0    0  501    0 -0.00000000000E+00 -0.00000000000E+00 -0.11450660186E+04  0.11450660186E+04  0.00000000000E+00 0. -1.
         25    2    1    2    0    0  0.14415723139E+02  0.11294699032E+03 -0.62231990204E+03  0.64488006064E+03  0.12499358558E+03 0.  0.
          2    1    1    2  501    0 -0.65887517381E+01 -0.54429536835E+02 -0.49776514514E+03  0.50077552441E+03  0.00000000000E+00 0. -1.
          1    1    1    2  502    0 -0.78269714012E+01 -0.58517453489E+02  0.59254749801E+02  0.83646154832E+02  0.00000000000E+00 0. -1.
         22    1    3    3    0    0 -0.27529147057E+02  0.12290175518E+03 -0.46825976021E+03  0.48490194720E+03  0.00000000000E+00 0. -1.
         22    1    3    3    0    0  0.41944870196E+02 -0.99547648540E+01 -0.15406014184E+03  0.15997811344E+03  0.00000000000E+00 0. -1.
</event>
<event>
 7    1  0.6067783E-006  0.5642937E+02  0.7818608E-02  0.1466265E+00
          2   -1    0    0  502    0  0.00000000000E+00  0.00000000000E+00  0.81314935465E+03  0.81314935465E+03  0.00000000000E+00 0. -1.
          1   -1    0    0  501    0 -0.00000000000E+00 -0.00000000000E+00 -0.14551776128E+03  0.14551776128E+03  0.00000000000E+00 0. -1.
         25    2    1    2    0    0  0.24004218074E+02  0.85203538582E+02  0.34853130850E+03  0.38070285467E+03  0.12499898031E+03 0.  0.
          2    1    1    2  501    0 -0.20691548629E+02 -0.31898534454E+02 -0.12500479479E+03  0.13065931044E+03  0.00000000000E+00 0. -1.
          1    1    1    2  502    0 -0.33126694445E+01 -0.53305004127E+02  0.44410507966E+03  0.44730495082E+03  0.00000000000E+00 0. -1.
         22    1    3    3    0    0  0.44830719589E+02  0.97572240061E+02  0.17376225196E+03  0.20426320191E+03  0.00000000000E+00 0.  1.
         22    1    3    3    0    0 -0.20826501516E+02 -0.12368701479E+02  0.17476905654E+03  0.17643965275E+03  0.00000000000E+00 0.  1.
</event>
<event>
 7    1  0.6067783E-006  0.8016463E+02  0.7818608E-02  0.1434862E+00
          2   -1    0    0  502    0  0.00000000000E+00  0.00000000000E+00  0.76419157514E+03  0.76419157514E+03  0.00000000000E+00 0. -1.
          1   -1    0    0  501    0 -0.00000000000E+00 -0.00000000000E+00 -0.24118960252E+02  0.24118960252E+02  0.00000000000E+00 0. -1.
         25    2    1    2    0    0 -0.35583999940E+02  0.48351961580E+02  0.33092024371E+03  0.35879776963E+03  0.12499399408E+03 0.  0.
          2    1    1    2  501    0 -0.32739381283E+02  0.80969261900E+01  0.55665901715E+02  0.65085481594E+02  0.00000000000E+00 0. -1.
          1    1    1    2  502    0  0.68323381223E+02 -0.56448887770E+02  0.35348646947E+03  0.36442728417E+03  0.00000000000E+00 0. -1.
         22    1    3    3    0    0 -0.17454232490E+02 -0.12042924343E+02 -0.71805364548E+00  0.21217866518E+02  0.00000000000E+00 0. -1.
         22    1    3    3    0    0 -0.18129767450E+02  0.60394885922E+02  0.33163829736E+03  0.33757990311E+03  0.00000000000E+00 0. -1.
</event>
<event>
 7    1  0.6067783E-006  0.1012952E+03  0.7818608E-02  0.1280950E+00
          2   -1    0    0  502    0  0.00000000000E+00  0.00000000000E+00  0.45535970467E+03  0.45535970467E+03  0.00000000000E+00 0. -1.
          1   -1    0    0  501    0 -0.00000000000E+00 -0.00000000000E+00 -0.10780848438E+04  0.10780848438E+04  0.00000000000E+00 0. -1.
         25    2    1    2    0    0  0.55679513176E+02  0.18342362968E+03  0.22408642920E+03  0.32028632904E+03  0.12499667477E+03 0.  0.
          2    1    1    2  501    0 -0.32864027378E+01 -0.10047494881E+03 -0.10141819505E+04  0.10191521204E+04  0.00000000000E+00 0. -1.
          1    1    1    2  502    0 -0.52393110438E+02 -0.82948680866E+02  0.16737038211E+03  0.19400609910E+03  0.00000000000E+00 0. -1.
         22    1    3    3    0    0  0.95206483321E+02  0.11458102079E+03  0.15597307562E+03  0.21568654365E+03  0.00000000000E+00 0. -1.
         22    1    3    3    0    0 -0.39526970145E+02  0.68842608887E+02  0.68113353579E+02  0.10459978539E+03  0.00000000000E+00 0. -1.
</event>
<event>
 7    1  0.6067783E-006  0.8458792E+02  0.7818608E-02  0.1319671E+00
          2   -1    0    0  502    0  0.00000000000E+00  0.00000000000E+00  0.36935957901E+03  0.36935957901E+03  0.00000000000E+00 0. -1.
          1   -1    0    0  501    0 -0.00000000000E+00 -0.00000000000E+00 -0.14746213897E+04  0.14746213897E+04  0.00000000000E+00 0. -1.
         25    2    1    2    0    0  0.60804251790E+02  0.86047010581E+02  0.10992187955E+03  0.19700040221E+03  0.12500037521E+03 0.  0.
          2    1    1    2  501    0 -0.84408534059E+02 -0.72796717314E+01 -0.14219458465E+04  0.14244675442E+04  0.00000000000E+00 0. -1.
          1    1    1    2  502    0  0.23604282269E+02 -0.78767338850E+02  0.20676215626E+03  0.22251302225E+03  0.00000000000E+00 0. -1.
         22    1    3    3    0    0  0.15446597475E+02  0.71434623624E+01 -0.27401181254E+02  0.32256025208E+02  0.00000000000E+00 0. -1.
         22    1    3    3    0    0  0.45357654315E+02  0.78903548219E+02  0.13732306080E+03  0.16474437700E+03  0.00000000000E+00 0. -1.
</event>
<event>
 7    1  0.6067783E-006  0.7945594E+02  0.7818608E-02  0.1422045E+00
          2   -1    0    0  502    0  0.00000000000E+00  0.00000000000E+00  0.96014392469E+02  0.96014392469E+02  0.00000000000E+00 0. -1.
          1   -1    0    0  501    0 -0.00000000000E+00 -0.00000000000E+00 -0.25469339970E+04  0.25469339970E+04  0.00000000000E+00 0. -1.
         25    2    1    2    0    0  0.41901127234E+02  0.87869551270E+02 -0.25041599881E+03  0.29632557709E+03  0.12499565063E+03 0.  0.
          2    1    1    2  501    0 -0.57879794988E+02 -0.53936599260E+02 -0.22680138431E+04  0.22693933154E+04  0.00000000000E+00 0. -1.
          1    1    1    2  502    0  0.15978667754E+02 -0.33932952011E+02  0.67510237376E+02  0.77229496994E+02  0.00000000000E+00 0. -1.
         22    1    3    3    0    0  0.42143919466E+01  0.54563604952E+02 -0.16639215648E+02  0.57199751592E+02  0.00000000000E+00 0.  1.
         22    1    3    3    0    0  0.37686735287E+02  0.33305946318E+02 -0.23377678316E+03  0.23912582550E+03  0.00000000000E+00 0.  1.
</event>
<event>
 7    1  0.6067783E-006  0.1721246E+03  0.7818608E-02  0.1354368E+00
          2   -1    0    0  502    0  0.00000000000E+00  0.00000000000E+00  0.72283150654E+03  0.72283150654E+03  0.00000000000E+00 0. -1.
          1   -1    0    0  501    0 -0.00000000000E+00 -0.00000000000E+00 -0.75863123628E+03  0.75863123628E+03  0.00000000000E+00 0. -1.
         25    2    1    2    0    0 -0.12974287460E+03  0.15151210754E+03  0.11888968518E+02  0.23567572842E+03  0.12495026671E+03 0.  0.
          2    1    1    2  501    0  0.11178503999E+03 -0.12763452778E+03 -0.63522418634E+03  0.65749238380E+03  0.00000000000E+00 0. -1.
          1    1    1    2  502    0  0.17957834617E+02 -0.23877579760E+02  0.58753548808E+03  0.58829463060E+03  0.00000000000E+00 0. -1.
         22    1    3    3    0    0 -0.97159517628E+02  0.15714540765E+03  0.43632987306E+02  0.18983805886E+03  0.00000000000E+00 0. -1.
         22    1    3    3    0    0 -0.32583356975E+02 -0.56333001064E+01 -0.31744018788E+02  0.45837669559E+02  0.00000000000E+00 0. -1.
</event>
<event>
 7    1  0.6067783E-006  0.7639949E+02  0.7818608E-02  0.1399907E+00
          2   -1    0    0  502    0  0.00000000000E+00  0.00000000000E+00  0.39117865434E+03  0.39117865434E+03  0.00000000000E+00 0. -1.
          1   -1    0    0  501    0 -0.00000000000E+00 -0.00000000000E+00 -0.31716543426E+03  0.31716543426E+03  0.00000000000E+00 0. -1.
         25    2    1    2    0    0  0.96768462444E+02 -0.16195555776E+02  0.98308339266E+02  0.18685797643E+03  0.12499976975E+03 0.  0.
          2    1    1    2  501    0 -0.25445422461E+02  0.38742677282E+02 -0.26520775527E+03  0.26922781807E+03  0.00000000000E+00 0. -1.
          1    1    1    2  502    0 -0.71323039983E+02 -0.22547121506E+02  0.24091263607E+03  0.25225829410E+03  0.00000000000E+00 0. -1.
         22    1    3    3    0    0  0.62110726329E+02 -0.61953722101E+02  0.20366919343E+02  0.90060076676E+02  0.00000000000E+00 0.  1.
         22    1    3    3    0    0  0.34657736115E+02  0.45758166325E+02  0.77941419923E+02  0.96797899758E+02  0.00000000000E+00 0.  1.
</event>
<event>
 7    1  0.6067783E-006  0.6537960E+02  0.7818608E-02  0.1470519E+00
          2   -1    0    0  502    0  0.00000000000E+00  0.00000000000E+00  0.23149399618E+04  0.23149399618E+04  0.00000000000E+00 0. -1.
          1   -1    0    0  501    0 -0.00000000000E+00 -0.00000000000E+00 -0.32864225070E+03  0.32864225070E+03  0.00000000000E+00 0. -1.
         25    2    1    2    0    0 -0.96209600626E+02 -0.71591620228E+01  0.14514835383E+03  0.21447688425E+03  0.12499899361E+03 0.  0.
          2    1    1    2  501    0  0.64712714071E+02  0.25673724055E+01 -0.29029084572E+03  0.29742747330E+03  0.00000000000E+00 0. -1.
          1    1    1    2  502    0  0.31496886555E+02  0.45917896173E+01  0.21314402030E+04  0.21316778550E+04  0.00000000000E+00 0. -1.
         22    1    3    3    0    0 -0.31800406238E+02 -0.27249480906E+02 -0.11910623822E+02  0.43539212284E+02  0.00000000000E+00 0.  1.
         22    1    3    3    0    0 -0.64409194388E+02  0.20090318883E+02  0.15705897766E+03  0.17093767197E+03  0.00000000000E+00 0.  1.
</event>
<event>
 7    1  0.6067783E-006  0.1034322E+03  0.7818608E-02  0.1431422E+00
          2   -1    0    0  502    0  0.00000000000E+00  0.00000000000E+00  0.13978065732E+04  0.13978065732E+04  0.00000000000E+00 0. -1.
          1   -1    0    0  501    0 -0.00000000000E+00 -0.00000000000E+00 -0.16600095592E+03  0.16600095592E+03  0.00000000000E+00 0. -1.
         25    2    1    2    0    0  0.92675168820E+02  0.71638799814E+02  0.18766089954E+02  0.17233300679E+03  0.12500277814E+03 0.  0.
          2    1    1    2  501    0 -0.25906776638E+02  0.69638289047E+01 -0.85108452906E+02  0.89236230001E+02  0.00000000000E+00 0. -1.
          1    1    1    2  502    0 -0.66768392182E+02 -0.78602628718E+02  0.12981479802E+04  0.13022382923E+04  0.00000000000E+00 0. -1.
         22    1    3    3    0    0  0.30116789570E+02  0.90030024771E+02  0.41044166167E+02  0.10342654374E+03  0.00000000000E+00 0. -1.
         22    1    3    3    0    0  0.62558379250E+02 -0.18391224958E+02 -0.22278076213E+02  0.68906463046E+02  0.00000000000E+00 0. -1.
</event>
<event>
 7    1  0.6067783E-006  0.9038152E+02  0.7818608E-02  0.1330229E+00
          2   -1    0    0  502    0  0.00000000000E+00  0.00000000000E+00  0.16884528823E+03  0.16884528823E+03  0.00000000000E+00 0. -1.
          1   -1    0    0  501    0 -0.00000000000E+00 -0.00000000000E+00 -0.75315614893E+03  0.75315614893E+03  0.00000000000E+00 0. -1.
         25    2    1    2    0    0  0.91635696998E+02 -0.69542783983E+02 -0.28303288035E+03  0.33009314219E+03  0.12498228432E+03 0.  0.
          2    1    1    2  501    0 -0.89355820715E+02 -0.50114777448E+00 -0.43331115607E+03  0.44242883249E+03  0.00000000000E+00 0. -1.
          1    1    1    2  502    0 -0.22798762833E+01  0.70043931757E+02  0.13203317573E+03  0.14947946248E+03  0.00000000000E+00 0. -1.
         22    1    3    3    0    0  0.37973345214E+02  0.12985081576E+02 -0.19154374959E+03  0.19570282394E+03  0.00000000000E+00 0. -1.
         22    1    3    3    0    0  0.53662351784E+02 -0.82527865559E+02 -0.91489130760E+02  0.13439031825E+03  0.00000000000E+00 0. -1.
</event>
<event>
 7    1  0.6067783E-006  0.6115973E+02  0.7818608E-02  0.1403193E+00
          2   -1    0    0  502    0  0.00000000000E+00  0.00000000000E+00  0.48353058187E+03  0.48353058187E+03  0.00000000000E+00 0. -1.
          1   -1    0    0  501    0 -0.00000000000E+00 -0.00000000000E+00 -0.22267616675E+03  0.22267616675E+03  0.00000000000E+00 0. -1.
         25    2    1    2    0    0  0.16921870163E+02  0.23547068904E+02  0.44410338256E+02  0.13578602870E+03  0.12499901321E+03 0.  0.
          2    1    1    2  501    0  0.27844135938E+02 -0.57883347266E+02 -0.16903882217E+03  0.18083114001E+03  0.00000000000E+00 0. -1.
          1    1    1    2  502    0 -0.44766006101E+02  0.34336278362E+02  0.38548289904E+03  0.38958957990E+03  0.00000000000E+00 0. -1.
         22    1    3    3    0    0  0.27700133999E+02 -0.14488607065E+02 -0.35092292126E+02  0.46996660785E+02  0.00000000000E+00 0. -1.
         22    1    3    3    0    0 -0.10778263836E+02  0.38035675969E+02  0.79502630382E+02  0.88789367919E+02  0.00000000000E+00 0. -1.
</event>
<event>
 7    1  0.6067783E-006  0.1459355E+03  0.7818608E-02  0.1332141E+00
          2   -1    0    0  502    0  0.00000000000E+00  0.00000000000E+00  0.11830846870E+04  0.11830846870E+04  0.00000000000E+00 0. -1.
          1   -1    0    0  501    0 -0.00000000000E+00 -0.00000000000E+00 -0.57935806930E+03  0.57935806930E+03  0.00000000000E+00 0. -1.
         25    2    1    2    0    0  0.87489960527E+02  0.99068727849E+02 -0.74780927297E+01  0.18207016161E+03  0.12499806337E+03 0.  0.
          2    1    1    2  501    0 -0.63236360739E+02 -0.13418782929E+03 -0.47280152137E+03  0.49552647705E+03  0.00000000000E+00 0. -1.
          1    1    1    2  502    0 -0.24253599788E+02  0.35119101445E+02  0.10840062318E+04  0.10848461177E+04  0.00000000000E+00 0. -1.
         22    1    3    3    0    0  0.44573201498E+02 -0.24667263128E+02 -0.14501377240E+01  0.50964174294E+02  0.00000000000E+00 0. -1.
         22    1    3    3    0    0  0.42916759028E+02  0.12373599098E+03 -0.60279550057E+01  0.13110598732E+03  0.00000000000E+00 0. -1.
</event>
<event>
 7    1  0.6067783E-006  0.1189435E+03  0.7818608E-02  0.1269318E+00
          2   -1    0    0  502    0  0.00000000000E+00  0.00000000000E+00  0.37643750211E+03  0.37643750211E+03  0.00000000000E+00 0. -1.
          1   -1    0    0  501    0 -0.00000000000E+00 -0.00000000000E+00 -0.10577211707E+04  0.10577211707E+04  0.00000000000E+00 0. -1.
         25    2    1    2    0    0 -0.14020223627E+02  0.43259957366E+02 -0.37507683413E+02  0.13820201047E+03  0.12499991521E+03 0.  0.
          2    1    1    2  501    0  0.10283996141E+03 -0.72191274395E+02 -0.95899317268E+03  0.96718950729E+03  0.00000000000E+00 0. -1.
          1    1    1    2  502    0 -0.88819737783E+02  0.28931317029E+02  0.31521718751E+03  0.32876715503E+03  0.00000000000E+00 0. -1.
         22    1    3    3    0    0 -0.19557284575E+02  0.81709290600E+02 -0.49540090770E+02  0.97535204638E+02  0.00000000000E+00 0. -1.
         22    1    3    3    0    0  0.55370609480E+01 -0.38449333234E+02  0.12032407357E+02  0.40666805836E+02  0.00000000000E+00 0. -1.
</event>
<event>
 7    1  0.6067783E-006  0.2935322E+02  0.7818608E-02  0.1659250E+00
          2   -1    0    0  502    0  0.00000000000E+00  0.00000000000E+00  0.28082460621E+03  0.28082460621E+03  0.00000000000E+00 0. -1.
          1   -1    0    0  501    0 -0.00000000000E+00 -0.00000000000E+00 -0.21323202421E+03  0.21323202421E+03  0.00000000000E+00 0. -1.
         25    2    1    2    0    0 -0.48536980973E+02  0.11057367425E+02  0.24014635215E+03  0.27526967783E+03  0.12500008475E+03 0.  0.
          2    1    1    2  501    0  0.29222894989E+02 -0.16089061427E+01 -0.18929034997E+03  0.19153955927E+03  0.00000000000E+00 0. -1.
          1    1    1    2  502    0  0.19314085984E+02 -0.94484612818E+01  0.16736579827E+02  0.27247393312E+02  0.00000000000E+00 0. -1.
         22    1    3    3    0    0  0.11022086327E+01 -0.50908264669E+02  0.12892894038E+03  0.13862012099E+03  0.00000000000E+00 0. -1.
         22    1    3    3    0    0 -0.49639189606E+02  0.61965632093E+02  0.11121741177E+03  0.13664955685E+03  0.00000000000E+00 0. -1.
</event>
<event>
 7    1  0.6067783E-006  0.1095757E+03  0.7818608E-02  0.1375262E+00
          2   -1    0    0  502    0  0.00000000000E+00  0.00000000000E+00  0.94586751829E+03  0.94586751829E+03  0.00000000000E+00 0. -1.
          1   -1    0    0  501    0 -0.00000000000E+00 -0.00000000000E+00 -0.10568841751E+03  0.10568841751E+03  0.00000000000E+00 0. -1.
         25    2    1    2    0    0 -0.80735895166E+02 -0.62961122912E+01  0.45185889340E+03  0.47576870976E+03  0.12498591860E+03 0.  0.
          2    1    1    2  501    0  0.10556927298E+03  0.36915069813E+02 -0.59196203506E+02  0.12653767931E+03  0.00000000000E+00 0. -1.
          1    1    1    2  502    0 -0.24833377812E+02 -0.30618957522E+02  0.44751641089E+03  0.44924954672E+03  0.00000000000E+00 0. -1.
         22    1    3    3    0    0 -0.69458600495E+02 -0.58084266282E+02  0.21950208400E+03  0.23744355972E+03  0.00000000000E+00 0. -1.
         22    1    3    3    0    0 -0.11277294671E+02  0.51788153991E+02  0.23235680940E+03  0.23832515004E+03  0.00000000000E+00 0. -1.
</event>
<event>
 7    1  0.6067783E-006  0.1315985E+03  0.7818608E-02  0.1280273E+00
          2   -1    0    0  502    0  0.00000000000E+00  0.00000000000E+00  0.18501875797E+04  0.18501875797E+04  0.00000000000E+00 0. -1.
          1   -1    0    0  501    0 -0.00000000000E+00 -0.00000000000E+00 -0.18622336363E+03  0.18622336363E+03  0.00000000000E+00 0. -1.
         25    2    1    2    0    0 -0.32166137045E+02 -0.56432685037E+02 -0.88490252296E+01  0.14115002268E+03  0.12500286133E+03 0.  0.
          2    1    1    2  501    0  0.88144229709E+01 -0.75492558963E+02 -0.95402243273E+02  0.12197708200E+03  0.00000000000E+00 0. -1.
          1    1    1    2  502    0  0.23351714074E+02  0.13192524400E+03  0.17682154845E+04  0.17732838386E+04  0.00000000000E+00 0. -1.
         22    1    3    3    0    0 -0.37818942534E+02  0.31235264955E+02 -0.19237913773E+02  0.52687868789E+02  0.00000000000E+00 0.  1.
         22    1    3    3    0    0  0.56528054895E+01 -0.87667949992E+02  0.10388888543E+02  0.88462153890E+02  0.00000000000E+00 0.  1.
</event>
<event>
 7    1  0.6067783E-006  0.6172360E+02  0.7818608E-02  0.1433254E+00
          2   -1    0    0  502    0  0.00000000000E+00  0.00000000000E+00  0.15447863575E+04  0.15447863575E+04  0.00000000000E+00 0. -1.
          1   -1    0    0  501    0 -0.00000000000E+00 -0.00000000000E+00 -0.26540691648E+03  0.26540691648E+03  0.00000000000E+00 0. -1.
         25    2    1    2    0    0 -0.19032192464E+02 -0.10617919968E+02 -0.13065274839E+03  0.18212784606E+03  0.12500178829E+03 0.  0.
          2    1    1    2  501    0 -0.42860275941E+02  0.11344482038E+02 -0.10385010168E+03  0.11291830740E+03  0.00000000000E+00 0. -1.
          1    1    1    2  502    0  0.61892468405E+02 -0.72656207027E+00  0.15138822911E+04  0.15151471205E+04  0.00000000000E+00 0. -1.
         22    1    3    3    0    0 -0.25785469315E+01 -0.55549364763E+02 -0.15960196873E+02  0.57854202216E+02  0.00000000000E+00 0. -1.
         22    1    3    3    0    0 -0.16453645532E+02  0.44931444795E+02 -0.11469255151E+03  0.12427364385E+03  0.00000000000E+00 0. -1.
</event>
<event>
 7    1  0.6067783E-006  0.4463406E+02  0.7818608E-02  0.1534017E+00
          2   -1    0    0  502    0  0.00000000000E+00  0.00000000000E+00  0.12042793955E+04  0.12042793955E+04  0.00000000000E+00 0. -1.
          1   -1    0    0  501    0 -0.00000000000E+00 -0.00000000000E+00 -0.11158960887E+03  0.11158960887E+03  0.00000000000E+00 0. -1.
         25    2    1    2    0    0  0.49472161219E+02 -0.19622131526E+02  0.38471977409E+03  0.40800298985E+03  0.12499844948E+03 0.  0.
          2    1    1    2  501    0 -0.43517599419E+02 -0.99578680801E+01 -0.94665402615E+02  0.10466364721E+03  0.00000000000E+00 0. -1.
          1    1    1    2  502    0 -0.59545617999E+01  0.29579999606E+02  0.80263541516E+03  0.80320236731E+03  0.00000000000E+00 0. -1.
         22    1    3    3    0    0 -0.25763262993E+02  0.88934538014E+01  0.24702938197E+03  0.24852837825E+03  0.00000000000E+00 0.  1.
         22    1    3    3    0    0  0.75235424213E+02 -0.28515585327E+02  0.13769039212E+03  0.15947461160E+03  0.00000000000E+00 0.  1.
</event>
<event>
 7    1  0.6067783E-006  0.3840797E+02  0.7818608E-02  0.1616610E+00
          2   -1    0    0  502    0  0.00000000000E+00  0.00000000000E+00  0.94433979404E+03  0.94433979404E+03  0.00000000000E+00 0. -1.
          1   -1    0    0  501    0 -0.00000000000E+00 -0.00000000000E+00 -0.13253653515E+03  0.13253653515E+03  0.00000000000E+00 0. -1.
         25    2    1    2    0    0 -0.19731486028E+01 -0.31649297992E+02  0.90394638211E+02  0.15749347587E+03  0.12500973140E+03 0.  0.
          2    1    1    2  501    0 -0.20973521018E+02  0.65166656735E+00 -0.97416071222E+02  0.99650409862E+02  0.00000000000E+00 0. -1.
          1    1    1    2  502    0  0.22946669621E+02  0.30997631425E+02  0.81882469190E+03  0.81973244347E+03  0.00000000000E+00 0. -1.
         22    1    3    3    0    0 -0.16285665776E+02 -0.50914236490E+02 -0.99025087938E+01  0.54364897383E+02  0.00000000000E+00 0.  1.
         22    1    3    3    0    0  0.14312517173E+02  0.19264938497E+02  0.10029714700E+03  0.10312857849E+03  0.00000000000E+00 0.  1.
</event>
<event>
 7    1  0.6458140E-006  0.8049114E+02  0.7818608E-02  0.1366774E+00
          2   -1    0    0  502    0  0.00000000000E+00  0.00000000000E+00  0.24313543766E+04  0.24313543766E+04  0.00000000000E+00 0. -1.
          1   -1    0    0  501    0 -0.00000000000E+00 -0.00000000000E+00 -0.60050839822E+03  0.60050839822E+03  0.00000000000E+00 0. -1.
         25    2    1    2    0    0 -0.26923114440E+02  0.13346665436E+03 -0.58626071514E+02  0.19391112018E+03  0.12500521729E+03 0.  0.
          2    1    1    2  501    0  0.10435237584E+01 -0.57559951645E+02 -0.47180941395E+03  0.47530869976E+03  0.00000000000E+00 0. -1.
          1    1    1    2  502    0  0.25879590682E+02 -0.75906702715E+02  0.23612814639E+04  0.23626429549E+04  0.00000000000E+00 0. -1.
         22    1    3    3    0    0 -0.14254030502E+02  0.62092457708E+01 -0.64049620140E+02  0.65909680310E+02  0.00000000000E+00 0. -1.
         22    1    3    3    0    0 -0.12669083938E+02  0.12725740859E+03  0.54235486259E+01  0.12800143987E+03  0.00000000000E+00 0. -1.
</event>
<event>
 7    1  0.6067783E-006  0.9290371E+02  0.7818608E-02  0.1322561E+00
          2   -1    0    0  502    0  0.00000000000E+00  0.00000000000E+00  0.79285476148E+03  0.79285476148E+03  0.00000000000E+00 0. -1.
          1   -1    0    0  501    0 -0.00000000000E+00 -0.00000000000E+00 -0.63176348784E+03  0.63176348784E+03  0.00000000000E+00 0. -1.
         25    2    1    2    0    0  0.14878765406E+03 -0.54627301513E+02 -0.61892373695E+02  0.21113302203E+03  0.12499831598E+03 0.  0.
          2    1    1    2  501    0 -0.72885261347E+02  0.33656636758E+01 -0.48961645664E+03  0.49502309404E+03  0.00000000000E+00 0. -1.
          1    1    1    2  502    0 -0.75902392717E+02  0.51261637837E+02  0.71260010397E+03  0.71846213325E+03  0.00000000000E+00 0. -1.
         22    1    3    3    0    0  0.11182011889E+03 -0.40408059584E+02 -0.10060418231E+03  0.15574900246E+03  0.00000000000E+00 0. -1.
         22    1    3    3    0    0  0.36967535176E+02 -0.14219241928E+02  0.38711808615E+02  0.55384019575E+02  0.00000000000E+00 0. -1.
</event>
<event>
 7    1  0.6067783E-006  0.1360876E+03  0.7818608E-02  0.1272187E+00
          2   -1    0    0  502    0  0.00000000000E+00  0.00000000000E+00  0.16696483153E+04  0.16696483153E+04  0.00000000000E+00 0. -1.
          1   -1    0    0  501    0 -0.00000000000E+00 -0.00000000000E+00 -0.30604621393E+03  0.30604621393E+03  0.00000000000E+00 0. -1.
         25    2    1    2    0    0 -0.17662744821E+03  0.27277686560E+00 -0.49951869471E+02  0.22204808031E+03  0.12495131387E+03 0.  0.
          2    1    1    2  501    0  0.11664149497E+03 -0.52312993693E+02 -0.14486585931E+03  0.19320456736E+03  0.00000000000E+00 0. -1.
          1    1    1    2  502    0  0.59985953238E+02  0.52040216828E+02  0.15584198302E+04  0.15604418816E+04  0.00000000000E+00 0. -1.
         22    1    3    3    0    0 -0.12999940441E+01 -0.36344090251E+02 -0.16077393617E+02  0.39762613925E+02  0.00000000000E+00 0. -1.
         22    1    3    3    0    0 -0.17532745416E+03  0.36616867116E+02 -0.33874475854E+02  0.18228546638E+03  0.00000000000E+00 0. -1.
</event>
<event>
 7    1  0.6067783E-006  0.1888675E+03  0.7818608E-02  0.1278590E+00
          2   -1    0    0  502    0  0.00000000000E+00  0.00000000000E+00  0.96268160307E+03  0.96268160307E+03  0.00000000000E+00 0. -1.
          1   -1    0    0  501    0 -0.00000000000E+00 -0.00000000000E+00 -0.39381275845E+03  0.39381275845E+03  0.00000000000E+00 0. -1.
         25    2    1    2    0    0  0.19507609370E+03  0.37217941821E+02  0.15425939158E+03  0.28082165633E+03  0.12499994099E+03 0.  0.
          2    1    1    2  501    0 -0.75607233353E+01 -0.53280670590E+02 -0.31633925634E+03  0.32088396579E+03  0.00000000000E+00 0. -1.
          1    1    1    2  502    0 -0.18751537037E+03  0.16062728770E+02  0.73094870938E+03  0.75478873940E+03  0.00000000000E+00 0. -1.
         22    1    3    3    0    0  0.49379400499E+01 -0.31753842745E+02  0.25844455918E+02  0.41238643075E+02  0.00000000000E+00 0. -1.
         22    1    3    3    0    0  0.19013815365E+03  0.68971784566E+02  0.12841493566E+03  0.23958301326E+03  0.00000000000E+00 0. -1.
</event>
<event>
 7    1  0.6067783E-006  0.2568457E+03  0.7818608E-02  0.1284325E+00
          2   -1    0    0  502    0  0.00000000000E+00  0.00000000000E+00  0.12395680862E+04  0.12395680862E+04  0.00000000000E+00 0. -1.
          1   -1    0    0  501    0 -0.00000000000E+00 -0.00000000000E+00 -0.95246548438E+03  0.95246548438E+03  0.00000000000E+00 0. -1.
         25    2    1    2    0    0 -0.25336921243E+03  0.14558678145E+03  0.27506882914E+03  0.42033229190E+03  0.12499962445E+03 0.  0.
          2    1    1    2  501    0  0.22294986256E+03 -0.12370001960E+03 -0.86095155396E+03  0.89791197471E+03  0.00000000000E+00 0. -1.
          1    1    1    2  502    0  0.30419349869E+02 -0.21886761850E+02  0.87298532665E+03  0.87378930398E+03  0.00000000000E+00 0. -1.
         22    1    3    3    0    0 -0.16516492808E+03  0.15239731223E+03  0.16334287934E+03  0.27782240816E+03  0.00000000000E+00 0. -1.
         22    1    3    3    0    0 -0.88204284349E+02 -0.68105307798E+01  0.11172594979E+03  0.14250988374E+03  0.00000000000E+00 0. -1.
</event>
<event>
 7    1  0.6067783E-006  0.1061475E+03  0.7818608E-02  0.1271113E+00
          2   -1    0    0  502    0  0.00000000000E+00  0.00000000000E+00  0.49115585492E+03  0.49115585492E+03  0.00000000000E+00 0. -1.
          1   -1    0    0  501    0 -0.00000000000E+00 -0.00000000000E+00 -0.13241371728E+04  0.13241371728E+04  0.00000000000E+00 0. -1.
         25    2    1    2    0    0  0.56661874833E+02  0.61267644683E+02 -0.15517490941E+02  0.15109736429E+03  0.12500131450E+03 0.  0.
          2    1    1    2  501    0 -0.98877412289E+02  0.38607647716E+02 -0.12315664398E+04  0.12361323508E+04  0.00000000000E+00 0. -1.
          1    1    1    2  502    0  0.42215537457E+02 -0.99875292399E+02  0.41410261285E+03  0.42806331261E+03  0.00000000000E+00 0. -1.
         22    1    3    3    0    0 -0.17706154332E+02  0.44486794874E+02 -0.48389716430E+02  0.68074572900E+02  0.00000000000E+00 0. -1.
         22    1    3    3    0    0  0.74368029165E+02  0.16780849809E+02  0.32872225489E+02  0.83022791393E+02  0.00000000000E+00 0. -1.
</event>
<event>
 7    1  0.6067783E-006  0.1442537E+03  0.7818608E-02  0.1260010E+00
          2   -1    0    0  502    0  0.00000000000E+00  0.00000000000E+00  0.16578353916E+04  0.16578353916E+04  0.00000000000E+00 0. -1.
          1   -1    0    0  501    0 -0.00000000000E+00 -0.00000000000E+00 -0.54691635093E+03  0.54691635093E+03  0.00000000000E+00 0. -1.
         25    2    1    2    0    0  0.17105035760E+03  0.10360675669E+03  0.83179135875E+02  0.25008397440E+03  0.12502256094E+03 0.  0.
          2    1    1    2  501    0 -0.87071449371E+02 -0.11142788745E+03 -0.45144755050E+03  0.47307769155E+03  0.00000000000E+00 0. -1.
          1    1    1    2  502    0 -0.83978908226E+02  0.78211307585E+01  0.14791874553E+04  0.14815900765E+04  0.00000000000E+00 0. -1.
         22    1    3    3    0    0  0.88865748719E+02  0.33093485814E+02  0.10299087915E+03  0.13999793316E+03  0.00000000000E+00 0. -1.
         22    1    3    3    0    0  0.82184608878E+02  0.70513270877E+02 -0.19811743280E+02  0.11008604125E+03  0.00000000000E+00 0. -1.
</event>
<event>
 7    1  0.7216304E-006  0.1380887E+03  0.7818608E-02  0.1346034E+00
          2   -1    0    0  502    0  0.00000000000E+00  0.00000000000E+00  0.67463373040E+03  0.67463373040E+03  0.00000000000E+00 0. -1.
          1   -1    0    0  501    0 -0.00000000000E+00 -0.00000000000E+00 -0.16094503783E+04  0.16094503783E+04  0.00000000000E+00 0. -1.
         25    2    1    2    0    0  0.91121904906E+02 -0.13040462545E+03 -0.29944782913E+03  0.36138977781E+03  0.12500000496E+03 0.  0.
          2    1    1    2  501    0  0.11302484261E+02  0.38353392181E+02 -0.12713479471E+04  0.12719765451E+04  0.00000000000E+00 0. -1.
          1    1    1    2  502    0 -0.10242438917E+03  0.92051233273E+02  0.63597912831E+03  0.65071778574E+03  0.00000000000E+00 0. -1.
         22    1    3    3    0    0  0.54886399620E+02 -0.23489088748E+02 -0.25173211369E+02  0.64791548246E+02  0.00000000000E+00 0. -1.
         22    1    3    3    0    0  0.36235505286E+02 -0.10691553671E+03 -0.27427461776E+03  0.29659822956E+03  0.00000000000E+00 0. -1.
</event>
<event>
 7    1  0.6067783E-006  0.5582832E+02  0.7818608E-02  0.1478026E+00
          2   -1    0    0  502    0  0.00000000000E+00  0.00000000000E+00  0.65861634263E+03  0.65861634263E+03  0.00000000000E+00 0. -1.
          1   -1    0    0  501    0 -0.00000000000E+00 -0.00000000000E+00 -0.61394551666E+03  0.61394551666E+03  0.00000000000E+00 0. -1.
         25    2    1    2    0    0  0.35874342394E+02  0.62150454941E+02 -0.21920841993E+03  0.26235013196E+03  0.12500245148E+03 0.  0.
          2    1    1    2  501    0  0.11868833508E+02 -0.33282223867E+02 -0.37110383317E+03  0.37278228315E+03  0.00000000000E+00 0. -1.
          1    1    1    2  502    0 -0.47743175902E+02 -0.28868231074E+02  0.63498307908E+03  0.63742944419E+03  0.00000000000E+00 0. -1.
         22    1    3    3    0    0  0.20160279559E+02  0.11801515161E+02  0.11253402562E+02  0.25929745491E+02  0.00000000000E+00 0. -1.
         22    1    3    3    0    0  0.15714062836E+02  0.50348939779E+02 -0.23046182250E+03  0.23642038646E+03  0.00000000000E+00 0. -1.
</event>
<event>
 7    1  0.6067783E-006  0.8236830E+02  0.7818608E-02  0.1390865E+00
          2   -1    0    0  502    0  0.00000000000E+00  0.00000000000E+00  0.23796947274E+03  0.23796947274E+03  0.00000000000E+00 0. -1.
          1   -1    0    0  501    0 -0.00000000000E+00 -0.00000000000E+00 -0.65060764046E+03  0.65060764046E+03  0.00000000000E+00 0. -1.
         25    2    1    2    0    0  0.20035516357E+02  0.51771572188E+02 -0.27736487412E+02  0.13953401738E+03  0.12497484415E+03 0.  0.
          2    1    1    2  501    0  0.46032095869E+02  0.40045971884E+01 -0.55569407040E+03  0.55761177402E+03  0.00000000000E+00 0. -1.
          1    1    1    2  502    0 -0.66067612226E+02 -0.55776169376E+02  0.17079239009E+03  0.19143132181E+03  0.00000000000E+00 0. -1.
         22    1    3    3    0    0 -0.18826378840E+02 -0.10436419741E+02  0.36275273434E+02  0.42181119709E+02  0.00000000000E+00 0. -1.
         22    1    3    3    0    0  0.38861895197E+02  0.62207991929E+02 -0.64011760846E+02  0.97352897670E+02  0.00000000000E+00 0. -1.
</event>
<event>
 7    1  0.6067783E-006  0.5068242E+02  0.7818608E-02  0.1467167E+00
          2   -1    0    0  502    0  0.00000000000E+00  0.00000000000E+00  0.23997260899E+03  0.23997260899E+03  0.00000000000E+00 0. -1.
          1   -1    0    0  501    0 -0.00000000000E+00 -0.00000000000E+00 -0.48413299255E+03  0.48413299255E+03  0.00000000000E+00 0. -1.
         25    2    1    2    0    0  0.62118536881E+01 -0.61809471831E+02 -0.89061530416E+02  0.16554870000E+03  0.12496166588E+03 0.  0.
          2    1    1    2  501    0  0.30271501510E+02  0.40881992543E+02 -0.35279127999E+03  0.35643988042E+03  0.00000000000E+00 0. -1.
          1    1    1    2  502    0 -0.36483355198E+02  0.20927479288E+02  0.19769242685E+03  0.20211702112E+03  0.00000000000E+00 0. -1.
         22    1    3    3    0    0  0.48793762591E+02 -0.85949062741E+01  0.45519741256E+01  0.49753634541E+02  0.00000000000E+00 0.  1.
         22    1    3    3    0    0 -0.42581908902E+02 -0.53214565557E+02 -0.93613504542E+02  0.11579506546E+03  0.00000000000E+00 0.  1.
</event>
<event>
 7    1  0.6067783E-006  0.8940137E+02  0.7818608E-02  0.1359390E+00
          2   -1    0    0  502    0  0.00000000000E+00  0.00000000000E+00  0.25100388772E+04  0.25100388772E+04  0.00000000000E+00 0. -1.
          1   -1    0    0  501    0 -0.00000000000E+00 -0.00000000000E+00 -0.28844019114E+02  0.28844019114E+02  0.00000000000E+00 0. -1.
         25    2    1    2    0    0 -0.35967183756E+02  0.27755964686E+02  0.11423178352E+04  0.11500353253E+04  0.12500872349E+03 0.  0.
          2    1    1    2  501    0  0.43399617764E+02 -0.82386788043E+02  0.64493331221E+02  0.11327179454E+03  0.00000000000E+00 0. -1.
          1    1    1    2  502    0 -0.74324340079E+01  0.54630823357E+02  0.12743836917E+04  0.12755757765E+04  0.00000000000E+00 0. -1.
         22    1    3    3    0    0  0.21503377047E+02  0.37256729855E+02  0.15100794769E+03  0.15701547507E+03  0.00000000000E+00 0.  1.
         22    1    3    3    0    0 -0.57470560803E+02 -0.95007651683E+01  0.99130988750E+03  0.99301985023E+03  0.00000000000E+00 0.  1.
</event>
<event>
 7    1  0.6067783E-006  0.1130866E+03  0.7818608E-02  0.1358969E+00
          2   -1    0    0  502    0  0.00000000000E+00  0.00000000000E+00  0.10837610469E+04  0.10837610469E+04  0.00000000000E+00 0. -1.
          1   -1    0    0  501    0 -0.00000000000E+00 -0.00000000000E+00 -0.22108582995E+03  0.22108582995E+03  0.00000000000E+00 0. -1.
         25    2    1    2    0    0 -0.11267743924E+03  0.93684240386E+02  0.57629280149E+02  0.20104579720E+03  0.12500134572E+03 0.  0.
          2    1    1    2  501    0  0.13947818817E+02 -0.41457850934E+02 -0.14282463024E+03  0.14937258804E+03  0.00000000000E+00 0. -1.
          1    1    1    2  502    0  0.98729620425E+02 -0.52226389451E+02  0.94787056710E+03  0.95442849165E+03  0.00000000000E+00 0. -1.
         22    1    3    3    0    0 -0.13984681453E+03  0.83177844820E+02  0.55169918313E+02  0.17181212207E+03  0.00000000000E+00 0. -1.
         22    1    3    3    0    0  0.27169375288E+02  0.10506395566E+02  0.24593618363E+01  0.29233675136E+02  0.00000000000E+00 0. -1.
</event>
<event>
 7    1  0.6067783E-006  0.1970820E+03  0.7818608E-02  0.1294652E+00
          2   -1    0    0  502    0  0.00000000000E+00  0.00000000000E+00  0.13527827649E+04  0.13527827649E+04  0.00000000000E+00 0. -1.
          1   -1    0    0  501    0 -0.00000000000E+00 -0.00000000000E+00 -0.89714455361E+03  0.89714455361E+03  0.00000000000E+00 0. -1.
         25    2    1    2    0    0 -0.18233960103E+02  0.16644211122E+03 -0.11574975791E+03  0.23886993550E+03  0.12500154375E+03 0.  0.
          2    1    1    2  501    0 -0.48280084983E+01 -0.20430454069E+03 -0.70493748908E+03  0.73396220511E+03  0.00000000000E+00 0. -1.
          1    1    1    2  502    0  0.23061968601E+02  0.37862429472E+02  0.12763254583E+04  0.12770951779E+04  0.00000000000E+00 0. -1.
         22    1    3    3    0    0 -0.31423911124E+02  0.17969541258E+03 -0.12164886199E+03  0.21926319600E+03  0.00000000000E+00 0.  1.
         22    1    3    3    0    0  0.13189951021E+02 -0.13253301364E+02  0.58991040825E+01  0.19606739504E+02  0.00000000000E+00 0.  1.
</event>
<event>
 7    1  0.6067783E-006  0.8165217E+02  0.7818608E-02  0.1406816E+00
          2   -1    0    0  502    0  0.00000000000E+00  0.00000000000E+00  0.26613201771E+04  0.26613201771E+04  0.00000000000E+00 0. -1.
          1   -1    0    0  501    0 -0.00000000000E+00 -0.00000000000E+00 -0.53980354098E+02  0.53980354098E+02  0.00000000000E+00 0. -1.
         25    2    1    2    0    0  0.35128630513E+02  0.30935729214E+02  0.10204706811E+04  0.10291629499E+04  0.12499970554E+03 0.  0.
          2    1    1    2  501    0 -0.76159376908E+02 -0.32776272176E+02 -0.14560270466E+02  0.84181566776E+02  0.00000000000E+00 0. -1.
          1    1    1    2  502    0  0.41030746395E+02  0.18405429614E+01  0.16014294124E+04  0.16019560146E+04  0.00000000000E+00 0. -1.
         22    1    3    3    0    0  0.52300092721E+02  0.71836350334E+02  0.71023989161E+03  0.71577682595E+03  0.00000000000E+00 0. -1.
         22    1    3    3    0    0 -0.17171462208E+02 -0.40900621120E+02  0.31023078947E+03  0.31338612390E+03  0.00000000000E+00 0. -1.
</event>
<event>
 7    1  0.6067783E-006  0.5555319E+02  0.7818608E-02  0.1467490E+00
          2   -1    0    0  502    0  0.00000000000E+00  0.00000000000E+00  0.27808908211E+03  0.27808908211E+03  0.00000000000E+00 0. -1.
          1   -1    0    0  501    0 -0.00000000000E+00 -0.00000000000E+00 -0.15122438058E+04  0.15122438058E+04  0.00000000000E+00 0. -1.
         25    2    1    2    0    0 -0.54125902166E+02 -0.37278988337E+02 -0.50162368519E+03  0.52112461646E+03  0.12500083228E+03 0.  0.
          2    1    1    2  501    0  0.18923984207E+02  0.52325250313E+02 -0.99872589758E+03  0.10002746960E+04  0.00000000000E+00 0. -1.
          1    1    1    2  502    0  0.35201917959E+02 -0.15046261976E+02  0.26619485905E+03  0.26893357547E+03  0.00000000000E+00 0. -1.
         22    1    3    3    0    0 -0.60872640388E+02 -0.13036203696E+02 -0.94121822640E+02  0.11284652610E+03  0.00000000000E+00 0. -1.
         22    1    3    3    0    0  0.67467382216E+01 -0.24242784641E+02 -0.40750186255E+03  0.40827809036E+03  0.00000000000E+00 0. -1.
</event>
<event>
 7    1  0.6067783E-006  0.6700627E+02  0.7818608E-02  0.1380071E+00
          2   -1    0    0  502    0  0.00000000000E+00  0.00000000000E+00  0.36051063993E+03  0.36051063993E+03  0.00000000000E+00 0. -1.
          1   -1    0    0  501    0 -0.00000000000E+00 -0.00000000000E+00 -0.50454249257E+03  0.50454249257E+03  0.00000000000E+00 0. -1.
         25    2    1    2    0    0  0.15284912920E+02  0.78246140625E+02  0.13653165653E+03  0.20155070953E+03  0.12500283273E+03 0.  0.
          2    1    1    2  501    0  0.41324835286E+02 -0.53005538714E+02 -0.46453413777E+03  0.46937116901E+03  0.00000000000E+00 0. -1.
          1    1    1    2  502    0 -0.56609748206E+02 -0.25240601911E+02  0.18397062861E+03  0.19413125397E+03  0.00000000000E+00 0. -1.
         22    1    3    3    0    0  0.47583768761E+02  0.67747890130E+02  0.27319894376E+02  0.87180091164E+02  0.00000000000E+00 0.  1.
         22    1    3    3    0    0 -0.32298855841E+02  0.10498250495E+02  0.10921176215E+03  0.11437061836E+03  0.00000000000E+00 0.  1.
</event>
<event>
 7    1  0.6067783E-006  0.8313487E+02  0.7818608E-02  0.1323984E+00
          2   -1    0    0  502    0  0.00000000000E+00  0.00000000000E+00  0.21700711430E+03  0.21700711430E+03  0.00000000000E+00 0. -1.
          1   -1    0    0  501    0 -0.00000000000E+00 -0.00000000000E+00 -0.37973059973E+03  0.37973059973E+03  0.00000000000E+00 0. -1.
         25    2    1    2    0    0 -0.31705611772E+01  0.10101705408E+02 -0.26331725018E+03  0.29167396450E+03  0.12500252164E+03 0.  0.
          2    1    1    2  501    0 -0.77791000394E+02 -0.29325199547E+02 -0.74226588915E+02  0.11144951132E+03  0.00000000000E+00 0. -1.
          1    1    1    2  502    0  0.80961561571E+02  0.19223494139E+02  0.17482035367E+03  0.19361423820E+03  0.00000000000E+00 0. -1.
         22    1    3    3    0    0  0.40840937431E+02  0.28254947481E+02 -0.22541438687E+03  0.23082021150E+03  0.00000000000E+00 0. -1.
         22    1    3    3    0    0 -0.44011498609E+02 -0.18153242073E+02 -0.37902863307E+02  0.60853753002E+02  0.00000000000E+00 0. -1.
</event>
<event>
 7    1  0.6067783E-006  0.2006483E+03  0.7818608E-02  0.1285444E+00
          2   -1    0    0  502    0  0.00000000000E+00  0.00000000000E+00  0.51112412973E+03  0.51112412973E+03  0.00000000000E+00 0. -1.
          1   -1    0    0  501    0 -0.00000000000E+00 -0.00000000000E+00 -0.27904778130E+03  0.27904778130E+03  0.00000000000E+00 0. -1.
         25    2    1    2    0    0 -0.98799774454E+01 -0.20919014027E+03  0.32120484004E+03  0.40330575605E+03  0.12499941942E+03 0.  0.
          2    1    1    2  501    0 -0.39946696566E+02  0.25638368794E+02 -0.17271203957E+03  0.17911592094E+03  0.00000000000E+00 0. -1.
          1    1    1    2  502    0  0.49826674012E+02  0.18355177148E+03  0.83583547963E+02  0.20775023405E+03  0.00000000000E+00 0. -1.
         22    1    3    3    0    0  0.30628236137E+02 -0.19100749491E+03  0.22100928935E+03  0.29371254304E+03  0.00000000000E+00 0.  1.
         22    1    3    3    0    0 -0.40508213582E+02 -0.18182645366E+02  0.10019555068E+03  0.10959321300E+03  0.00000000000E+00 0.  1.
</event>
<event>
 7    1  0.6067783E-006  0.5498872E+02  0.7818608E-02  0.1450347E+00
          2   -1    0    0  502    0  0.00000000000E+00  0.00000000000E+00  0.39842838071E+03  0.39842838071E+03  0.00000000000E+00 0. -1.
          1   -1    0    0  501    0 -0.00000000000E+00 -0.00000000000E+00 -0.20292725614E+04  0.20292725614E+04  0.00000000000E+00 0. -1.
         25    2    1    2    0    0 -0.21523185780E+02 -0.49593074781E+02 -0.90144103784E+02  0.16331915231E+03  0.12499786187E+03 0.  0.
          2    1    1    2  501    0 -0.22280525631E+02  0.50489876283E+02 -0.19008127236E+04  0.19016136989E+04  0.00000000000E+00 0. -1.
          1    1    1    2  502    0  0.43803711411E+02 -0.89680150245E+00  0.36011264678E+03  0.36276809087E+03  0.00000000000E+00 0. -1.
         22    1    3    3    0    0 -0.69229605674E+02 -0.27449932042E+02 -0.80826630143E+02  0.10990532840E+03  0.00000000000E+00 0.  1.
         22    1    3    3    0    0  0.47706419894E+02 -0.22143142738E+02 -0.93174736414E+01  0.53413823908E+02  0.00000000000E+00 0.  1.
</event>
<event>
 7    1  0.6067783E-006  0.3299832E+02  0.7818608E-02  0.1627015E+00
          2   -1    0    0  502    0  0.00000000000E+00  0.00000000000E+00  0.31782124072E+03  0.31782124072E+03  0.00000000000E+00 0. -1.
          1   -1    0    0  501    0 -0.00000000000E+00 -0.00000000000E+00 -0.12540677518E+03  0.12540677518E+03  0.00000000000E+00 0. -1.
         25    2    1    2    0    0 -0.12641953836E+01 -0.25842937553E+02 -0.15208008899E+02  0.12855369929E+03  0.12500125782E+03 0.  0.
          2    1    1    2  501    0  0.22970171493E+02  0.70973554897E+00 -0.49943060456E+02  0.54976738633E+02  0.00000000000E+00 0. -1.
          1    1    1    2  502    0 -0.21705976110E+02  0.25133202004E+02  0.25756553490E+03  0.25969757798E+03  0.00000000000E+00 0. -1.
         22    1    3    3    0    0 -0.14808102865E+02 -0.70640714003E+02 -0.31838212048E+02  0.78886387493E+02  0.00000000000E+00 0.  1.
         22    1    3    3    0    0  0.13543907481E+02  0.44797776450E+02  0.16630203149E+02  0.49667311801E+02  0.00000000000E+00 0.  1.
</event>
<event>
 7    1  0.6067783E-006  0.1072497E+03  0.7818608E-02  0.1436658E+00
          2   -1    0    0  502    0  0.00000000000E+00  0.00000000000E+00  0.63265223765E+03  0.63265223765E+03  0.00000000000E+00 0. -1.
          1   -1    0    0  501    0 -0.00000000000E+00 -0.00000000000E+00 -0.19907270765E+03  0.19907270765E+03  0.00000000000E+00 0. -1.
         25    2    1    2    0    0  0.11328163514E+03 -0.62058836972E+02 -0.24290637330E+02  0.18138128644E+03  0.12500043161E+03 0.  0.
          2    1    1    2  501    0 -0.24599360041E+02  0.36628794508E+01 -0.89437475067E+02  0.92831067788E+02  0.00000000000E+00 0. -1.
          1    1    1    2  502    0 -0.88682275097E+02  0.58395957522E+02  0.54730764240E+03  0.55751259107E+03  0.00000000000E+00 0. -1.
         22    1    3    3    0    0  0.11123322259E+03 -0.25762235898E+02  0.28126620647E+02  0.11759094096E+03  0.00000000000E+00 0. -1.
         22    1    3    3    0    0  0.20484125505E+01 -0.36296601074E+02 -0.52417257976E+02  0.63790345487E+02  0.00000000000E+00 0. -1.
</event>
<event>
 7    1  0.6067783E-006  0.5422560E+03  0.7818608E-02  0.1084972E+00
          2   -1    0    0  502    0  0.00000000000E+00  0.00000000000E+00  0.11978836888E+04  0.11978836888E+04  0.00000000000E+00 0. -1.
          1   -1    0    0  501    0 -0.00000000000E+00 -0.00000000000E+00 -0.11466550248E+04  0.11466550248E+04  0.00000000000E+00 0. -1.
         25    2    1    2    0    0  0.51323239365E+03  0.36972290522E+03 -0.22017872976E+03  0.68132650816E+03  0.12499848454E+03 0.  0.
          2    1    1    2  501    0 -0.46295669166E+03 -0.21092251563E+03 -0.59390688092E+03  0.78201188556E+03  0.00000000000E+00 0. -1.
          1    1    1    2  502    0 -0.50275701990E+02 -0.15880038959E+03  0.86531427468E+03  0.88120031997E+03  0.00000000000E+00 0. -1.
         22    1    3    3    0    0  0.38468253775E+03  0.31584786218E+03 -0.12705114079E+03  0.51369496715E+03  0.00000000000E+00 0. -1.
         22    1    3    3    0    0  0.12854985590E+03  0.53875043041E+02 -0.93127588963E+02  0.16763154101E+03  0.00000000000E+00 0. -1.
</event>
<event>
 7    1  0.6067783E-006  0.1267876E+03  0.7818608E-02  0.1286781E+00
          2   -1    0    0  502    0  0.00000000000E+00  0.00000000000E+00  0.23272480028E+03  0.23272480028E+03  0.00000000000E+00 0. -1.
          1   -1    0    0  501    0 -0.00000000000E+00 -0.00000000000E+00 -0.33440196377E+03  0.33440196377E+03  0.00000000000E+00 0. -1.
         25    2    1    2    0    0 -0.11231366762E+03  0.93418369473E+02 -0.77367020877E+02  0.20725010487E+03  0.12500239342E+03 0.  0.
          2    1    1    2  501    0  0.12367710027E+03 -0.20115952093E+02 -0.16120539526E+03  0.20417604199E+03  0.00000000000E+00 0. -1.
          1    1    1    2  502    0 -0.11363432650E+02 -0.73302417379E+02  0.13689525264E+03  0.15570061719E+03  0.00000000000E+00 0. -1.
         22    1    3    3    0    0 -0.40144419403E+02  0.11088801359E+03 -0.50438515677E+02  0.12826445272E+03  0.00000000000E+00 0.  1.
         22    1    3    3    0    0 -0.72169248219E+02 -0.17469644119E+02 -0.26928505200E+02  0.78985652155E+02  0.00000000000E+00 0.  1.
</event>
<event>
 7    1  0.6067783E-006  0.4777464E+02  0.7818608E-02  0.1470239E+00
          2   -1    0    0  502    0  0.00000000000E+00  0.00000000000E+00  0.39999778662E+03  0.39999778662E+03  0.00000000000E+00 0. -1.
          1   -1    0    0  501    0 -0.00000000000E+00 -0.00000000000E+00 -0.28019522965E+03  0.28019522965E+03  0.00000000000E+00 0. -1.
         25    2    1    2    0    0  0.69703226311E+02  0.28775178995E+02  0.20976475796E+03  0.25556424940E+03  0.12500112481E+03 0.  0.
          2    1    1    2  501    0 -0.24983329002E+02 -0.35789054765E+02 -0.25232591680E+03  0.25607301978E+03  0.00000000000E+00 0. -1.
          1    1    1    2  502    0 -0.44719897309E+02  0.70138757700E+01  0.16236371581E+03  0.16855574710E+03  0.00000000000E+00 0. -1.
         22    1    3    3    0    0  0.35721970931E+02  0.20234997842E+02  0.21609383819E+03  0.21995922633E+03  0.00000000000E+00 0. -1.
         22    1    3    3    0    0  0.33981255380E+02  0.85401811528E+01 -0.63290802266E+01  0.35605023070E+02  0.00000000000E+00 0. -1.
</event>
<event>
 7    1  0.6067783E-006  0.9514752E+02  0.7818608E-02  0.1384478E+00
          2   -1    0    0  502    0  0.00000000000E+00  0.00000000000E+00  0.52033893027E+03  0.52033893027E+03  0.00000000000E+00 0. -1.
          1   -1    0    0  501    0 -0.00000000000E+00 -0.00000000000E+00 -0.75428696537E+03  0.75428696537E+03  0.00000000000E+00 0. -1.
         25    2    1    2    0    0  0.10934325088E+03  0.26949105567E+02  0.21796742195E+03  0.27534919516E+03  0.12500072575E+03 0.  0.
          2    1    1    2  501    0 -0.18084312686E+02 -0.38033616384E+02 -0.71724112719E+03  0.71847646647E+03  0.00000000000E+00 0. -1.
          1    1    1    2  502    0 -0.91258938195E+02  0.11084510817E+02  0.26532567014E+03  0.28080023400E+03  0.00000000000E+00 0. -1.
         22    1    3    3    0    0  0.89894736774E+02  0.28822589054E+02  0.51106821345E+02  0.10734855624E+03  0.00000000000E+00 0. -1.
         22    1    3    3    0    0  0.19448514107E+02 -0.18734834865E+01  0.16686060061E+03  0.16800063892E+03  0.00000000000E+00 0. -1.
</event>
<event>
 7    1  0.6067783E-006  0.5740199E+02  0.7818608E-02  0.1501593E+00
          2   -1    0    0  502    0  0.00000000000E+00  0.00000000000E+00  0.34392593631E+03  0.34392593631E+03  0.00000000000E+00 0. -1.
          1   -1    0    0  501    0 -0.00000000000E+00 -0.00000000000E+00 -0.52031219382E+03  0.52031219382E+03  0.00000000000E+00 0. -1.
         25    2    1    2    0    0 -0.29965790961E+02 -0.90461365981E+01 -0.20885048126E+03  0.24540474383E+03  0.12500073422E+03 0.  0.
          2    1    1    2  501    0 -0.27745501856E+02  0.89768128372E+01 -0.28989039921E+03  0.29135346162E+03  0.00000000000E+00 0. -1.
          1    1    1    2  502    0  0.57711292817E+02  0.69323760915E-01  0.32235462296E+03  0.32747992468E+03  0.00000000000E+00 0. -1.
         22    1    3    3    0    0  0.45422751806E+02 -0.23613150474E+02 -0.97888143823E+02  0.11046671878E+03  0.00000000000E+00 0.  1.
         22    1    3    3    0    0 -0.75388542767E+02  0.14567013876E+02 -0.11096233744E+03  0.13493802505E+03  0.00000000000E+00 0.  1.
</event>
<event>
 7    1  0.6067783E-006  0.1448648E+03  0.7818608E-02  0.1254767E+00
          2   -1    0    0  502    0  0.00000000000E+00  0.00000000000E+00  0.16910567023E+04  0.16910567023E+04  0.00000000000E+00 0. -1.
          1   -1    0    0  501    0 -0.00000000000E+00 -0.00000000000E+00 -0.72837811895E+03  0.72837811895E+03  0.00000000000E+00 0. -1.
         25    2    1    2    0    0  0.22337300210E+02 -0.15542956988E+03 -0.32147493662E+03  0.37898337661E+03  0.12499983479E+03 0.  0.
          2    1    1    2  501    0  0.74563369227E+02  0.47573031416E+02 -0.36976174122E+03  0.38019289133E+03  0.00000000000E+00 0. -1.
          1    1    1    2  502    0 -0.96900669437E+02  0.10785653846E+03  0.16539152612E+04  0.16602585533E+04  0.00000000000E+00 0. -1.
         22    1    3    3    0    0  0.70582719308E+02 -0.12186927875E+03 -0.20801009525E+03  0.25120159453E+03  0.00000000000E+00 0. -1.
         22    1    3    3    0    0 -0.48245419098E+02 -0.33560291130E+02 -0.11346484137E+03  0.12778178208E+03  0.00000000000E+00 0. -1.
</event>
<event>
 7    1  0.6067783E-006  0.1156867E+03  0.7818608E-02  0.1296643E+00
          2   -1    0    0  502    0  0.00000000000E+00  0.00000000000E+00  0.17701699804E+03  0.17701699804E+03  0.00000000000E+00 0. -1.
          1   -1    0    0  501    0 -0.00000000000E+00 -0.00000000000E+00 -0.10347089352E+04  0.10347089352E+04  0.00000000000E+00 0. -1.
         25    2    1    2    0    0  0.18650570134E+02 -0.69510860114E+02 -0.78289475940E+01  0.14446614935E+03  0.12501828846E+03 0.  0.
          2    1    1    2  501    0  0.42198391422E+02 -0.60962648249E+02 -0.90871165878E+03  0.91173133517E+03  0.00000000000E+00 0. -1.
          1    1    1    2  502    0 -0.60848961555E+02  0.13047350836E+03  0.58848669179E+02  0.15552844875E+03  0.00000000000E+00 0. -1.
         22    1    3    3    0    0  0.22068144187E+02 -0.10524204748E+03 -0.12558051176E+02  0.10826170234E+03  0.00000000000E+00 0. -1.
         22    1    3    3    0    0 -0.34175740540E+01  0.35731187362E+02  0.47291035823E+01  0.36204447011E+02  0.00000000000E+00 0. -1.
</event>
<event>
 7    1  0.6067783E-006  0.1022719E+03  0.7818608E-02  0.1335378E+00
          2   -1    0    0  502    0  0.00000000000E+00  0.00000000000E+00  0.75016837054E+03  0.75016837054E+03  0.00000000000E+00 0. -1.
          1   -1    0    0  501    0 -0.00000000000E+00 -0.00000000000E+00 -0.14503346932E+03  0.14503346932E+03  0.00000000000E+00 0. -1.
         25    2    1    2    0    0  0.10062056119E+02 -0.10568680376E+03  0.58107552333E+03  0.60377457548E+03  0.12499611481E+03 0.  0.
          2    1    1    2  501    0  0.55086852237E+02  0.21686465016E+02 -0.10723604612E+03  0.12249258607E+03  0.00000000000E+00 0. -1.
          1    1    1    2  502    0 -0.65148908356E+02  0.84000338741E+02  0.13129542402E+03  0.16893467831E+03  0.00000000000E+00 0. -1.
         22    1    3    3    0    0  0.55626596474E+02 -0.83046822780E+02  0.25743535058E+03  0.27615946975E+03  0.00000000000E+00 0. -1.
         22    1    3    3    0    0 -0.45564540356E+02 -0.22639980976E+02  0.32364017276E+03  0.32761510573E+03  0.00000000000E+00 0. -1.
</event>
<event>
 7    1  0.6067783E-006  0.3544290E+02  0.7818608E-02  0.1594729E+00
          2   -1    0    0  502    0  0.00000000000E+00  0.00000000000E+00  0.19561500867E+03  0.19561500867E+03  0.00000000000E+00 0. -1.
          1   -1    0    0  501    0 -0.00000000000E+00 -0.00000000000E+00 -0.12825287974E+04  0.12825287974E+04  0.00000000000E+00 0. -1.
         25    2    1    2    0    0  0.43750346192E+02  0.40077006287E+02 -0.91175488072E+02  0.16570562342E+03  0.12500049913E+03 0.  0.
          2    1    1    2  501    0 -0.20441252992E+02 -0.28753905477E+02 -0.11527563761E+04  0.11532961001E+04  0.00000000000E+00 0. -1.
          1    1    1    2  502    0 -0.23309093200E+02 -0.11323100810E+02  0.15701807541E+03  0.15914208257E+03  0.00000000000E+00 0. -1.
         22    1    3    3    0    0 -0.14008057918E+02  0.52710758012E+02 -0.91568112794E+02  0.10658034048E+03  0.00000000000E+00 0.  1.
         22    1    3    3    0    0  0.57758404110E+02 -0.12633751726E+02  0.39262472249E+00  0.59125282935E+02  0.00000000000E+00 0.  1.
</event>
<event>
 7    1  0.6067783E-006  0.5192291E+02  0.7818608E-02  0.1523993E+00
          2   -1    0    0  502    0  0.00000000000E+00  0.00000000000E+00  0.24309460127E+04  0.24309460127E+04  0.00000000000E+00 0. -1.
          1   -1    0    0  501    0 -0.00000000000E+00 -0.00000000000E+00 -0.50478889351E+03  0.50478889351E+03  0.00000000000E+00 0. -1.
         25    2    1    2    0    0  0.64824463837E+01 -0.26128670497E+02  0.21107524783E+03  0.24678449028E+03  0.12500037945E+03 0.  0.
          2    1    1    2  501    0  0.20260369903E+02 -0.18908835156E+02 -0.48622816443E+03  0.48701730413E+03  0.00000000000E+00 0. -1.
          1    1    1    2  502    0 -0.26742816286E+02  0.45037505652E+02  0.22013100358E+04  0.22019331118E+04  0.00000000000E+00 0. -1.
         22    1    3    3    0    0  0.46583018999E+01 -0.76889351251E+02  0.13030469014E+03  0.15137035504E+03  0.00000000000E+00 0.  1.
         22    1    3    3    0    0  0.18241444838E+01  0.50760680754E+02  0.80770557695E+02  0.95414135242E+02  0.00000000000E+00 0.  1.
</event>
<event>
 7    1  0.9471499E-006  0.6236781E+02  0.7818608E-02  0.1542550E+00
          2   -1    0    0  502    0  0.00000000000E+00  0.00000000000E+00  0.11639778853E+04  0.11639778853E+04  0.00000000000E+00 0. -1.
          1   -1    0    0  501    0 -0.00000000000E+00 -0.00000000000E+00 -0.15754237213E+04  0.15754237213E+04  0.00000000000E+00 0. -1.
         25    2    1    2    0    0 -0.83111137481E+01  0.68122877279E+02 -0.10661323242E+04  0.10756268066E+04  0.12500037359E+03 0.  0.
          2    1    1    2  501    0  0.19283715859E+02 -0.67304480927E+01 -0.50349816483E+03  0.50391225686E+03  0.00000000000E+00 0. -1.
          1    1    1    2  502    0 -0.10972602111E+02 -0.61392429187E+02  0.11581846530E+04  0.11598625431E+04  0.00000000000E+00 0. -1.
         22    1    3    3    0    0 -0.11583459498E+02  0.55984741550E+02 -0.10601747570E+04  0.10617151139E+04  0.00000000000E+00 0.  1.
         22    1    3    3    0    0  0.32723457500E+01  0.12138135730E+02 -0.59575671865E+01  0.13911692653E+02  0.00000000000E+00 0.  1.
</event>
<event>
 7    1  0.6067783E-006  0.6704156E+02  0.7818608E-02  0.1480727E+00
          2   -1    0    0  502    0  0.00000000000E+00  0.00000000000E+00  0.15595382658E+04  0.15595382658E+04  0.00000000000E+00 0. -1.
          1   -1    0    0  501    0 -0.00000000000E+00 -0.00000000000E+00 -0.88575877353E+02  0.88575877353E+02  0.00000000000E+00 0. -1.
         25    2    1    2    0    0 -0.69546147805E+02  0.54493760769E+02  0.23833133468E+03  0.28325078611E+03  0.12499178416E+03 0.  0.
          2    1    1    2  501    0  0.59928269703E+02 -0.27274490170E+02 -0.49520565569E+02  0.82386781330E+02  0.00000000000E+00 0. -1.
          1    1    1    2  502    0  0.96178781022E+01 -0.27219270599E+02  0.12821516194E+04  0.12824765757E+04  0.00000000000E+00 0. -1.
         22    1    3    3    0    0 -0.95166025628E+02  0.74207855022E+02  0.18467704164E+03  0.22061048907E+03  0.00000000000E+00 0. -1.
         22    1    3    3    0    0  0.25619877823E+02 -0.19714094253E+02  0.53654293037E+02  0.62640297040E+02  0.00000000000E+00 0. -1.
</event>
<event>
 7    1  0.6067783E-006  0.4716656E+02  0.7818608E-02  0.1557931E+00
          2   -1    0    0  502    0  0.00000000000E+00  0.00000000000E+00  0.21982204393E+04  0.21982204393E+04  0.00000000000E+00 0. -1.
          1   -1    0    0  501    0 -0.00000000000E+00 -0.00000000000E+00 -0.88483587590E+01  0.88483587590E+01  0.00000000000E+00 0. -1.
         25    2    1    2    0    0 -0.45786881647E+01  0.53653999136E+02  0.62118844823E+03  0.63592441466E+03  0.12500022775E+03 0.  0.
          2    1    1    2  501    0  0.22323138584E+02 -0.10016473853E+02  0.13581455104E+03  0.13800088600E+03  0.00000000000E+00 0. -1.
          1    1    1    2  502    0 -0.17744450419E+02 -0.43637525283E+02  0.14323690813E+04  0.14331434974E+04  0.00000000000E+00 0. -1.
         22    1    3    3    0    0  0.55266927957E+02  0.35870956746E+01  0.19785370881E+03  0.20545897564E+03  0.00000000000E+00 0.  1.
         22    1    3    3    0    0 -0.59845616122E+02  0.50066903461E+02  0.42333473942E+03  0.43046543902E+03  0.00000000000E+00 0.  1.
</event>
<event>
 7    1  0.6067783E-006  0.1027137E+03  0.7818608E-02  0.1290575E+00
          2   -1    0    0  502    0  0.00000000000E+00  0.00000000000E+00  0.15449531861E+04  0.15449531861E+04  0.00000000000E+00 0. -1.
          1   -1    0    0  501    0 -0.00000000000E+00 -0.00000000000E+00 -0.35430683799E+03  0.35430683799E+03  0.00000000000E+00 0. -1.
         25    2    1    2    0    0  0.83399829407E+02  0.12224739728E+03 -0.46977299385E+02  0.19932806348E+03  0.12499941019E+03 0.  0.
          2    1    1    2  501    0  0.19924827618E+01 -0.99537540406E+02 -0.21903317148E+03  0.24059763537E+03  0.00000000000E+00 0. -1.
          1    1    1    2  502    0 -0.85392312168E+02 -0.22709856871E+02  0.14566568190E+04  0.14593343253E+04  0.00000000000E+00 0. -1.
         22    1    3    3    0    0  0.35582285735E+02  0.97974516836E+02  0.27266401790E+02  0.10774303539E+03  0.00000000000E+00 0. -1.
         22    1    3    3    0    0  0.47817543672E+02  0.24272880441E+02 -0.74243701175E+02  0.91585028098E+02  0.00000000000E+00 0. -1.
</event>
<event>
 7    1  0.6067783E-006  0.6257300E+02  0.7818608E-02  0.1422406E+00
          2   -1    0    0  502    0  0.00000000000E+00  0.00000000000E+00  0.33197952088E+03  0.33197952088E+03  0.00000000000E+00 0. -1.
          1   -1    0    0  501    0 -0.00000000000E+00 -0.00000000000E+00 -0.70909840471E+03  0.70909840471E+03  0.00000000000E+00 0. -1.
         25    2    1    2    0    0 -0.27754973721E+02 -0.20614228432E+02 -0.93344639447E+02  0.15979496877E+03  0.12500370135E+03 0.  0.
          2    1    1    2  501    0  0.85857776726E+01  0.64068979510E+02 -0.57883036871E+03  0.58242866126E+03  0.00000000000E+00 0. -1.
          1    1    1    2  502    0  0.19169196049E+02 -0.43454751078E+02  0.29505612432E+03  0.29885429555E+03  0.00000000000E+00 0. -1.
         22    1    3    3    0    0 -0.18254312886E+02  0.57170955733E+01 -0.11977692334E+03  0.12129475044E+03  0.00000000000E+00 0. -1.
         22    1    3    3    0    0 -0.95006608353E+01 -0.26331324005E+02  0.26432283889E+02  0.38500218334E+02  0.00000000000E+00 0. -1.
</event>
<event>
 7    1  0.6620213E-006  0.9674658E+02  0.7818608E-02  0.1320322E+00
          2   -1    0    0  502    0  0.00000000000E+00  0.00000000000E+00  0.27052047584E+04  0.27052047584E+04  0.00000000000E+00 0. -1.
          1   -1    0    0  501    0 -0.00000000000E+00 -0.00000000000E+00 -0.46748593836E+03  0.46748593836E+03  0.00000000000E+00 0. -1.
         25    2    1    2    0    0 -0.13023655239E+03  0.99398822927E+02 -0.13220558484E+03  0.24483484417E+03  0.12499639467E+03 0.  0.
          2    1    1    2  501    0  0.65990275003E+02 -0.27464915547E+02 -0.27349324421E+03  0.28267931054E+03  0.00000000000E+00 0. -1.
          1    1    1    2  502    0  0.64246277383E+02 -0.71933907380E+02  0.26434176491E+04  0.26451765421E+04  0.00000000000E+00 0. -1.
         22    1    3    3    0    0 -0.10075877006E+03  0.11317772440E+03 -0.14513312932E+03  0.20982171544E+03  0.00000000000E+00 0. -1.
         22    1    3    3    0    0 -0.29477782330E+02 -0.13778901477E+02  0.12927544482E+02  0.35013128728E+02  0.00000000000E+00 0. -1.
</event>
<event>
 7    1  0.6067783E-006  0.8532634E+02  0.7818608E-02  0.1316638E+00
          2   -1    0    0  502    0  0.00000000000E+00  0.00000000000E+00  0.10506312318E+04  0.10506312318E+04  0.00000000000E+00 0. -1.
          1   -1    0    0  501    0 -0.00000000000E+00 -0.00000000000E+00 -0.12985913220E+03  0.12985913220E+03  0.00000000000E+00 0. -1.
         25    2    1    2    0    0 -0.30741144948E+02 -0.45899620764E+02 -0.10317925907E+01  0.13666169063E+03  0.12499423952E+03 0.  0.
          2    1    1    2  501    0 -0.17696896480E+02  0.11614447802E+03 -0.60015119642E+00  0.11748651030E+03  0.00000000000E+00 0. -1.
          1    1    1    2  502    0  0.48438041428E+02 -0.70244857261E+02  0.92240404334E+03  0.92634216302E+03  0.00000000000E+00 0. -1.
         22    1    3    3    0    0  0.15903316595E+02  0.29115809910E+02  0.28277004807E+02  0.43591683453E+02  0.00000000000E+00 0.  1.
         22    1    3    3    0    0 -0.46644461543E+02 -0.75015430674E+02 -0.29308797398E+02  0.93070007181E+02  0.00000000000E+00 0.  1.
</event>
<event>
 7    1  0.6067783E-006  0.6843546E+02  0.7818608E-02  0.1489060E+00
          2   -1    0    0  502    0  0.00000000000E+00  0.00000000000E+00  0.12457352840E+04  0.12457352840E+04  0.00000000000E+00 0. -1.
          1   -1    0    0  501    0 -0.00000000000E+00 -0.00000000000E+00 -0.12870986923E+03  0.12870986923E+03  0.00000000000E+00 0. -1.
         25    2    1    2    0    0 -0.79973636862E+02  0.44949970657E+02  0.47014079836E+03  0.49504950129E+03  0.12500142395E+03 0.  0.
          2    1    1    2  501    0  0.25379403043E+02 -0.82113003213E+01 -0.11328500563E+03  0.11638312615E+03  0.00000000000E+00 0. -1.
          1    1    1    2  502    0  0.54594233819E+02 -0.36738670336E+02  0.76016962199E+03  0.76301252575E+03  0.00000000000E+00 0. -1.
         22    1    3    3    0    0 -0.98726665658E+02 -0.93571668076E+00  0.37488007428E+03  0.38766338513E+03  0.00000000000E+00 0.  1.
         22    1    3    3    0    0  0.18753028797E+02  0.45885687338E+02  0.95260724078E+02  0.10738611616E+03  0.00000000000E+00 0.  1.
</event>
<event>
 7    1  0.6067783E-006  0.1876918E+03  0.7818608E-02  0.1288472E+00
          2   -1    0    0  502    0  0.00000000000E+00  0.00000000000E+00  0.60651781647E+03  0.60651781647E+03  0.00000000000E+00 0. -1.
          1   -1    0    0  501    0 -0.00000000000E+00 -0.00000000000E+00 -0.33268720569E+03  0.33268720569E+03  0.00000000000E+00 0. -1.
         25    2    1    2    0    0  0.14544382905E+03  0.17630177783E+03  0.42101669493E+03  0.49509172755E+03  0.12499814801E+03 0.  0.
          2    1    1    2  501    0 -0.13329157789E+03 -0.12850466691E+03 -0.26104147161E+03  0.32003553561E+03  0.00000000000E+00 0. -1.
          1    1    1    2  502    0 -0.12152251165E+02 -0.47797110923E+02  0.11385538747E+03  0.12407775899E+03  0.00000000000E+00 0. -1.
         22    1    3    3    0    0  0.15293188862E+03  0.18256474509E+03  0.42271170117E+03  0.48518370852E+03  0.00000000000E+00 0.  1.
         22    1    3    3    0    0 -0.74880595721E+01 -0.62629672513E+01 -0.16950062439E+01  0.99080190307E+01  0.00000000000E+00 0.  1.
</event>
<event>
 7    1  0.6067783E-006  0.2994695E+02  0.7818608E-02  0.1652789E+00
          2   -1    0    0  502    0  0.00000000000E+00  0.00000000000E+00  0.11209745060E+04  0.11209745060E+04  0.00000000000E+00 0. -1.
          1   -1    0    0  501    0 -0.00000000000E+00 -0.00000000000E+00 -0.80771953441E+03  0.80771953441E+03  0.00000000000E+00 0. -1.
         25    2    1    2    0    0 -0.37848518965E+02 -0.41806573289E+01  0.91080705643E+03  0.92013276237E+03  0.12499927226E+03 0.  0.
          2    1    1    2  501    0  0.22512788159E+02  0.19747685537E+02 -0.80219559804E+03  0.80275436731E+03  0.00000000000E+00 0. -1.
          1    1    1    2  502    0  0.15335730806E+02 -0.15567028208E+02  0.20464351318E+03  0.20580691070E+03  0.00000000000E+00 0. -1.
         22    1    3    3    0    0  0.37420491763E+02 -0.30320243286E+02  0.44035465107E+03  0.44298061930E+03  0.00000000000E+00 0. -1.
         22    1    3    3    0    0 -0.75269010728E+02  0.26139585957E+02  0.47045240536E+03  0.47715214307E+03  0.00000000000E+00 0. -1.
</event>
<event>
 7    1  0.6067783E-006  0.1606796E+03  0.7818608E-02  0.1347809E+00
          2   -1    0    0  502    0  0.00000000000E+00  0.00000000000E+00  0.24468194572E+04  0.24468194572E+04  0.00000000000E+00 0. -1.
          1   -1    0    0  501    0 -0.00000000000E+00 -0.00000000000E+00 -0.63861007609E+03  0.63861007609E+03  0.00000000000E+00 0. -1.
         25    2    1    2    0    0 -0.13191642790E+03  0.29979619625E+02  0.13307440521E+04  0.13434302512E+04  0.12499754483E+03 0.  0.
          2    1    1    2  501    0  0.16045342356E+03 -0.11785114406E+02 -0.62176764506E+03  0.64224543166E+03  0.00000000000E+00 0. -1.
          1    1    1    2  502    0 -0.28536995661E+02 -0.18194505220E+02  0.10992329742E+04  0.10997538505E+04  0.00000000000E+00 0. -1.
         22    1    3    3    0    0 -0.40862632959E+01  0.20813401442E+02  0.32081059761E+02  0.38458934238E+02  0.00000000000E+00 0. -1.
         22    1    3    3    0    0 -0.12783016460E+03  0.91662181834E+01  0.12986629923E+04  0.13049713170E+04  0.00000000000E+00 0. -1.
</event>
<event>
 7    1  0.6067783E-006  0.1168458E+03  0.7818608E-02  0.1326158E+00
          2   -1    0    0  502    0  0.00000000000E+00  0.00000000000E+00  0.10883353641E+04  0.10883353641E+04  0.00000000000E+00 0. -1.
          1   -1    0    0  501    0 -0.00000000000E+00 -0.00000000000E+00 -0.13792840181E+03  0.13792840181E+03  0.00000000000E+00 0. -1.
         25    2    1    2    0    0 -0.43573215347E+02  0.14278206332E+03  0.30571801197E+03  0.36245535193E+03  0.12500014641E+03 0.  0.
          2    1    1    2  501    0 -0.22808673816E+02 -0.51352941105E+02 -0.97788833476E+02  0.11278304888E+03  0.00000000000E+00 0. -1.
          1    1    1    2  502    0  0.66381889163E+02 -0.91429122211E+02  0.74247778376E+03  0.75102536506E+03  0.00000000000E+00 0. -1.
         22    1    3    3    0    0 -0.78112525341E+02  0.94388340479E+02  0.13814591458E+03  0.18464836623E+03  0.00000000000E+00 0. -1.
         22    1    3    3    0    0  0.34539309994E+02  0.48393722836E+02  0.16757209738E+03  0.17780698571E+03  0.00000000000E+00 0. -1.
</event>
<event>
 7    1  0.6067783E-006  0.1170438E+03  0.7818608E-02  0.1360853E+00
          2   -1    0    0  502    0  0.00000000000E+00  0.00000000000E+00  0.11220094241E+03  0.11220094241E+03  0.00000000000E+00 0. -1.
          1   -1    0    0  501    0 -0.00000000000E+00 -0.00000000000E+00 -0.79361040893E+03  0.79361040893E+03  0.00000000000E+00 0. -1.
         25    2    1    2    0    0  0.74528939388E+02  0.96224272049E+02 -0.42237719496E+03  0.45699270507E+03  0.12500465721E+03 0.  0.
          2    1    1    2  501    0  0.24545940576E+02 -0.33584571617E+02 -0.31583636018E+03  0.31856401721E+03  0.00000000000E+00 0. -1.
          1    1    1    2  502    0 -0.99074879965E+02 -0.62639700432E+02  0.56804088618E+02  0.13025462907E+03  0.00000000000E+00 0. -1.
         22    1    3    3    0    0  0.78501268541E+02  0.72123801873E+02 -0.41898331047E+03  0.43233240269E+03  0.00000000000E+00 0. -1.
         22    1    3    3    0    0 -0.39723291522E+01  0.24100470176E+02 -0.33938844879E+01  0.24660302381E+02  0.00000000000E+00 0. -1.
</event>
<event>
 7    1  0.6067783E-006  0.7863864E+02  0.7818608E-02  0.1419799E+00
          2   -1    0    0  502    0  0.00000000000E+00  0.00000000000E+00  0.87037208455E+03  0.87037208455E+03  0.00000000000E+00 0. -1.
          1   -1    0    0  501    0 -0.00000000000E+00 -0.00000000000E+00 -0.40400350866E+03  0.40400350866E+03  0.00000000000E+00 0. -1.
         25    2    1    2    0    0  0.14916547205E+02  0.72445417377E+02 -0.49095930911E+02  0.15331668997E+03  0.12499902044E+03 0.  0.
          2    1    1    2  501    0 -0.38449628100E+02  0.28613817369E+01 -0.29965732306E+03  0.30212757681E+03  0.00000000000E+00 0. -1.
          1    1    1    2  502    0  0.23533080895E+02 -0.75306799114E+02  0.81512182986E+03  0.81893132643E+03  0.00000000000E+00 0. -1.
         22    1    3    3    0    0  0.14763361095E+02  0.10784308640E+03 -0.44609800949E+02  0.11763554929E+03  0.00000000000E+00 0. -1.
         22    1    3    3    0    0  0.15318611051E+00 -0.35397669023E+02 -0.44861299622E+01  0.35681140681E+02  0.00000000000E+00 0. -1.
</event>
<event>
 7    1  0.6067783E-006  0.1386848E+03  0.7818608E-02  0.1328658E+00
          2   -1    0    0  502    0  0.00000000000E+00  0.00000000000E+00  0.82339560278E+03  0.82339560278E+03  0.00000000000E+00 0. -1.
          1   -1    0    0  501    0 -0.00000000000E+00 -0.00000000000E+00 -0.36370281517E+03  0.36370281517E+03  0.00000000000E+00 0. -1.
         25    2    1    2    0    0  0.24078846738E+02  0.10663906269E+03  0.20472840150E+02  0.16731615131E+03  0.12499550693E+03 0.  0.
          2    1    1    2  501    0  0.20823952912E+01 -0.14484936062E+03 -0.27140692177E+03  0.30764816078E+03  0.00000000000E+00 0. -1.
          1    1    1    2  502    0 -0.26161242029E+02  0.38210297935E+02  0.71062686924E+03  0.71213410586E+03  0.00000000000E+00 0. -1.
         22    1    3    3    0    0  0.63943641713E+02  0.18388251508E+02  0.23135149658E+02  0.70442545800E+02  0.00000000000E+00 0. -1.
         22    1    3    3    0    0 -0.39864794975E+02  0.88250811181E+02 -0.26623095084E+01  0.96873605509E+02  0.00000000000E+00 0. -1.
</event>
<event>
 7    1  0.6067783E-006  0.1014204E+03  0.7818608E-02  0.1283093E+00
          2   -1    0    0  502    0  0.00000000000E+00  0.00000000000E+00  0.99918575704E+03  0.99918575704E+03  0.00000000000E+00 0. -1.
          1   -1    0    0  501    0 -0.00000000000E+00 -0.00000000000E+00 -0.41845629453E+03  0.41845629453E+03  0.00000000000E+00 0. -1.
         25    2    1    2    0    0  0.25518864417E+02 -0.11035185669E+03  0.74962314065E+03  0.76836763628E+03  0.12500090706E+03 0.  0.
          2    1    1    2  501    0 -0.93112057079E+02  0.23437039008E+02 -0.39033475131E+03  0.40197060595E+03  0.00000000000E+00 0. -1.
          1    1    1    2  502    0  0.67593192662E+02  0.86914817684E+02  0.22144107317E+03  0.24730380934E+03  0.00000000000E+00 0. -1.
         22    1    3    3    0    0  0.41986494542E+02 -0.43717107020E+00  0.38228938063E+03  0.38458838696E+03  0.00000000000E+00 0.  1.
         22    1    3    3    0    0 -0.16467630124E+02 -0.10991468562E+03  0.36733376002E+03  0.38377924932E+03  0.00000000000E+00 0.  1.
</event>
<event>
 7    1  0.6067783E-006  0.4292179E+02  0.7818608E-02  0.1575103E+00
          2   -1    0    0  502    0  0.00000000000E+00  0.00000000000E+00  0.35969627310E+03  0.35969627310E+03  0.00000000000E+00 0. -1.
          1   -1    0    0  501    0 -0.00000000000E+00 -0.00000000000E+00 -0.14367789909E+04  0.14367789909E+04  0.00000000000E+00 0. -1.
         25    2    1    2    0    0  0.80316758247E+01  0.53728344652E+02 -0.11076606162E+04  0.11160147400E+04  0.12500246553E+03 0.  0.
          2    1    1    2  501    0  0.15934344386E+02 -0.18129255531E+02 -0.32319460828E+03  0.32409462825E+03  0.00000000000E+00 0. -1.
          1    1    1    2  502    0 -0.23966020210E+02 -0.35599089120E+02  0.35377250661E+03  0.35636589582E+03  0.00000000000E+00 0. -1.
         22    1    3    3    0    0  0.12593993437E+02 -0.26320395337E+02 -0.78697557119E+02  0.83932576381E+02  0.00000000000E+00 0.  1.
         22    1    3    3    0    0 -0.45623176121E+01  0.80048739989E+02 -0.10289630590E+04  0.10320821636E+04  0.00000000000E+00 0.  1.
</event>
<event>
 7    1  0.7446477E-006  0.4956409E+02  0.7818608E-02  0.1456937E+00
          2   -1    0    0  502    0  0.00000000000E+00  0.00000000000E+00  0.23316280726E+04  0.23316280726E+04  0.00000000000E+00 0. -1.
          1   -1    0    0  501    0 -0.00000000000E+00 -0.00000000000E+00 -0.15697574439E+04  0.15697574439E+04  0.00000000000E+00 0. -1.
         25    2    1    2    0    0  0.36264144387E+02 -0.83569949801E+02 -0.49437322400E+02  0.16238096001E+03  0.12499801059E+03 0.  0.
          2    1    1    2  501    0 -0.32048537602E+02  0.37446068316E+02 -0.14631975892E+04  0.14640274935E+04  0.00000000000E+00 0. -1.
          1    1    1    2  502    0 -0.42156067856E+01  0.46123881486E+02  0.22745055404E+04  0.22749770629E+04  0.00000000000E+00 0. -1.
         22    1    3    3    0    0  0.74697473604E+02 -0.47042204944E+02 -0.62021077268E+02  0.10788556731E+03  0.00000000000E+00 0. -1.
         22    1    3    3    0    0 -0.38433329216E+02 -0.36527744857E+02  0.12583754868E+02  0.54495392700E+02  0.00000000000E+00 0. -1.
</event>
<event>
 7    1  0.6067783E-006  0.7167472E+02  0.7818608E-02  0.1459857E+00
          2   -1    0    0  502    0  0.00000000000E+00  0.00000000000E+00  0.10986869066E+04  0.10986869066E+04  0.00000000000E+00 0. -1.
          1   -1    0    0  501    0 -0.00000000000E+00 -0.00000000000E+00 -0.14878233449E+04  0.14878233449E+04  0.00000000000E+00 0. -1.
         25    2    1    2    0    0  0.50272658447E+02 -0.31956422817E+01  0.39816136282E+03  0.42035214834E+03  0.12500362178E+03 0.  0.
          2    1    1    2  501    0  0.23819431909E+02  0.20389839737E+02 -0.14744629262E+04  0.14747962678E+04  0.00000000000E+00 0. -1.
          1    1    1    2  502    0 -0.74092090356E+02 -0.17194197455E+02  0.68716512504E+03  0.69136183533E+03  0.00000000000E+00 0. -1.
         22    1    3    3    0    0  0.42139506466E+02 -0.16772066060E+02  0.40160313863E+03  0.40415606040E+03  0.00000000000E+00 0. -1.
         22    1    3    3    0    0  0.81331519811E+01  0.13576423779E+02 -0.34417758098E+01  0.16196087938E+02  0.00000000000E+00 0. -1.
</event>
<event>
 7    1  0.6067783E-006  0.1215573E+03  0.7818608E-02  0.1342777E+00
          2   -1    0    0  502    0  0.00000000000E+00  0.00000000000E+00  0.31394139214E+03  0.31394139214E+03  0.00000000000E+00 0. -1.
          1   -1    0    0  501    0 -0.00000000000E+00 -0.00000000000E+00 -0.15588150840E+04  0.15588150840E+04  0.00000000000E+00 0. -1.
         25    2    1    2    0    0 -0.13808292713E+03  0.80064717021E+01 -0.45845346876E+03  0.49490875547E+03  0.12499637940E+03 0.  0.
          2    1    1    2  501    0  0.21475914559E+02 -0.41483624729E+02 -0.10691597760E+04  0.10701797666E+04  0.00000000000E+00 0. -1.
          1    1    1    2  502    0  0.11660701257E+03  0.33477153026E+02  0.28273955298E+03  0.30766795409E+03  0.00000000000E+00 0. -1.
         22    1    3    3    0    0 -0.13335566612E+03  0.16150167233E+02 -0.23068651809E+03  0.26694724425E+03  0.00000000000E+00 0. -1.
         22    1    3    3    0    0 -0.47272610088E+01 -0.81436955311E+01 -0.22776695068E+03  0.22796151121E+03  0.00000000000E+00 0. -1.
</event>
<event>
 7    1  0.6067783E-006  0.1062938E+03  0.7818608E-02  0.1314778E+00
          2   -1    0    0  502    0  0.00000000000E+00  0.00000000000E+00  0.62304053972E+03  0.62304053972E+03  0.00000000000E+00 0. -1.
          1   -1    0    0  501    0 -0.00000000000E+00 -0.00000000000E+00 -0.78071220766E+03  0.78071220766E+03  0.00000000000E+00 0. -1.
         25    2    1    2    0    0 -0.51539465224E+02 -0.69226889303E+01 -0.88087504980E+02  0.16152236635E+03  0.12500330476E+03 0.  0.
          2    1    1    2  501    0  0.11085008569E+03 -0.27094639870E+02 -0.64891831651E+03  0.65887543777E+03  0.00000000000E+00 0. -1.
          1    1    1    2  502    0 -0.59310620464E+02  0.34017328800E+02  0.57933415354E+03  0.58335494325E+03  0.00000000000E+00 0. -1.
         22    1    3    3    0    0 -0.42787753142E+01  0.39707020414E+02  0.11745742707E+02  0.41628330018E+02  0.00000000000E+00 0.  1.
         22    1    3    3    0    0 -0.47260689910E+02 -0.46629709345E+02 -0.99833247687E+02  0.11989403633E+03  0.00000000000E+00 0.  1.
</event>
<event>
 7    1  0.6067783E-006  0.7469529E+02  0.7818608E-02  0.1416347E+00
          2   -1    0    0  502    0  0.00000000000E+00  0.00000000000E+00  0.12132344993E+03  0.12132344993E+03  0.00000000000E+00 0. -1.
          1   -1    0    0  501    0 -0.00000000000E+00 -0.00000000000E+00 -0.17216759339E+04  0.17216759339E+04  0.00000000000E+00 0. -1.
         25    2    1    2    0    0  0.53784412019E+02 -0.92019077923E+02 -0.37547653052E+02  0.16850981858E+03  0.12500183611E+03 0.  0.
          2    1    1    2  501    0 -0.82456477819E+01  0.40862765042E+02 -0.15972725413E+04  0.15978164248E+04  0.00000000000E+00 0. -1.
          1    1    1    2  502    0 -0.45538764238E+02  0.51156312881E+02  0.34467710409E+02  0.76673140387E+02  0.00000000000E+00 0. -1.
         22    1    3    3    0    0 -0.21505906203E+02 -0.57733867233E+02 -0.56548450579E+02  0.83626734303E+02  0.00000000000E+00 0.  1.
         22    1    3    3    0    0  0.75290318222E+02 -0.34285210689E+02  0.19000797527E+02  0.84883084279E+02  0.00000000000E+00 0.  1.
</event>
<event>
 7    1  0.6067783E-006  0.6018796E+02  0.7818608E-02  0.1430369E+00
          2   -1    0    0  502    0  0.00000000000E+00  0.00000000000E+00  0.14070211686E+03  0.14070211686E+03  0.00000000000E+00 0. -1.
          1   -1    0    0  501    0 -0.00000000000E+00 -0.00000000000E+00 -0.97309208520E+03  0.97309208520E+03  0.00000000000E+00 0. -1.
         25    2    1    2    0    0  0.36349455760E+02 -0.96734674266E+02 -0.68347751347E+01  0.16232846154E+03  0.12499974054E+03 0.  0.
          2    1    1    2  501    0 -0.31767897644E+02  0.50491012906E+02 -0.87878389478E+03  0.88080626442E+03  0.00000000000E+00 0. -1.
          1    1    1    2  502    0 -0.45815581160E+01  0.46243661360E+02  0.53228701585E+02  0.70659476103E+02  0.00000000000E+00 0. -1.
         22    1    3    3    0    0 -0.20812093427E+01  0.83531699865E+01  0.40082020241E+02  0.40996039171E+02  0.00000000000E+00 0. -1.
         22    1    3    3    0    0  0.38430665103E+02 -0.10508784425E+03 -0.46916795375E+02  0.12133242237E+03  0.00000000000E+00 0. -1.
</event>
<event>
 7    1  0.6067783E-006  0.2764327E+02  0.7818608E-02  0.1660574E+00
          2   -1    0    0  502    0  0.00000000000E+00  0.00000000000E+00  0.37223820747E+03  0.37223820747E+03  0.00000000000E+00 0. -1.
          1   -1    0    0  501    0 -0.00000000000E+00 -0.00000000000E+00 -0.17897308280E+04  0.17897308280E+04  0.00000000000E+00 0. -1.
         25    2    1    2    0    0  0.46022118676E+02  0.11002669998E+02 -0.93062689543E+03  0.94017593488E+03  0.12500110347E+03 0.  0.
          2    1    1    2  501    0 -0.26825716161E+02  0.10443708650E+01 -0.85376878171E+03  0.85419075293E+03  0.00000000000E+00 0. -1.
          1    1    1    2  502    0 -0.19196402515E+02 -0.12047040863E+02  0.36690305660E+03  0.36760234767E+03  0.00000000000E+00 0. -1.
         22    1    3    3    0    0  0.50181208958E+01 -0.37683419992E+02 -0.69691236650E+03  0.69794847106E+03  0.00000000000E+00 0. -1.
         22    1    3    3    0    0  0.41003997780E+02  0.48686089990E+02 -0.23371452893E+03  0.24222746382E+03  0.00000000000E+00 0. -1.
</event>
<event>
 7    1  0.6067783E-006  0.6352822E+02  0.7818608E-02  0.1436533E+00
          2   -1    0    0  502    0  0.00000000000E+00  0.00000000000E+00  0.79828077757E+03  0.79828077757E+03  0.00000000000E+00 0. -1.
          1   -1    0    0  501    0 -0.00000000000E+00 -0.00000000000E+00 -0.87670987721E+03  0.87670987721E+03  0.00000000000E+00 0. -1.
         25    2    1    2    0    0 -0.11213158561E+01  0.29971612471E+02 -0.33300646487E+03  0.35695432587E+03  0.12499412069E+03 0.  0.
          2    1    1    2  501    0  0.20984724519E+02 -0.67007521516E+02 -0.52884572788E+03  0.53348680442E+03  0.00000000000E+00 0. -1.
          1    1    1    2  502    0 -0.19863408663E+02  0.37035909045E+02  0.78342309311E+03  0.78454952449E+03  0.00000000000E+00 0. -1.
         22    1    3    3    0    0 -0.91351100695E+00  0.73903070214E+02 -0.27143013636E+03  0.28131266807E+03  0.00000000000E+00 0. -1.
         22    1    3    3    0    0 -0.20780484911E+00 -0.43931457743E+02 -0.61576328506E+02  0.75641657799E+02  0.00000000000E+00 0. -1.
</event>
<event>
 7    1  0.6067783E-006  0.7527864E+02  0.7818608E-02  0.1449615E+00
          2   -1    0    0  502    0  0.00000000000E+00  0.00000000000E+00  0.15130528838E+04  0.15130528838E+04  0.00000000000E+00 0. -1.
          1   -1    0    0  501    0 -0.00000000000E+00 -0.00000000000E+00 -0.49471135141E+02  0.49471135141E+02  0.00000000000E+00 0. -1.
         25    2    1    2    0    0 -0.59455229890E+02  0.10880061280E+02  0.11766904497E+04  0.11848537705E+04  0.12499897160E+03 0.  0.
          2    1    1    2  501    0  0.73659817701E+02  0.17991841162E+02 -0.12245605961E+02  0.76807746729E+02  0.00000000000E+00 0. -1.
          1    1    1    2  502    0 -0.14204587811E+02 -0.28871902442E+02  0.29913690493E+03  0.30086250174E+03  0.00000000000E+00 0. -1.
         22    1    3    3    0    0 -0.66570421262E+02  0.88318896903E+01  0.11754256740E+04  0.11773424049E+04  0.00000000000E+00 0.  1.
         22    1    3    3    0    0  0.71151913721E+01  0.20481715898E+01  0.12647756831E+01  0.75113655650E+01  0.00000000000E+00 0.  1.
</event>
<event>
 7    1  0.6067783E-006  0.1317499E+03  0.7818608E-02  0.1370026E+00
          2   -1    0    0  502    0  0.00000000000E+00  0.00000000000E+00  0.41060328429E+02  0.41060328429E+02  0.00000000000E+00 0. -1.
          1   -1    0    0  501    0 -0.00000000000E+00 -0.00000000000E+00 -0.83323676540E+03  0.83323676540E+03  0.00000000000E+00 0. -1.
         25    2    1    2    0    0 -0.80310369821E+02 -0.87815899083E+02 -0.25675467354E+03  0.30936961847E+03  0.12500084325E+03 0.  0.
          2    1    1    2  501    0  0.11303995909E+03  0.77775398406E+02 -0.48459584096E+03  0.50364687434E+03  0.00000000000E+00 0. -1.
          1    1    1    2  502    0 -0.32729589271E+02  0.10040500677E+02 -0.50825922461E+02  0.61280601023E+02  0.00000000000E+00 0. -1.
         22    1    3    3    0    0 -0.95385389305E+02 -0.61513361505E+02 -0.25486388739E+03  0.27899438567E+03  0.00000000000E+00 0. -1.
         22    1    3    3    0    0  0.15075019485E+02 -0.26302537578E+02 -0.18907861507E+01  0.30375232802E+02  0.00000000000E+00 0. -1.
</event>
<event>
 7    1  0.6067783E-006  0.1220627E+03  0.7818608E-02  0.1314906E+00
          2   -1    0    0  502    0  0.00000000000E+00  0.00000000000E+00  0.11003502254E+03  0.11003502254E+03  0.00000000000E+00 0. -1.
          1   -1    0    0  501    0 -0.00000000000E+00 -0.00000000000E+00 -0.17905531769E+04  0.17905531769E+04  0.00000000000E+00 0. -1.
         25    2    1    2    0    0  0.17210646688E+03  0.36004830266E+02 -0.38830165708E+03  0.44420624073E+03  0.12499609462E+03 0.  0.
          2    1    1    2  501    0 -0.59029326913E+02 -0.72453406331E+01 -0.13318348092E+04  0.13331619990E+04  0.00000000000E+00 0. -1.
          1    1    1    2  502    0 -0.11307713997E+03 -0.28759489633E+02  0.39618311983E+02  0.12321995971E+03  0.00000000000E+00 0. -1.
         22    1    3    3    0    0  0.18600300169E+03  0.33622758361E+02 -0.29855723120E+03  0.35336104315E+03  0.00000000000E+00 0. -1.
         22    1    3    3    0    0 -0.13896534810E+02  0.23820719052E+01 -0.89744425878E+02  0.90845197575E+02  0.00000000000E+00 0. -1.
</event>
<event>
 7    1  0.6067783E-006  0.4552680E+02  0.7818608E-02  0.1500240E+00
          2   -1    0    0  502    0  0.00000000000E+00  0.00000000000E+00  0.16856427769E+04  0.16856427769E+04  0.00000000000E+00 0. -1.
          1   -1    0    0  501    0 -0.00000000000E+00 -0.00000000000E+00 -0.43206381273E+03  0.43206381273E+03  0.00000000000E+00 0. -1.
         25    2    1    2    0    0 -0.14550031455E+02 -0.48245335300E+02  0.52178694639E+03  0.53891004442E+03  0.12499241081E+03 0.  0.
          2    1    1    2  501    0 -0.25997652626E+02  0.26482990274E+02 -0.42222979794E+03  0.42385755742E+03  0.00000000000E+00 0. -1.
          1    1    1    2  502    0  0.40547684081E+02  0.21762345026E+02  0.11540218158E+04  0.11549389878E+04  0.00000000000E+00 0. -1.
         22    1    3    3    0    0 -0.63418086189E+02 -0.56591479872E+01  0.34004854438E+03  0.34595793407E+03  0.00000000000E+00 0. -1.
         22    1    3    3    0    0  0.48868054734E+02 -0.42586187313E+02  0.18173840201E+03  0.19295211035E+03  0.00000000000E+00 0. -1.
</event>
<event>
 7    1  0.6067783E-006  0.3695747E+02  0.7818608E-02  0.1569086E+00
          2   -1    0    0  502    0  0.00000000000E+00  0.00000000000E+00  0.10757898270E+04  0.10757898270E+04  0.00000000000E+00 0. -1.
          1   -1    0    0  501    0 -0.00000000000E+00 -0.00000000000E+00 -0.40989871802E+03  0.40989871802E+03  0.00000000000E+00 0. -1.
         25    2    1    2    0    0 -0.96546523042E+01 -0.11881091914E+02  0.27250512000E+03  0.30019614992E+03  0.12499726136E+03 0.  0.
          2    1    1    2  501    0 -0.27964023476E+02  0.80659253496E+01 -0.39506483968E+03  0.39613542294E+03  0.00000000000E+00 0. -1.
          1    1    1    2  502    0  0.37618675781E+02  0.38151665645E+01  0.78845082865E+03  0.78935697214E+03  0.00000000000E+00 0. -1.
         22    1    3    3    0    0 -0.46713833708E+00 -0.26124585842E+02  0.28031762772E+03  0.28153274163E+03  0.00000000000E+00 0. -1.
         22    1    3    3    0    0 -0.91875139672E+01  0.14243493928E+02 -0.78125077176E+01  0.18663408290E+02  0.00000000000E+00 0. -1.
</event>
<event>
 7    1  0.6067783E-006  0.1442230E+03  0.7818608E-02  0.1254745E+00
          2   -1    0    0  502    0  0.00000000000E+00  0.00000000000E+00  0.28699278313E+04  0.28699278313E+04  0.00000000000E+00 0. -1.
          1   -1    0    0  501    0 -0.00000000000E+00 -0.00000000000E+00 -0.20501913933E+03  0.20501913933E+03  0.00000000000E+00 0. -1.
         25    2    1    2    0    0 -0.24268005894E+02 -0.56066615900E+02  0.10596292863E+03  0.17488338181E+03  0.12499461372E+03 0.  0.
          2    1    1    2  501    0 -0.17901258407E+02 -0.87037862985E+02 -0.15679716024E+03  0.18022595291E+03  0.00000000000E+00 0. -1.
          1    1    1    2  502    0  0.42169264301E+02  0.14310447888E+03  0.27157429235E+04  0.27198376359E+04  0.00000000000E+00 0. -1.
         22    1    3    3    0    0  0.21866397926E+02 -0.82876430112E+02  0.62910769909E+02  0.10632218488E+03  0.00000000000E+00 0. -1.
         22    1    3    3    0    0 -0.46134403820E+02  0.26809814213E+02  0.43052158723E+02  0.68561196932E+02  0.00000000000E+00 0. -1.
</event>
<event>
 7    1  0.6067783E-006  0.9833961E+02  0.7818608E-02  0.1341270E+00
          2   -1    0    0  502    0  0.00000000000E+00  0.00000000000E+00  0.20254995453E+04  0.20254995453E+04  0.00000000000E+00 0. -1.
          1   -1    0    0  501    0 -0.00000000000E+00 -0.00000000000E+00 -0.24515660180E+04  0.24515660180E+04  0.00000000000E+00 0. -1.
         25    2    1    2    0    0 -0.77078216305E+02 -0.13518945456E+03  0.44668098780E+02  0.20454177572E+03  0.12499943565E+03 0.  0.
          2    1    1    2  501    0  0.24631265721E+02  0.53059459404E+02 -0.23700191411E+04  0.23707409674E+04  0.00000000000E+00 0. -1.
          1    1    1    2  502    0  0.52446950584E+02  0.82129995151E+02  0.18992845696E+04  0.19017828202E+04  0.00000000000E+00 0. -1.
         22    1    3    3    0    0  0.31140207463E+02 -0.58832957696E+02  0.22429529427E+02  0.70243243251E+02  0.00000000000E+00 0.  1.
         22    1    3    3    0    0 -0.10821842377E+03 -0.76356496859E+02  0.22238569352E+02  0.13429853246E+03  0.00000000000E+00 0.  1.
</event>
<event>
 7    1  0.6067783E-006  0.5913514E+02  0.7818608E-02  0.1476872E+00
          2   -1    0    0  502    0  0.00000000000E+00  0.00000000000E+00  0.16985334875E+04  0.16985334875E+04  0.00000000000E+00 0. -1.
          1   -1    0    0  501    0 -0.00000000000E+00 -0.00000000000E+00 -0.45604715788E+03  0.45604715788E+03  0.00000000000E+00 0. -1.
         25    2    1    2    0    0 -0.78595439746E+02 -0.43143461486E+02  0.29204008187E+03  0.33007811947E+03  0.12500221644E+03 0.  0.
          2    1    1    2  501    0  0.45427154900E+02  0.37569762179E+02 -0.43483517063E+03  0.43881287475E+03  0.00000000000E+00 0. -1.
          1    1    1    2  502    0  0.33168284846E+02  0.55736993075E+01  0.13852814184E+04  0.13856896512E+04  0.00000000000E+00 0. -1.
         22    1    3    3    0    0 -0.58610778325E+02 -0.33160602811E+02  0.29914904678E+03  0.30663496393E+03  0.00000000000E+00 0.  1.
         22    1    3    3    0    0 -0.19984661421E+02 -0.99828586747E+01 -0.71089649120E+01  0.23443155538E+02  0.00000000000E+00 0.  1.
</event>
<event>
 7    1  0.6067783E-006  0.1352801E+03  0.7818608E-02  0.1310595E+00
          2   -1    0    0  502    0  0.00000000000E+00  0.00000000000E+00  0.19065621188E+04  0.19065621188E+04  0.00000000000E+00 0. -1.
          1   -1    0    0  501    0 -0.00000000000E+00 -0.00000000000E+00 -0.24094289614E+03  0.24094289614E+03  0.00000000000E+00 0. -1.
         25    2    1    2    0    0 -0.88209813934E+02 -0.54866092440E+01  0.96179682651E+02  0.18079438073E+03  0.12500001038E+03 0.  0.
          2    1    1    2  501    0  0.14377088614E+03  0.10568530800E+02 -0.17197417033E+03  0.22440337966E+03  0.00000000000E+00 0. -1.
          1    1    1    2  502    0 -0.55561072204E+02 -0.50819215561E+01  0.17414137103E+04  0.17423072545E+04  0.00000000000E+00 0. -1.
         22    1    3    3    0    0  0.27683329730E+02 -0.21031209796E+02  0.12253588353E+02  0.36862297242E+02  0.00000000000E+00 0.  1.
         22    1    3    3    0    0 -0.11589314366E+03  0.15544600552E+02  0.83926094297E+02  0.14393208349E+03  0.00000000000E+00 0.  1.
</event>
<event>
 7    1  0.6067783E-006  0.1044981E+03  0.7818608E-02  0.1333827E+00
          2   -1    0    0  502    0  0.00000000000E+00  0.00000000000E+00  0.10026664150E+04  0.10026664150E+04  0.00000000000E+00 0. -1.
          1   -1    0    0  501    0 -0.00000000000E+00 -0.00000000000E+00 -0.66282446706E+02  0.66282446706E+02  0.00000000000E+00 0. -1.
         25    2    1    2    0    0  0.42292064651E+02 -0.41601978343E+02  0.25651951999E+03  0.29145025442E+03  0.12498657260E+03 0.  0.
          2    1    1    2  501    0 -0.68535671192E+02  0.94143462608E+02  0.23856125037E+02  0.11886649856E+03  0.00000000000E+00 0. -1.
          1    1    1    2  502    0  0.26243606542E+02 -0.52541484265E+02  0.65600832327E+03  0.65863210874E+03  0.00000000000E+00 0. -1.
         22    1    3    3    0    0  0.79003473717E+01 -0.73474056775E+02  0.80425897352E+02  0.10922077400E+03  0.00000000000E+00 0. -1.
         22    1    3    3    0    0  0.34391717279E+02  0.31872078432E+02  0.17609362264E+03  0.18222948042E+03  0.00000000000E+00 0. -1.
</event>
<event>
 7    1  0.6067783E-006  0.5387895E+02  0.7818608E-02  0.1553908E+00
          2   -1    0    0  502    0  0.00000000000E+00  0.00000000000E+00  0.13916360693E+04  0.13916360693E+04  0.00000000000E+00 0. -1.
          1   -1    0    0  501    0 -0.00000000000E+00 -0.00000000000E+00 -0.30068021111E+04  0.30068021111E+04  0.00000000000E+00 0. -1.
         25    2    1    2    0    0  0.47341408601E+02 -0.53984443775E+02 -0.16117795547E+03  0.21623694527E+03  0.12499821612E+03 0.  0.
          2    1    1    2  501    0 -0.26620134538E+02  0.46666981673E+02 -0.28177500690E+04  0.28182622110E+04  0.00000000000E+00 0. -1.
          1    1    1    2  502    0 -0.20721274063E+02  0.73174621016E+01  0.13637619826E+04  0.13639390242E+04  0.00000000000E+00 0. -1.
         22    1    3    3    0    0 -0.51980705827E+01  0.37883596991E+02 -0.46078167013E+02  0.59878078910E+02  0.00000000000E+00 0. -1.
         22    1    3    3    0    0  0.52539479184E+02 -0.91868040765E+02 -0.11509978845E+03  0.15635886636E+03  0.00000000000E+00 0. -1.
</event>
<event>
 7    1  0.6067783E-006  0.8105502E+02  0.7818608E-02  0.1455241E+00
          2   -1    0    0  502    0  0.00000000000E+00  0.00000000000E+00  0.90471340529E+02  0.90471340529E+02  0.00000000000E+00 0. -1.
          1   -1    0    0  501    0 -0.00000000000E+00 -0.00000000000E+00 -0.16721109492E+04  0.16721109492E+04  0.00000000000E+00 0. -1.
         25    2    1    2    0    0 -0.83447185035E+02 -0.12818144878E+02 -0.34240237692E+03  0.37415523017E+03  0.12500004407E+03 0.  0.
          2    1    1    2  501    0  0.79640547996E+02 -0.15602798691E+02 -0.13097733746E+04  0.13122851660E+04  0.00000000000E+00 0. -1.
          1    1    1    2  502    0  0.38066370386E+01  0.28420943569E+02  0.70536142781E+02  0.76141893576E+02  0.00000000000E+00 0. -1.
         22    1    3    3    0    0  0.28079520824E+01 -0.52812338112E+02 -0.89317953055E+02  0.10380136988E+03  0.00000000000E+00 0.  1.
         22    1    3    3    0    0 -0.86255137117E+02  0.39994193234E+02 -0.25308442386E+03  0.27035386029E+03  0.00000000000E+00 0.  1.
</event>
<event>
 7    1  0.6067783E-006  0.1928027E+03  0.7818608E-02  0.1316458E+00
          2   -1    0    0  502    0  0.00000000000E+00  0.00000000000E+00  0.12312500046E+04  0.12312500046E+04  0.00000000000E+00 0. -1.
          1   -1    0    0  501    0 -0.00000000000E+00 -0.00000000000E+00 -0.17866677102E+04  0.17866677102E+04  0.00000000000E+00 0. -1.
         25    2    1    2    0    0  0.11915793744E+03 -0.18191016008E+03  0.25400080669E+03  0.35697308870E+03  0.12499382330E+03 0.  0.
          2    1    1    2  501    0  0.14064262158E+01  0.37102880335E+02 -0.17253917580E+04  0.17257912157E+04  0.00000000000E+00 0. -1.
          1    1    1    2  502    0 -0.12056436366E+03  0.14480727975E+03  0.91597324572E+03  0.93515341037E+03  0.00000000000E+00 0. -1.
         22    1    3    3    0    0  0.38859500950E+02  0.12187352846E+02  0.43856702212E+02  0.59849834690E+02  0.00000000000E+00 0. -1.
         22    1    3    3    0    0  0.80298436492E+02 -0.19409751293E+03  0.21014410447E+03  0.29712325401E+03  0.00000000000E+00 0. -1.
</event>
<event>
 7    1  0.6067783E-006  0.2716138E+02  0.7818608E-02  0.1636553E+00
          2   -1    0    0  502    0  0.00000000000E+00  0.00000000000E+00  0.26338895872E+03  0.26338895872E+03  0.00000000000E+00 0. -1.
          1   -1    0    0  501    0 -0.00000000000E+00 -0.00000000000E+00 -0.30079898752E+03  0.30079898752E+03  0.00000000000E+00 0. -1.
         25    2    1    2    0    0  0.23457361391E+02 -0.18448010647E+01  0.36868856126E+02  0.13242950584E+03  0.12499844147E+03 0.  0.
          2    1    1    2  501    0 -0.10837166198E+02  0.25058924813E+02 -0.25129873001E+03  0.25277746258E+03  0.00000000000E+00 0. -1.
          1    1    1    2  502    0 -0.12620195192E+02 -0.23214123748E+02  0.17701984508E+03  0.17898097782E+03  0.00000000000E+00 0. -1.
         22    1    3    3    0    0  0.21244844618E+02  0.51937150477E+02 -0.14570926692E+02  0.57975192342E+02  0.00000000000E+00 0. -1.
         22    1    3    3    0    0  0.22125167732E+01 -0.53781951541E+02  0.51439782818E+02  0.74454313498E+02  0.00000000000E+00 0. -1.
</event>
<event>
 7    1  0.6067783E-006  0.4812968E+02  0.7818608E-02  0.1521907E+00
          2   -1    0    0  502    0  0.00000000000E+00  0.00000000000E+00  0.22853435158E+03  0.22853435158E+03  0.00000000000E+00 0. -1.
          1   -1    0    0  501    0 -0.00000000000E+00 -0.00000000000E+00 -0.16296037472E+03  0.16296037472E+03  0.00000000000E+00 0. -1.
         25    2    1    2    0    0  0.50877968318E+01  0.18373196444E+02 -0.32222320259E+02  0.13048758062E+03  0.12500108299E+03 0.  0.
          2    1    1    2  501    0  0.96446984914E+01  0.28740553140E+02 -0.75213322375E+02  0.81093054366E+02  0.00000000000E+00 0. -1.
          1    1    1    2  502    0 -0.14732495323E+02 -0.47113749584E+02  0.17300961949E+03  0.17991409132E+03  0.00000000000E+00 0. -1.
         22    1    3    3    0    0  0.31675422624E+02  0.36858392177E+02  0.32259543939E+02  0.58331395041E+02  0.00000000000E+00 0. -1.
         22    1    3    3    0    0 -0.26587625792E+02 -0.18485195733E+02 -0.64481864198E+02  0.72156185577E+02  0.00000000000E+00 0. -1.
</event>
<event>
 7    1  0.6067783E-006  0.9414077E+02  0.7818608E-02  0.1337002E+00
          2   -1    0    0  502    0  0.00000000000E+00  0.00000000000E+00  0.14502834565E+04  0.14502834565E+04  0.00000000000E+00 0. -1.
          1   -1    0    0  501    0 -0.00000000000E+00 -0.00000000000E+00 -0.40841128160E+02  0.40841128160E+02  0.00000000000E+00 0. -1.
         25    2    1    2    0    0  0.44212794846E+02 -0.11399559315E+03  0.39169768650E+03  0.42895467404E+03  0.12500107311E+03 0.  0.
          2    1    1    2  501    0  0.28487750326E+02  0.56652345481E+02  0.30097567572E+02  0.70191906520E+02  0.00000000000E+00 0. -1.
          1    1    1    2  502    0 -0.72700545172E+02  0.57343247671E+02  0.98764707426E+03  0.99197800410E+03  0.00000000000E+00 0. -1.
         22    1    3    3    0    0  0.37316734788E+02  0.15611324694E+02  0.14051050662E+03  0.14621714887E+03  0.00000000000E+00 0. -1.
         22    1    3    3    0    0  0.68960600581E+01 -0.12960691785E+03  0.25118717989E+03  0.28273752517E+03  0.00000000000E+00 0. -1.
</event>
<event>
 7    1  0.6067783E-006  0.6057859E+02  0.7818608E-02  0.1438306E+00
          2   -1    0    0  502    0  0.00000000000E+00  0.00000000000E+00  0.24488743198E+03  0.24488743198E+03  0.00000000000E+00 0. -1.
          1   -1    0    0  501    0 -0.00000000000E+00 -0.00000000000E+00 -0.82661697672E+03  0.82661697672E+03  0.00000000000E+00 0. -1.
         25    2    1    2    0    0 -0.63493976212E+02 -0.47856210546E+02 -0.96841093617E+02  0.17698575215E+03  0.12499622853E+03 0.  0.
          2    1    1    2  501    0  0.33037385721E+01  0.43364929728E+02 -0.68455172341E+03  0.68593184344E+03  0.00000000000E+00 0. -1.
          1    1    1    2  502    0  0.60190237640E+02  0.44912808181E+01  0.19966327228E+03  0.20858681312E+03  0.00000000000E+00 0. -1.
         22    1    3    3    0    0  0.22028675435E+02  0.21686631271E+02 -0.46424283571E+02  0.55774426240E+02  0.00000000000E+00 0. -1.
         22    1    3    3    0    0 -0.85522651646E+02 -0.69542841817E+02 -0.50416810046E+02  0.12121132591E+03  0.00000000000E+00 0. -1.
</event>
<event>
 7    1  0.6067783E-006  0.1552184E+03  0.7818608E-02  0.1383688E+00
          2   -1    0    0  502    0  0.00000000000E+00  0.00000000000E+00  0.58126893026E+03  0.58126893026E+03  0.00000000000E+00 0. -1.
          1   -1    0    0  501    0 -0.00000000000E+00 -0.00000000000E+00 -0.15033944683E+04  0.15033944683E+04  0.00000000000E+00 0. -1.
         25    2    1    2    0    0  0.37781896669E+02 -0.12666017098E+03 -0.39281487120E+03  0.43289582602E+03  0.12500001011E+03 0.  0.
          2    1    1    2  501    0  0.17807009469E+02 -0.18919425304E+02 -0.10795626685E+04  0.10798752657E+04  0.00000000000E+00 0. -1.
          1    1    1    2  502    0 -0.55588906138E+02  0.14557959629E+03  0.55025200164E+03  0.57189230686E+03  0.00000000000E+00 0. -1.
         22    1    3    3    0    0  0.51230543799E+01  0.11311958775E+01  0.87619098545E+01  0.10212558670E+02  0.00000000000E+00 0.  1.
         22    1    3    3    0    0  0.32658842289E+02 -0.12779136686E+03 -0.40157678105E+03  0.42268326735E+03  0.00000000000E+00 0.  1.
</event>
<event>
 7    1  0.7232034E-006  0.5530290E+02  0.7818608E-02  0.1479052E+00
          2   -1    0    0  502    0  0.00000000000E+00  0.00000000000E+00  0.13967277103E+04  0.13967277103E+04  0.00000000000E+00 0. -1.
          1   -1    0    0  501    0 -0.00000000000E+00 -0.00000000000E+00 -0.12048002655E+04  0.12048002655E+04  0.00000000000E+00 0. -1.
         25    2    1    2    0    0  0.23378988348E+02  0.43447351011E+01 -0.11681414916E+03  0.17273078076E+03  0.12499969343E+03 0.  0.
          2    1    1    2  501    0 -0.47105501002E+02 -0.30633895391E+02 -0.10590538230E+04  0.10605434285E+04  0.00000000000E+00 0. -1.
          1    1    1    2  502    0  0.23726512654E+02  0.26289160290E+02  0.13677954168E+04  0.13682537666E+04  0.00000000000E+00 0. -1.
         22    1    3    3    0    0 -0.51302244041E+02 -0.65271198595E+01 -0.44965331057E+02  0.68530318359E+02  0.00000000000E+00 0. -1.
         22    1    3    3    0    0  0.74681232389E+02  0.10871854961E+02 -0.71848818102E+02  0.10420046240E+03  0.00000000000E+00 0. -1.
</event>
<event>
 7    1  0.6067783E-006  0.1733944E+03  0.7818608E-02  0.1259698E+00
          2   -1    0    0  502    0  0.00000000000E+00  0.00000000000E+00  0.22268821663E+03  0.22268821663E+03  0.00000000000E+00 0. -1.
          1   -1    0    0  501    0 -0.00000000000E+00 -0.00000000000E+00 -0.43663012968E+04  0.43663012968E+04  0.00000000000E+00 0. -1.
         25    2    1    2    0    0 -0.23919390232E+03 -0.30073456026E+02 -0.35309133314E+03  0.44543880141E+03  0.12499640237E+03 0.  0.
          2    1    1    2  501    0  0.16927966707E+03  0.21959038078E+02 -0.39581066072E+04  0.39617856730E+04  0.00000000000E+00 0. -1.
          1    1    1    2  502    0  0.69914235248E+02  0.81144179483E+01  0.16758486013E+03  0.18176503903E+03  0.00000000000E+00 0. -1.
         22    1    3    3    0    0 -0.56887602411E+00  0.20033909323E+02 -0.64971763136E+02  0.67992728638E+02  0.00000000000E+00 0.  1.
         22    1    3    3    0    0 -0.23862502629E+03 -0.50107365349E+02 -0.28811957000E+03  0.37744607278E+03  0.00000000000E+00 0.  1.
</event>
<event>
 7    1  0.6067783E-006  0.1923390E+03  0.7818608E-02  0.1298603E+00
          2   -1    0    0  502    0  0.00000000000E+00  0.00000000000E+00  0.54417004740E+03  0.54417004740E+03  0.00000000000E+00 0. -1.
          1   -1    0    0  501    0 -0.00000000000E+00 -0.00000000000E+00 -0.27420147140E+03  0.27420147140E+03  0.00000000000E+00 0. -1.
         25    2    1    2    0    0 -0.99004111946E+02  0.13638602602E+03  0.18998465372E+03  0.28305863468E+03  0.12500023897E+03 0.  0.
          2    1    1    2  501    0 -0.15694241192E+02  0.40884552778E+02 -0.18863134341E+03  0.19364823671E+03  0.00000000000E+00 0. -1.
          1    1    1    2  502    0  0.11469835314E+03 -0.17727057880E+03  0.26861526569E+03  0.34166464740E+03  0.00000000000E+00 0. -1.
         22    1    3    3    0    0 -0.27224561896E+02  0.34206198252E+02 -0.12229347403E+02  0.45396009816E+02  0.00000000000E+00 0.  1.
         22    1    3    3    0    0 -0.71779550051E+02  0.10217982777E+03  0.20221400112E+03  0.23766262487E+03  0.00000000000E+00 0.  1.
</event>
<event>
 7    1  0.6067783E-006  0.8320772E+02  0.7818608E-02  0.1344063E+00
          2   -1    0    0  502    0  0.00000000000E+00  0.00000000000E+00  0.16582156315E+04  0.16582156315E+04  0.00000000000E+00 0. -1.
          1   -1    0    0  501    0 -0.00000000000E+00 -0.00000000000E+00 -0.34748899856E+02  0.34748899856E+02  0.00000000000E+00 0. -1.
         25    2    1    2    0    0 -0.26969300194E+01 -0.11520640825E+03  0.51790012615E+03  0.54509161625E+03  0.12499815802E+03 0.  0.
          2    1    1    2  501    0 -0.44901966829E+02  0.67360031242E+02  0.61596629721E+02  0.10172367093E+03  0.00000000000E+00 0. -1.
          1    1    1    2  502    0  0.47598896849E+02  0.47846377012E+02  0.10439699758E+04  0.10461492442E+04  0.00000000000E+00 0. -1.
         22    1    3    3    0    0 -0.31914403907E+02 -0.18793483953E+02  0.32835624593E+03  0.33043841856E+03  0.00000000000E+00 0. -1.
         22    1    3    3    0    0  0.29217473887E+02 -0.96412924301E+02  0.18954388021E+03  0.21465319769E+03  0.00000000000E+00 0. -1.
</event>
<event>
 7    1  0.6067783E-006  0.1249736E+03  0.7818608E-02  0.1399077E+00
          2   -1    0    0  502    0  0.00000000000E+00  0.00000000000E+00  0.80378726136E+03  0.80378726136E+03  0.00000000000E+00 0. -1.
          1   -1    0    0  501    0 -0.00000000000E+00 -0.00000000000E+00 -0.33076090876E+03  0.33076090876E+03  0.00000000000E+00 0. -1.
         25    2    1    2    0    0  0.13495860613E+03 -0.59395078851E+02  0.22435028984E+03  0.29614097473E+03  0.12499929441E+03 0.  0.
          2    1    1    2  501    0 -0.20959420359E+02  0.19345677294E+02 -0.28743586233E+03  0.28884758521E+03  0.00000000000E+00 0. -1.
          1    1    1    2  502    0 -0.11399918577E+03  0.40049401557E+02  0.53611192509E+03  0.54955961018E+03  0.00000000000E+00 0. -1.
         22    1    3    3    0    0  0.14662274843E+03 -0.77558245861E+02  0.16932261387E+03  0.23703092504E+03  0.00000000000E+00 0. -1.
         22    1    3    3    0    0 -0.11664142304E+02  0.18163167009E+02  0.55027675968E+02  0.59110049686E+02  0.00000000000E+00 0. -1.
</event>
<event>
 7    1  0.6067783E-006  0.1077706E+03  0.7818608E-02  0.1391101E+00
          2   -1    0    0  502    0  0.00000000000E+00  0.00000000000E+00  0.72878821633E+02  0.72878821633E+02  0.00000000000E+00 0. -1.
          1   -1    0    0  501    0 -0.00000000000E+00 -0.00000000000E+00 -0.10716543015E+04  0.10716543015E+04  0.00000000000E+00 0. -1.
         25    2    1    2    0    0  0.45252872576E+02 -0.77611661844E+02 -0.51431934577E+03  0.53685619039E+03  0.12497514630E+03 0.  0.
          2    1    1    2  501    0 -0.38937718025E+02  0.11228943353E+03 -0.53389272582E+03  0.54696115534E+03  0.00000000000E+00 0. -1.
          1    1    1    2  502    0 -0.63151545515E+01 -0.34677771689E+02  0.49436591715E+02  0.60715777412E+02  0.00000000000E+00 0. -1.
         22    1    3    3    0    0  0.34017552463E+02 -0.89116013453E+02 -0.19448449035E+03  0.21661734630E+03  0.00000000000E+00 0. -1.
         22    1    3    3    0    0  0.11235320114E+02  0.11504351609E+02 -0.31983485542E+03  0.32023884409E+03  0.00000000000E+00 0. -1.
</event>
<event>
 7    1  0.6067783E-006  0.9000897E+02  0.7818608E-02  0.1389437E+00
          2   -1    0    0  502    0  0.00000000000E+00  0.00000000000E+00  0.14621019743E+04  0.14621019743E+04  0.00000000000E+00 0. -1.
          1   -1    0    0  501    0 -0.00000000000E+00 -0.00000000000E+00 -0.20163075287E+03  0.20163075287E+03  0.00000000000E+00 0. -1.
         25    2    1    2    0    0 -0.67413438021E+02 -0.95406806247E+02  0.23476855610E+03  0.29049802460E+03  0.12500318820E+03 0.  0.
          2    1    1    2  501    0 -0.39086923931E+01  0.42592620146E+02 -0.16946361619E+03  0.17477793447E+03  0.00000000000E+00 0. -1.
          1    1    1    2  502    0  0.71322130414E+02  0.52814186101E+02  0.11951662815E+04  0.11984567681E+04  0.00000000000E+00 0. -1.
         22    1    3    3    0    0  0.22547602124E+02 -0.64007866053E+02  0.56258436698E+02  0.88149945989E+02  0.00000000000E+00 0.  1.
         22    1    3    3    0    0 -0.89961040145E+02 -0.31398940194E+02  0.17851011941E+03  0.20234807862E+03  0.00000000000E+00 0.  1.
</event>
<event>
 7    1  0.6067783E-006  0.1432093E+03  0.7818608E-02  0.1272220E+00
          2   -1    0    0  502    0  0.00000000000E+00  0.00000000000E+00  0.88916108488E+03  0.88916108488E+03  0.00000000000E+00 0. -1.
          1   -1    0    0  501    0 -0.00000000000E+00 -0.00000000000E+00 -0.12684171432E+04  0.12684171432E+04  0.00000000000E+00 0. -1.
         25    2    1    2    0    0 -0.43829398799E+02 -0.12524800382E+03 -0.11645193718E+03  0.21631908631E+03  0.12499925908E+03 0.  0.
          2    1    1    2  501    0  0.73742255197E+02 -0.15916009600E+02 -0.10945208766E+04  0.10971176732E+04  0.00000000000E+00 0. -1.
          1    1    1    2  502    0 -0.29912856398E+02  0.14116401342E+03  0.83171675545E+03  0.84414146857E+03  0.00000000000E+00 0. -1.
         22    1    3    3    0    0 -0.41677835254E+02 -0.11892901393E+03 -0.29911545332E+02  0.12952163082E+03  0.00000000000E+00 0.  1.
         22    1    3    3    0    0 -0.21515635444E+01 -0.63189898925E+01 -0.86540391851E+02  0.86797455497E+02  0.00000000000E+00 0.  1.
</event>
<event>
 7    1  0.1378346E-005  0.7789144E+02  0.7818608E-02  0.1446342E+00
          2   -1    0    0  502    0  0.00000000000E+00  0.00000000000E+00  0.25020689778E+04  0.25020689778E+04  0.00000000000E+00 0. -1.
          1   -1    0    0  501    0 -0.00000000000E+00 -0.00000000000E+00 -0.19594023004E+04  0.19594023004E+04  0.00000000000E+00 0. -1.
         25    2    1    2    0    0  0.37361439032E+02 -0.52342549056E+02 -0.23112032041E+03  0.27051559233E+03  0.12500585433E+03 0.  0.
          2    1    1    2  501    0  0.29435573508E+02  0.12187637206E+02 -0.17078240012E+04  0.17081211347E+04  0.00000000000E+00 0. -1.
          1    1    1    2  502    0 -0.66797012540E+02  0.40154911850E+02  0.24816109990E+04  0.24828345511E+04  0.00000000000E+00 0. -1.
         22    1    3    3    0    0 -0.26179008310E+02  0.26514882887E+02 -0.84174366700E+02  0.92052721306E+02  0.00000000000E+00 0. -1.
         22    1    3    3    0    0  0.63540447342E+02 -0.78857431943E+02 -0.14694595371E+03  0.17846287102E+03  0.00000000000E+00 0. -1.
</event>
<event>
 7    1  0.6067783E-006  0.1144902E+03  0.7818608E-02  0.1345533E+00
          2   -1    0    0  502    0  0.00000000000E+00  0.00000000000E+00  0.12705243423E+04  0.12705243423E+04  0.00000000000E+00 0. -1.
          1   -1    0    0  501    0 -0.00000000000E+00 -0.00000000000E+00 -0.24686087956E+03  0.24686087956E+03  0.00000000000E+00 0. -1.
         25    2    1    2    0    0 -0.10755465103E+03 -0.40604884765E+02  0.93095890750E+02  0.19367075110E+03  0.12499902133E+03 0.  0.
          2    1    1    2  501    0 -0.72419998044E+01  0.47889187617E+02 -0.19060210294E+03  0.19665955990E+03  0.00000000000E+00 0. -1.
          1    1    1    2  502    0  0.11479665084E+03 -0.72843028521E+01  0.11211696749E+04  0.11270549109E+04  0.00000000000E+00 0. -1.
         22    1    3    3    0    0 -0.29953641536E+02 -0.86208495458E+01 -0.30931238533E+02  0.43912198821E+02  0.00000000000E+00 0. -1.
         22    1    3    3    0    0 -0.77601009496E+02 -0.31984035219E+02  0.12402712928E+03  0.14975855228E+03  0.00000000000E+00 0. -1.
</event>
<event>
 7    1  0.6067783E-006  0.7848022E+02  0.7818608E-02  0.1438136E+00
          2   -1    0    0  502    0  0.00000000000E+00  0.00000000000E+00  0.24184421794E+04  0.24184421794E+04  0.00000000000E+00 0. -1.
          1   -1    0    0  501    0 -0.00000000000E+00 -0.00000000000E+00 -0.27920288872E+03  0.27920288872E+03  0.00000000000E+00 0. -1.
         25    2    1    2    0    0 -0.83052640426E+02 -0.30337238003E+02 -0.61839969821E+02  0.16508827994E+03  0.12494746582E+03 0.  0.
          2    1    1    2  501    0  0.25010531719E+02 -0.22456574110E+02 -0.16337710342E+03  0.16679898783E+03  0.00000000000E+00 0. -1.
          1    1    1    2  502    0  0.58042108706E+02  0.52793812113E+02  0.23644563640E+04  0.23657578004E+04  0.00000000000E+00 0. -1.
         22    1    3    3    0    0 -0.46066650462E+02 -0.60684367683E+02  0.11975757343E+02  0.77124234387E+02  0.00000000000E+00 0. -1.
         22    1    3    3    0    0 -0.36985989964E+02  0.30347129680E+02 -0.73815727164E+02  0.87964045554E+02  0.00000000000E+00 0. -1.
</event>
<event>
 7    1  0.6067783E-006  0.1169225E+03  0.7818608E-02  0.1317122E+00
          2   -1    0    0  502    0  0.00000000000E+00  0.00000000000E+00  0.13981610129E+04  0.13981610129E+04  0.00000000000E+00 0. -1.
          1   -1    0    0  501    0 -0.00000000000E+00 -0.00000000000E+00 -0.72709845198E+03  0.72709845198E+03  0.00000000000E+00 0. -1.
         25    2    1    2    0    0  0.17476227870E+03  0.84078757181E+00  0.10834987785E+03  0.24063838850E+03  0.12499830803E+03 0.  0.
          2    1    1    2  501    0 -0.60377737824E+02 -0.76633416341E+01 -0.65686172629E+03  0.65967531824E+03  0.00000000000E+00 0. -1.
          1    1    1    2  502    0 -0.11438454088E+03  0.68225540623E+01  0.12195744094E+04  0.12249457582E+04  0.00000000000E+00 0. -1.
         22    1    3    3    0    0 -0.83873283577E+01  0.28282058150E+02  0.18266695197E+02  0.34697179188E+02  0.00000000000E+00 0.  1.
         22    1    3    3    0    0  0.18314960706E+03 -0.27441270578E+02  0.90083182651E+02  0.20594120931E+03  0.00000000000E+00 0.  1.
</event>
<event>
 7    1  0.6067783E-006  0.8282472E+02  0.7818608E-02  0.1359569E+00
          2   -1    0    0  502    0  0.00000000000E+00  0.00000000000E+00  0.17470205456E+04  0.17470205456E+04  0.00000000000E+00 0. -1.
          1   -1    0    0  501    0 -0.00000000000E+00 -0.00000000000E+00 -0.40644221627E+03  0.40644221627E+03  0.00000000000E+00 0. -1.
         25    2    1    2    0    0  0.15899024312E+02 -0.98093633309E+02  0.47718085296E+03  0.50319096131E+03  0.12499774896E+03 0.  0.
          2    1    1    2  501    0  0.38202845130E+02  0.73517326328E+02 -0.38836280055E+03  0.39710190065E+03  0.00000000000E+00 0. -1.
          1    1    1    2  502    0 -0.54101869443E+02  0.24576306981E+02  0.12517602769E+04  0.12531698999E+04  0.00000000000E+00 0. -1.
         22    1    3    3    0    0  0.18223649510E+02 -0.12687293817E+03  0.42017360635E+03  0.43928886090E+03  0.00000000000E+00 0.  1.
         22    1    3    3    0    0 -0.23246251975E+01  0.28779304860E+02  0.57007246613E+02  0.63902100411E+02  0.00000000000E+00 0.  1.
</event>
<event>
 7    1  0.6067783E-006  0.1663667E+03  0.7818608E-02  0.1191794E+00
          2   -1    0    0  502    0  0.00000000000E+00  0.00000000000E+00  0.50130261886E+03  0.50130261886E+03  0.00000000000E+00 0. -1.
          1   -1    0    0  501    0 -0.00000000000E+00 -0.00000000000E+00 -0.22962201459E+04  0.22962201459E+04  0.00000000000E+00 0. -1.
         25    2    1    2    0    0 -0.72404777074E+02 -0.23295752400E+03 -0.26049354570E+02  0.27534618759E+03  0.12500117765E+03 0.  0.
          2    1    1    2  501    0 -0.58141271544E+02  0.13686504264E+03 -0.21253629813E+04  0.21305586708E+04  0.00000000000E+00 0. -1.
          1    1    1    2  502    0  0.13054604862E+03  0.96092481359E+02  0.35649480890E+03  0.39161790633E+03  0.00000000000E+00 0. -1.
         22    1    3    3    0    0 -0.26719819469E+02 -0.94510288418E+01 -0.37412324805E+02  0.46935623421E+02  0.00000000000E+00 0.  1.
         22    1    3    3    0    0 -0.45684957605E+02 -0.22350649516E+03  0.11362970235E+02  0.22841056417E+03  0.00000000000E+00 0.  1.
</event>
<event>
 7    1  0.6067783E-006  0.4248106E+02  0.7818608E-02  0.1561023E+00
          2   -1    0    0  502    0  0.00000000000E+00  0.00000000000E+00  0.15998408541E+04  0.15998408541E+04  0.00000000000E+00 0. -1.
          1   -1    0    0  501    0 -0.00000000000E+00 -0.00000000000E+00 -0.33254825354E+03  0.33254825354E+03  0.00000000000E+00 0. -1.
         25    2    1    2    0    0  0.82413576578E+01  0.16247145696E+02  0.18603000865E+03  0.22486307313E+03  0.12499739125E+03 0.  0.
          2    1    1    2  501    0 -0.35165087200E+01  0.26405407839E+02 -0.31223427202E+03  0.31336855621E+03  0.00000000000E+00 0. -1.
          1    1    1    2  502    0 -0.47248489378E+01 -0.42652553536E+02  0.13934968639E+04  0.13941574783E+04  0.00000000000E+00 0. -1.
         22    1    3    3    0    0  0.35313317647E+02  0.35969355479E+02  0.17994940906E+02  0.53522358272E+02  0.00000000000E+00 0. -1.
         22    1    3    3    0    0 -0.27071959989E+02 -0.19722209783E+02  0.16803506774E+03  0.17134071486E+03  0.00000000000E+00 0. -1.
</event>
<event>
 7    1  0.6067783E-006  0.4842356E+02  0.7818608E-02  0.1485302E+00
          2   -1    0    0  502    0  0.00000000000E+00  0.00000000000E+00  0.66847844968E+03  0.66847844968E+03  0.00000000000E+00 0. -1.
          1   -1    0    0  501    0 -0.00000000000E+00 -0.00000000000E+00 -0.85079768953E+03  0.85079768953E+03  0.00000000000E+00 0. -1.
         25    2    1    2    0    0 -0.78834038814E+02 -0.30815292702E+02 -0.60779816525E+02  0.16273748320E+03  0.12499965760E+03 0.  0.
          2    1    1    2  501    0  0.47106851197E+02  0.86510502996E+01 -0.73765524070E+03  0.73920846196E+03  0.00000000000E+00 0. -1.
          1    1    1    2  502    0  0.31727187617E+02  0.22164242403E+02  0.61611581738E+03  0.61733019406E+03  0.00000000000E+00 0. -1.
         22    1    3    3    0    0  0.61013785946E+00  0.15721499396E+01 -0.75647598982E+02  0.75666393830E+02  0.00000000000E+00 0.  1.
         22    1    3    3    0    0 -0.79444176673E+02 -0.32387442642E+02  0.14867782457E+02  0.87071089366E+02  0.00000000000E+00 0.  1.
</event>
<event>
 7    1  0.6067783E-006  0.6785899E+02  0.7818608E-02  0.1383066E+00
          2   -1    0    0  502    0  0.00000000000E+00  0.00000000000E+00  0.59818509608E+03  0.59818509608E+03  0.00000000000E+00 0. -1.
          1   -1    0    0  501    0 -0.00000000000E+00 -0.00000000000E+00 -0.84191542399E+03  0.84191542399E+03  0.00000000000E+00 0. -1.
         25    2    1    2    0    0 -0.10838383315E+02 -0.53663417106E+02  0.14985940110E+03  0.20268145508E+03  0.12499879698E+03 0.  0.
          2    1    1    2  501    0 -0.54650973491E+02  0.24102022731E+02 -0.81133948843E+03  0.81353512640E+03  0.00000000000E+00 0. -1.
          1    1    1    2  502    0  0.65489356807E+02  0.29561394374E+02  0.41774975943E+03  0.42388393859E+03  0.00000000000E+00 0. -1.
         22    1    3    3    0    0  0.61761120741E+01 -0.86924830828E+02  0.13849532186E+03  0.16363075735E+03  0.00000000000E+00 0. -1.
         22    1    3    3    0    0 -0.17014495389E+02  0.33261413723E+02  0.11364079242E+02  0.39050697730E+02  0.00000000000E+00 0. -1.
</event>
<event>
 7    1  0.6067783E-006  0.4778167E+02  0.7818608E-02  0.1506231E+00
          2   -1    0    0  502    0  0.00000000000E+00  0.00000000000E+00  0.30770841334E+04  0.30770841334E+04  0.00000000000E+00 0. -1.
          1   -1    0    0  501    0 -0.00000000000E+00 -0.00000000000E+00 -0.42425168868E+01  0.42425168868E+01  0.00000000000E+00 0. -1.
         25    2    1    2    0    0  0.80851081132E+01  0.26352243285E+02  0.17226934321E+04  0.17274425033E+04  0.12500052686E+03 0.  0.
          2    1    1    2  501    0  0.20487154403E+02  0.27059030913E+02  0.72894530941E+03  0.72973500585E+03  0.00000000000E+00 0. -1.
          1    1    1    2  502    0 -0.28572262516E+02 -0.53411274198E+02  0.62120287506E+03  0.62414914114E+03  0.00000000000E+00 0. -1.
         22    1    3    3    0    0 -0.38156526184E+02 -0.12456267713E+02  0.12825996236E+04  0.12832275221E+04  0.00000000000E+00 0.  1.
         22    1    3    3    0    0  0.46241634297E+02  0.38808510998E+02  0.44009380847E+03  0.44421498120E+03  0.00000000000E+00 0.  1.
</event>
<event>
 7    1  0.6067783E-006  0.1103279E+03  0.7818608E-02  0.1328542E+00
          2   -1    0    0  502    0  0.00000000000E+00  0.00000000000E+00  0.67585224984E+02  0.67585224984E+02  0.00000000000E+00 0. -1.
          1   -1    0    0  501    0 -0.00000000000E+00 -0.00000000000E+00 -0.10248348932E+04  0.10248348932E+04  0.00000000000E+00 0. -1.
         25    2    1    2    0    0 -0.94462362262E+02 -0.43007362968E+02 -0.19684652977E+03  0.25522839702E+03  0.12498082737E+03 0.  0.
          2    1    1    2  501    0 -0.22198340687E+02  0.53876110744E+02 -0.70532117701E+03  0.70772407361E+03  0.00000000000E+00 0. -1.
          1    1    1    2  502    0  0.11666070295E+03 -0.10868747776E+02 -0.55081961467E+02  0.12946764758E+03  0.00000000000E+00 0. -1.
         22    1    3    3    0    0 -0.72475751078E+02 -0.43213791772E+02 -0.34112285015E+02  0.91015461777E+02  0.00000000000E+00 0.  1.
         22    1    3    3    0    0 -0.21986611184E+02  0.20642880394E+00 -0.16273424476E+03  0.16421293525E+03  0.00000000000E+00 0.  1.
</event>
<event>
 7    1  0.6067783E-006  0.1300437E+03  0.7818608E-02  0.1275561E+00
          2   -1    0    0  502    0  0.00000000000E+00  0.00000000000E+00  0.16307356921E+04  0.16307356921E+04  0.00000000000E+00 0. -1.
          1   -1    0    0  501    0 -0.00000000000E+00 -0.00000000000E+00 -0.85517105578E+03  0.85517105578E+03  0.00000000000E+00 0. -1.
         25    2    1    2    0    0  0.49503489761E+02  0.59649068028E+02 -0.70421385334E+02  0.16306034948E+03  0.12498359590E+03 0.  0.
          2    1    1    2  501    0  0.76983667936E+02 -0.23371145030E+02 -0.73349477809E+03  0.73789381691E+03  0.00000000000E+00 0. -1.
          1    1    1    2  502    0 -0.12648715770E+03 -0.36277922998E+02  0.15794807997E+04  0.15849525814E+04  0.00000000000E+00 0. -1.
         22    1    3    3    0    0  0.48072410540E+02 -0.17440542898E+02  0.94958691491E+01  0.52012505445E+02  0.00000000000E+00 0. -1.
         22    1    3    3    0    0  0.14310792207E+01  0.77089610927E+02 -0.79917254483E+02  0.11104784403E+03  0.00000000000E+00 0. -1.
</event>
<event>
 7    1  0.6067783E-006  0.1510526E+03  0.7818608E-02  0.1261589E+00
          2   -1    0    0  502    0  0.00000000000E+00  0.00000000000E+00  0.24328738551E+03  0.24328738551E+03  0.00000000000E+00 0. -1.
          1   -1    0    0  501    0 -0.00000000000E+00 -0.00000000000E+00 -0.66013334046E+03  0.66013334046E+03  0.00000000000E+00 0. -1.
         25    2    1    2    0    0  0.10733362284E+03  0.19891315195E+02  0.25230292730E+02  0.16786113124E+03  0.12499848278E+03 0.  0.
          2    1    1    2  501    0  0.79179312869E+02 -0.45114504504E+01 -0.52493425707E+03  0.53089141170E+03  0.00000000000E+00 0. -1.
          1    1    1    2  502    0 -0.18651293571E+03 -0.15379864744E+02  0.82858009387E+02  0.20466818304E+03  0.00000000000E+00 0. -1.
         22    1    3    3    0    0  0.68505612314E+02  0.14922464913E+02 -0.47900646512E+02  0.84912724688E+02  0.00000000000E+00 0.  1.
         22    1    3    3    0    0  0.38828010531E+02  0.49688502820E+01  0.73130939242E+02  0.82948406551E+02  0.00000000000E+00 0.  1.
</event>
<event>
 7    1  0.6067783E-006  0.1312547E+03  0.7818608E-02  0.1350157E+00
          2   -1    0    0  502    0  0.00000000000E+00  0.00000000000E+00  0.39567077301E+04  0.39567077301E+04  0.00000000000E+00 0. -1.
          1   -1    0    0  501    0 -0.00000000000E+00 -0.00000000000E+00 -0.66470512732E+03  0.66470512732E+03  0.00000000000E+00 0. -1.
         25    2    1    2    0    0 -0.19959214397E+01 -0.10266030650E+03  0.18130515048E+03  0.24298245085E+03  0.12500316634E+03 0.  0.
          2    1    1    2  501    0 -0.31650334679E+02 -0.25441160047E+02 -0.63204352894E+03  0.63334668135E+03  0.00000000000E+00 0. -1.
          1    1    1    2  502    0  0.33646256119E+02  0.12810146655E+03  0.37427409812E+04  0.37450837252E+04  0.00000000000E+00 0. -1.
         22    1    3    3    0    0 -0.44963736826E+02 -0.60896067743E+02  0.16397792504E+03  0.18060683430E+03  0.00000000000E+00 0. -1.
         22    1    3    3    0    0  0.42967815387E+02 -0.41764238757E+02  0.17327225443E+02  0.62375616547E+02  0.00000000000E+00 0. -1.
</event>
<event>
 7    1  0.6067783E-006  0.6312452E+02  0.7818608E-02  0.1433961E+00
          2   -1    0    0  502    0  0.00000000000E+00  0.00000000000E+00  0.64229307285E+03  0.64229307285E+03  0.00000000000E+00 0. -1.
          1   -1    0    0  501    0 -0.00000000000E+00 -0.00000000000E+00 -0.98460058662E+03  0.98460058662E+03  0.00000000000E+00 0. -1.
         25    2    1    2    0    0  0.14131026818E+02  0.29778690738E+02 -0.87422140822E+02  0.15605807336E+03  0.12500014085E+03 0.  0.
          2    1    1    2  501    0  0.43079233457E+02 -0.19132844928E+01 -0.86065404585E+03  0.86173364078E+03  0.00000000000E+00 0. -1.
          1    1    1    2  502    0 -0.57210260275E+02 -0.27865406245E+02  0.60576867290E+03  0.60910194534E+03  0.00000000000E+00 0. -1.
         22    1    3    3    0    0 -0.55251721844E+02  0.21826216177E+02 -0.38526649144E+02  0.70805643656E+02  0.00000000000E+00 0.  1.
         22    1    3    3    0    0  0.69382748661E+02  0.79524745613E+01 -0.48895491678E+02  0.85252429701E+02  0.00000000000E+00 0.  1.
</event>
<event>
 7    1  0.6067783E-006  0.6551088E+02  0.7818608E-02  0.1402050E+00
          2   -1    0    0  502    0  0.00000000000E+00  0.00000000000E+00  0.19949122869E+03  0.19949122869E+03  0.00000000000E+00 0. -1.
          1   -1    0    0  501    0 -0.00000000000E+00 -0.00000000000E+00 -0.12545389429E+04  0.12545389429E+04  0.00000000000E+00 0. -1.
         25    2    1    2    0    0 -0.10865732839E+03  0.40016681786E+02 -0.82717835920E+02  0.18941078876E+03  0.12500582661E+03 0.  0.
          2    1    1    2  501    0  0.51263235229E+02 -0.14026622570E+02 -0.11110192788E+04  0.11122897569E+04  0.00000000000E+00 0. -1.
          1    1    1    2  502    0  0.57394093164E+02 -0.25990059216E+02  0.13868940054E+03  0.15232962591E+03  0.00000000000E+00 0. -1.
         22    1    3    3    0    0 -0.10005075692E+03  0.17353392203E+02 -0.11214290012E+03  0.15128557178E+03  0.00000000000E+00 0. -1.
         22    1    3    3    0    0 -0.86065714755E+01  0.22663289583E+02  0.29425064198E+02  0.38125216987E+02  0.00000000000E+00 0. -1.
</event>
<event>
 7    1  0.6067783E-006  0.6045902E+02  0.7818608E-02  0.1529064E+00
          2   -1    0    0  502    0  0.00000000000E+00  0.00000000000E+00  0.49117294651E+03  0.49117294651E+03  0.00000000000E+00 0. -1.
          1   -1    0    0  501    0 -0.00000000000E+00 -0.00000000000E+00 -0.14727451211E+04  0.14727451211E+04  0.00000000000E+00 0. -1.
         25    2    1    2    0    0  0.37873387175E+02 -0.34592209433E+02 -0.93139296697E+03  0.94114232333E+03  0.12499999778E+03 0.  0.
          2    1    1    2  501    0 -0.59372980352E+02  0.26382029007E+02 -0.53423601196E+03  0.53817216458E+03  0.00000000000E+00 0. -1.
          1    1    1    2  502    0  0.21499593178E+02  0.82101804256E+01  0.48405680436E+03  0.48460357966E+03  0.00000000000E+00 0. -1.
         22    1    3    3    0    0 -0.46015582640E+02 -0.16813198243E+02 -0.37289897948E+03  0.37610339852E+03  0.00000000000E+00 0. -1.
         22    1    3    3    0    0  0.83888969814E+02 -0.17779011189E+02 -0.55849398749E+03  0.56503892482E+03  0.00000000000E+00 0. -1.
</event>
<event>
 7    1  0.6067783E-006  0.9249035E+02  0.7818608E-02  0.1301929E+00
          2   -1    0    0  502    0  0.00000000000E+00  0.00000000000E+00  0.10811838011E+03  0.10811838011E+03  0.00000000000E+00 0. -1.
          1   -1    0    0  501    0 -0.00000000000E+00 -0.00000000000E+00 -0.21696304742E+04  0.21696304742E+04  0.00000000000E+00 0. -1.
         25    2    1    2    0    0  0.85526670508E+02 -0.67637790641E+02 -0.62662958118E+03  0.64821240272E+03  0.12500001972E+03 0.  0.
          2    1    1    2  501    0 -0.15745066949E+01  0.95074463557E+02 -0.15103643013E+04  0.15133545373E+04  0.00000000000E+00 0. -1.
          1    1    1    2  502    0 -0.83952163813E+02 -0.27436672916E+02  0.75481788440E+02  0.11618191432E+03  0.00000000000E+00 0. -1.
         22    1    3    3    0    0  0.85493638179E+02 -0.92063738699E+02 -0.59567940019E+03  0.60878472547E+03  0.00000000000E+00 0.  1.
         22    1    3    3    0    0  0.33032328997E-01  0.24425948058E+02 -0.30950180989E+02  0.39427677245E+02  0.00000000000E+00 0.  1.
</event>
<event>
 7    1  0.6067783E-006  0.4608940E+02  0.7818608E-02  0.1560760E+00
          2   -1    0    0  502    0  0.00000000000E+00  0.00000000000E+00  0.15341969632E+04  0.15341969632E+04  0.00000000000E+00 0. -1.
          1   -1    0    0  501    0 -0.00000000000E+00 -0.00000000000E+00 -0.30309883581E+02  0.30309883581E+02  0.00000000000E+00 0. -1.
         25    2    1    2    0    0 -0.38906761819E+02  0.29288575376E+02  0.10426230574E+04  0.10512181022E+04  0.12500040694E+03 0.  0.
          2    1    1    2  501    0  0.18133044850E+02 -0.42453215551E+02 -0.49483743629E+01  0.46428108242E+02  0.00000000000E+00 0. -1.
          1    1    1    2  502    0  0.20773716968E+02  0.13164640175E+02  0.46621239650E+03  0.46686063629E+03  0.00000000000E+00 0. -1.
         22    1    3    3    0    0 -0.39802885353E+02 -0.70438020781E+01  0.99527969740E+02  0.10742300308E+03  0.00000000000E+00 0.  1.
         22    1    3    3    0    0  0.89612353397E+00  0.36332377454E+02  0.94309508770E+03  0.94379509913E+03  0.00000000000E+00 0.  1.
</event>
<event>
 7    1  0.6067783E-006  0.6508782E+02  0.7818608E-02  0.1428562E+00
          2   -1    0    0  502    0  0.00000000000E+00  0.00000000000E+00  0.13087072714E+04  0.13087072714E+04  0.00000000000E+00 0. -1.
          1   -1    0    0  501    0 -0.00000000000E+00 -0.00000000000E+00 -0.84393452759E+03  0.84393452759E+03  0.00000000000E+00 0. -1.
         25    2    1    2    0    0  0.14932280773E+01  0.89709026097E+02  0.83480643651E+03  0.84886737179E+03  0.12499635743E+03 0.  0.
          2    1    1    2  501    0 -0.26000452834E+02 -0.34955216068E+02 -0.83440649214E+03  0.83554298801E+03  0.00000000000E+00 0. -1.
          1    1    1    2  502    0  0.24507224757E+02 -0.54753810029E+02  0.46437279945E+03  0.46823143919E+03  0.00000000000E+00 0. -1.
         22    1    3    3    0    0  0.10982525736E+02  0.56435572165E+02  0.11835319756E+03  0.13157913608E+03  0.00000000000E+00 0.  1.
         22    1    3    3    0    0 -0.94892976591E+01  0.33273453932E+02  0.71645323894E+03  0.71728823572E+03  0.00000000000E+00 0.  1.
</event>
<event>
 7    1  0.6067783E-006  0.7981677E+02  0.7818608E-02  0.1480270E+00
          2   -1    0    0  502    0  0.00000000000E+00  0.00000000000E+00  0.11531643339E+04  0.11531643339E+04  0.00000000000E+00 0. -1.
          1   -1    0    0  501    0 -0.00000000000E+00 -0.00000000000E+00 -0.22536969577E+03  0.22536969577E+03  0.00000000000E+00 0. -1.
         25    2    1    2    0    0  0.56532060333E+02 -0.60967005668E+02  0.15407439191E+03  0.21512011740E+03  0.12499958816E+03 0.  0.
          2    1    1    2  501    0 -0.34775878247E+02  0.71850136839E+02 -0.18651091757E+03  0.20287465648E+03  0.00000000000E+00 0. -1.
          1    1    1    2  502    0 -0.21756182086E+02 -0.10883131171E+02  0.96023116376E+03  0.96053925576E+03  0.00000000000E+00 0. -1.
         22    1    3    3    0    0 -0.26744392440E+02 -0.27945994606E+02  0.21386612746E+01  0.38740353813E+02  0.00000000000E+00 0.  1.
         22    1    3    3    0    0  0.83276452773E+02 -0.33021011062E+02  0.15193573064E+03  0.17637976359E+03  0.00000000000E+00 0.  1.
</event>
<event>
 7    1  0.6067783E-006  0.4974816E+02  0.7818608E-02  0.1454376E+00
          2   -1    0    0  502    0  0.00000000000E+00  0.00000000000E+00  0.84443121581E+02  0.84443121581E+02  0.00000000000E+00 0. -1.
          1   -1    0    0  501    0 -0.00000000000E+00 -0.00000000000E+00 -0.43204460575E+03  0.43204460575E+03  0.00000000000E+00 0. -1.
         25    2    1    2    0    0 -0.12940561084E+02  0.11972814310E+02 -0.95108019892E+02  0.15805227480E+03  0.12499671884E+03 0.  0.
          2    1    1    2  501    0  0.36803866858E+02  0.33471702500E+02 -0.29039764364E+03  0.29462802127E+03  0.00000000000E+00 0. -1.
          1    1    1    2  502    0 -0.23863305774E+02 -0.45444516810E+02  0.37904179363E+02  0.63807431258E+02  0.00000000000E+00 0. -1.
         22    1    3    3    0    0 -0.68430501912E+02 -0.32226954504E+01 -0.47311878975E+02  0.83255830126E+02  0.00000000000E+00 0.  1.
         22    1    3    3    0    0  0.55489940828E+02  0.15195509760E+02 -0.47796140917E+02  0.74796444679E+02  0.00000000000E+00 0.  1.
</event>
<event>
 7    1  0.8894660E-006  0.5775368E+02  0.7818608E-02  0.1454906E+00
          2   -1    0    0  502    0  0.00000000000E+00  0.00000000000E+00  0.68811566830E+03  0.68811566830E+03  0.00000000000E+00 0. -1.
          1   -1    0    0  501    0 -0.00000000000E+00 -0.00000000000E+00 -0.22874598582E+04  0.22874598582E+04  0.00000000000E+00 0. -1.
         25    2    1    2    0    0  0.38455748581E+02 -0.32191714285E+02 -0.61254698732E+03  0.62717858109E+03  0.12499603931E+03 0.  0.
          2    1    1    2  501    0  0.19247620066E+02  0.35454807122E+02 -0.16661258450E+04  0.16666141862E+04  0.00000000000E+00 0. -1.
          1    1    1    2  502    0 -0.57703368647E+02 -0.32630928369E+01  0.67932864236E+03  0.68178275928E+03  0.00000000000E+00 0. -1.
         22    1    3    3    0    0  0.80941592515E+02 -0.32076240130E+02 -0.48468131456E+03  0.49243923814E+03  0.00000000000E+00 0. -1.
         22    1    3    3    0    0 -0.42485843934E+02 -0.11547415466E+00 -0.12786567276E+03  0.13473934295E+03  0.00000000000E+00 0. -1.
</event>
<event>
 7    1  0.6067783E-006  0.5277561E+02  0.7818608E-02  0.1465014E+00
          2   -1    0    0  502    0  0.00000000000E+00  0.00000000000E+00  0.20342431968E+04  0.20342431968E+04  0.00000000000E+00 0. -1.
          1   -1    0    0  501    0 -0.00000000000E+00 -0.00000000000E+00 -0.14923755345E+03  0.14923755345E+03  0.00000000000E+00 0. -1.
         25    2    1    2    0    0  0.15545863892E+02  0.79214704448E+00  0.11244918050E+03  0.16885267170E+03  0.12499642060E+03 0.  0.
          2    1    1    2  501    0 -0.50164927445E+02  0.21215880662E+02 -0.11467401051E+03  0.12695181064E+03  0.00000000000E+00 0. -1.
          1    1    1    2  502    0  0.34619063553E+02 -0.22008027707E+02  0.18872304734E+04  0.18876762679E+04  0.00000000000E+00 0. -1.
         22    1    3    3    0    0  0.33910894578E+01 -0.56627960345E+02  0.89225124237E+02  0.10573243672E+03  0.00000000000E+00 0.  1.
         22    1    3    3    0    0  0.12154774434E+02  0.57420107389E+02  0.23224056264E+02  0.63120234976E+02  0.00000000000E+00 0.  1.
</event>
<event>
 7    1  0.6067783E-006  0.3459026E+02  0.7818608E-02  0.1606659E+00
          2   -1    0    0  502    0  0.00000000000E+00  0.00000000000E+00  0.57517096406E+03  0.57517096406E+03  0.00000000000E+00 0. -1.
          1   -1    0    0  501    0 -0.00000000000E+00 -0.00000000000E+00 -0.21717241951E+03  0.21717241951E+03  0.00000000000E+00 0. -1.
         25    2    1    2    0    0 -0.43288577187E+01  0.19833649236E+02  0.27370389832E+03  0.30158149125E+03  0.12500183702E+03 0.  0.
          2    1    1    2  501    0  0.29029882627E+02 -0.18998335152E+02 -0.20121520609E+03  0.20418430396E+03  0.00000000000E+00 0. -1.
          1    1    1    2  502    0 -0.24701024908E+02 -0.83531408374E+00  0.28550985231E+03  0.28657758836E+03  0.00000000000E+00 0. -1.
         22    1    3    3    0    0 -0.53906809068E+02  0.20253601596E+02  0.63989446021E+02  0.86086013054E+02  0.00000000000E+00 0. -1.
         22    1    3    3    0    0  0.49577951349E+02 -0.41995235973E+00  0.20971445230E+03  0.21549547820E+03  0.00000000000E+00 0. -1.
</event>
<event>
 7    1  0.6067783E-006  0.5024679E+02  0.7818608E-02  0.1444328E+00
          2   -1    0    0  502    0  0.00000000000E+00  0.00000000000E+00  0.12087958420E+04  0.12087958420E+04  0.00000000000E+00 0. -1.
          1   -1    0    0  501    0 -0.00000000000E+00 -0.00000000000E+00 -0.19249819826E+04  0.19249819826E+04  0.00000000000E+00 0. -1.
         25    2    1    2    0    0 -0.22815782821E+02  0.72942173612E+00 -0.13673794172E+04  0.13732727481E+04  0.12502191072E+03 0.  0.
          2    1    1    2  501    0  0.71148654408E+02  0.13006416728E+02 -0.55177130333E+03  0.55649157143E+03  0.00000000000E+00 0. -1.
          1    1    1    2  502    0 -0.48332871587E+02 -0.13735838464E+02  0.12029645799E+04  0.12040135050E+04  0.00000000000E+00 0. -1.
         22    1    3    3    0    0  0.17230242418E+02 -0.55148853651E+02 -0.56053458400E+03  0.56350447840E+03  0.00000000000E+00 0.  1.
         22    1    3    3    0    0 -0.40046025239E+02  0.55878275388E+02 -0.80684483321E+03  0.80976826973E+03  0.00000000000E+00 0.  1.
</event>
<event>
 7    1  0.6067783E-006  0.5314801E+02  0.7818608E-02  0.1449849E+00
          2   -1    0    0  502    0  0.00000000000E+00  0.00000000000E+00  0.45111357991E+03  0.45111357991E+03  0.00000000000E+00 0. -1.
          1   -1    0    0  501    0 -0.00000000000E+00 -0.00000000000E+00 -0.58544012410E+03  0.58544012410E+03  0.00000000000E+00 0. -1.
         25    2    1    2    0    0 -0.29901637575E+02  0.35944587318E+02  0.73650793351E+01  0.13364385412E+03  0.12498125485E+03 0.  0.
          2    1    1    2  501    0  0.53557968474E+02  0.29185680873E+01 -0.51955547073E+03  0.52231682071E+03  0.00000000000E+00 0. -1.
          1    1    1    2  502    0 -0.23656330899E+02 -0.38863155405E+02  0.37786384721E+03  0.38059302919E+03  0.00000000000E+00 0. -1.
         22    1    3    3    0    0 -0.34093482939E+02  0.80863497677E+02 -0.99079395791E+00  0.87762477792E+02  0.00000000000E+00 0.  1.
         22    1    3    3    0    0  0.41918453637E+01 -0.44918910359E+02  0.83558732931E+01  0.45881376329E+02  0.00000000000E+00 0.  1.
</event>
<event>
 7    1  0.6067783E-006  0.4635061E+02  0.7818608E-02  0.1562487E+00
          2   -1    0    0  502    0  0.00000000000E+00  0.00000000000E+00  0.79928390782E+03  0.79928390782E+03  0.00000000000E+00 0. -1.
          1   -1    0    0  501    0 -0.00000000000E+00 -0.00000000000E+00 -0.59748604185E+03  0.59748604185E+03  0.00000000000E+00 0. -1.
         25    2    1    2    0    0  0.64195776699E+02 -0.85921739858E+01  0.40127503844E+02  0.14638518830E+03  0.12499393420E+03 0.  0.
          2    1    1    2  501    0 -0.42224101454E+02  0.18710533463E+02 -0.54316976837E+03  0.54512966905E+03  0.00000000000E+00 0. -1.
          1    1    1    2  502    0 -0.21971675245E+02 -0.10118359478E+02  0.70484013049E+03  0.70525509233E+03  0.00000000000E+00 0. -1.
         22    1    3    3    0    0  0.13198586129E+02  0.42415123651E+00 -0.44914402127E+02  0.46815447221E+02  0.00000000000E+00 0.  1.
         22    1    3    3    0    0  0.50997190570E+02 -0.90163252223E+01  0.85041905971E+02  0.99569741075E+02  0.00000000000E+00 0.  1.
</event>
<event>
 7    1  0.6067783E-006  0.9940973E+02  0.7818608E-02  0.1432936E+00
          2   -1    0    0  502    0  0.00000000000E+00  0.00000000000E+00  0.80440493644E+03  0.80440493644E+03  0.00000000000E+00 0. -1.
          1   -1    0    0  501    0 -0.00000000000E+00 -0.00000000000E+00 -0.43183010608E+03  0.43183010608E+03  0.00000000000E+00 0. -1.
         25    2    1    2    0    0  0.11435390027E+03 -0.33656243385E+02 -0.16745090230E+03  0.24057122014E+03  0.12500060021E+03 0.  0.
          2    1    1    2  501    0 -0.86908853799E+02  0.36524710080E+02 -0.21780468895E+03  0.23733117335E+03  0.00000000000E+00 0. -1.
          1    1    1    2  502    0 -0.27445046468E+02 -0.28684666956E+01  0.75783042160E+03  0.75833264903E+03  0.00000000000E+00 0. -1.
         22    1    3    3    0    0  0.13043454913E+03 -0.55763641911E+02 -0.15622454131E+03  0.21101863110E+03  0.00000000000E+00 0.  1.
         22    1    3    3    0    0 -0.16080648864E+02  0.22107398527E+02 -0.11226360991E+02  0.29552589034E+02  0.00000000000E+00 0.  1.
</event>
<event>
 7    1  0.6067783E-006  0.5021612E+02  0.7818608E-02  0.1514167E+00
          2   -1    0    0  502    0  0.00000000000E+00  0.00000000000E+00  0.10500784499E+03  0.10500784499E+03  0.00000000000E+00 0. -1.
          1   -1    0    0  501    0 -0.00000000000E+00 -0.00000000000E+00 -0.53331061298E+03  0.53331061298E+03  0.00000000000E+00 0. -1.
         25    2    1    2    0    0 -0.22611588032E+02  0.60650429928E+02 -0.37368711750E+02  0.14563871217E+03  0.12499782119E+03 0.  0.
          2    1    1    2  501    0  0.37009356010E+02 -0.33645102279E+02 -0.43564018656E+03  0.43850206098E+03  0.00000000000E+00 0. -1.
          1    1    1    2  502    0 -0.14397767978E+02 -0.27005327648E+02  0.44706130323E+02  0.54177684821E+02  0.00000000000E+00 0. -1.
         22    1    3    3    0    0  0.28288044905E+02  0.50260237610E+02 -0.64917706755E+02  0.86836706636E+02  0.00000000000E+00 0. -1.
         22    1    3    3    0    0 -0.50899632937E+02  0.10390192318E+02  0.27548995004E+02  0.58802005538E+02  0.00000000000E+00 0. -1.
</event>
<event>
 7    1  0.6067783E-006  0.4944174E+02  0.7818608E-02  0.1469775E+00
          2   -1    0    0  502    0  0.00000000000E+00  0.00000000000E+00  0.26121935213E+03  0.26121935213E+03  0.00000000000E+00 0. -1.
          1   -1    0    0  501    0 -0.00000000000E+00 -0.00000000000E+00 -0.21486226970E+04  0.21486226970E+04  0.00000000000E+00 0. -1.
         25    2    1    2    0    0 -0.61353084708E+01  0.67201439878E+01 -0.11895588866E+04  0.11961423722E+04  0.12499370957E+03 0.  0.
          2    1    1    2  501    0 -0.42051191562E+02  0.47179587726E+01 -0.95292082594E+03  0.95385987564E+03  0.00000000000E+00 0. -1.
          1    1    1    2  502    0  0.48186500032E+02 -0.11438102760E+02  0.25507636771E+03  0.25983980130E+03  0.00000000000E+00 0. -1.
         22    1    3    3    0    0 -0.63549426868E+02 -0.27315148258E+01 -0.47897775153E+03  0.48318286113E+03  0.00000000000E+00 0. -1.
         22    1    3    3    0    0  0.57414118397E+02  0.94516588135E+01 -0.71058113510E+03  0.71295951106E+03  0.00000000000E+00 0. -1.
</event>
<event>
 7    1  0.6067783E-006  0.3841459E+02  0.7818608E-02  0.1579277E+00
          2   -1    0    0  502    0  0.00000000000E+00  0.00000000000E+00  0.64542139130E+03  0.64542139130E+03  0.00000000000E+00 0. -1.
          1   -1    0    0  501    0 -0.00000000000E+00 -0.00000000000E+00 -0.89730463436E+03  0.89730463436E+03  0.00000000000E+00 0. -1.
         25    2    1    2    0    0  0.36849763353E+02  0.45577379798E+02  0.28485048938E+03  0.31654362625E+03  0.12499945365E+03 0.  0.
          2    1    1    2  501    0 -0.52410561143E+01 -0.25752069148E+02 -0.88025177370E+03  0.88064398189E+03  0.00000000000E+00 0. -1.
          1    1    1    2  502    0 -0.31608707239E+02 -0.19825310650E+02  0.34351804126E+03  0.34553841752E+03  0.00000000000E+00 0. -1.
         22    1    3    3    0    0  0.15633460461E+02  0.44268737593E+02  0.20314062828E+02  0.51154543910E+02  0.00000000000E+00 0. -1.
         22    1    3    3    0    0  0.21216302892E+02  0.13086422051E+01  0.26453642655E+03  0.26538908234E+03  0.00000000000E+00 0. -1.
</event>
<event>
 7    1  0.6067783E-006  0.1560983E+03  0.7818608E-02  0.1341992E+00
          2   -1    0    0  502    0  0.00000000000E+00  0.00000000000E+00  0.35841904751E+04  0.35841904751E+04  0.00000000000E+00 0. -1.
          1   -1    0    0  501    0 -0.00000000000E+00 -0.00000000000E+00 -0.58090896810E+02  0.58090896810E+02  0.00000000000E+00 0. -1.
         25    2    1    2    0    0 -0.15381795774E+03 -0.10006420743E+03  0.22876637791E+04  0.22984132909E+04  0.12500111869E+03 0.  0.
          2    1    1    2  501    0  0.11720993275E+03  0.10113560206E+03  0.61845076153E+02  0.16670750368E+03  0.00000000000E+00 0. -1.
          1    1    1    2  502    0  0.36608024991E+02 -0.10713946275E+01  0.11765907230E+04  0.11771605774E+04  0.00000000000E+00 0. -1.
         22    1    3    3    0    0 -0.10016448866E+03 -0.26148305677E+02  0.17489948995E+04  0.17520558830E+04  0.00000000000E+00 0. -1.
         22    1    3    3    0    0 -0.53653469081E+02 -0.73915901751E+02  0.53866887961E+03  0.54635740788E+03  0.00000000000E+00 0. -1.
</event>
<event>
 7    1  0.6067783E-006  0.2276228E+03  0.7818608E-02  0.1158947E+00
          2   -1    0    0  502    0  0.00000000000E+00  0.00000000000E+00  0.20595871247E+04  0.20595871247E+04  0.00000000000E+00 0. -1.
          1   -1    0    0  501    0 -0.00000000000E+00 -0.00000000000E+00 -0.23308224884E+04  0.23308224884E+04  0.00000000000E+00 0. -1.
         25    2    1    2    0    0  0.42740031616E+02  0.37551024173E+03 -0.18779574292E+02  0.39850798625E+03  0.12498516209E+03 0.  0.
          2    1    1    2  501    0 -0.25421009627E+01 -0.22301932146E+03 -0.21129737138E+04  0.21247122147E+04  0.00000000000E+00 0. -1.
          1    1    1    2  502    0 -0.40197930653E+02 -0.15249092028E+03  0.18605179243E+04  0.18671894122E+04  0.00000000000E+00 0. -1.
         22    1    3    3    0    0 -0.43540678604E+02  0.12768747389E+03 -0.17934426314E+02  0.13609381077E+03  0.00000000000E+00 0.  1.
         22    1    3    3    0    0  0.86280710220E+02  0.24782276784E+03 -0.84514797785E+00  0.26241417548E+03  0.00000000000E+00 0.  1.
</event>
<event>
 7    1  0.6067783E-006  0.9106667E+02  0.7818608E-02  0.1318892E+00
          2   -1    0    0  502    0  0.00000000000E+00  0.00000000000E+00  0.90687748838E+03  0.90687748838E+03  0.00000000000E+00 0. -1.
          1   -1    0    0  501    0 -0.00000000000E+00 -0.00000000000E+00 -0.46931976209E+03  0.46931976209E+03  0.00000000000E+00 0. -1.
         25    2    1    2    0    0  0.16389630016E+02 -0.19998957009E+02  0.42615035780E+03  0.44485599200E+03  0.12499659160E+03 0.  0.
          2    1    1    2  501    0  0.62575778167E+02 -0.66162005960E+02 -0.44807117584E+03  0.45723179861E+03  0.00000000000E+00 0. -1.
          1    1    1    2  502    0 -0.78965408183E+02  0.86160962970E+02  0.45947854433E+03  0.47410945986E+03  0.00000000000E+00 0. -1.
         22    1    3    3    0    0  0.63869309319E+02  0.18110888027E+02  0.20526147427E+03  0.21573030792E+03  0.00000000000E+00 0. -1.
         22    1    3    3    0    0 -0.47479679302E+02 -0.38109845037E+02  0.22088888353E+03  0.22912568407E+03  0.00000000000E+00 0. -1.
</event>
<event>
 7    1  0.6067783E-006  0.1181800E+03  0.7818608E-02  0.1376926E+00
          2   -1    0    0  502    0  0.00000000000E+00  0.00000000000E+00  0.63947613992E+03  0.63947613992E+03  0.00000000000E+00 0. -1.
          1   -1    0    0  501    0 -0.00000000000E+00 -0.00000000000E+00 -0.40480337715E+03  0.40480337715E+03  0.00000000000E+00 0. -1.
         25    2    1    2    0    0  0.12132146975E+03 -0.81765996630E+02  0.17273483550E+03  0.25858805605E+03  0.12500352839E+03 0.  0.
          2    1    1    2  501    0 -0.10626976998E+03  0.48999979464E+02 -0.35161113733E+03  0.37057341229E+03  0.00000000000E+00 0. -1.
          1    1    1    2  502    0 -0.15051699774E+02  0.32766017165E+02  0.41354906461E+03  0.41511804873E+03  0.00000000000E+00 0. -1.
         22    1    3    3    0    0  0.73590490087E+02 -0.11266161712E+03  0.10896682339E+03  0.17315302135E+03  0.00000000000E+00 0. -1.
         22    1    3    3    0    0  0.47730979665E+02  0.30895620494E+02  0.63768012108E+02  0.85435034697E+02  0.00000000000E+00 0. -1.
</event>
<event>
 7    1  0.6067783E-006  0.4808999E+02  0.7818608E-02  0.1474533E+00
          2   -1    0    0  502    0  0.00000000000E+00  0.00000000000E+00  0.13172798786E+04  0.13172798786E+04  0.00000000000E+00 0. -1.
          1   -1    0    0  501    0 -0.00000000000E+00 -0.00000000000E+00 -0.18409558156E+02  0.18409558156E+02  0.00000000000E+00 0. -1.
         25    2    1    2    0    0  0.75093279355E+02  0.40001815312E+02  0.51128006761E+03  0.53317102432E+03  0.12499955121E+03 0.  0.
          2    1    1    2  501    0 -0.39607519450E+02 -0.17439170908E+02  0.61439748361E+02  0.75151333705E+02  0.00000000000E+00 0. -1.
          1    1    1    2  502    0 -0.35485759905E+02 -0.22562644404E+02  0.72615050448E+03  0.72736707874E+03  0.00000000000E+00 0. -1.
         22    1    3    3    0    0 -0.20793299211E+02  0.47572892363E+02  0.13094620135E+03  0.14086322809E+03  0.00000000000E+00 0.  1.
         22    1    3    3    0    0  0.95886578566E+02 -0.75710770506E+01  0.38033386626E+03  0.39230779623E+03  0.00000000000E+00 0.  1.
</event>
<event>
 7    1  0.6067783E-006  0.5325279E+02  0.7818608E-02  0.1549706E+00
          2   -1    0    0  502    0  0.00000000000E+00  0.00000000000E+00  0.64017997417E+03  0.64017997417E+03  0.00000000000E+00 0. -1.
          1   -1    0    0  501    0 -0.00000000000E+00 -0.00000000000E+00 -0.14332412194E+03  0.14332412194E+03  0.00000000000E+00 0. -1.
         25    2    1    2    0    0 -0.21256467683E+02  0.27472711405E+02  0.14350721037E+03  0.19345877123E+03  0.12500155778E+03 0.  0.
          2    1    1    2  501    0  0.31434427729E+00  0.22838379405E+02 -0.11565370659E+03  0.11788753214E+03  0.00000000000E+00 0. -1.
          1    1    1    2  502    0  0.20942123405E+02 -0.50311090810E+02  0.46900234845E+03  0.47215779274E+03  0.00000000000E+00 0. -1.
         22    1    3    3    0    0  0.78567648676E+01  0.17747518885E+02 -0.19543749560E+02  0.27543807428E+02  0.00000000000E+00 0. -1.
         22    1    3    3    0    0 -0.29113232550E+02  0.97251925198E+01  0.16305095993E+03  0.16591496380E+03  0.00000000000E+00 0. -1.
</event>
<event>
 7    1  0.6067783E-006  0.4124289E+02  0.7818608E-02  0.1525820E+00
          2   -1    0    0  502    0  0.00000000000E+00  0.00000000000E+00  0.23762854722E+04  0.23762854722E+04  0.00000000000E+00 0. -1.
          1   -1    0    0  501    0 -0.00000000000E+00 -0.00000000000E+00 -0.75404106705E+03  0.75404106705E+03  0.00000000000E+00 0. -1.
         25    2    1    2    0    0 -0.68276357694E+01  0.36348348538E+02  0.17336302601E+03  0.21690427360E+03  0.12499962427E+03 0.  0.
          2    1    1    2  501    0 -0.27231276855E+02 -0.31047753403E+02 -0.73155185360E+03  0.73271660274E+03  0.00000000000E+00 0. -1.
          1    1    1    2  502    0  0.34058912624E+02 -0.53005951348E+01  0.21804332327E+04  0.21807056629E+04  0.00000000000E+00 0. -1.
         22    1    3    3    0    0  0.48287563599E+02  0.12666336156E+02  0.22898245396E+02  0.54922258804E+02  0.00000000000E+00 0.  1.
         22    1    3    3    0    0 -0.55115199368E+02  0.23682012382E+02  0.15046478061E+03  0.16198201480E+03  0.00000000000E+00 0.  1.
</event>
<event>
 7    1  0.6067783E-006  0.2684998E+03  0.7818608E-02  0.1184477E+00
          2   -1    0    0  502    0  0.00000000000E+00  0.00000000000E+00  0.10306417358E+04  0.10306417358E+04  0.00000000000E+00 0. -1.
          1   -1    0    0  501    0 -0.00000000000E+00 -0.00000000000E+00 -0.42782628989E+03  0.42782628989E+03  0.00000000000E+00 0. -1.
         25    2    1    2    0    0 -0.21025461112E+03  0.13665230538E+01  0.91393882207E+02  0.26112500654E+03  0.12499823378E+03 0.  0.
          2    1    1    2  501    0 -0.67320838224E+02 -0.73839957399E+02 -0.31082277547E+03  0.32648925299E+03  0.00000000000E+00 0. -1.
          1    1    1    2  502    0  0.27757544935E+03  0.72473434345E+02  0.82224433917E+03  0.87085376618E+03  0.00000000000E+00 0. -1.
         22    1    3    3    0    0 -0.88062237640E+02  0.61471377053E+02  0.52280477437E+02  0.11944428080E+03  0.00000000000E+00 0.  1.
         22    1    3    3    0    0 -0.12219237348E+03 -0.60104853999E+02  0.39113404770E+02  0.14168072573E+03  0.00000000000E+00 0.  1.
</event>
<event>
 7    1  0.6067783E-006  0.8452178E+02  0.7818608E-02  0.1412955E+00
          2   -1    0    0  502    0  0.00000000000E+00  0.00000000000E+00  0.16661719099E+04  0.16661719099E+04  0.00000000000E+00 0. -1.
          1   -1    0    0  501    0 -0.00000000000E+00 -0.00000000000E+00 -0.23641569201E+03  0.23641569201E+03  0.00000000000E+00 0. -1.
         25    2    1    2    0    0  0.18722410767E+02 -0.83840254427E+02 -0.50691807993E+02  0.15992101841E+03  0.12500142321E+03 0.  0.
          2    1    1    2  501    0  0.33598929056E+02  0.17365697642E+02 -0.12724627887E+03  0.13274814867E+03  0.00000000000E+00 0. -1.
          1    1    1    2  502    0 -0.52321339824E+02  0.66474556784E+02  0.16076943048E+04  0.16099184349E+04  0.00000000000E+00 0. -1.
         22    1    3    3    0    0  0.76332828651E+01  0.17080930100E+02  0.26458877188E+02  0.32405205792E+02  0.00000000000E+00 0. -1.
         22    1    3    3    0    0  0.11089127902E+02 -0.10092118453E+03 -0.77150685181E+02  0.12751581262E+03  0.00000000000E+00 0. -1.
</event>
<event>
 7    1  0.6067783E-006  0.1175794E+03  0.7818608E-02  0.1330153E+00
          2   -1    0    0  502    0  0.00000000000E+00  0.00000000000E+00  0.11716742561E+03  0.11716742561E+03  0.00000000000E+00 0. -1.
          1   -1    0    0  501    0 -0.00000000000E+00 -0.00000000000E+00 -0.34543886381E+04  0.34543886381E+04  0.00000000000E+00 0. -1.
         25    2    1    2    0    0  0.14150111295E+03  0.55160955499E+02 -0.26839381537E+03  0.33275363339E+03  0.12499777768E+03 0.  0.
          2    1    1    2  501    0 -0.27948233746E+02 -0.46094856765E+02 -0.31153050871E+04  0.31157714335E+04  0.00000000000E+00 0. -1.
          1    1    1    2  502    0 -0.11355287921E+03 -0.90660987335E+01  0.46477690015E+02  0.12303099688E+03  0.00000000000E+00 0. -1.
         22    1    3    3    0    0  0.38985141271E+02  0.77293691410E+02 -0.16005743104E+03  0.18196850607E+03  0.00000000000E+00 0. -1.
         22    1    3    3    0    0  0.10251597168E+03 -0.22132735911E+02 -0.10833638433E+03  0.15078512732E+03  0.00000000000E+00 0. -1.
</event>
<event>
 7    1  0.6067783E-006  0.2086151E+03  0.7818608E-02  0.1289241E+00
          2   -1    0    0  502    0  0.00000000000E+00  0.00000000000E+00  0.14312576687E+04  0.14312576687E+04  0.00000000000E+00 0. -1.
          1   -1    0    0  501    0 -0.00000000000E+00 -0.00000000000E+00 -0.22608941994E+03  0.22608941994E+03  0.00000000000E+00 0. -1.
         25    2    1    2    0    0 -0.51003657658E+02  0.23462992979E+03 -0.33978069877E+02  0.27283246949E+03  0.12502187859E+03 0.  0.
          2    1    1    2  501    0  0.33743983064E+02 -0.28319090351E+02 -0.56943184016E+02  0.71994121129E+02  0.00000000000E+00 0. -1.
          1    1    1    2  502    0  0.17259674595E+02 -0.20631083944E+03  0.12960895026E+04  0.13125204980E+04  0.00000000000E+00 0. -1.
         22    1    3    3    0    0 -0.67547492115E+02  0.82293041162E+02  0.23757912968E+02  0.10908366854E+03  0.00000000000E+00 0. -1.
         22    1    3    3    0    0  0.16543834456E+02  0.15233688863E+03 -0.57735982846E+02  0.16374880094E+03  0.00000000000E+00 0. -1.
</event>
<event>
 7    1  0.6067783E-006  0.7275578E+02  0.7818608E-02  0.1402412E+00
          2   -1    0    0  502    0  0.00000000000E+00  0.00000000000E+00  0.42000419944E+03  0.42000419944E+03  0.00000000000E+00 0. -1.
          1   -1    0    0  501    0 -0.00000000000E+00 -0.00000000000E+00 -0.22030642064E+03  0.22030642064E+03  0.00000000000E+00 0. -1.
         25    2    1    2    0    0 -0.72872831445E+01  0.70386568310E+02  0.44728665273E+01  0.14370931757E+03  0.12499995171E+03 0.  0.
          2    1    1    2  501    0  0.51988937504E+02 -0.53688085235E+02 -0.13962521671E+03  0.15836811945E+03  0.00000000000E+00 0. -1.
          1    1    1    2  502    0 -0.44701654359E+02 -0.16698483075E+02  0.33485012899E+03  0.33823318306E+03  0.00000000000E+00 0. -1.
         22    1    3    3    0    0  0.38299189705E+02  0.16271740644E+02 -0.41945924714E+02  0.59085176447E+02  0.00000000000E+00 0.  1.
         22    1    3    3    0    0 -0.45586472850E+02  0.54114827666E+02  0.46418791241E+02  0.84624141121E+02  0.00000000000E+00 0.  1.
</event>
<event>
 7    1  0.6067783E-006  0.1522215E+03  0.7818608E-02  0.1221403E+00
          2   -1    0    0  502    0  0.00000000000E+00  0.00000000000E+00  0.51612114097E+03  0.51612114097E+03  0.00000000000E+00 0. -1.
          1   -1    0    0  501    0 -0.00000000000E+00 -0.00000000000E+00 -0.78113721858E+03  0.78113721858E+03  0.00000000000E+00 0. -1.
         25    2    1    2    0    0  0.12287454340E+02 -0.15554851792E+03 -0.34800486748E+03  0.40134634976E+03  0.12500072684E+03 0.  0.
          2    1    1    2  501    0  0.10432928370E+03  0.55665289272E+02 -0.38532909166E+03  0.40306541994E+03  0.00000000000E+00 0. -1.
          1    1    1    2  502    0 -0.11661673804E+03  0.99883228652E+02  0.46831788155E+03  0.49284658986E+03  0.00000000000E+00 0. -1.
         22    1    3    3    0    0  0.51588774441E+02 -0.41435553994E+02 -0.60994791548E+02  0.89992618471E+02  0.00000000000E+00 0.  1.
         22    1    3    3    0    0 -0.39301320101E+02 -0.11411296393E+03 -0.28701007593E+03  0.31135373129E+03  0.00000000000E+00 0.  1.
</event>
<event>
 7    1  0.6067783E-006  0.5885003E+02  0.7818608E-02  0.1544623E+00
          2   -1    0    0  502    0  0.00000000000E+00  0.00000000000E+00  0.70801398867E+03  0.70801398867E+03  0.00000000000E+00 0. -1.
          1   -1    0    0  501    0 -0.00000000000E+00 -0.00000000000E+00 -0.41104294431E+03  0.41104294431E+03  0.00000000000E+00 0. -1.
         25    2    1    2    0    0 -0.60320259789E+02  0.52616006658E+02 -0.14707829612E+03  0.20894173879E+03  0.12497058502E+03 0.  0.
          2    1    1    2  501    0  0.16484129390E+02 -0.13578775241E+02 -0.23126780392E+03  0.23225181762E+03  0.00000000000E+00 0. -1.
          1    1    1    2  502    0  0.43836130399E+02 -0.39037231417E+02  0.67531714441E+03  0.67786337657E+03  0.00000000000E+00 0. -1.
         22    1    3    3    0    0 -0.77144660571E+02  0.25045038836E+01 -0.13375539862E+03  0.15442822881E+03  0.00000000000E+00 0.  1.
         22    1    3    3    0    0  0.16824400782E+02  0.50111502774E+02 -0.13322897501E+02  0.54513509975E+02  0.00000000000E+00 0.  1.
</event>
<event>
 7    1  0.6067783E-006  0.1100453E+03  0.7818608E-02  0.1339657E+00
          2   -1    0    0  502    0  0.00000000000E+00  0.00000000000E+00  0.19326784827E+04  0.19326784827E+04  0.00000000000E+00 0. -1.
          1   -1    0    0  501    0 -0.00000000000E+00 -0.00000000000E+00 -0.73926495285E+02  0.73926495285E+02  0.00000000000E+00 0. -1.
         25    2    1    2    0    0  0.10285657525E+03 -0.45577233116E+02  0.23579281524E+03  0.28962037532E+03  0.12499980331E+03 0.  0.
          2    1    1    2  501    0 -0.70155656311E+02  0.87299971209E+02  0.20754010635E+02  0.11390272184E+03  0.00000000000E+00 0. -1.
          1    1    1    2  502    0 -0.32700918943E+02 -0.41722738094E+02  0.16022051615E+04  0.16030818808E+04  0.00000000000E+00 0. -1.
         22    1    3    3    0    0  0.98380431720E+02  0.15508145178E+02  0.10244221483E+03  0.14287623767E+03  0.00000000000E+00 0. -1.
         22    1    3    3    0    0  0.44761435335E+01 -0.61085378293E+02  0.13335060042E+03  0.14674413765E+03  0.00000000000E+00 0. -1.
</event>
<event>
 7    1  0.6067783E-006  0.2598433E+03  0.7818608E-02  0.1324095E+00
          2   -1    0    0  502    0  0.00000000000E+00  0.00000000000E+00  0.11928459926E+04  0.11928459926E+04  0.00000000000E+00 0. -1.
          1   -1    0    0  501    0 -0.00000000000E+00 -0.00000000000E+00 -0.15050948067E+04  0.15050948067E+04  0.00000000000E+00 0. -1.
         25    2    1    2    0    0 -0.15367121821E+03  0.22716255518E+03 -0.38978383094E+03  0.49272118494E+03  0.12500024579E+03 0.  0.
          2    1    1    2  501    0  0.15717040793E+03 -0.20166777344E+03 -0.10483308059E+04  0.10790597327E+04  0.00000000000E+00 0. -1.
          1    1    1    2  502    0 -0.34991897190E+01 -0.25494781735E+02  0.11258658228E+04  0.11261598817E+04  0.00000000000E+00 0. -1.
         22    1    3    3    0    0 -0.91650678878E+02  0.15537807770E+03 -0.14916864014E+03  0.23408006572E+03  0.00000000000E+00 0. -1.
         22    1    3    3    0    0 -0.62020539332E+02  0.71784477477E+02 -0.24061519080E+03  0.25864111921E+03  0.00000000000E+00 0. -1.
</event>
<event>
 7    1  0.6067783E-006  0.5968650E+02  0.7818608E-02  0.1421405E+00
          2   -1    0    0  502    0  0.00000000000E+00  0.00000000000E+00  0.16686029735E+03  0.16686029735E+03  0.00000000000E+00 0. -1.
          1   -1    0    0  501    0 -0.00000000000E+00 -0.00000000000E+00 -0.18965925265E+04  0.18965925265E+04  0.00000000000E+00 0. -1.
         25    2    1    2    0    0 -0.88148279043E+02 -0.64284866657E+02 -0.10876760659E+03  0.19840678457E+03  0.12502878365E+03 0.  0.
          2    1    1    2  501    0  0.49689423209E+02  0.32058931090E+02 -0.17373236565E+04  0.17383297447E+04  0.00000000000E+00 0. -1.
          1    1    1    2  502    0  0.38458855834E+02  0.32225935567E+02  0.11635903398E+03  0.12671629455E+03  0.00000000000E+00 0. -1.
         22    1    3    3    0    0 -0.11249174231E+03 -0.20340294312E+02 -0.87002726965E+02  0.14365790671E+03  0.00000000000E+00 0.  1.
         22    1    3    3    0    0  0.24343463265E+02 -0.43944572345E+02 -0.21764879629E+02  0.54748877866E+02  0.00000000000E+00 0.  1.
</event>
<event>
 7    1  0.6067783E-006  0.9827773E+02  0.7818608E-02  0.1422975E+00
          2   -1    0    0  502    0  0.00000000000E+00  0.00000000000E+00  0.90015509218E+03  0.90015509218E+03  0.00000000000E+00 0. -1.
          1   -1    0    0  501    0 -0.00000000000E+00 -0.00000000000E+00 -0.69728166280E+02  0.69728166280E+02  0.00000000000E+00 0. -1.
         25    2    1    2    0    0  0.73127245244E+02  0.94408177563E+02  0.18157488771E+03  0.25070697785E+03  0.12499620358E+03 0.  0.
          2    1    1    2  501    0 -0.65490840939E+02 -0.65284521103E+02  0.26635675440E+02  0.96231897771E+02  0.00000000000E+00 0. -1.
          1    1    1    2  502    0 -0.76364043057E+01 -0.29123656460E+02  0.62221636274E+03  0.62294438283E+03  0.00000000000E+00 0. -1.
         22    1    3    3    0    0 -0.54260855490E+01  0.52580126496E+02  0.14527536342E+03  0.15459315419E+03  0.00000000000E+00 0. -1.
         22    1    3    3    0    0  0.78553330793E+02  0.41828051067E+02  0.36299524295E+02  0.96113823661E+02  0.00000000000E+00 0. -1.
</event>
<event>
 7    1  0.6067783E-006  0.9925054E+02  0.7818608E-02  0.1402379E+00
          2   -1    0    0  502    0  0.00000000000E+00  0.00000000000E+00  0.16988997453E+04  0.16988997453E+04  0.00000000000E+00 0. -1.
          1   -1    0    0  501    0 -0.00000000000E+00 -0.00000000000E+00 -0.27885819955E+03  0.27885819955E+03  0.00000000000E+00 0. -1.
         25    2    1    2    0    0 -0.23625787714E+02  0.65222310847E+02 -0.20639971499E+03  0.25107234011E+03  0.12499739974E+03 0.  0.
          2    1    1    2  501    0  0.10532704190E+02  0.33366353944E+02 -0.42349510120E+02  0.54933891547E+02  0.00000000000E+00 0. -1.
          1    1    1    2  502    0  0.13093083525E+02 -0.98588664790E+02  0.16687907709E+04  0.16717517132E+04  0.00000000000E+00 0. -1.
         22    1    3    3    0    0 -0.50387758971E+02  0.90492859305E+02 -0.12956623147E+03  0.16587734076E+03  0.00000000000E+00 0. -1.
         22    1    3    3    0    0  0.26761971256E+02 -0.25270548458E+02 -0.76833483519E+02  0.85194999352E+02  0.00000000000E+00 0. -1.
</event>
<event>
 7    1  0.6067783E-006  0.9490150E+02  0.7818608E-02  0.1348117E+00
          2   -1    0    0  502    0  0.00000000000E+00  0.00000000000E+00  0.43250079155E+03  0.43250079155E+03  0.00000000000E+00 0. -1.
          1   -1    0    0  501    0 -0.00000000000E+00 -0.00000000000E+00 -0.16364010902E+03  0.16364010902E+03  0.00000000000E+00 0. -1.
         25    2    1    2    0    0 -0.26598523635E+02 -0.80405914757E+02  0.21073771630E+03  0.25924701479E+03  0.12500414800E+03 0.  0.
          2    1    1    2  501    0 -0.29314615040E+02  0.92234429744E+02 -0.11748832436E+03  0.15221709183E+03  0.00000000000E+00 0. -1.
          1    1    1    2  502    0  0.55913138675E+02 -0.11828514987E+02  0.17561129059E+03  0.18467679395E+03  0.00000000000E+00 0. -1.
         22    1    3    3    0    0 -0.60573657102E+02 -0.34530837080E+02  0.18289098486E+03  0.19573108845E+03  0.00000000000E+00 0.  1.
         22    1    3    3    0    0  0.33975133467E+02 -0.45875077678E+02  0.27846731444E+02  0.63515926335E+02  0.00000000000E+00 0.  1.
</event>
<event>
 7    1  0.6067783E-006  0.1260595E+03  0.7818608E-02  0.1400000E+00
          2   -1    0    0  502    0  0.00000000000E+00  0.00000000000E+00  0.10486825149E+04  0.10486825149E+04  0.00000000000E+00 0. -1.
          1   -1    0    0  501    0 -0.00000000000E+00 -0.00000000000E+00 -0.58191198675E+03  0.58191198675E+03  0.00000000000E+00 0. -1.
         25    2    1    2    0    0 -0.17856226362E+01 -0.10810823492E+03 -0.22385939875E+03  0.27826054373E+03  0.12500128352E+03 0.  0.
          2    1    1    2  501    0 -0.23231465283E+02 -0.15757231989E+02 -0.32633898921E+03  0.32754408438E+03  0.00000000000E+00 0. -1.
          1    1    1    2  502    0  0.25017087919E+02  0.12386546691E+03  0.10169689161E+04  0.10247898735E+04  0.00000000000E+00 0. -1.
         22    1    3    3    0    0 -0.41989827610E+02 -0.79433529570E+01 -0.19126428733E+02  0.46819469828E+02  0.00000000000E+00 0. -1.
         22    1    3    3    0    0  0.40204204974E+02 -0.10016488196E+03 -0.20473297002E+03  0.23144107390E+03  0.00000000000E+00 0. -1.
</event>
<event>
 7    1  0.6067783E-006  0.7866147E+02  0.7818608E-02  0.1337629E+00
          2   -1    0    0  502    0  0.00000000000E+00  0.00000000000E+00  0.31406194191E+03  0.31406194191E+03  0.00000000000E+00 0. -1.
          1   -1    0    0  501    0 -0.00000000000E+00 -0.00000000000E+00 -0.20773192574E+04  0.20773192574E+04  0.00000000000E+00 0. -1.
         25    2    1    2    0    0  0.88555127153E+02  0.15146809869E+02 -0.10849989566E+03  0.18833307312E+03  0.12500273069E+03 0.  0.
          2    1    1    2  501    0 -0.30176241052E+02 -0.69182491727E+02 -0.19223759553E+04  0.19238570987E+04  0.00000000000E+00 0. -1.
          1    1    1    2  502    0 -0.58378886100E+02  0.54035681858E+02  0.26761853551E+03  0.27919102745E+03  0.00000000000E+00 0. -1.
         22    1    3    3    0    0  0.10037871701E+03  0.18943178045E+02 -0.26681451407E+02  0.10557760498E+03  0.00000000000E+00 0.  1.
         22    1    3    3    0    0 -0.11823589858E+02 -0.37963681762E+01 -0.81818444253E+02  0.82755468148E+02  0.00000000000E+00 0.  1.
</event>
<event>
 7    1  0.6067783E-006  0.2713832E+03  0.7818608E-02  0.1181717E+00
          2   -1    0    0  502    0  0.00000000000E+00  0.00000000000E+00  0.14132419973E+04  0.14132419973E+04  0.00000000000E+00 0. -1.
          1   -1    0    0  501    0 -0.00000000000E+00 -0.00000000000E+00 -0.20168562842E+03  0.20168562842E+03  0.00000000000E+00 0. -1.
         25    2    1    2    0    0 -0.26533045741E+03  0.21589669724E+03  0.60753020414E+03  0.70832858276E+03  0.12499918679E+03 0.  0.
          2    1    1    2  501    0  0.63420516309E+02 -0.79832500958E+02 -0.11131846430E+03  0.15095426655E+03  0.00000000000E+00 0. -1.
          1    1    1    2  502    0  0.20190994110E+03 -0.13606419629E+03  0.71534462899E+03  0.75564477637E+03  0.00000000000E+00 0. -1.
         22    1    3    3    0    0  0.20989474062E+01 -0.60544599027E+01 -0.19735678790E+01  0.67050007532E+01  0.00000000000E+00 0. -1.
         22    1    3    3    0    0 -0.26742940481E+03  0.22195115715E+03  0.60950377202E+03  0.70162358200E+03  0.00000000000E+00 0. -1.
</event>
<event>
 7    1  0.6067783E-006  0.1154066E+03  0.7818608E-02  0.1356976E+00
          2   -1    0    0  502    0  0.00000000000E+00  0.00000000000E+00  0.30381670515E+04  0.30381670515E+04  0.00000000000E+00 0. -1.
          1   -1    0    0  501    0 -0.00000000000E+00 -0.00000000000E+00 -0.16463809040E+02  0.16463809040E+02  0.00000000000E+00 0. -1.
         25    2    1    2    0    0  0.13098766781E+03 -0.28809964062E+02  0.70383336288E+03  0.72731958034E+03  0.12499834437E+03 0.  0.
          2    1    1    2  501    0 -0.17761739280E+02  0.39805020296E+02  0.14365003961E+03  0.15011746368E+03  0.00000000000E+00 0. -1.
          1    1    1    2  502    0 -0.11322592853E+03 -0.10995056234E+02  0.21742198399E+04  0.21771938165E+04  0.00000000000E+00 0. -1.
         22    1    3    3    0    0  0.13472874324E+03 -0.63143642371E+02  0.57391372671E+03  0.59288777988E+03  0.00000000000E+00 0. -1.
         22    1    3    3    0    0 -0.37410754325E+01  0.34333678309E+02  0.12991963616E+03  0.13443180045E+03  0.00000000000E+00 0. -1.
</event>
<event>
 7    1  0.6067783E-006  0.5474652E+02  0.7818608E-02  0.1533782E+00
          2   -1    0    0  502    0  0.00000000000E+00  0.00000000000E+00  0.10560837859E+03  0.10560837859E+03  0.00000000000E+00 0. -1.
          1   -1    0    0  501    0 -0.00000000000E+00 -0.00000000000E+00 -0.31518170558E+03  0.31518170558E+03  0.00000000000E+00 0. -1.
         25    2    1    2    0    0  0.49216897723E+02  0.35398461128E+02 -0.20681513379E+03  0.24914507112E+03  0.12500165130E+03 0.  0.
          2    1    1    2  501    0 -0.52701849914E+02 -0.11008247656E+02 -0.76698019235E+02  0.93708338238E+02  0.00000000000E+00 0. -1.
          1    1    1    2  502    0  0.34849521909E+01 -0.24390213472E+02  0.73939826036E+02  0.77936674802E+02  0.00000000000E+00 0. -1.
         22    1    3    3    0    0  0.11434881156E+02 -0.36802249391E+02 -0.16129241223E+02  0.41776961231E+02  0.00000000000E+00 0. -1.
         22    1    3    3    0    0  0.37782016567E+02  0.72200710519E+02 -0.19068589257E+03  0.20736810989E+03  0.00000000000E+00 0. -1.
</event>
<event>
 7    1  0.6067783E-006  0.4373099E+02  0.7818608E-02  0.1588678E+00
          2   -1    0    0  502    0  0.00000000000E+00  0.00000000000E+00  0.10099035965E+04  0.10099035965E+04  0.00000000000E+00 0. -1.
          1   -1    0    0  501    0 -0.00000000000E+00 -0.00000000000E+00 -0.14273626604E+04  0.14273626604E+04  0.00000000000E+00 0. -1.
         25    2    1    2    0    0 -0.30411508084E+02  0.57924673592E+02  0.15218066082E+02  0.14190510219E+03  0.12500136342E+03 0.  0.
          2    1    1    2  501    0  0.20483707600E+02 -0.38527899275E+02 -0.13635426473E+04  0.13642406431E+04  0.00000000000E+00 0. -1.
          1    1    1    2  502    0  0.99278004842E+01 -0.19396774317E+02  0.93086551723E+03  0.93112051167E+03  0.00000000000E+00 0. -1.
         22    1    3    3    0    0 -0.59954869648E+02 -0.82987121494E+01  0.30531944562E+02  0.67791257966E+02  0.00000000000E+00 0. -1.
         22    1    3    3    0    0  0.29543361564E+02  0.66223385742E+02 -0.15313878480E+02  0.74113844224E+02  0.00000000000E+00 0. -1.
</event>
<event>
 7    1  0.6067783E-006  0.1122616E+03  0.7818608E-02  0.1314562E+00
          2   -1    0    0  502    0  0.00000000000E+00  0.00000000000E+00  0.38719111277E+03  0.38719111277E+03  0.00000000000E+00 0. -1.
          1   -1    0    0  501    0 -0.00000000000E+00 -0.00000000000E+00 -0.95057127659E+03  0.95057127659E+03  0.00000000000E+00 0. -1.
         25    2    1    2    0    0  0.27307511030E+02  0.41661539704E+02 -0.43404765196E+03  0.45442584779E+03  0.12499641162E+03 0.  0.
          2    1    1    2  501    0  0.18456335523E+02  0.62183572261E+02 -0.49563331425E+03  0.49985979552E+03  0.00000000000E+00 0. -1.
          1    1    1    2  502    0 -0.45763846553E+02 -0.10384511196E+03  0.36630080239E+03  0.38347674605E+03  0.00000000000E+00 0. -1.
         22    1    3    3    0    0  0.94762847198E+01  0.56085508252E+01  0.60024921670E+01  0.12541360638E+02  0.00000000000E+00 0. -1.
         22    1    3    3    0    0  0.17831226310E+02  0.36052988878E+02 -0.44005014413E+03  0.44188448715E+03  0.00000000000E+00 0. -1.
</event>
<event>
 7    1  0.6067783E-006  0.9646025E+02  0.7818608E-02  0.1432992E+00
          2   -1    0    0  502    0  0.00000000000E+00  0.00000000000E+00  0.52500460887E+02  0.52500460887E+02  0.00000000000E+00 0. -1.
          1   -1    0    0  501    0 -0.00000000000E+00 -0.00000000000E+00 -0.24086922041E+04  0.24086922041E+04  0.00000000000E+00 0. -1.
         25    2    1    2    0    0  0.72687152615E+02  0.41170929744E+02 -0.76468065731E+03  0.77932045778E+03  0.12500160249E+03 0.  0.
          2    1    1    2  501    0 -0.71326972217E+02 -0.69564653197E+02 -0.16305440904E+04  0.16335852621E+04  0.00000000000E+00 0. -1.
          1    1    1    2  502    0 -0.13601803983E+01  0.28393723454E+02  0.39033004511E+02  0.48286945062E+02  0.00000000000E+00 0. -1.
         22    1    3    3    0    0  0.89149156636E+01 -0.36182152574E+02 -0.37884536620E+03  0.38067365995E+03  0.00000000000E+00 0.  1.
         22    1    3    3    0    0  0.63772236951E+02  0.77353082318E+02 -0.38583529112E+03  0.39864679783E+03  0.00000000000E+00 0.  1.
</event>
<event>
 7    1  0.6067783E-006  0.9056932E+02  0.7818608E-02  0.1369674E+00
          2   -1    0    0  502    0  0.00000000000E+00  0.00000000000E+00  0.81366278091E+03  0.81366278091E+03  0.00000000000E+00 0. -1.
          1   -1    0    0  501    0 -0.00000000000E+00 -0.00000000000E+00 -0.12514026371E+03  0.12514026371E+03  0.00000000000E+00 0. -1.
         25    2    1    2    0    0 -0.49520577799E+02 -0.50092390985E+02  0.37028214899E+03  0.39710714419E+03  0.12499471528E+03 0.  0.
          2    1    1    2  501    0  0.19514375719E+02  0.90020724700E+02 -0.90962888453E+02  0.12945574074E+03  0.00000000000E+00 0. -1.
          1    1    1    2  502    0  0.30006202080E+02 -0.39928333715E+02  0.40920325667E+03  0.41224015969E+03  0.00000000000E+00 0. -1.
         22    1    3    3    0    0 -0.15240426043E+02 -0.63131271508E+02  0.73560196177E+02  0.98127113938E+02  0.00000000000E+00 0. -1.
         22    1    3    3    0    0 -0.34280151756E+02  0.13038880523E+02  0.29672195281E+03  0.29898003025E+03  0.00000000000E+00 0. -1.
</event>
<event>
 7    1  0.6067783E-006  0.2141163E+03  0.7818608E-02  0.1197746E+00
          2   -1    0    0  502    0  0.00000000000E+00  0.00000000000E+00  0.33576048636E+04  0.33576048636E+04  0.00000000000E+00 0. -1.
          1   -1    0    0  501    0 -0.00000000000E+00 -0.00000000000E+00 -0.74216954057E+03  0.74216954057E+03  0.00000000000E+00 0. -1.
         25    2    1    2    0    0  0.28724769451E+03 -0.92119081586E+02  0.78164639898E+03  0.84710820359E+03  0.12499620939E+03 0.  0.
          2    1    1    2  501    0 -0.18080310815E+03  0.11178926326E+03 -0.69233012479E+03  0.72422897277E+03  0.00000000000E+00 0. -1.
          1    1    1    2  502    0 -0.10644458636E+03 -0.19670181671E+02  0.25261190489E+04  0.25284372278E+04  0.00000000000E+00 0. -1.
         22    1    3    3    0    0  0.29546405756E+03 -0.71943849971E+02  0.71465167228E+03  0.77666076221E+03  0.00000000000E+00 0. -1.
         22    1    3    3    0    0 -0.82163630471E+01 -0.20175231615E+02  0.66994726700E+02  0.70447441388E+02  0.00000000000E+00 0. -1.
</event>
<event>
 7    1  0.6067783E-006  0.1055476E+03  0.7818608E-02  0.1382250E+00
          2   -1    0    0  502    0  0.00000000000E+00  0.00000000000E+00  0.27846177466E+03  0.27846177466E+03  0.00000000000E+00 0. -1.
          1   -1    0    0  501    0 -0.00000000000E+00 -0.00000000000E+00 -0.17504003130E+03  0.17504003130E+03  0.00000000000E+00 0. -1.
         25    2    1    2    0    0  0.98080602685E+02 -0.14836203470E+02  0.35163162152E+02  0.16340447745E+03  0.12499863088E+03 0.  0.
          2    1    1    2  501    0 -0.34894021206E+01 -0.38499100019E+02 -0.90122993023E+02  0.98063808313E+02  0.00000000000E+00 0. -1.
          1    1    1    2  502    0 -0.94591200564E+02  0.53335303489E+02  0.15838157424E+03  0.19203352020E+03  0.00000000000E+00 0. -1.
         22    1    3    3    0    0  0.96774810341E+02 -0.54876461984E+02  0.17932925687E+01  0.11126547485E+03  0.00000000000E+00 0.  1.
         22    1    3    3    0    0  0.13057923439E+01  0.40040258514E+02  0.33369869583E+02  0.52139002594E+02  0.00000000000E+00 0.  1.
</event>
<event>
 7    1  0.6067783E-006  0.1162313E+03  0.7818608E-02  0.1412176E+00
          2   -1    0    0  502    0  0.00000000000E+00  0.00000000000E+00  0.17315463062E+03  0.17315463062E+03  0.00000000000E+00 0. -1.
          1   -1    0    0  501    0 -0.00000000000E+00 -0.00000000000E+00 -0.13537342799E+04  0.13537342799E+04  0.00000000000E+00 0. -1.
         25    2    1    2    0    0 -0.34868665629E+02 -0.84331243255E+02 -0.23817971208E+03  0.28404533369E+03  0.12499837564E+03 0.  0.
          2    1    1    2  501    0 -0.51261322384E+01 -0.27191179012E+02 -0.10690546915E+04  0.10694127224E+04  0.00000000000E+00 0. -1.
          1    1    1    2  502    0  0.39994797868E+02  0.11152242227E+03  0.12665475422E+03  0.17343085450E+03  0.00000000000E+00 0. -1.
         22    1    3    3    0    0  0.40521433621E+01  0.31628970905E+02 -0.59550713244E+02  0.67550715127E+02  0.00000000000E+00 0.  1.
         22    1    3    3    0    0 -0.38920808991E+02 -0.11596021416E+03 -0.17862899884E+03  0.21649461856E+03  0.00000000000E+00 0.  1.
</event>
<event>
 7    1  0.6067783E-006  0.2168787E+03  0.7818608E-02  0.1177837E+00
          2   -1    0    0  502    0  0.00000000000E+00  0.00000000000E+00  0.22422232044E+04  0.22422232044E+04  0.00000000000E+00 0. -1.
          1   -1    0    0  501    0 -0.00000000000E+00 -0.00000000000E+00 -0.77743212314E+03  0.77743212314E+03  0.00000000000E+00 0. -1.
         25    2    1    2    0    0 -0.17773531150E+03  0.21378534697E+03 -0.76567549445E+02  0.31429525143E+03  0.12499959963E+03 0.  0.
          2    1    1    2  501    0  0.19481588060E+03 -0.81613405234E+02 -0.56065664887E+03  0.59912423851E+03  0.00000000000E+00 0. -1.
          1    1    1    2  502    0 -0.17080569096E+02 -0.13217194174E+03  0.21020152796E+04  0.21062358376E+04  0.00000000000E+00 0. -1.
         22    1    3    3    0    0 -0.38664220578E+02  0.34388595617E+02 -0.70209421304E+02  0.87217316522E+02  0.00000000000E+00 0. -1.
         22    1    3    3    0    0 -0.13907109092E+03  0.17939675136E+03 -0.63581281411E+01  0.22707793491E+03  0.00000000000E+00 0. -1.
</event>
<event>
 7    1  0.6067783E-006  0.4593197E+02  0.7818608E-02  0.1567965E+00
          2   -1    0    0  502    0  0.00000000000E+00  0.00000000000E+00  0.54829320694E+03  0.54829320694E+03  0.00000000000E+00 0. -1.
          1   -1    0    0  501    0 -0.00000000000E+00 -0.00000000000E+00 -0.26484849574E+03  0.26484849574E+03  0.00000000000E+00 0. -1.
         25    2    1    2    0    0  0.33901043272E+02 -0.51496346941E+02 -0.12522163907E+03  0.18736746334E+03  0.12499981177E+03 0.  0.
          2    1    1    2  501    0 -0.22492502189E+02  0.70872528916E+01 -0.10624230479E+03  0.10882816334E+03  0.00000000000E+00 0. -1.
          1    1    1    2  502    0 -0.11408541083E+02  0.44409094050E+02  0.51490865505E+03  0.51694607600E+03  0.00000000000E+00 0. -1.
         22    1    3    3    0    0  0.48091820246E+02  0.29800240603E+02 -0.45192981977E+02  0.72410518121E+02  0.00000000000E+00 0. -1.
         22    1    3    3    0    0 -0.14190776975E+02 -0.81296587544E+02 -0.80028657092E+02  0.11495694522E+03  0.00000000000E+00 0. -1.
</event>
<event>
 7    1  0.6067783E-006  0.3791475E+02  0.7818608E-02  0.1548169E+00
          2   -1    0    0  502    0  0.00000000000E+00  0.00000000000E+00  0.80580392378E+02  0.80580392378E+02  0.00000000000E+00 0. -1.
          1   -1    0    0  501    0 -0.00000000000E+00 -0.00000000000E+00 -0.29988920573E+03  0.29988920573E+03  0.00000000000E+00 0. -1.
         25    2    1    2    0    0  0.26987232778E+02  0.62250928969E+02 -0.76200608126E+02  0.16135732680E+03  0.12500466128E+03 0.  0.
          2    1    1    2  501    0 -0.10019411339E+02 -0.30810960612E+02 -0.17084049067E+03  0.17388552887E+03  0.00000000000E+00 0. -1.
          1    1    1    2  502    0 -0.16967821440E+02 -0.31439968357E+02  0.27732285452E+02  0.45226742433E+02  0.00000000000E+00 0. -1.
         22    1    3    3    0    0 -0.32976618430E+02  0.43565293871E+02  0.91378397817E+01  0.55397583963E+02  0.00000000000E+00 0.  1.
         22    1    3    3    0    0  0.59963851209E+02  0.18685635098E+02 -0.85338447907E+02  0.10595974284E+03  0.00000000000E+00 0.  1.
</event>
<event>
 7    1  0.6067783E-006  0.8706703E+02  0.7818608E-02  0.1394364E+00
          2   -1    0    0  502    0  0.00000000000E+00  0.00000000000E+00  0.13326857360E+04  0.13326857360E+04  0.00000000000E+00 0. -1.
          1   -1    0    0  501    0 -0.00000000000E+00 -0.00000000000E+00 -0.23834685701E+03  0.23834685701E+03  0.00000000000E+00 0. -1.
         25    2    1    2    0    0 -0.11113930181E+03 -0.41697327804E+02  0.12414360123E+03  0.21243162292E+03  0.12499979655E+03 0.  0.
          2    1    1    2  501    0  0.41550480811E+02 -0.89581351547E+01 -0.19026396668E+03  0.19495401421E+03  0.00000000000E+00 0. -1.
          1    1    1    2  502    0  0.69588820994E+02  0.50655462959E+02  0.11604592445E+04  0.11636469559E+04  0.00000000000E+00 0. -1.
         22    1    3    3    0    0 -0.48532006942E+02 -0.53400594198E+02 -0.82966944205E+00  0.72164170541E+02  0.00000000000E+00 0.  1.
         22    1    3    3    0    0 -0.62607294863E+02  0.11703266394E+02  0.12497327067E+03  0.14026745238E+03  0.00000000000E+00 0.  1.
</event>
<event>
 7    1  0.6067783E-006  0.1737188E+03  0.7818608E-02  0.1318104E+00
          2   -1    0    0  502    0  0.00000000000E+00  0.00000000000E+00  0.57955190875E+03  0.57955190875E+03  0.00000000000E+00 0. -1.
          1   -1    0    0  501    0 -0.00000000000E+00 -0.00000000000E+00 -0.17105608397E+04  0.17105608397E+04  0.00000000000E+00 0. -1.
         25    2    1    2    0    0  0.37390642251E+02  0.20109440304E+03  0.19342350044E+02  0.24049143696E+03  0.12499994273E+03 0.  0.
          2    1    1    2  501    0 -0.53965096064E+02 -0.16402667905E+03 -0.15943983464E+04  0.16037216311E+04  0.00000000000E+00 0. -1.
          1    1    1    2  502    0  0.16574453814E+02 -0.37067723991E+02  0.44404706541E+03  0.44589968039E+03  0.00000000000E+00 0. -1.
         22    1    3    3    0    0 -0.17042321927E+02  0.66267483498E+01  0.33381913597E+02  0.38061879693E+02  0.00000000000E+00 0.  1.
         22    1    3    3    0    0  0.54432964178E+02  0.19446765469E+03 -0.14039563553E+02  0.20242955727E+03  0.00000000000E+00 0.  1.
</event>
<event>
 7    1  0.6067783E-006  0.1424125E+03  0.7818608E-02  0.1337627E+00
          2   -1    0    0  502    0  0.00000000000E+00  0.00000000000E+00  0.47928444020E+03  0.47928444020E+03  0.00000000000E+00 0. -1.
          1   -1    0    0  501    0 -0.00000000000E+00 -0.00000000000E+00 -0.29083957649E+03  0.29083957649E+03  0.00000000000E+00 0. -1.
         25    2    1    2    0    0  0.10730950735E+03 -0.28619286414E+02  0.54291506104E+01  0.16729721507E+03  0.12499795428E+03 0.  0.
          2    1    1    2  501    0 -0.14856674096E+03  0.34614113778E+02 -0.18084206098E+03  0.23658838604E+03  0.00000000000E+00 0. -1.
          1    1    1    2  502    0  0.41257233613E+02 -0.59948273644E+01  0.36385777408E+03  0.36623841557E+03  0.00000000000E+00 0. -1.
         22    1    3    3    0    0  0.12214116507E+03  0.52636952232E+01  0.25979862846E+02  0.12498449490E+03  0.00000000000E+00 0. -1.
         22    1    3    3    0    0 -0.14831657721E+02 -0.33882981637E+02 -0.20550712236E+02  0.42312720177E+02  0.00000000000E+00 0. -1.
</event>
<event>
 7    1  0.6067783E-006  0.1175334E+03  0.7818608E-02  0.1353599E+00
          2   -1    0    0  502    0  0.00000000000E+00  0.00000000000E+00  0.14365106918E+03  0.14365106918E+03  0.00000000000E+00 0. -1.
          1   -1    0    0  501    0 -0.00000000000E+00 -0.00000000000E+00 -0.44827136719E+03  0.44827136719E+03  0.00000000000E+00 0. -1.
         25    2    1    2    0    0  0.51566151158E+02  0.11567034654E+03 -0.19573796932E+03  0.26453036237E+03  0.12499705183E+03 0.  0.
          2    1    1    2  501    0 -0.44020592422E+02  0.13080065635E+01 -0.18331815919E+03  0.18853400470E+03  0.00000000000E+00 0. -1.
          1    1    1    2  502    0 -0.75455587366E+01 -0.11697835310E+03  0.74435830500E+02  0.13885806931E+03  0.00000000000E+00 0. -1.
         22    1    3    3    0    0  0.83116957395E+02  0.40879864451E+02 -0.13233354482E+03  0.16152943697E+03  0.00000000000E+00 0. -1.
         22    1    3    3    0    0 -0.31550806237E+02  0.74790482090E+02 -0.63404424500E+02  0.10300092539E+03  0.00000000000E+00 0. -1.
</event>
<event>
 7    1  0.6067783E-006  0.4585994E+02  0.7818608E-02  0.1493010E+00
          2   -1    0    0  502    0  0.00000000000E+00  0.00000000000E+00  0.13478294430E+04  0.13478294430E+04  0.00000000000E+00 0. -1.
          1   -1    0    0  501    0 -0.00000000000E+00 -0.00000000000E+00 -0.36681931395E+03  0.36681931395E+03  0.00000000000E+00 0. -1.
         25    2    1    2    0    0 -0.58402881288E+02 -0.39166129781E+02  0.16496271912E+03  0.21858497911E+03  0.12498724787E+03 0.  0.
          2    1    1    2  501    0  0.12870373144E+02  0.36525807686E+02 -0.33845369344E+03  0.34066212548E+03  0.00000000000E+00 0. -1.
          1    1    1    2  502    0  0.45532508144E+02  0.26403220948E+01  0.11545011033E+04  0.11554016523E+04  0.00000000000E+00 0. -1.
         22    1    3    3    0    0  0.75545842730E+00 -0.73847048399E+02  0.72713584226E+02  0.10363986977E+03  0.00000000000E+00 0. -1.
         22    1    3    3    0    0 -0.59158339716E+02  0.34680918618E+02  0.92249134892E+02  0.11494510935E+03  0.00000000000E+00 0. -1.
</event>
<event>
 7    1  0.6067783E-006  0.1825369E+03  0.7818608E-02  0.1265356E+00
          2   -1    0    0  502    0  0.00000000000E+00  0.00000000000E+00  0.45335476452E+04  0.45335476452E+04  0.00000000000E+00 0. -1.
          1   -1    0    0  501    0 -0.00000000000E+00 -0.00000000000E+00 -0.18550363570E+03  0.18550363570E+03  0.00000000000E+00 0. -1.
         25    2    1    2    0    0 -0.14329122253E+03  0.13693292382E+03  0.72801784086E+03  0.76480021759E+03  0.12500558442E+03 0.  0.
          2    1    1    2  501    0  0.16484056949E+03 -0.77459856565E+02 -0.11713924695E+03  0.21655033111E+03  0.00000000000E+00 0. -1.
          1    1    1    2  502    0 -0.21549346960E+02 -0.59473067252E+02  0.37371654155E+04  0.37377007322E+04  0.00000000000E+00 0. -1.
         22    1    3    3    0    0 -0.52258155939E+02  0.76259390215E+02  0.14759294624E+03  0.17415535375E+03  0.00000000000E+00 0.  1.
         22    1    3    3    0    0 -0.91033066593E+02  0.60673533602E+02  0.58042489462E+03  0.59064486385E+03  0.00000000000E+00 0.  1.
</event>
<event>
 7    1  0.6067783E-006  0.1344717E+03  0.7818608E-02  0.1273206E+00
          2   -1    0    0  502    0  0.00000000000E+00  0.00000000000E+00  0.56771303497E+03  0.56771303497E+03  0.00000000000E+00 0. -1.
          1   -1    0    0  501    0 -0.00000000000E+00 -0.00000000000E+00 -0.35736247723E+03  0.35736247723E+03  0.00000000000E+00 0. -1.
         25    2    1    2    0    0  0.62168682696E+02  0.25844565669E+02  0.26072719321E+03  0.29687859327E+03  0.12500137272E+03 0.  0.
          2    1    1    2  501    0 -0.13813959096E+03 -0.21388997149E+01 -0.31921338891E+03  0.34782798787E+03  0.00000000000E+00 0. -1.
          1    1    1    2  502    0  0.75970908266E+02 -0.23705665954E+02  0.26883675344E+03  0.28036893106E+03  0.00000000000E+00 0. -1.
         22    1    3    3    0    0  0.98630094920E+02  0.69427172344E+01  0.15980000917E+03  0.18791524653E+03  0.00000000000E+00 0.  1.
         22    1    3    3    0    0 -0.36461412224E+02  0.18901848435E+02  0.10092718403E+03  0.10896334674E+03  0.00000000000E+00 0.  1.
</event>
<event>
 7    1  0.6067783E-006  0.2742531E+03  0.7818608E-02  0.1120696E+00
          2   -1    0    0  502    0  0.00000000000E+00  0.00000000000E+00  0.14157122869E+04  0.14157122869E+04  0.00000000000E+00 0. -1.
          1   -1    0    0  501    0 -0.00000000000E+00 -0.00000000000E+00 -0.26406286322E+04  0.26406286322E+04  0.00000000000E+00 0. -1.
         25    2    1    2    0    0  0.42490867374E+03  0.20459919981E+03 -0.24416642066E+03  0.54556850012E+03  0.12497813313E+03 0.  0.
          2    1    1    2  501    0 -0.24016055375E+03 -0.10976130497E+03 -0.22293939267E+04  0.22449770413E+04  0.00000000000E+00 0. -1.
          1    1    1    2  502    0 -0.18474811999E+03 -0.94837894838E+02  0.12486440021E+04  0.12657953776E+04  0.00000000000E+00 0. -1.
         22    1    3    3    0    0  0.32379600517E+03  0.19768320985E+03 -0.15236774291E+03  0.40882567618E+03  0.00000000000E+00 0.  1.
         22    1    3    3    0    0  0.10111266857E+03  0.69159899545E+01 -0.91798677751E+02  0.13674282394E+03  0.00000000000E+00 0.  1.
</event>
<event>
 7    1  0.6067783E-006  0.1446765E+03  0.7818608E-02  0.1363330E+00
          2   -1    0    0  502    0  0.00000000000E+00  0.00000000000E+00  0.67901331322E+03  0.67901331322E+03  0.00000000000E+00 0. -1.
          1   -1    0    0  501    0 -0.00000000000E+00 -0.00000000000E+00 -0.72621997796E+02  0.72621997796E+02  0.00000000000E+00 0. -1.
         25    2    1    2    0    0 -0.11592958876E+03 -0.53690869942E+02  0.32193657722E+03  0.36822523584E+03  0.12499714192E+03 0.  0.
          2    1    1    2  501    0 -0.32860486962E+02 -0.25857185956E+01 -0.20951916906E+02  0.39057398353E+02  0.00000000000E+00 0. -1.
          1    1    1    2  502    0  0.14879007573E+03  0.56276588537E+02  0.30540665511E+03  0.34435267682E+03  0.00000000000E+00 0. -1.
         22    1    3    3    0    0 -0.12813701612E+02 -0.43617048638E+02  0.21235180545E+02  0.50175400085E+02  0.00000000000E+00 0. -1.
         22    1    3    3    0    0 -0.10311588715E+03 -0.10073821303E+02  0.30070139668E+03  0.31804983575E+03  0.00000000000E+00 0. -1.
</event>
<event>
 7    1  0.6067783E-006  0.7849065E+02  0.7818608E-02  0.1450636E+00
          2   -1    0    0  502    0  0.00000000000E+00  0.00000000000E+00  0.66870540604E+03  0.66870540604E+03  0.00000000000E+00 0. -1.
          1   -1    0    0  501    0 -0.00000000000E+00 -0.00000000000E+00 -0.97576366326E+03  0.97576366326E+03  0.00000000000E+00 0. -1.
         25    2    1    2    0    0  0.82709086588E+02 -0.62868794201E+02  0.47311350725E+02  0.16928412409E+03  0.12500188988E+03 0.  0.
          2    1    1    2  501    0 -0.52491665366E+02  0.57864139492E+02 -0.91268868790E+03  0.91602635039E+03  0.00000000000E+00 0. -1.
          1    1    1    2  502    0 -0.30217421222E+02  0.50046547085E+01  0.55831907996E+03  0.55915859482E+03  0.00000000000E+00 0. -1.
         22    1    3    3    0    0  0.10829289282E+03 -0.32690287799E+02  0.78287136738E+01  0.11339000974E+03  0.00000000000E+00 0.  1.
         22    1    3    3    0    0 -0.25583806234E+02 -0.30178506401E+02  0.39482637051E+02  0.55894114346E+02  0.00000000000E+00 0.  1.
</event>
<event>
 7    1  0.6067783E-006  0.1625019E+03  0.7818608E-02  0.1303387E+00
          2   -1    0    0  502    0  0.00000000000E+00  0.00000000000E+00  0.79960462879E+02  0.79960462879E+02  0.00000000000E+00 0. -1.
          1   -1    0    0  501    0 -0.00000000000E+00 -0.00000000000E+00 -0.30694476957E+04  0.30694476957E+04  0.00000000000E+00 0. -1.
         25    2    1    2    0    0 -0.76496138723E+02 -0.13290526980E+03 -0.90021283971E+03  0.92169642374E+03  0.12500268306E+03 0.  0.
          2    1    1    2  501    0  0.12220477223E+03  0.11364379391E+03 -0.21459313708E+04  0.21524103620E+04  0.00000000000E+00 0. -1.
          1    1    1    2  502    0 -0.45708633508E+02  0.19261475894E+02  0.56656977691E+02  0.75301372841E+02  0.00000000000E+00 0. -1.
         22    1    3    3    0    0  0.16256298583E+02  0.30126063644E+01 -0.26504340023E+03  0.26555855672E+03  0.00000000000E+00 0. -1.
         22    1    3    3    0    0 -0.92752437306E+02 -0.13591787617E+03 -0.63516943948E+03  0.65613786702E+03  0.00000000000E+00 0. -1.
</event>
<event>
 7    1  0.6067783E-006  0.1725531E+03  0.7818608E-02  0.1202248E+00
          2   -1    0    0  502    0  0.00000000000E+00  0.00000000000E+00  0.16202043048E+04  0.16202043048E+04  0.00000000000E+00 0. -1.
          1   -1    0    0  501    0 -0.00000000000E+00 -0.00000000000E+00 -0.11480817231E+03  0.11480817231E+03  0.00000000000E+00 0. -1.
         25    2    1    2    0    0  0.28711217460E+02 -0.10027688233E+03  0.55447328370E+03  0.57788016677E+03  0.12500031067E+03 0.  0.
          2    1    1    2  501    0 -0.15661101155E+03  0.10199552367E+03 -0.10545073453E+02  0.18719320063E+03  0.00000000000E+00 0. -1.
          1    1    1    2  502    0  0.12789979409E+03 -0.17186413465E+01  0.96146792221E+03  0.96993910968E+03  0.00000000000E+00 0. -1.
         22    1    3    3    0    0  0.68950583672E+02 -0.96063726709E+02  0.46294981685E+03  0.47781267825E+03  0.00000000000E+00 0.  1.
         22    1    3    3    0    0 -0.40239366211E+02 -0.42131556187E+01  0.91523466851E+02  0.10006748852E+03  0.00000000000E+00 0.  1.
</event>
<event>
 7    1  0.6067783E-006  0.5550075E+02  0.7818608E-02  0.1421339E+00
          2   -1    0    0  502    0  0.00000000000E+00  0.00000000000E+00  0.45789227568E+03  0.45789227568E+03  0.00000000000E+00 0. -1.
          1   -1    0    0  501    0 -0.00000000000E+00 -0.00000000000E+00 -0.27015977306E+03  0.27015977306E+03  0.00000000000E+00 0. -1.
         25    2    1    2    0    0  0.17279730158E+02 -0.24086008795E+02  0.17509959238E+03  0.21717303464E+03  0.12500213929E+03 0.  0.
          2    1    1    2  501    0 -0.47411913640E+02 -0.28852098725E+02 -0.24239999385E+03  0.24867265667E+03  0.00000000000E+00 0. -1.
          1    1    1    2  502    0  0.30132183483E+02  0.52938107520E+02  0.25503290409E+03  0.26220635743E+03  0.00000000000E+00 0. -1.
         22    1    3    3    0    0 -0.25088593503E+02  0.30742246558E+02  0.14471060486E+02  0.42236652790E+02  0.00000000000E+00 0.  1.
         22    1    3    3    0    0  0.42368323661E+02 -0.54828255352E+02  0.16062853189E+03  0.17493638185E+03  0.00000000000E+00 0.  1.
</event>
<event>
 7    1  0.6067783E-006  0.1034709E+03  0.7818608E-02  0.1357957E+00
          2   -1    0    0  502    0  0.00000000000E+00  0.00000000000E+00  0.86573208649E+03  0.86573208649E+03  0.00000000000E+00 0. -1.
          1   -1    0    0  501    0 -0.00000000000E+00 -0.00000000000E+00 -0.63879243034E+02  0.63879243034E+02  0.00000000000E+00 0. -1.
         25    2    1    2    0    0  0.10204428819E+03 -0.11877837390E+02  0.22045075493E+03  0.27345514630E+03  0.12500024767E+03 0.  0.
          2    1    1    2  501    0 -0.14192559580E+02 -0.46079299892E+02 -0.15034277417E+02  0.50505050474E+02  0.00000000000E+00 0. -1.
          1    1    1    2  502    0 -0.87851728606E+02  0.57957137281E+02  0.59643636595E+03  0.60565113275E+03  0.00000000000E+00 0. -1.
         22    1    3    3    0    0  0.43538149745E+01  0.32224114023E+02  0.12749974283E+03  0.13158090155E+03  0.00000000000E+00 0.  1.
         22    1    3    3    0    0  0.97690473212E+02 -0.44101951412E+02  0.92951012098E+02  0.14187424475E+03  0.00000000000E+00 0.  1.
</event>
<event>
 7    1  0.6067783E-006  0.7571248E+02  0.7818608E-02  0.1477670E+00
          2   -1    0    0  502    0  0.00000000000E+00  0.00000000000E+00  0.10947724583E+04  0.10947724583E+04  0.00000000000E+00 0. -1.
          1   -1    0    0  501    0 -0.00000000000E+00 -0.00000000000E+00 -0.82850502576E+02  0.82850502576E+02  0.00000000000E+00 0. -1.
         25    2    1    2    0    0  0.23789402188E+01  0.91864403705E+02  0.22779649668E+03  0.27561162059E+03  0.12500317387E+03 0.  0.
          2    1    1    2  501    0  0.17146084355E+02 -0.19705810438E+02 -0.54302050994E+02  0.60257944837E+02  0.00000000000E+00 0. -1.
          1    1    1    2  502    0 -0.19525024573E+02 -0.72158593267E+02  0.83842751006E+03  0.84175339548E+03  0.00000000000E+00 0. -1.
         22    1    3    3    0    0  0.13604804686E+02 -0.19975652825E+02  0.11066134777E+03  0.11326981640E+03  0.00000000000E+00 0. -1.
         22    1    3    3    0    0 -0.11225864467E+02  0.11184005653E+03  0.11713514891E+03  0.16234180419E+03  0.00000000000E+00 0. -1.
</event>
<event>
 7    1  0.6067783E-006  0.5361494E+02  0.7818608E-02  0.1449922E+00
          2   -1    0    0  502    0  0.00000000000E+00  0.00000000000E+00  0.44256876955E+03  0.44256876955E+03  0.00000000000E+00 0. -1.
          1   -1    0    0  501    0 -0.00000000000E+00 -0.00000000000E+00 -0.56818142295E+03  0.56818142295E+03  0.00000000000E+00 0. -1.
         25    2    1    2    0    0 -0.35788901620E+01  0.88639118746E+02  0.20647276869E+03  0.25714943409E+03  0.12500050165E+03 0.  0.
          2    1    1    2  501    0 -0.15391274112E+02 -0.42367529234E+02 -0.53892226325E+03  0.54080412783E+03  0.00000000000E+00 0. -1.
          1    1    1    2  502    0  0.18970164274E+02 -0.46271589512E+02  0.20683684116E+03  0.21279663058E+03  0.00000000000E+00 0. -1.
         22    1    3    3    0    0 -0.45872848337E+02  0.41881652113E+02  0.28505704370E+02  0.68344467076E+02  0.00000000000E+00 0. -1.
         22    1    3    3    0    0  0.42293958175E+02  0.46757466633E+02  0.17796706432E+03  0.18880496701E+03  0.00000000000E+00 0. -1.
</event>
<event>
 7    1  0.6067783E-006  0.5823406E+02  0.7818608E-02  0.1445296E+00
          2   -1    0    0  502    0  0.00000000000E+00  0.00000000000E+00  0.25541956086E+02  0.25541956086E+02  0.00000000000E+00 0. -1.
          1   -1    0    0  501    0 -0.00000000000E+00 -0.00000000000E+00 -0.22919499579E+04  0.22919499579E+04  0.00000000000E+00 0. -1.
         25    2    1    2    0    0 -0.33042353561E+02 -0.41333974232E+01 -0.37364540873E+03  0.39540496256E+03  0.12500124338E+03 0.  0.
          2    1    1    2  501    0 -0.21991411458E+02  0.36886650778E+02 -0.18360220616E+04  0.18365242329E+04  0.00000000000E+00 0. -1.
          1    1    1    2  502    0  0.55033765019E+02 -0.32753253355E+02 -0.56740531498E+02  0.85562718588E+02  0.00000000000E+00 0. -1.
         22    1    3    3    0    0 -0.30981272703E+02 -0.55711677844E+02 -0.11339596610E+03  0.13008564654E+03  0.00000000000E+00 0.  1.
         22    1    3    3    0    0 -0.20610808576E+01  0.51578280421E+02 -0.26024944263E+03  0.26531931602E+03  0.00000000000E+00 0.  1.
</event>
<event>
 7    1  0.6067783E-006  0.1651615E+03  0.7818608E-02  0.1186800E+00
          2   -1    0    0  502    0  0.00000000000E+00  0.00000000000E+00  0.22900243685E+04  0.22900243685E+04  0.00000000000E+00 0. -1.
          1   -1    0    0  501    0 -0.00000000000E+00 -0.00000000000E+00 -0.25483365987E+03  0.25483365987E+03  0.00000000000E+00 0. -1.
         25    2    1    2    0    0 -0.55326646125E+02  0.10475223340E+03  0.20823836163E+03  0.27022674232E+03  0.12500083534E+03 0.  0.
          2    1    1    2  501    0  0.17291098343E+03  0.11231548189E+02 -0.18641028362E+03  0.25450569680E+03  0.00000000000E+00 0. -1.
          1    1    1    2  502    0 -0.11758433730E+03 -0.11598378159E+03  0.20133626306E+04  0.20201255892E+04  0.00000000000E+00 0. -1.
         22    1    3    3    0    0 -0.54728491654E+02  0.12389157922E+02  0.18301634708E+02  0.59022443746E+02  0.00000000000E+00 0. -1.
         22    1    3    3    0    0 -0.59815447072E+00  0.92363075482E+02  0.18993672692E+03  0.21120429857E+03  0.00000000000E+00 0. -1.
</event>
<event>
 7    1  0.6067783E-006  0.6487529E+02  0.7818608E-02  0.1450189E+00
          2   -1    0    0  502    0  0.00000000000E+00  0.00000000000E+00  0.17057733928E+04  0.17057733928E+04  0.00000000000E+00 0. -1.
          1   -1    0    0  501    0 -0.00000000000E+00 -0.00000000000E+00 -0.95648638012E+03  0.95648638012E+03  0.00000000000E+00 0. -1.
         25    2    1    2    0    0 -0.65104707448E+02 -0.15567209688E+01  0.11688528900E+03  0.18310925071E+03  0.12500312236E+03 0.  0.
          2    1    1    2  501    0  0.97972141234E+01  0.35865192445E+02 -0.92231901999E+03  0.92306807553E+03  0.00000000000E+00 0. -1.
          1    1    1    2  502    0  0.55307493325E+02 -0.34308471476E+02  0.15547207437E+04  0.15560824467E+04  0.00000000000E+00 0. -1.
         22    1    3    3    0    0 -0.31406914810E+02  0.26513159742E+02  0.13079346957E+03  0.13709950263E+03  0.00000000000E+00 0.  1.
         22    1    3    3    0    0 -0.33697792639E+02 -0.28069880711E+02 -0.13908180576E+02  0.46009748084E+02  0.00000000000E+00 0.  1.
</event>
<event>
 7    1  0.6067783E-006  0.1170717E+03  0.7818608E-02  0.1302558E+00
          2   -1    0    0  502    0  0.00000000000E+00  0.00000000000E+00  0.24591941792E+04  0.24591941792E+04  0.00000000000E+00 0. -1.
          1   -1    0    0  501    0 -0.00000000000E+00 -0.00000000000E+00 -0.26922322368E+03  0.26922322368E+03  0.00000000000E+00 0. -1.
         25    2    1    2    0    0  0.15663379391E+03 -0.49060307281E+02  0.98417382275E+03  0.10055665067E+04  0.12499930758E+03 0.  0.
          2    1    1    2  501    0 -0.91328987948E+02  0.72472976374E+02 -0.24451045802E+03  0.27088499483E+03  0.00000000000E+00 0. -1.
          1    1    1    2  502    0 -0.65304805957E+02 -0.23412669093E+02  0.14503075908E+04  0.14519659013E+04  0.00000000000E+00 0. -1.
         22    1    3    3    0    0  0.45387624665E+02  0.36346527830E+02  0.43033487965E+03  0.43424557016E+03  0.00000000000E+00 0. -1.
         22    1    3    3    0    0  0.11124616924E+03 -0.85406835111E+02  0.55383894310E+03  0.57132093656E+03  0.00000000000E+00 0. -1.
</event>
<event>
 7    1  0.6067783E-006  0.8393358E+02  0.7818608E-02  0.1436303E+00
          2   -1    0    0  502    0  0.00000000000E+00  0.00000000000E+00  0.30758683628E+03  0.30758683628E+03  0.00000000000E+00 0. -1.
          1   -1    0    0  501    0 -0.00000000000E+00 -0.00000000000E+00 -0.20928476376E+03  0.20928476376E+03  0.00000000000E+00 0. -1.
         25    2    1    2    0    0  0.42246236985E+02  0.10573917563E+03  0.11744584055E+03  0.20587308289E+03  0.12499873197E+03 0.  0.
          2    1    1    2  501    0 -0.29463497645E+02 -0.76551443089E+02 -0.15289277918E+03  0.17350626231E+03  0.00000000000E+00 0. -1.
          1    1    1    2  502    0 -0.12782739340E+02 -0.29187732538E+02  0.13374901116E+03  0.13749225484E+03  0.00000000000E+00 0. -1.
         22    1    3    3    0    0 -0.49564766793E+01  0.73233348848E+01 -0.24941731912E+02  0.26462953080E+02  0.00000000000E+00 0.  1.
         22    1    3    3    0    0  0.47202713664E+02  0.98415840743E+02  0.14238757246E+03  0.17941012981E+03  0.00000000000E+00 0.  1.
</event>
<event>
 7    1  0.6067783E-006  0.1108821E+03  0.7818608E-02  0.1308031E+00
          2   -1    0    0  502    0  0.00000000000E+00  0.00000000000E+00  0.33815369778E+02  0.33815369778E+02  0.00000000000E+00 0. -1.
          1   -1    0    0  501    0 -0.00000000000E+00 -0.00000000000E+00 -0.26359833379E+04  0.26359833379E+04  0.00000000000E+00 0. -1.
         25    2    1    2    0    0  0.12947105914E+03 -0.65921297119E+02 -0.78750339190E+03  0.81049324453E+03  0.12501733722E+03 0.  0.
          2    1    1    2  501    0 -0.22145841122E+02  0.66059885898E+02 -0.17030043026E+04  0.17044289371E+04  0.00000000000E+00 0. -1.
          1    1    1    2  502    0 -0.10732521801E+03 -0.13858877845E+00 -0.11166027362E+03  0.15487652609E+03  0.00000000000E+00 0. -1.
         22    1    3    3    0    0  0.71652937729E+02 -0.76589885374E+02 -0.26991069874E+03  0.28957199333E+03  0.00000000000E+00 0. -1.
         22    1    3    3    0    0  0.57818121406E+02  0.10668588255E+02 -0.51759269316E+03  0.52092125120E+03  0.00000000000E+00 0. -1.
</event>
<event>
 7    1  0.6067783E-006  0.6822602E+02  0.7818608E-02  0.1369802E+00
          2   -1    0    0  502    0  0.00000000000E+00  0.00000000000E+00  0.11246200003E+04  0.11246200003E+04  0.00000000000E+00 0. -1.
          1   -1    0    0  501    0 -0.00000000000E+00 -0.00000000000E+00 -0.77367747076E+03  0.77367747076E+03  0.00000000000E+00 0. -1.
         25    2    1    2    0    0  0.10205819887E+03  0.64219823250E+02 -0.11311713197E+03  0.20726908047E+03  0.12499969808E+03 0.  0.
          2    1    1    2  501    0 -0.65894710140E+02 -0.66875539537E+01 -0.61062041384E+03  0.61420202377E+03  0.00000000000E+00 0. -1.
          1    1    1    2  502    0 -0.36163488727E+02 -0.57532269296E+02  0.10746800753E+04  0.10768263668E+04  0.00000000000E+00 0. -1.
         22    1    3    3    0    0  0.28355425433E+02  0.12026502129E+02  0.26739104866E+02  0.40787824580E+02  0.00000000000E+00 0. -1.
         22    1    3    3    0    0  0.73702773434E+02  0.52193321121E+02 -0.13985623684E+03  0.16648125589E+03  0.00000000000E+00 0. -1.
</event>
<event>
 7    1  0.6067783E-006  0.7823275E+02  0.7818608E-02  0.1482036E+00
          2   -1    0    0  502    0  0.00000000000E+00  0.00000000000E+00  0.13439696053E+03  0.13439696053E+03  0.00000000000E+00 0. -1.
          1   -1    0    0  501    0 -0.00000000000E+00 -0.00000000000E+00 -0.10072535165E+04  0.10072535165E+04  0.00000000000E+00 0. -1.
         25    2    1    2    0    0  0.91531393338E+02 -0.31330318077E+02 -0.38688426939E+03  0.41792936270E+03  0.12500371796E+03 0.  0.
          2    1    1    2  501    0 -0.14729037977E+02  0.19592870926E+02 -0.59187103296E+03  0.59237837976E+03  0.00000000000E+00 0. -1.
          1    1    1    2  502    0 -0.76802355360E+02  0.11737447151E+02  0.10589874635E+03  0.13134273460E+03  0.00000000000E+00 0. -1.
         22    1    3    3    0    0  0.56518137398E+02  0.34834179317E+02 -0.90517359229E+02  0.11225467574E+03  0.00000000000E+00 0.  1.
         22    1    3    3    0    0  0.35013255939E+02 -0.66164497394E+02 -0.29636691016E+03  0.30567468696E+03  0.00000000000E+00 0.  1.
</event>
<event>
 7    1  0.6067783E-006  0.9608556E+02  0.7818608E-02  0.1423470E+00
          2   -1    0    0  502    0  0.00000000000E+00  0.00000000000E+00  0.26644103307E+04  0.26644103307E+04  0.00000000000E+00 0. -1.
          1   -1    0    0  501    0 -0.00000000000E+00 -0.00000000000E+00 -0.88005143809E+02  0.88005143809E+02  0.00000000000E+00 0. -1.
         25    2    1    2    0    0  0.99840603650E+02  0.22459981339E+02  0.72586478795E+03  0.74362417109E+03  0.12499848217E+03 0.  0.
          2    1    1    2  501    0 -0.43685878598E+01 -0.30366123422E+02 -0.74915445815E+02  0.80953752434E+02  0.00000000000E+00 0. -1.
          1    1    1    2  502    0 -0.95472015790E+02  0.79061420836E+01  0.19254558447E+04  0.19278375509E+04  0.00000000000E+00 0. -1.
         22    1    3    3    0    0  0.17160726202E+01  0.43075773598E+02  0.88732213288E+02  0.98650255201E+02  0.00000000000E+00 0.  1.
         22    1    3    3    0    0  0.98124531030E+02 -0.20615792259E+02  0.63713257466E+03  0.64497391589E+03  0.00000000000E+00 0.  1.
</event>
<event>
 7    1  0.6067783E-006  0.6902405E+02  0.7818608E-02  0.1447580E+00
          2   -1    0    0  502    0  0.00000000000E+00  0.00000000000E+00  0.15228699961E+03  0.15228699961E+03  0.00000000000E+00 0. -1.
          1   -1    0    0  501    0 -0.00000000000E+00 -0.00000000000E+00 -0.63713608988E+03  0.63713608988E+03  0.00000000000E+00 0. -1.
         25    2    1    2    0    0 -0.41905780635E+02  0.21606004019E+02 -0.74685580657E+01  0.13380429572E+03  0.12499958533E+03 0.  0.
          2    1    1    2  501    0 -0.32356855611E+02 -0.14902710060E+02 -0.55022545129E+03  0.55137746066E+03  0.00000000000E+00 0. -1.
          1    1    1    2  502    0  0.74262636246E+02 -0.67032939593E+01  0.72844919089E+02  0.10424133311E+03  0.00000000000E+00 0. -1.
         22    1    3    3    0    0 -0.32521298036E+02 -0.42798604886E+02  0.27003287340E+02  0.60154242853E+02  0.00000000000E+00 0. -1.
         22    1    3    3    0    0 -0.93844825990E+01  0.64404608905E+02 -0.34471845405E+02  0.73650052868E+02  0.00000000000E+00 0. -1.
</event>
<event>
 7    1  0.6067783E-006  0.7567687E+02  0.7818608E-02  0.1381795E+00
          2   -1    0    0  502    0  0.00000000000E+00  0.00000000000E+00  0.22667433199E+03  0.22667433199E+03  0.00000000000E+00 0. -1.
          1   -1    0    0  501    0 -0.00000000000E+00 -0.00000000000E+00 -0.91543522130E+03  0.91543522130E+03  0.00000000000E+00 0. -1.
         25    2    1    2    0    0 -0.54949990678E+02  0.46143426509E+01  0.66189415429E+02  0.15180684479E+03  0.12499394296E+03 0.  0.
          2    1    1    2  501    0  0.49008878068E+02 -0.58402415243E+02 -0.86463769343E+03  0.86799254209E+03  0.00000000000E+00 0. -1.
          1    1    1    2  502    0  0.59411126104E+01  0.53788072592E+02  0.10968738868E+03  0.12231016641E+03  0.00000000000E+00 0. -1.
         22    1    3    3    0    0 -0.17248594178E+01  0.28745875752E+02 -0.28512456387E+02  0.40524815632E+02  0.00000000000E+00 0. -1.
         22    1    3    3    0    0 -0.53225131260E+02 -0.24131533101E+02  0.94701871816E+02  0.11128202916E+03  0.00000000000E+00 0. -1.
</event>
<event>
 7    1  0.6067783E-006  0.5681836E+02  0.7818608E-02  0.1547028E+00
          2   -1    0    0  502    0  0.00000000000E+00  0.00000000000E+00  0.10032491680E+04  0.10032491680E+04  0.00000000000E+00 0. -1.
          1   -1    0    0  501    0 -0.00000000000E+00 -0.00000000000E+00 -0.52394701193E+02  0.52394701193E+02  0.00000000000E+00 0. -1.
         25    2    1    2    0    0 -0.17358168141E+02 -0.36097845060E+02  0.20538507126E+03  0.24375006708E+03  0.12500682896E+03 0.  0.
          2    1    1    2  501    0  0.66533147264E+01 -0.20738250848E+02 -0.28442744435E+02  0.35823614503E+02  0.00000000000E+00 0. -1.
          1    1    1    2  502    0  0.10704853414E+02  0.56836095909E+02  0.77391213998E+03  0.77607018761E+03  0.00000000000E+00 0. -1.
         22    1    3    3    0    0 -0.21756556282E+02 -0.73374231692E+02  0.71613577151E+02  0.10481235638E+03  0.00000000000E+00 0.  1.
         22    1    3    3    0    0  0.43983881413E+01  0.37276386632E+02  0.13377149411E+03  0.13893771070E+03  0.00000000000E+00 0.  1.
</event>
<event>
 7    1  0.6067783E-006  0.8880850E+02  0.7818608E-02  0.1314379E+00
          2   -1    0    0  502    0  0.00000000000E+00  0.00000000000E+00  0.16962034237E+04  0.16962034237E+04  0.00000000000E+00 0. -1.
          1   -1    0    0  501    0 -0.00000000000E+00 -0.00000000000E+00 -0.44117042969E+02  0.44117042969E+02  0.00000000000E+00 0. -1.
         25    2    1    2    0    0 -0.50993267976E+02 -0.38571984097E+01  0.85977740424E+03  0.87031977430E+03  0.12499653328E+03 0.  0.
          2    1    1    2  501    0  0.50529111358E+02 -0.78271495185E+02  0.22526331617E+02  0.95849119293E+02  0.00000000000E+00 0. -1.
          1    1    1    2  502    0  0.46415661803E+00  0.82128693595E+02  0.76978264487E+03  0.77415157308E+03  0.00000000000E+00 0. -1.
         22    1    3    3    0    0  0.25426044124E+02  0.15917861981E+02  0.54397668666E+03  0.54480317333E+03  0.00000000000E+00 0.  1.
         22    1    3    3    0    0 -0.76419312100E+02 -0.19775060391E+02  0.31580071759E+03  0.32551660097E+03  0.00000000000E+00 0.  1.
</event>
<event>
 7    1  0.6067783E-006  0.8039703E+02  0.7818608E-02  0.1369952E+00
          2   -1    0    0  502    0  0.00000000000E+00  0.00000000000E+00  0.12146373950E+04  0.12146373950E+04  0.00000000000E+00 0. -1.
          1   -1    0    0  501    0 -0.00000000000E+00 -0.00000000000E+00 -0.14585773293E+03  0.14585773293E+03  0.00000000000E+00 0. -1.
         25    2    1    2    0    0 -0.13896041412E+02 -0.11469996245E+03  0.58355303383E+02  0.17994445531E+03  0.12500193683E+03 0.  0.
          2    1    1    2  501    0 -0.29545239808E+02  0.47732394071E+02 -0.74172284242E+02  0.93020591209E+02  0.00000000000E+00 0. -1.
          1    1    1    2  502    0  0.43441281220E+02  0.66967568381E+02  0.10845966430E+04  0.10875300815E+04  0.00000000000E+00 0. -1.
         22    1    3    3    0    0  0.51764500799E+02 -0.45808909751E+02  0.48125687169E+02  0.84226489426E+02  0.00000000000E+00 0.  1.
         22    1    3    3    0    0 -0.65660542211E+02 -0.68891052701E+02  0.10229616214E+02  0.95717965887E+02  0.00000000000E+00 0.  1.
</event>
<event>
 7    1  0.6067783E-006  0.1386728E+03  0.7818608E-02  0.1339808E+00
          2   -1    0    0  502    0  0.00000000000E+00  0.00000000000E+00  0.16693232773E+04  0.16693232773E+04  0.00000000000E+00 0. -1.
          1   -1    0    0  501    0 -0.00000000000E+00 -0.00000000000E+00 -0.37431847831E+03  0.37431847831E+03  0.00000000000E+00 0. -1.
         25    2    1    2    0    0 -0.32086939680E+02  0.17236819056E+03 -0.12684865685E+03  0.24991085764E+03  0.12499796081E+03 0.  0.
          2    1    1    2  501    0 -0.99713985988E+01 -0.40811609253E+02 -0.18055643488E+03  0.18537972494E+03  0.00000000000E+00 0. -1.
          1    1    1    2  502    0  0.42058338279E+02 -0.13155658131E+03  0.16024098907E+04  0.16083511730E+04  0.00000000000E+00 0. -1.
         22    1    3    3    0    0  0.39257044438E+02  0.14515021221E+02 -0.20065171680E+02  0.46415649231E+02  0.00000000000E+00 0.  1.
         22    1    3    3    0    0 -0.71343984118E+02  0.15785316934E+03 -0.10678348517E+03  0.20349520841E+03  0.00000000000E+00 0.  1.
</event>
<event>
 7    1  0.6067783E-006  0.7612950E+02  0.7818608E-02  0.1399533E+00
          2   -1    0    0  502    0  0.00000000000E+00  0.00000000000E+00  0.51111409505E+03  0.51111409505E+03  0.00000000000E+00 0. -1.
          1   -1    0    0  501    0 -0.00000000000E+00 -0.00000000000E+00 -0.50691083825E+03  0.50691083825E+03  0.00000000000E+00 0. -1.
         25    2    1    2    0    0 -0.26792915414E+02  0.81348761350E+02  0.23469808266E+03  0.27934729351E+03  0.12496495147E+03 0.  0.
          2    1    1    2  501    0  0.46068515237E+02 -0.73679734707E+01 -0.47767334201E+03  0.47994626449E+03  0.00000000000E+00 0. -1.
          1    1    1    2  502    0 -0.19275599823E+02 -0.73980787879E+02  0.24717851615E+03  0.25873137531E+03  0.00000000000E+00 0. -1.
         22    1    3    3    0    0 -0.68147228880E+02  0.49200048817E+02  0.19882241958E+03  0.21585885234E+03  0.00000000000E+00 0. -1.
         22    1    3    3    0    0  0.41354313466E+02  0.32148712533E+02  0.35875663080E+02  0.63488441162E+02  0.00000000000E+00 0. -1.
</event>
<event>
 7    1  0.6067783E-006  0.1091995E+03  0.7818608E-02  0.1351529E+00
          2   -1    0    0  502    0  0.00000000000E+00  0.00000000000E+00  0.13916553881E+04  0.13916553881E+04  0.00000000000E+00 0. -1.
          1   -1    0    0  501    0 -0.00000000000E+00 -0.00000000000E+00 -0.65364155026E+03  0.65364155026E+03  0.00000000000E+00 0. -1.
         25    2    1    2    0    0 -0.86713051328E+02 -0.46193738281E+02 -0.83277427448E+02  0.17947776975E+03  0.12499650070E+03 0.  0.
          2    1    1    2  501    0  0.22583960726E+02 -0.42629488521E+02 -0.51890998037E+03  0.52114765307E+03  0.00000000000E+00 0. -1.
          1    1    1    2  502    0  0.64129090602E+02  0.88823226802E+02  0.13402012456E+04  0.13446715155E+04  0.00000000000E+00 0. -1.
         22    1    3    3    0    0 -0.16895269660E+01 -0.45572138624E+02  0.16399896182E+02  0.48462675483E+02  0.00000000000E+00 0.  1.
         22    1    3    3    0    0 -0.85023524362E+02 -0.62159965663E+00 -0.99677323630E+02  0.13101509427E+03  0.00000000000E+00 0.  1.
</event>
<event>
 7    1  0.6067783E-006  0.3232153E+03  0.7818608E-02  0.1204888E+00
          2   -1    0    0  502    0  0.00000000000E+00  0.00000000000E+00  0.37651212977E+04  0.37651212977E+04  0.00000000000E+00 0. -1.
          1   -1    0    0  501    0 -0.00000000000E+00 -0.00000000000E+00 -0.25499100091E+04  0.25499100091E+04  0.00000000000E+00 0. -1.
         25    2    1    2    0    0 -0.31745668578E+03 -0.13506188492E+03  0.49483457284E+02  0.37026236737E+03  0.12500059217E+03 0.  0.
          2    1    1    2  501    0  0.23821291305E+01  0.66325800904E+02 -0.23817444496E+04  0.23826689677E+04  0.00000000000E+00 0. -1.
          1    1    1    2  502    0  0.31507455665E+03  0.68736084012E+02  0.35474722809E+04  0.35620999718E+04  0.00000000000E+00 0. -1.
         22    1    3    3    0    0 -0.30636025094E+03 -0.13923368719E+03  0.18426204108E+02  0.33701950686E+03  0.00000000000E+00 0.  1.
         22    1    3    3    0    0 -0.11096434836E+02  0.41718022704E+01  0.31057253175E+02  0.33242860513E+02  0.00000000000E+00 0.  1.
</event>
<event>
 7    1  0.6067783E-006  0.1817652E+03  0.7818608E-02  0.1220201E+00
          2   -1    0    0  502    0  0.00000000000E+00  0.00000000000E+00  0.11181799148E+04  0.11181799148E+04  0.00000000000E+00 0. -1.
          1   -1    0    0  501    0 -0.00000000000E+00 -0.00000000000E+00 -0.39766628673E+03  0.39766628673E+03  0.00000000000E+00 0. -1.
         25    2    1    2    0    0 -0.15413625465E+03  0.29961790306E+01  0.18620292813E+03  0.27214395420E+03  0.12499535702E+03 0.  0.
          2    1    1    2  501    0 -0.13232835671E+02 -0.99409039245E+02 -0.33681082092E+03  0.35142395211E+03  0.00000000000E+00 0. -1.
          1    1    1    2  502    0  0.16736909032E+03  0.96412860215E+02  0.87112152086E+03  0.89227829522E+03  0.00000000000E+00 0. -1.
         22    1    3    3    0    0 -0.80688477725E+02 -0.36189846336E+02  0.26954631236E+02  0.92449378368E+02  0.00000000000E+00 0. -1.
         22    1    3    3    0    0 -0.73447776927E+02  0.39186025367E+02  0.15924829690E+03  0.17969457583E+03  0.00000000000E+00 0. -1.
</event>
<event>
 7    1  0.6067783E-006  0.4484943E+02  0.7818608E-02  0.1566566E+00
          2   -1    0    0  502    0  0.00000000000E+00  0.00000000000E+00  0.22039056699E+03  0.22039056699E+03  0.00000000000E+00 0. -1.
          1   -1    0    0  501    0 -0.00000000000E+00 -0.00000000000E+00 -0.72855630804E+03  0.72855630804E+03  0.00000000000E+00 0. -1.
         25    2    1    2    0    0  0.98460249131E+01 -0.41557840524E+02 -0.47934733407E+03  0.49721473923E+03  0.12499852764E+03 0.  0.
          2    1    1    2  501    0 -0.24347281781E+02 -0.92737534839E+00 -0.23726172536E+03  0.23850948928E+03  0.00000000000E+00 0. -1.
          1    1    1    2  502    0  0.14501256867E+02  0.42485215873E+02  0.20844331838E+03  0.21322264653E+03  0.00000000000E+00 0. -1.
         22    1    3    3    0    0  0.60050054586E+02  0.91243178408E+01 -0.21660558698E+03  0.22496053553E+03  0.00000000000E+00 0.  1.
         22    1    3    3    0    0 -0.50204029673E+02 -0.50682158365E+02 -0.26274174708E+03  0.27225420370E+03  0.00000000000E+00 0.  1.
</event>
<event>
 7    1  0.6067783E-006  0.1624385E+03  0.7818608E-02  0.1296347E+00
          2   -1    0    0  502    0  0.00000000000E+00  0.00000000000E+00  0.44572417117E+03  0.44572417117E+03  0.00000000000E+00 0. -1.
          1   -1    0    0  501    0 -0.00000000000E+00 -0.00000000000E+00 -0.38520830573E+03  0.38520830573E+03  0.00000000000E+00 0. -1.
         25    2    1    2    0    0  0.29613570310E+02  0.15566697364E+03 -0.62603345378E+00  0.20182867006E+03  0.12500099964E+03 0.  0.
          2    1    1    2  501    0 -0.81187600708E+02 -0.14368199922E+03 -0.25763454415E+03  0.30595996756E+03  0.00000000000E+00 0. -1.
          1    1    1    2  502    0  0.51574030397E+02 -0.11984974421E+02  0.31877644305E+03  0.32314383928E+03  0.00000000000E+00 0. -1.
         22    1    3    3    0    0 -0.14446127602E+02  0.92625189875E+02  0.53353424556E+02  0.10786428655E+03  0.00000000000E+00 0.  1.
         22    1    3    3    0    0  0.44059697912E+02  0.63041783766E+02 -0.53979458010E+02  0.93964383505E+02  0.00000000000E+00 0.  1.
</event>
<event>
 7    1  0.6067783E-006  0.2078390E+03  0.7818608E-02  0.1254606E+00
          2   -1    0    0  502    0  0.00000000000E+00  0.00000000000E+00  0.31131942651E+04  0.31131942651E+04  0.00000000000E+00 0. -1.
          1   -1    0    0  501    0 -0.00000000000E+00 -0.00000000000E+00 -0.20292761650E+04  0.20292761650E+04  0.00000000000E+00 0. -1.
         25    2    1    2    0    0  0.16550448360E+03  0.11152606494E+03 -0.81648241555E+03  0.84976392560E+03  0.12500158839E+03 0.  0.
          2    1    1    2  501    0  0.33637329569E+02 -0.51779741841E+02 -0.11918629772E+04  0.11934613392E+04  0.00000000000E+00 0. -1.
          1    1    1    2  502    0 -0.19914181316E+03 -0.59746323098E+02  0.30922634929E+04  0.30992451653E+04  0.00000000000E+00 0. -1.
         22    1    3    3    0    0  0.10051237814E+03  0.88358630025E+02 -0.29749986880E+03  0.32621489481E+03  0.00000000000E+00 0.  1.
         22    1    3    3    0    0  0.64992105451E+02  0.23167434915E+02 -0.51898254675E+03  0.52354903079E+03  0.00000000000E+00 0.  1.
</event>
<event>
 7    1  0.6067783E-006  0.8237514E+02  0.7818608E-02  0.1392990E+00
          2   -1    0    0  502    0  0.00000000000E+00  0.00000000000E+00  0.14989918111E+04  0.14989918111E+04  0.00000000000E+00 0. -1.
          1   -1    0    0  501    0 -0.00000000000E+00 -0.00000000000E+00 -0.95833656739E+02  0.95833656739E+02  0.00000000000E+00 0. -1.
         25    2    1    2    0    0  0.37624454338E+02 -0.10630994538E+03  0.19294651604E+03  0.25606379379E+03  0.12499161725E+03 0.  0.
          2    1    1    2  501    0  0.13829078969E+02  0.43266002556E+02 -0.54776191340E+02  0.71159128297E+02  0.00000000000E+00 0. -1.
          1    1    1    2  502    0 -0.51453533307E+02  0.63043942829E+02  0.12649878297E+04  0.12676025458E+04  0.00000000000E+00 0. -1.
         22    1    3    3    0    0  0.41204478140E+02 -0.11842192059E+03  0.95010478028E+02  0.15731672266E+03  0.00000000000E+00 0.  1.
         22    1    3    3    0    0 -0.35800238025E+01  0.12111975201E+02  0.97936038014E+02  0.98747071124E+02  0.00000000000E+00 0.  1.
</event>
<event>
 7    1  0.6067783E-006  0.5702449E+02  0.7818608E-02  0.1454370E+00
          2   -1    0    0  502    0  0.00000000000E+00  0.00000000000E+00  0.36478462663E+02  0.36478462663E+02  0.00000000000E+00 0. -1.
          1   -1    0    0  501    0 -0.00000000000E+00 -0.00000000000E+00 -0.90975817741E+03  0.90975817741E+03  0.00000000000E+00 0. -1.
         25    2    1    2    0    0 -0.31731983631E+02  0.36848191853E+02 -0.41474763552E+03  0.43590021310E+03  0.12501474546E+03 0.  0.
          2    1    1    2  501    0 -0.16735379465E+01 -0.60652297203E+02 -0.46488538915E+03  0.46882824887E+03  0.00000000000E+00 0. -1.
          1    1    1    2  502    0  0.33405521578E+02  0.23804105349E+02  0.63533099221E+01  0.41508178114E+02  0.00000000000E+00 0. -1.
         22    1    3    3    0    0  0.10546066748E+02 -0.14271873983E+01 -0.34776582133E+03  0.34792861749E+03  0.00000000000E+00 0. -1.
         22    1    3    3    0    0 -0.42278050379E+02  0.38275379252E+02 -0.66981814192E+02  0.87971595604E+02  0.00000000000E+00 0. -1.
</event>
<event>
 7    1  0.6067783E-006  0.1304890E+03  0.7818608E-02  0.1376491E+00
          2   -1    0    0  502    0  0.00000000000E+00  0.00000000000E+00  0.51195453814E+03  0.51195453814E+03  0.00000000000E+00 0. -1.
          1   -1    0    0  501    0 -0.00000000000E+00 -0.00000000000E+00 -0.21906964776E+04  0.21906964776E+04  0.00000000000E+00 0. -1.
         25    2    1    2    0    0  0.84773792755E+02  0.70084150421E+02  0.18404195843E+03  0.24818252438E+03  0.12499895546E+03 0.  0.
          2    1    1    2  501    0  0.17167798594E+02  0.27916881984E+02 -0.21415958923E+04  0.21418466452E+04  0.00000000000E+00 0. -1.
          1    1    1    2  502    0 -0.10194159135E+03 -0.98001032405E+02  0.27881199447E+03  0.31262184610E+03  0.00000000000E+00 0. -1.
         22    1    3    3    0    0  0.10111943805E+03  0.72249735122E+02  0.19289791926E+03  0.22946627690E+03  0.00000000000E+00 0. -1.
         22    1    3    3    0    0 -0.16345645299E+02 -0.21655847010E+01 -0.88559608369E+01  0.18716247478E+02  0.00000000000E+00 0. -1.
</event>
<event>
 7    1  0.6067783E-006  0.9571971E+02  0.7818608E-02  0.1372835E+00
          2   -1    0    0  502    0  0.00000000000E+00  0.00000000000E+00  0.18105225510E+03  0.18105225510E+03  0.00000000000E+00 0. -1.
          1   -1    0    0  501    0 -0.00000000000E+00 -0.00000000000E+00 -0.11057984614E+04  0.11057984614E+04  0.00000000000E+00 0. -1.
         25    2    1    2    0    0  0.59734878909E+02  0.70240461650E+01 -0.90050626824E+03  0.91112745789E+03  0.12499644956E+03 0.  0.
          2    1    1    2  501    0  0.33346467037E+02 -0.31745398731E+02 -0.18372992876E+03  0.18941078091E+03  0.00000000000E+00 0. -1.
          1    1    1    2  502    0 -0.93081345946E+02  0.24721352566E+02  0.15948999066E+03  0.18631247773E+03  0.00000000000E+00 0. -1.
         22    1    3    3    0    0  0.49956046156E+02  0.50169000246E+02 -0.27190147058E+03  0.28096787154E+03  0.00000000000E+00 0.  1.
         22    1    3    3    0    0  0.97788327527E+01 -0.43144954081E+02 -0.62860479767E+03  0.63015958636E+03  0.00000000000E+00 0.  1.
</event>
<event>
 7    1  0.6067783E-006  0.6195668E+02  0.7818608E-02  0.1515707E+00
          2   -1    0    0  502    0  0.00000000000E+00  0.00000000000E+00  0.15416828421E+04  0.15416828421E+04  0.00000000000E+00 0. -1.
          1   -1    0    0  501    0 -0.00000000000E+00 -0.00000000000E+00 -0.59733735908E+02  0.59733735908E+02  0.00000000000E+00 0. -1.
         25    2    1    2    0    0 -0.37323978166E+02  0.32749962825E+02  0.35753307435E+03  0.38199592691E+03  0.12500139803E+03 0.  0.
          2    1    1    2  501    0  0.81850356063E+01  0.23143787065E+02 -0.43423023588E+02  0.49881746813E+02  0.00000000000E+00 0. -1.
          1    1    1    2  502    0  0.29138942560E+02 -0.55893749890E+02  0.11678390554E+04  0.11695389043E+04  0.00000000000E+00 0. -1.
         22    1    3    3    0    0 -0.60387365879E+02 -0.30156154121E+02  0.17802030931E+03  0.19038712697E+03  0.00000000000E+00 0. -1.
         22    1    3    3    0    0  0.23063387713E+02  0.62906116946E+02  0.17951276504E+03  0.19160879994E+03  0.00000000000E+00 0. -1.
</event>
<event>
 7    1  0.6067783E-006  0.3930477E+02  0.7818608E-02  0.1560565E+00
          2   -1    0    0  502    0  0.00000000000E+00  0.00000000000E+00  0.30280992988E+03  0.30280992988E+03  0.00000000000E+00 0. -1.
          1   -1    0    0  501    0 -0.00000000000E+00 -0.00000000000E+00 -0.45020033812E+03  0.45020033812E+03  0.00000000000E+00 0. -1.
         25    2    1    2    0    0  0.79018088237E+01 -0.96701120328E+01 -0.16137015360E+03  0.20450153920E+03  0.12499841364E+03 0.  0.
          2    1    1    2  501    0  0.87606777139E+00 -0.28861438904E+02 -0.26508840100E+03  0.26665635282E+03  0.00000000000E+00 0. -1.
          1    1    1    2  502    0 -0.87778765951E+01  0.38531550937E+02  0.27906814636E+03  0.28185237598E+03  0.00000000000E+00 0. -1.
         22    1    3    3    0    0 -0.41503020189E+01 -0.20310273960E+02 -0.17925688793E+03  0.18045155612E+03  0.00000000000E+00 0. -1.
         22    1    3    3    0    0  0.12052110843E+02  0.10640161927E+02  0.17886734324E+02  0.24049983085E+02  0.00000000000E+00 0. -1.
</event>
<event>
 7    1  0.6067783E-006  0.1493136E+03  0.7818608E-02  0.1303316E+00
          2   -1    0    0  502    0  0.00000000000E+00  0.00000000000E+00  0.74241463527E+03  0.74241463527E+03  0.00000000000E+00 0. -1.
          1   -1    0    0  501    0 -0.00000000000E+00 -0.00000000000E+00 -0.20012087642E+04  0.20012087642E+04  0.00000000000E+00 0. -1.
         25    2    1    2    0    0 -0.16824718680E+03  0.74405580716E+01 -0.43629761053E+03  0.48409075438E+03  0.12500310300E+03 0.  0.
          2    1    1    2  501    0  0.14208299035E+03  0.39817473223E+02 -0.15364597259E+04  0.15435289102E+04  0.00000000000E+00 0. -1.
          1    1    1    2  502    0  0.26164196444E+02 -0.47258031295E+02  0.71396320750E+03  0.71600373488E+03  0.00000000000E+00 0. -1.
         22    1    3    3    0    0  0.68139474499E+01 -0.51560133702E+01 -0.13596605991E+03  0.13623429745E+03  0.00000000000E+00 0. -1.
         22    1    3    3    0    0 -0.17506113425E+03  0.12596571442E+02 -0.30033155062E+03  0.34785645694E+03  0.00000000000E+00 0. -1.
</event>
<event>
 7    1  0.6067783E-006  0.1262486E+03  0.7818608E-02  0.1248305E+00
          2   -1    0    0  502    0  0.00000000000E+00  0.00000000000E+00  0.82616439878E+03  0.82616439878E+03  0.00000000000E+00 0. -1.
          1   -1    0    0  501    0 -0.00000000000E+00 -0.00000000000E+00 -0.34761206134E+03  0.34761206134E+03  0.00000000000E+00 0. -1.
         25    2    1    2    0    0 -0.11166144049E+03  0.11931113634E+03  0.94501879038E+02  0.22640343925E+03  0.12499795045E+03 0.  0.
          2    1    1    2  501    0  0.36420212242E+01 -0.12619165176E+03 -0.26278897595E+03  0.29154012275E+03  0.00000000000E+00 0. -1.
          1    1    1    2  502    0  0.10801941927E+03  0.68805154207E+01  0.64683943435E+03  0.65583289812E+03  0.00000000000E+00 0. -1.
         22    1    3    3    0    0 -0.96138007900E+02  0.12866567302E+03  0.35245469550E+02  0.16443726798E+03  0.00000000000E+00 0.  1.
         22    1    3    3    0    0 -0.15523432592E+02 -0.93545366883E+01  0.59256409488E+02  0.61966171267E+02  0.00000000000E+00 0.  1.
</event>
<event>
 7    1  0.6067783E-006  0.2241708E+03  0.7818608E-02  0.1168830E+00
          2   -1    0    0  502    0  0.00000000000E+00  0.00000000000E+00  0.84715861177E+03  0.84715861177E+03  0.00000000000E+00 0. -1.
          1   -1    0    0  501    0 -0.00000000000E+00 -0.00000000000E+00 -0.15691464411E+04  0.15691464411E+04  0.00000000000E+00 0. -1.
         25    2    1    2    0    0 -0.96186041746E+02  0.19747034485E+02 -0.17866326780E+03  0.23913726253E+03  0.12499746826E+03 0.  0.
          2    1    1    2  501    0 -0.11187458381E+03  0.88811564444E+02 -0.13395160644E+04  0.13471105015E+04  0.00000000000E+00 0. -1.
          1    1    1    2  502    0  0.20806062555E+03 -0.10855859893E+03  0.79619150293E+03  0.83005728878E+03  0.00000000000E+00 0. -1.
         22    1    3    3    0    0  0.36854837628E+01 -0.39246615427E+02 -0.69244907767E+02  0.79678961243E+02  0.00000000000E+00 0.  1.
         22    1    3    3    0    0 -0.99871525509E+02  0.58993649912E+02 -0.10941836004E+03  0.15945830129E+03  0.00000000000E+00 0.  1.
</event>
<event>
 7    1  0.6067783E-006  0.5421393E+02  0.7818608E-02  0.1541191E+00
          2   -1    0    0  502    0  0.00000000000E+00  0.00000000000E+00  0.97234998194E+03  0.97234998194E+03  0.00000000000E+00 0. -1.
          1   -1    0    0  501    0 -0.00000000000E+00 -0.00000000000E+00 -0.60026090088E+02  0.60026090088E+02  0.00000000000E+00 0. -1.
         25    2    1    2    0    0  0.62026534847E+01  0.45279239775E+02  0.16761774478E+03  0.21403264255E+03  0.12500232498E+03 0.  0.
          2    1    1    2  501    0 -0.29853182753E+02 -0.46880549907E+02 -0.15553724272E+02  0.57714095495E+02  0.00000000000E+00 0. -1.
          1    1    1    2  502    0  0.23650529268E+02  0.16013101318E+01  0.76025987135E+03  0.76062933398E+03  0.00000000000E+00 0. -1.
         22    1    3    3    0    0 -0.94931663615E+01  0.77381563107E+02  0.15928384703E+03  0.17733970351E+03  0.00000000000E+00 0.  1.
         22    1    3    3    0    0  0.15695819846E+02 -0.32102323331E+02  0.83338977458E+01  0.36692939042E+02  0.00000000000E+00 0.  1.
</event>
<event>
 7    1  0.6067783E-006  0.5074210E+02  0.7818608E-02  0.1450391E+00
          2   -1    0    0  502    0  0.00000000000E+00  0.00000000000E+00  0.39735589767E+03  0.39735589767E+03  0.00000000000E+00 0. -1.
          1   -1    0    0  501    0 -0.00000000000E+00 -0.00000000000E+00 -0.11652919281E+04  0.11652919281E+04  0.00000000000E+00 0. -1.
         25    2    1    2    0    0  0.26093782460E+01 -0.58817085181E+01 -0.24905040867E+01  0.12518881504E+03  0.12499853379E+03 0.  0.
          2    1    1    2  501    0  0.44344663727E+02 -0.16923901566E+02 -0.10989095645E+04  0.10999341337E+04  0.00000000000E+00 0. -1.
          1    1    1    2  502    0 -0.46954041973E+02  0.22805610084E+02  0.33346403810E+03  0.33752487703E+03  0.00000000000E+00 0. -1.
         22    1    3    3    0    0 -0.45870897165E+02  0.36997341202E+02  0.84957341297E+01  0.59540909979E+02  0.00000000000E+00 0.  1.
         22    1    3    3    0    0  0.48480275411E+02 -0.42879049721E+02 -0.10986238216E+02  0.65647905062E+02  0.00000000000E+00 0.  1.
</event>
<event>
 7    1  0.6067783E-006  0.1185036E+03  0.7818608E-02  0.1322381E+00
          2   -1    0    0  502    0  0.00000000000E+00  0.00000000000E+00  0.23931860454E+04  0.23931860454E+04  0.00000000000E+00 0. -1.
          1   -1    0    0  501    0 -0.00000000000E+00 -0.00000000000E+00 -0.13458331604E+04  0.13458331604E+04  0.00000000000E+00 0. -1.
         25    2    1    2    0    0  0.14309731019E+01 -0.66700505154E+02  0.47582864200E+02  0.14946882079E+03  0.12500317737E+03 0.  0.
          2    1    1    2  501    0 -0.30483878142E+02  0.11608091690E+03 -0.12917504158E+04  0.12973138336E+04  0.00000000000E+00 0. -1.
          1    1    1    2  502    0  0.29052905040E+02 -0.49380411746E+02  0.22915204366E+04  0.22922365514E+04  0.00000000000E+00 0. -1.
         22    1    3    3    0    0 -0.20965713440E+02 -0.68761865860E+02  0.81561962608E+02  0.10872032506E+03  0.00000000000E+00 0. -1.
         22    1    3    3    0    0  0.22396686542E+02  0.20613607063E+01 -0.33979098408E+02  0.40748495734E+02  0.00000000000E+00 0. -1.
</event>
<event>
 7    1  0.6067783E-006  0.8824401E+02  0.7818608E-02  0.1372457E+00
          2   -1    0    0  502    0  0.00000000000E+00  0.00000000000E+00  0.17980631009E+04  0.17980631009E+04  0.00000000000E+00 0. -1.
          1   -1    0    0  501    0 -0.00000000000E+00 -0.00000000000E+00 -0.13597359419E+03  0.13597359419E+03  0.00000000000E+00 0. -1.
         25    2    1    2    0    0 -0.71102969290E+02  0.94446928939E+01  0.16241374828E+02  0.14502846593E+03  0.12499855682E+03 0.  0.
          2    1    1    2  501    0 -0.81405406888E+01 -0.49431106038E+02 -0.61518380282E+02  0.79336081069E+02  0.00000000000E+00 0. -1.
          1    1    1    2  502    0  0.79243509979E+02  0.39986413144E+02  0.17073665122E+04  0.17096721481E+04  0.00000000000E+00 0. -1.
         22    1    3    3    0    0 -0.13529607282E+02 -0.44856826402E+02  0.40838585489E+02  0.62152837528E+02  0.00000000000E+00 0.  1.
         22    1    3    3    0    0 -0.57573362007E+02  0.54301519296E+02 -0.24597210661E+02  0.82875628402E+02  0.00000000000E+00 0.  1.
</event>
<event>
 7    1  0.6067783E-006  0.1421121E+03  0.7818608E-02  0.1352569E+00
          2   -1    0    0  502    0  0.00000000000E+00  0.00000000000E+00  0.19917184350E+04  0.19917184350E+04  0.00000000000E+00 0. -1.
          1   -1    0    0  501    0 -0.00000000000E+00 -0.00000000000E+00 -0.41063564869E+03  0.41063564869E+03  0.00000000000E+00 0. -1.
         25    2    1    2    0    0 -0.76228484469E+01 -0.17618287585E+03  0.21681094152E+03  0.30615335931E+03  0.12499752596E+03 0.  0.
          2    1    1    2  501    0  0.60328779186E+01  0.36244542235E+02 -0.36220361032E+03  0.36406251906E+03  0.00000000000E+00 0. -1.
          1    1    1    2  502    0  0.15899705283E+01  0.13993833361E+03  0.17264754551E+04  0.17321382053E+04  0.00000000000E+00 0. -1.
         22    1    3    3    0    0 -0.33250291754E+02 -0.42981291188E+02  0.14021449951E+03  0.15037645815E+03  0.00000000000E+00 0. -1.
         22    1    3    3    0    0  0.25627443307E+02 -0.13320158466E+03  0.76596442006E+02  0.15577690116E+03  0.00000000000E+00 0. -1.
</event>
<event>
 7    1  0.6067783E-006  0.1424004E+03  0.7818608E-02  0.1296280E+00
          2   -1    0    0  502    0  0.00000000000E+00  0.00000000000E+00  0.25793160268E+03  0.25793160268E+03  0.00000000000E+00 0. -1.
          1   -1    0    0  501    0 -0.00000000000E+00 -0.00000000000E+00 -0.86988839228E+03  0.86988839228E+03  0.00000000000E+00 0. -1.
         25    2    1    2    0    0  0.10890301812E+03  0.11696290841E+02  0.11568240998E+03  0.20248659431E+03  0.12498692059E+03 0.  0.
          2    1    1    2  501    0 -0.13800514735E+03  0.41271883759E+02 -0.81026190106E+03  0.82296606090E+03  0.00000000000E+00 0. -1.
          1    1    1    2  502    0  0.29102129225E+02 -0.52968174600E+02  0.82622701487E+02  0.10236733975E+03  0.00000000000E+00 0. -1.
         22    1    3    3    0    0  0.80129055067E+02 -0.42640749065E+02  0.27232642454E+02  0.94765583214E+02  0.00000000000E+00 0.  1.
         22    1    3    3    0    0  0.28773963056E+02  0.54337039906E+02  0.88449767525E+02  0.10772101109E+03  0.00000000000E+00 0.  1.
</event>
<event>
 7    1  0.6067783E-006  0.1705363E+03  0.7818608E-02  0.1266151E+00
          2   -1    0    0  502    0  0.00000000000E+00  0.00000000000E+00  0.93720547529E+03  0.93720547529E+03  0.00000000000E+00 0. -1.
          1   -1    0    0  501    0 -0.00000000000E+00 -0.00000000000E+00 -0.16499803265E+03  0.16499803265E+03  0.00000000000E+00 0. -1.
         25    2    1    2    0    0  0.70458984338E+02  0.16120744717E+03  0.19877600254E+03  0.29341159414E+03  0.12500461949E+03 0.  0.
          2    1    1    2  501    0  0.52770747467E+02 -0.41583091652E+02 -0.96283242153E+02  0.11740684826E+03  0.00000000000E+00 0. -1.
          1    1    1    2  502    0 -0.12322973180E+03 -0.11962435551E+03  0.66971468225E+03  0.69138506554E+03  0.00000000000E+00 0. -1.
         22    1    3    3    0    0  0.57505776951E+02  0.72189183058E+02  0.17887313295E+03  0.20128037715E+03  0.00000000000E+00 0. -1.
         22    1    3    3    0    0  0.12953207387E+02  0.89018264107E+02  0.19902869586E+02  0.92131216990E+02  0.00000000000E+00 0. -1.
</event>
<event>
 7    1  0.6067783E-006  0.1390793E+03  0.7818608E-02  0.1228233E+00
          2   -1    0    0  502    0  0.00000000000E+00  0.00000000000E+00  0.17422911743E+04  0.17422911743E+04  0.00000000000E+00 0. -1.
          1   -1    0    0  501    0 -0.00000000000E+00 -0.00000000000E+00 -0.11718673962E+03  0.11718673962E+03  0.00000000000E+00 0. -1.
         25    2    1    2    0    0  0.49278543165E+02  0.33643184861E+02  0.29910119610E+03  0.32961622372E+03  0.12500036291E+03 0.  0.
          2    1    1    2  501    0  0.21819183755E+02  0.11854743223E+03 -0.59352723942E+02  0.13435890855E+03  0.00000000000E+00 0. -1.
          1    1    1    2  502    0 -0.71097726920E+02 -0.15219061709E+03  0.13853559625E+04  0.13955027816E+04  0.00000000000E+00 0. -1.
         22    1    3    3    0    0  0.70868375379E+02 -0.12895349878E+02  0.95317595375E+02  0.11947410040E+03  0.00000000000E+00 0. -1.
         22    1    3    3    0    0 -0.21589832215E+02  0.46538534739E+02  0.20378360072E+03  0.21014212332E+03  0.00000000000E+00 0. -1.
</event>
<event>
 7    1  0.6067783E-006  0.1138638E+03  0.7818608E-02  0.1294163E+00
          2   -1    0    0  502    0  0.00000000000E+00  0.00000000000E+00  0.14221872942E+04  0.14221872942E+04  0.00000000000E+00 0. -1.
          1   -1    0    0  501    0 -0.00000000000E+00 -0.00000000000E+00 -0.15082835436E+03  0.15082835436E+03  0.00000000000E+00 0. -1.
         25    2    1    2    0    0  0.10084234169E+03 -0.12210699258E+03  0.53588209975E+02  0.20874826634E+03  0.12499938774E+03 0.  0.
          2    1    1    2  501    0 -0.76162936821E+02  0.11879797128E+02 -0.49736596231E+02  0.91736860256E+02  0.00000000000E+00 0. -1.
          1    1    1    2  502    0 -0.24679404870E+02  0.11022719545E+03  0.12675073261E+04  0.12725305220E+04  0.00000000000E+00 0. -1.
         22    1    3    3    0    0  0.36442057268E+02 -0.83534925945E+02  0.87530470838E+02  0.12636332821E+03  0.00000000000E+00 0. -1.
         22    1    3    3    0    0  0.64400284423E+02 -0.38572066633E+02 -0.33942260863E+02  0.82384938130E+02  0.00000000000E+00 0. -1.
</event>
<event>
 7    1  0.6067783E-006  0.5900781E+02  0.7818608E-02  0.1406083E+00
          2   -1    0    0  502    0  0.00000000000E+00  0.00000000000E+00  0.12449281599E+04  0.12449281599E+04  0.00000000000E+00 0. -1.
          1   -1    0    0  501    0 -0.00000000000E+00 -0.00000000000E+00 -0.26725378217E+03  0.26725378217E+03  0.00000000000E+00 0. -1.
         25    2    1    2    0    0 -0.63349532395E+02 -0.78993817394E+02  0.21689483560E+02  0.16232293540E+03  0.12500046087E+03 0.  0.
          2    1    1    2  501    0  0.52863610455E+02  0.22802659092E+02 -0.19200310800E+03  0.20044878661E+03  0.00000000000E+00 0. -1.
          1    1    1    2  502    0  0.10485921939E+02  0.56191158302E+02  0.11479880022E+04  0.11494102201E+04  0.00000000000E+00 0. -1.
         22    1    3    3    0    0  0.12090899243E+01  0.20379582166E+02  0.37572321882E+02  0.42760596807E+02  0.00000000000E+00 0. -1.
         22    1    3    3    0    0 -0.64558622319E+02 -0.99373399560E+02 -0.15882838322E+02  0.11956233859E+03  0.00000000000E+00 0. -1.
</event>
<event>
 7    1  0.6067783E-006  0.9033968E+02  0.7818608E-02  0.1481482E+00
          2   -1    0    0  502    0  0.00000000000E+00  0.00000000000E+00  0.39245146609E+04  0.39245146609E+04  0.00000000000E+00 0. -1.
          1   -1    0    0  501    0 -0.00000000000E+00 -0.00000000000E+00 -0.50480039164E+03  0.50480039164E+03  0.00000000000E+00 0. -1.
         25    2    1    2    0    0  0.31277423891E+02 -0.80094341370E+02 -0.38262637923E+03  0.41160297566E+03  0.12498272971E+03 0.  0.
          2    1    1    2  501    0 -0.19109179510E+02 -0.94310547691E+01 -0.10610428014E+03  0.10822302805E+03  0.00000000000E+00 0. -1.
          1    1    1    2  502    0 -0.12168244381E+02  0.89525396139E+02  0.39084449286E+04  0.39094890488E+04  0.00000000000E+00 0. -1.
         22    1    3    3    0    0  0.45431482778E+02  0.14872660815E+02 -0.71585954743E+02  0.86079989449E+02  0.00000000000E+00 0. -1.
         22    1    3    3    0    0 -0.14154058887E+02 -0.94967002185E+02 -0.31104042449E+03  0.32552298622E+03  0.00000000000E+00 0. -1.
</event>
<event>
 7    1  0.6067783E-006  0.1024279E+03  0.7818608E-02  0.1378323E+00
          2   -1    0    0  502    0  0.00000000000E+00  0.00000000000E+00  0.64217061874E+03  0.64217061874E+03  0.00000000000E+00 0. -1.
          1   -1    0    0  501    0 -0.00000000000E+00 -0.00000000000E+00 -0.11048486332E+04  0.11048486332E+04  0.00000000000E+00 0. -1.
         25    2    1    2    0    0 -0.35137749184E+02 -0.11927785523E+03 -0.25632956991E+03  0.31111313035E+03  0.12499865321E+03 0.  0.
          2    1    1    2  501    0  0.37399266087E+02  0.17116845929E+02 -0.81635973610E+03  0.81739519832E+03  0.00000000000E+00 0. -1.
          1    1    1    2  502    0 -0.22615169031E+01  0.10216100930E+03  0.61001129159E+03  0.61851092323E+03  0.00000000000E+00 0. -1.
         22    1    3    3    0    0  0.36578575728E+02 -0.67817297858E+02 -0.17447536662E+03  0.19073235606E+03  0.00000000000E+00 0. -1.
         22    1    3    3    0    0 -0.71716324912E+02 -0.51460557369E+02 -0.81854203283E+02  0.12038077429E+03  0.00000000000E+00 0. -1.
</event>
<event>
 7    1  0.6067783E-006  0.1971073E+03  0.7818608E-02  0.1339592E+00
          2   -1    0    0  502    0  0.00000000000E+00  0.00000000000E+00  0.56944748258E+02  0.56944748258E+02  0.00000000000E+00 0. -1.
          1   -1    0    0  501    0 -0.00000000000E+00 -0.00000000000E+00 -0.30098994961E+04  0.30098994961E+04  0.00000000000E+00 0. -1.
         25    2    1    2    0    0  0.25330473637E+02 -0.16899472239E+03 -0.22352496785E+04  0.22452543570E+04  0.12500061256E+03 0.  0.
          2    1    1    2  501    0  0.12805874930E+02 -0.26700448017E+02 -0.57653512377E+03  0.57729511802E+03  0.00000000000E+00 0. -1.
          1    1    1    2  502    0 -0.38136348566E+02  0.19569517041E+03 -0.14116994555E+03  0.24429476935E+03  0.00000000000E+00 0. -1.
         22    1    3    3    0    0 -0.35316982256E+02 -0.42039427606E+02 -0.10920162513E+04  0.10933956721E+04  0.00000000000E+00 0.  1.
         22    1    3    3    0    0  0.60647455892E+02 -0.12695529479E+03 -0.11432334272E+04  0.11518586848E+04  0.00000000000E+00 0.  1.
</event>
<event>
 7    1  0.6067783E-006  0.1725162E+03  0.7818608E-02  0.1300824E+00
          2   -1    0    0  502    0  0.00000000000E+00  0.00000000000E+00  0.31862409824E+04  0.31862409824E+04  0.00000000000E+00 0. -1.
          1   -1    0    0  501    0 -0.00000000000E+00 -0.00000000000E+00 -0.45809769393E+03  0.45809769393E+03  0.00000000000E+00 0. -1.
         25    2    1    2    0    0  0.19554836157E+03 -0.62425761189E+02  0.92227261518E+02  0.25742392191E+03  0.12500028173E+03 0.  0.
          2    1    1    2  501    0 -0.15026216184E+03  0.77833588099E+02 -0.35623267599E+03  0.39438370169E+03  0.00000000000E+00 0. -1.
          1    1    1    2  502    0 -0.45286199727E+02 -0.15407826910E+02  0.29921487030E+04  0.29925310528E+04  0.00000000000E+00 0. -1.
         22    1    3    3    0    0  0.14341336886E+03  0.79842332307E+01  0.22359584477E+02  0.14536537885E+03  0.00000000000E+00 0. -1.
         22    1    3    3    0    0  0.52134992703E+02 -0.70409994420E+02  0.69867677041E+02  0.11205854306E+03  0.00000000000E+00 0. -1.
</event>
<event>
 7    1  0.6067783E-006  0.1326460E+03  0.7818608E-02  0.1339049E+00
          2   -1    0    0  502    0  0.00000000000E+00  0.00000000000E+00  0.66671159191E+02  0.66671159191E+02  0.00000000000E+00 0. -1.
          1   -1    0    0  501    0 -0.00000000000E+00 -0.00000000000E+00 -0.12158188899E+04  0.12158188899E+04  0.00000000000E+00 0. -1.
         25    2    1    2    0    0  0.56018668269E+02 -0.13327526728E+03 -0.48617193364E+03  0.52238445698E+03  0.12498793450E+03 0.  0.
          2    1    1    2  501    0 -0.44151666889E+02  0.22856717816E+01 -0.62023582478E+03  0.62180951450E+03  0.00000000000E+00 0. -1.
          1    1    1    2  502    0 -0.11867001380E+02  0.13098959550E+03 -0.42739972287E+02  0.13829607761E+03  0.00000000000E+00 0. -1.
         22    1    3    3    0    0 -0.11593008846E+00 -0.13174448628E+03 -0.29384757402E+03  0.32202953259E+03  0.00000000000E+00 0.  1.
         22    1    3    3    0    0  0.56134598357E+02 -0.15307810045E+01 -0.19232435963E+03  0.20035492439E+03  0.00000000000E+00 0.  1.
</event>
<event>
 7    1  0.6067783E-006  0.1331065E+03  0.7818608E-02  0.1358591E+00
          2   -1    0    0  502    0  0.00000000000E+00  0.00000000000E+00  0.14644237815E+04  0.14644237815E+04  0.00000000000E+00 0. -1.
          1   -1    0    0  501    0 -0.00000000000E+00 -0.00000000000E+00 -0.21605223971E+04  0.21605223971E+04  0.00000000000E+00 0. -1.
         25    2    1    2    0    0 -0.13485920496E+03  0.17564965030E+02 -0.14924390988E+04  0.15038266104E+04  0.12499790876E+03 0.  0.
          2    1    1    2  501    0  0.12169112915E+03 -0.52442729181E+02 -0.65552073223E+03  0.66877978523E+03  0.00000000000E+00 0. -1.
          1    1    1    2  502    0  0.13168075816E+02  0.34877764151E+02  0.14518612154E+04  0.14523397830E+04  0.00000000000E+00 0. -1.
         22    1    3    3    0    0  0.66302330455E+01  0.24631317594E+02 -0.72856336933E+02  0.77192665635E+02  0.00000000000E+00 0. -1.
         22    1    3    3    0    0 -0.14148943801E+03 -0.70663525637E+01 -0.14195827619E+04  0.14266339447E+04  0.00000000000E+00 0. -1.
</event>
<event>
 7    1  0.6067783E-006  0.7530945E+02  0.7818608E-02  0.1484380E+00
          2   -1    0    0  502    0  0.00000000000E+00  0.00000000000E+00  0.14924608472E+03  0.14924608472E+03  0.00000000000E+00 0. -1.
          1   -1    0    0  501    0 -0.00000000000E+00 -0.00000000000E+00 -0.48547727890E+03  0.48547727890E+03  0.00000000000E+00 0. -1.
         25    2    1    2    0    0 -0.12003889925E+02 -0.81554457501E+02 -0.42502412890E+02  0.15565032721E+03  0.12500138538E+03 0.  0.
          2    1    1    2  501    0 -0.20560425335E+02  0.14304291577E+02 -0.37084829503E+03  0.37169315541E+03  0.00000000000E+00 0. -1.
          1    1    1    2  502    0  0.32564315261E+02  0.67250165925E+02  0.77119513739E+02  0.10737988101E+03  0.00000000000E+00 0. -1.
         22    1    3    3    0    0  0.31397222698E+02 -0.89598713839E+02 -0.82665334140E+00  0.94944186080E+02  0.00000000000E+00 0. -1.
         22    1    3    3    0    0 -0.43401112623E+02  0.80442563374E+01 -0.41675759548E+02  0.60706141130E+02  0.00000000000E+00 0. -1.
</event>
<event>
 7    1  0.6067783E-006  0.1554602E+03  0.7818608E-02  0.1263947E+00
          2   -1    0    0  502    0  0.00000000000E+00  0.00000000000E+00  0.28441020824E+04  0.28441020824E+04  0.00000000000E+00 0. -1.
          1   -1    0    0  501    0 -0.00000000000E+00 -0.00000000000E+00 -0.17706541216E+04  0.17706541216E+04  0.00000000000E+00 0. -1.
         25    2    1    2    0    0  0.17223766461E+03 -0.12601182133E+03  0.36161305247E+03  0.43810173177E+03  0.12499734171E+03 0.  0.
          2    1    1    2  501    0 -0.14455895610E+03  0.55981250443E+02 -0.17283599358E+04  0.17352980320E+04  0.00000000000E+00 0. -1.
          1    1    1    2  502    0 -0.27678708510E+02  0.70030570888E+02  0.24401948440E+04  0.24413564403E+04  0.00000000000E+00 0. -1.
         22    1    3    3    0    0  0.32783912841E+02 -0.78454060348E+02  0.65410757458E+02  0.10727717240E+03  0.00000000000E+00 0. -1.
         22    1    3    3    0    0  0.13945375177E+03 -0.47557760983E+02  0.29620229501E+03  0.33082455937E+03  0.00000000000E+00 0. -1.
</event>
<event>
 7    1  0.6067783E-006  0.1279314E+03  0.7818608E-02  0.1333888E+00
          2   -1    0    0  502    0  0.00000000000E+00  0.00000000000E+00  0.25518446937E+04  0.25518446937E+04  0.00000000000E+00 0. -1.
          1   -1    0    0  501    0 -0.00000000000E+00 -0.00000000000E+00 -0.27709806309E+03  0.27709806309E+03  0.00000000000E+00 0. -1.
         25    2    1    2    0    0 -0.74517234553E+02 -0.34961009622E+02  0.22736088282E+04  0.22785298373E+04  0.12500410246E+03 0.  0.
          2    1    1    2  501    0  0.12233735193E+03  0.38454430513E+02 -0.25734178225E+03  0.28752384909E+03  0.00000000000E+00 0. -1.
          1    1    1    2  502    0 -0.47820117373E+02 -0.34934208908E+01  0.25847958472E+03  0.26288907039E+03  0.00000000000E+00 0. -1.
         22    1    3    3    0    0 -0.58152069760E+02 -0.38249340639E+02  0.22392437226E+04  0.22403252274E+04  0.00000000000E+00 0. -1.
         22    1    3    3    0    0 -0.16365164793E+02  0.32883310172E+01  0.34365105541E+02  0.38204609911E+02  0.00000000000E+00 0. -1.
</event>
<event>
 7    1  0.6067783E-006  0.5021501E+02  0.7818608E-02  0.1558204E+00
          2   -1    0    0  502    0  0.00000000000E+00  0.00000000000E+00  0.44076268215E+03  0.44076268215E+03  0.00000000000E+00 0. -1.
          1   -1    0    0  501    0 -0.00000000000E+00 -0.00000000000E+00 -0.17186724416E+03  0.17186724416E+03  0.00000000000E+00 0. -1.
         25    2    1    2    0    0  0.17735144710E+02 -0.37548440154E+02  0.43504110557E+02  0.13869226989E+03  0.12497406681E+03 0.  0.
          2    1    1    2  501    0  0.22099784881E+02  0.61596134428E+01 -0.12135373860E+03  0.12350332466E+03  0.00000000000E+00 0. -1.
          1    1    1    2  502    0 -0.39834929591E+02  0.31388826711E+02  0.34674506603E+03  0.35043433176E+03  0.00000000000E+00 0. -1.
         22    1    3    3    0    0  0.12907938365E+02 -0.67903583772E+02 -0.16688895956E+02  0.71105771989E+02  0.00000000000E+00 0. -1.
         22    1    3    3    0    0  0.48272063451E+01  0.30355143618E+02  0.60193006513E+02  0.67586497899E+02  0.00000000000E+00 0. -1.
</event>
<event>
 7    1  0.6067783E-006  0.1169717E+03  0.7818608E-02  0.1273973E+00
          2   -1    0    0  502    0  0.00000000000E+00  0.00000000000E+00  0.23348043927E+04  0.23348043927E+04  0.00000000000E+00 0. -1.
          1   -1    0    0  501    0 -0.00000000000E+00 -0.00000000000E+00 -0.11745052400E+04  0.11745052400E+04  0.00000000000E+00 0. -1.
         25    2    1    2    0    0 -0.15080026856E+03  0.13762459245E+03  0.32614128789E+03  0.40456781307E+03  0.12500290501E+03 0.  0.
          2    1    1    2  501    0  0.67165830236E+02 -0.61127482192E+02 -0.11318408969E+04  0.11354785924E+04  0.00000000000E+00 0. -1.
          1    1    1    2  502    0  0.83634438328E+02 -0.76497110263E+02  0.19659987617E+04  0.19692632272E+04  0.00000000000E+00 0. -1.
         22    1    3    3    0    0 -0.14194533907E+03  0.13242818285E+03  0.33744309247E+03  0.38929878442E+03  0.00000000000E+00 0. -1.
         22    1    3    3    0    0 -0.88549294985E+01  0.51964096053E+01 -0.11301804581E+02  0.15269028653E+02  0.00000000000E+00 0. -1.
</event>
<event>
 7    1  0.6067783E-006  0.8057202E+02  0.7818608E-02  0.1328377E+00
          2   -1    0    0  502    0  0.00000000000E+00  0.00000000000E+00  0.76530431615E+03  0.76530431615E+03  0.00000000000E+00 0. -1.
          1   -1    0    0  501    0 -0.00000000000E+00 -0.00000000000E+00 -0.28888749296E+03  0.28888749296E+03  0.00000000000E+00 0. -1.
         25    2    1    2    0    0 -0.27997531379E+02  0.37996121635E+02  0.19216449797E+02  0.13500152379E+03  0.12501428903E+03 0.  0.
          2    1    1    2  501    0  0.85144261047E+02  0.17852897210E+02 -0.22037225557E+03  0.23692235470E+03  0.00000000000E+00 0. -1.
          1    1    1    2  502    0 -0.57146729668E+02 -0.55849018845E+02  0.67757262897E+03  0.68226793062E+03  0.00000000000E+00 0. -1.
         22    1    3    3    0    0 -0.51776906782E+02  0.62608401724E+02 -0.19271346563E+02  0.83498771492E+02  0.00000000000E+00 0.  1.
         22    1    3    3    0    0  0.23779375403E+02 -0.24612280089E+02  0.38487796360E+02  0.51502752299E+02  0.00000000000E+00 0.  1.
</event>
<event>
 7    1  0.6067783E-006  0.2199619E+03  0.7818608E-02  0.1288924E+00
          2   -1    0    0  502    0  0.00000000000E+00  0.00000000000E+00  0.13571719730E+04  0.13571719730E+04  0.00000000000E+00 0. -1.
          1   -1    0    0  501    0 -0.00000000000E+00 -0.00000000000E+00 -0.16211695380E+04  0.16211695380E+04  0.00000000000E+00 0. -1.
         25    2    1    2    0    0 -0.16133390518E+03 -0.83737494901E+02  0.11989358095E+03  0.25107453922E+03  0.12499342572E+03 0.  0.
          2    1    1    2  501    0  0.20289016726E+03  0.89126294566E+02 -0.15473077138E+04  0.15630959911E+04  0.00000000000E+00 0. -1.
          1    1    1    2  502    0 -0.41556262079E+02 -0.53887996655E+01  0.11634165678E+04  0.11641709807E+04  0.00000000000E+00 0. -1.
         22    1    3    3    0    0 -0.45405754804E+02 -0.18767463908E+02  0.10677454486E+03  0.11753596769E+03  0.00000000000E+00 0.  1.
         22    1    3    3    0    0 -0.11592815038E+03 -0.64970030993E+02  0.13119036097E+02  0.13353857153E+03  0.00000000000E+00 0.  1.
</event>
<event>
 7    1  0.6067783E-006  0.1693223E+03  0.7818608E-02  0.1232869E+00
          2   -1    0    0  502    0  0.00000000000E+00  0.00000000000E+00  0.13226752087E+04  0.13226752087E+04  0.00000000000E+00 0. -1.
          1   -1    0    0  501    0 -0.00000000000E+00 -0.00000000000E+00 -0.16005838847E+04  0.16005838847E+04  0.00000000000E+00 0. -1.
         25    2    1    2    0    0  0.45981244611E+02  0.76443719468E+02 -0.15350976232E+01  0.15357447763E+03  0.12499938621E+03 0.  0.
          2    1    1    2  501    0 -0.38777705401E+02 -0.17055429368E+03 -0.15162077735E+04  0.15262629163E+04  0.00000000000E+00 0. -1.
          1    1    1    2  502    0 -0.72035392096E+01  0.94110574211E+02  0.12398341951E+04  0.12434216994E+04  0.00000000000E+00 0. -1.
         22    1    3    3    0    0  0.13844188754E+02 -0.26591840405E+02  0.28685128155E+02  0.41492458540E+02  0.00000000000E+00 0. -1.
         22    1    3    3    0    0  0.32137055857E+02  0.10303555987E+03 -0.30220225779E+02  0.11208201909E+03  0.00000000000E+00 0. -1.
</event>
<event>
 7    1  0.6067783E-006  0.5224447E+02  0.7818608E-02  0.1489282E+00
          2   -1    0    0  502    0  0.00000000000E+00  0.00000000000E+00  0.13644293151E+04  0.13644293151E+04  0.00000000000E+00 0. -1.
          1   -1    0    0  501    0 -0.00000000000E+00 -0.00000000000E+00 -0.84871741187E+03  0.84871741187E+03  0.00000000000E+00 0. -1.
         25    2    1    2    0    0  0.83458379246E+02  0.41093326100E+01  0.18616894219E+03  0.23930301403E+03  0.12499947923E+03 0.  0.
          2    1    1    2  501    0 -0.50112816896E+02 -0.14365806893E+02 -0.82105932662E+03  0.82271264039E+03  0.00000000000E+00 0. -1.
          1    1    1    2  502    0 -0.33345562350E+02  0.10256474283E+02  0.11506022877E+04  0.11511310726E+04  0.00000000000E+00 0. -1.
         22    1    3    3    0    0  0.11575394668E+03  0.12126176043E+02  0.15386555434E+03  0.19292648634E+03  0.00000000000E+00 0.  1.
         22    1    3    3    0    0 -0.32295567436E+02 -0.80168434331E+01  0.32303387847E+02  0.46376527695E+02  0.00000000000E+00 0.  1.
</event>
<event>
 7    1  0.6498379E-006  0.1026011E+03  0.7818608E-02  0.1306977E+00
          2   -1    0    0  502    0  0.00000000000E+00  0.00000000000E+00  0.23987538853E+04  0.23987538853E+04  0.00000000000E+00 0. -1.
          1   -1    0    0  501    0 -0.00000000000E+00 -0.00000000000E+00 -0.67609094702E+03  0.67609094702E+03  0.00000000000E+00 0. -1.
         25    2    1    2    0    0 -0.11188955488E+03 -0.18298975580E+02  0.30390903370E+02  0.17146879771E+03  0.12499526624E+03 0.  0.
          2    1    1    2  501    0  0.24194108585E+02  0.72070529025E+02 -0.60200890566E+03  0.60679011078E+03  0.00000000000E+00 0. -1.
          1    1    1    2  502    0  0.87695446293E+02 -0.53771553446E+02  0.22942809405E+04  0.22965859238E+04  0.00000000000E+00 0. -1.
         22    1    3    3    0    0 -0.40401575848E+02 -0.18859261162E+02  0.74964127600E+02  0.87221439391E+02  0.00000000000E+00 0.  1.
         22    1    3    3    0    0 -0.71487979030E+02  0.56028558235E+00 -0.44573224230E+02  0.84247358320E+02  0.00000000000E+00 0.  1.
</event>
<event>
 7    1  0.6067783E-006  0.4712377E+02  0.7818608E-02  0.1554093E+00
          2   -1    0    0  502    0  0.00000000000E+00  0.00000000000E+00  0.10867262412E+04  0.10867262412E+04  0.00000000000E+00 0. -1.
          1   -1    0    0  501    0 -0.00000000000E+00 -0.00000000000E+00 -0.71782976792E+03  0.71782976792E+03  0.00000000000E+00 0. -1.
         25    2    1    2    0    0  0.61340965009E+02 -0.36406962073E+01  0.17145173299E+03  0.22090132029E+03  0.12500291158E+03 0.  0.
          2    1    1    2  501    0 -0.16901630430E+02  0.18551024762E+02 -0.69226064389E+03  0.69271538507E+03  0.00000000000E+00 0. -1.
          1    1    1    2  502    0 -0.44439334579E+02 -0.14910328554E+02  0.88970538420E+03  0.89093930378E+03  0.00000000000E+00 0. -1.
         22    1    3    3    0    0  0.76092872653E+02  0.91792428765E+01  0.37129060369E+02  0.85164258302E+02  0.00000000000E+00 0. -1.
         22    1    3    3    0    0 -0.14751907644E+02 -0.12819939084E+02  0.13432267262E+03  0.13573706199E+03  0.00000000000E+00 0. -1.
</event>
<event>
 7    1  0.6067783E-006  0.4986843E+02  0.7818608E-02  0.1536597E+00
          2   -1    0    0  502    0  0.00000000000E+00  0.00000000000E+00  0.24885010443E+03  0.24885010443E+03  0.00000000000E+00 0. -1.
          1   -1    0    0  501    0 -0.00000000000E+00 -0.00000000000E+00 -0.27796762232E+04  0.27796762232E+04  0.00000000000E+00 0. -1.
         25    2    1    2    0    0  0.52129978703E+02 -0.53095270105E+02 -0.11656356369E+04  0.11746780609E+04  0.12500186509E+03 0.  0.
          2    1    1    2  501    0 -0.32392414067E+02  0.35332095686E+02 -0.16084398097E+04  0.16091538916E+04  0.00000000000E+00 0. -1.
          1    1    1    2  502    0 -0.19737564636E+02  0.17763174419E+02  0.24324932774E+03  0.24469437523E+03  0.00000000000E+00 0. -1.
         22    1    3    3    0    0  0.80879217996E+02  0.32828891838E+01 -0.72895835283E+03  0.73343882187E+03  0.00000000000E+00 0.  1.
         22    1    3    3    0    0 -0.28749239293E+02 -0.56378159289E+02 -0.43667728407E+03  0.44123923900E+03  0.00000000000E+00 0.  1.
</event>
<event>
 7    1  0.6067783E-006  0.1434690E+03  0.7818608E-02  0.1349777E+00
          2   -1    0    0  502    0  0.00000000000E+00  0.00000000000E+00  0.17367636607E+04  0.17367636607E+04  0.00000000000E+00 0. -1.
          1   -1    0    0  501    0 -0.00000000000E+00 -0.00000000000E+00 -0.12214764530E+04  0.12214764530E+04  0.00000000000E+00 0. -1.
         25    2    1    2    0    0 -0.56335049946E+02 -0.12545092577E+03  0.23570954880E+03  0.30015958558E+03  0.12500085114E+03 0.  0.
          2    1    1    2  501    0 -0.34842862235E+02  0.13233607804E+02 -0.11853995258E+04  0.11859853242E+04  0.00000000000E+00 0. -1.
          1    1    1    2  502    0  0.91177912182E+02  0.11221731797E+03  0.14649771846E+04  0.14720952040E+04  0.00000000000E+00 0. -1.
         22    1    3    3    0    0 -0.23505986324E+02 -0.13342131995E+03  0.12472372130E+03  0.18414610141E+03  0.00000000000E+00 0.  1.
         22    1    3    3    0    0 -0.32829063623E+02  0.79703941712E+01  0.11098582751E+03  0.11601348417E+03  0.00000000000E+00 0.  1.
</event>
<event>
 7    1  0.6067783E-006  0.2319752E+03  0.7818608E-02  0.1256278E+00
          2   -1    0    0  502    0  0.00000000000E+00  0.00000000000E+00  0.13809499641E+04  0.13809499641E+04  0.00000000000E+00 0. -1.
          1   -1    0    0  501    0 -0.00000000000E+00 -0.00000000000E+00 -0.11719565816E+03  0.11719565816E+03  0.00000000000E+00 0. -1.
         25    2    1    2    0    0  0.21124953696E+03  0.15885258388E+03  0.33212061073E+03  0.44248121787E+03  0.12500007132E+03 0.  0.
          2    1    1    2  501    0 -0.18603578814E+03 -0.11063329635E+03  0.13062176858E+03  0.25280642230E+03  0.00000000000E+00 0. -1.
          1    1    1    2  502    0 -0.25213748820E+02 -0.48219287524E+02  0.80101192660E+03  0.80285798207E+03  0.00000000000E+00 0. -1.
         22    1    3    3    0    0  0.94526738464E+02  0.10878399122E+03  0.92398469943E+02  0.17119210928E+03  0.00000000000E+00 0. -1.
         22    1    3    3    0    0  0.11672279849E+03  0.50068592654E+02  0.23972214079E+03  0.27128910860E+03  0.00000000000E+00 0. -1.
</event>
<event>
 7    1  0.6067783E-006  0.7744752E+02  0.7818608E-02  0.1468302E+00
          2   -1    0    0  502    0  0.00000000000E+00  0.00000000000E+00  0.67952564940E+03  0.67952564940E+03  0.00000000000E+00 0. -1.
          1   -1    0    0  501    0 -0.00000000000E+00 -0.00000000000E+00 -0.24156158838E+03  0.24156158838E+03  0.00000000000E+00 0. -1.
         25    2    1    2    0    0 -0.68319928299E+02 -0.13011239307E+02 -0.12307480969E+03  0.18870388728E+03  0.12499937337E+03 0.  0.
          2    1    1    2  501    0 -0.82103305983E+01  0.26036737344E+02 -0.81098534665E+02  0.85570401102E+02  0.00000000000E+00 0. -1.
          1    1    1    2  502    0  0.76530258897E+02 -0.13025498037E+02  0.64213740538E+03  0.64681294940E+03  0.00000000000E+00 0. -1.
         22    1    3    3    0    0  0.26653489644E+02 -0.28954803817E+02 -0.10848477649E+02  0.40822526154E+02  0.00000000000E+00 0.  1.
         22    1    3    3    0    0 -0.94973417943E+02  0.15943564510E+02 -0.11222633204E+03  0.14788136113E+03  0.00000000000E+00 0.  1.
</event>
<event>
 7    1  0.6067783E-006  0.9193718E+02  0.7818608E-02  0.1358320E+00
          2   -1    0    0  502    0  0.00000000000E+00  0.00000000000E+00  0.16526427969E+04  0.16526427969E+04  0.00000000000E+00 0. -1.
          1   -1    0    0  501    0 -0.00000000000E+00 -0.00000000000E+00 -0.34303943039E+03  0.34303943039E+03  0.00000000000E+00 0. -1.
         25    2    1    2    0    0  0.86431308409E+02 -0.88169485358E+02  0.38119205117E+03  0.41973387075E+03  0.12499965262E+03 0.  0.
          2    1    1    2  501    0 -0.31182534494E+01  0.54008223184E+02 -0.31987561203E+03  0.32441796937E+03  0.00000000000E+00 0. -1.
          1    1    1    2  502    0 -0.83313054960E+02  0.34161262174E+02  0.12482869273E+04  0.12515303871E+04  0.00000000000E+00 0. -1.
         22    1    3    3    0    0 -0.27450132583E+02 -0.78189966654E+01  0.27767540370E+02  0.39820632666E+02  0.00000000000E+00 0.  1.
         22    1    3    3    0    0  0.11388144099E+03 -0.80350488692E+02  0.35342451080E+03  0.37991323808E+03  0.00000000000E+00 0.  1.
</event>
<event>
 7    1  0.6067783E-006  0.8462516E+02  0.7818608E-02  0.1383396E+00
          2   -1    0    0  502    0  0.00000000000E+00  0.00000000000E+00  0.13928427674E+04  0.13928427674E+04  0.00000000000E+00 0. -1.
          1   -1    0    0  501    0 -0.00000000000E+00 -0.00000000000E+00 -0.53213504047E+03  0.53213504047E+03  0.00000000000E+00 0. -1.
         25    2    1    2    0    0 -0.10221714680E+03 -0.73772775648E+02 -0.54773108719E+02  0.18578459508E+03  0.12500021921E+03 0.  0.
          2    1    1    2  501    0  0.56624108099E+02  0.59523444259E+02 -0.40732390213E+03  0.41552628229E+03  0.00000000000E+00 0. -1.
          1    1    1    2  502    0  0.45593038700E+02  0.14249331390E+02  0.13228047378E+04  0.13236669305E+04  0.00000000000E+00 0. -1.
         22    1    3    3    0    0 -0.38775642717E+01 -0.47034110345E+02  0.27665970974E+02  0.54705109364E+02  0.00000000000E+00 0. -1.
         22    1    3    3    0    0 -0.98339582528E+02 -0.26738665304E+02 -0.82439079693E+02  0.13107948571E+03  0.00000000000E+00 0. -1.
</event>
<event>
 7    1  0.6067783E-006  0.4526696E+02  0.7818608E-02  0.1476234E+00
          2   -1    0    0  502    0  0.00000000000E+00  0.00000000000E+00  0.12735667175E+04  0.12735667175E+04  0.00000000000E+00 0. -1.
          1   -1    0    0  501    0 -0.00000000000E+00 -0.00000000000E+00 -0.42876555104E+03  0.42876555104E+03  0.00000000000E+00 0. -1.
         25    2    1    2    0    0 -0.53349952342E+01 -0.12406177409E+02  0.53873817168E+03  0.55321287575E+03  0.12499317123E+03 0.  0.
          2    1    1    2  501    0  0.39626140972E+02 -0.21883024583E+02 -0.41950120769E+03  0.42193644198E+03  0.00000000000E+00 0. -1.
          1    1    1    2  502    0 -0.34291145737E+02  0.34289201992E+02  0.72556420247E+03  0.72718295082E+03  0.00000000000E+00 0. -1.
         22    1    3    3    0    0 -0.59046853233E+01 -0.52810329147E+02  0.47351114576E+03  0.47648357929E+03  0.00000000000E+00 0. -1.
         22    1    3    3    0    0  0.56969008915E+00  0.40404151738E+02  0.65227025918E+02  0.76729296456E+02  0.00000000000E+00 0. -1.
</event>
<event>
 7    1  0.6067783E-006  0.6909657E+02  0.7818608E-02  0.1402184E+00
          2   -1    0    0  502    0  0.00000000000E+00  0.00000000000E+00  0.44510357183E+03  0.44510357183E+03  0.00000000000E+00 0. -1.
          1   -1    0    0  501    0 -0.00000000000E+00 -0.00000000000E+00 -0.44372973525E+04  0.44372973525E+04  0.00000000000E+00 0. -1.
         25    2    1    2    0    0  0.80345192918E+02 -0.60789759333E+02 -0.57572065349E+03  0.59768720260E+03  0.12499990572E+03 0.  0.
          2    1    1    2  501    0 -0.30015471283E+02  0.61584156280E+02 -0.38488284484E+04  0.38494381359E+04  0.00000000000E+00 0. -1.
          1    1    1    2  502    0 -0.50329721635E+02 -0.79439694689E+00  0.43235532116E+03  0.43527558590E+03  0.00000000000E+00 0. -1.
         22    1    3    3    0    0  0.82611059705E+02 -0.91663367560E+02 -0.37999107402E+03  0.39952468819E+03  0.00000000000E+00 0.  1.
         22    1    3    3    0    0 -0.22658667870E+01  0.30873608227E+02 -0.19572957947E+03  0.19816251441E+03  0.00000000000E+00 0.  1.
</event>
<event>
 7    1  0.6067783E-006  0.6644347E+02  0.7818608E-02  0.1418712E+00
          2   -1    0    0  502    0  0.00000000000E+00  0.00000000000E+00  0.69971316291E+03  0.69971316291E+03  0.00000000000E+00 0. -1.
          1   -1    0    0  501    0 -0.00000000000E+00 -0.00000000000E+00 -0.20611605326E+03  0.20611605326E+03  0.00000000000E+00 0. -1.
         25    2    1    2    0    0 -0.40218129808E+02 -0.48110481571E+02  0.46873859860E+03  0.48915484488E+03  0.12499788817E+03 0.  0.
          2    1    1    2  501    0  0.65929289342E+02  0.99474807264E+01 -0.18770068464E+03  0.19919129142E+03  0.00000000000E+00 0. -1.
          1    1    1    2  502    0 -0.25711159534E+02  0.38163000845E+02  0.21255919569E+03  0.21748307988E+03  0.00000000000E+00 0. -1.
         22    1    3    3    0    0 -0.42102154836E+02 -0.24673783787E+02  0.50391836976E+02  0.70147874394E+02  0.00000000000E+00 0.  1.
         22    1    3    3    0    0  0.18840250275E+01 -0.23436697785E+02  0.41834676162E+03  0.41900697048E+03  0.00000000000E+00 0.  1.
</event>
<event>
 7    1  0.6067783E-006  0.8500167E+02  0.7818608E-02  0.1385713E+00
          2   -1    0    0  502    0  0.00000000000E+00  0.00000000000E+00  0.13552430964E+04  0.13552430964E+04  0.00000000000E+00 0. -1.
          1   -1    0    0  501    0 -0.00000000000E+00 -0.00000000000E+00 -0.21339341280E+03  0.21339341280E+03  0.00000000000E+00 0. -1.
         25    2    1    2    0    0  0.78050640771E+02 -0.93539175869E+02  0.31740547768E+02  0.17741616169E+03  0.12501020802E+03 0.  0.
          2    1    1    2  501    0 -0.84152214423E+01  0.45907117727E+02 -0.13521415917E+03  0.14304247009E+03  0.00000000000E+00 0. -1.
          1    1    1    2  502    0 -0.69635419328E+02  0.47632058142E+02  0.12453232951E+04  0.12481778775E+04  0.00000000000E+00 0. -1.
         22    1    3    3    0    0 -0.16522329672E+02  0.17681496342E+02  0.19188735361E+02  0.30884142459E+02  0.00000000000E+00 0.  1.
         22    1    3    3    0    0  0.94572970442E+02 -0.11122067221E+03  0.12551812407E+02  0.14653201923E+03  0.00000000000E+00 0.  1.
</event>
<event>
 7    1  0.6067783E-006  0.1362159E+03  0.7818608E-02  0.1282065E+00
          2   -1    0    0  502    0  0.00000000000E+00  0.00000000000E+00  0.15646650119E+04  0.15646650119E+04  0.00000000000E+00 0. -1.
          1   -1    0    0  501    0 -0.00000000000E+00 -0.00000000000E+00 -0.24249465710E+04  0.24249465710E+04  0.00000000000E+00 0. -1.
         25    2    1    2    0    0 -0.18282913270E+03  0.91657393433E+02  0.18710445872E+03  0.30407256634E+03  0.12499791035E+03 0.  0.
          2    1    1    2  501    0  0.64967321321E+02 -0.31474683402E+02 -0.23625905598E+04  0.23636932038E+04  0.00000000000E+00 0. -1.
          1    1    1    2  502    0  0.11786181138E+03 -0.60182710031E+02  0.13152045420E+04  0.13218458127E+04  0.00000000000E+00 0. -1.
         22    1    3    3    0    0 -0.14256657676E+03  0.33836373653E+02  0.59177146454E+02  0.15802551583E+03  0.00000000000E+00 0.  1.
         22    1    3    3    0    0 -0.40262555943E+02  0.57821019781E+02  0.12792731226E+03  0.14604705051E+03  0.00000000000E+00 0.  1.
</event>
<event>
 7    1  0.6067783E-006  0.2314490E+03  0.7818608E-02  0.1242091E+00
          2   -1    0    0  502    0  0.00000000000E+00  0.00000000000E+00  0.46961559407E+03  0.46961559407E+03  0.00000000000E+00 0. -1.
          1   -1    0    0  501    0 -0.00000000000E+00 -0.00000000000E+00 -0.13351104955E+04  0.13351104955E+04  0.00000000000E+00 0. -1.
         25    2    1    2    0    0 -0.87471379936E+02  0.21744283150E+03  0.21823394668E+03  0.34377862222E+03  0.12500023334E+03 0.  0.
          2    1    1    2  501    0  0.25925515873E+02 -0.23019243894E+03 -0.12562004923E+04  0.12773802754E+04  0.00000000000E+00 0. -1.
          1    1    1    2  502    0  0.61545864063E+02  0.12749607440E+02  0.17247164420E+03  0.18356719186E+03  0.00000000000E+00 0. -1.
         22    1    3    3    0    0 -0.10764735420E+03  0.17245898964E+03  0.12595156236E+03  0.23915236155E+03  0.00000000000E+00 0. -1.
         22    1    3    3    0    0  0.20175974266E+02  0.44983841857E+02  0.92282384317E+02  0.10462626067E+03  0.00000000000E+00 0. -1.
</event>
<event>
 7    1  0.6067783E-006  0.4709515E+02  0.7818608E-02  0.1476719E+00
          2   -1    0    0  502    0  0.00000000000E+00  0.00000000000E+00  0.10595023189E+04  0.10595023189E+04  0.00000000000E+00 0. -1.
          1   -1    0    0  501    0 -0.00000000000E+00 -0.00000000000E+00 -0.72351413593E+03  0.72351413593E+03  0.00000000000E+00 0. -1.
         25    2    1    2    0    0  0.76169419387E+02 -0.42440667437E+02 -0.51846095547E+02  0.16098450960E+03  0.12500001602E+03 0.  0.
          2    1    1    2  501    0 -0.40562584103E+02  0.11919386347E+02 -0.61582653359E+03  0.61727604398E+03  0.00000000000E+00 0. -1.
          1    1    1    2  502    0 -0.35606835283E+02  0.30521281090E+02  0.10036608121E+04  0.10047559013E+04  0.00000000000E+00 0. -1.
         22    1    3    3    0    0 -0.31440859407E+02 -0.16582065436E+02  0.60900767440E+01  0.36063576765E+02  0.00000000000E+00 0. -1.
         22    1    3    3    0    0  0.10761027879E+03 -0.25858602001E+02 -0.57936172291E+02  0.12492093283E+03  0.00000000000E+00 0. -1.
</event>
<event>
 7    1  0.6067783E-006  0.6193535E+02  0.7818608E-02  0.1440357E+00
          2   -1    0    0  502    0  0.00000000000E+00  0.00000000000E+00  0.69515792677E+03  0.69515792677E+03  0.00000000000E+00 0. -1.
          1   -1    0    0  501    0 -0.00000000000E+00 -0.00000000000E+00 -0.12219043008E+03  0.12219043008E+03  0.00000000000E+00 0. -1.
         25    2    1    2    0    0  0.13130293436E+02  0.36220194302E+02  0.14624527862E+03  0.19620069944E+03  0.12499090311E+03 0.  0.
          2    1    1    2  501    0  0.41814158277E+02 -0.25234680754E+01 -0.90605293433E+02  0.99820393315E+02  0.00000000000E+00 0. -1.
          1    1    1    2  502    0 -0.54944451714E+02 -0.33696726226E+02  0.51732751150E+03  0.52132726409E+03  0.00000000000E+00 0. -1.
         22    1    3    3    0    0  0.43001758618E+02  0.37522265535E+02  0.15489544512E+03  0.16507474239E+03  0.00000000000E+00 0. -1.
         22    1    3    3    0    0 -0.29871465181E+02 -0.13020712336E+01 -0.86501665033E+01  0.31125957047E+02  0.00000000000E+00 0. -1.
</event>
<event>
 7    1  0.6067783E-006  0.6328704E+02  0.7818608E-02  0.1485795E+00
          2   -1    0    0  502    0  0.00000000000E+00  0.00000000000E+00  0.20789375824E+04  0.20789375824E+04  0.00000000000E+00 0. -1.
          1   -1    0    0  501    0 -0.00000000000E+00 -0.00000000000E+00 -0.16537423247E+03  0.16537423247E+03  0.00000000000E+00 0. -1.
         25    2    1    2    0    0 -0.43677341180E+02 -0.14072605813E+02  0.56184505487E+03  0.57740736401E+03  0.12499459972E+03 0.  0.
          2    1    1    2  501    0  0.62995865046E+02 -0.82359884291E+01 -0.15103926231E+03  0.16385716120E+03  0.00000000000E+00 0. -1.
          1    1    1    2  502    0 -0.19318523866E+02  0.22308594243E+02  0.15027575574E+04  0.15030472897E+04  0.00000000000E+00 0. -1.
         22    1    3    3    0    0 -0.20331962002E+02 -0.31858531562E+01  0.66683948251E+01  0.21633442369E+02  0.00000000000E+00 0.  1.
         22    1    3    3    0    0 -0.23345379178E+02 -0.10886752657E+02  0.55517666005E+03  0.55577392164E+03  0.00000000000E+00 0.  1.
</event>
<event>
 7    1  0.6067783E-006  0.1729194E+03  0.7818608E-02  0.1291107E+00
          2   -1    0    0  502    0  0.00000000000E+00  0.00000000000E+00  0.65396355952E+03  0.65396355952E+03  0.00000000000E+00 0. -1.
          1   -1    0    0  501    0 -0.00000000000E+00 -0.00000000000E+00 -0.25757055678E+03  0.25757055678E+03  0.00000000000E+00 0. -1.
         25    2    1    2    0    0  0.13341870762E+03  0.36303031000E+01  0.24100004736E+03  0.30252223872E+03  0.12499980581E+03 0.  0.
          2    1    1    2  501    0 -0.17469264420E+03 -0.35630045165E+02 -0.18950010835E+03  0.26018706948E+03  0.00000000000E+00 0. -1.
          1    1    1    2  502    0  0.41273936585E+02  0.31999742065E+02  0.34489306374E+03  0.34882480810E+03  0.00000000000E+00 0. -1.
         22    1    3    3    0    0  0.11341095725E+03  0.66384271676E+01  0.25415447673E+03  0.27838931729E+03  0.00000000000E+00 0.  1.
         22    1    3    3    0    0  0.20007750368E+02 -0.30081240676E+01 -0.13154429365E+02  0.24132921438E+02  0.00000000000E+00 0.  1.
</event>
<event>
 7    1  0.6067783E-006  0.7465819E+02  0.7818608E-02  0.1463013E+00
          2   -1    0    0  502    0  0.00000000000E+00  0.00000000000E+00  0.43817417066E+03  0.43817417066E+03  0.00000000000E+00 0. -1.
          1   -1    0    0  501    0 -0.00000000000E+00 -0.00000000000E+00 -0.33870131803E+03  0.33870131803E+03  0.00000000000E+00 0. -1.
         25    2    1    2    0    0  0.98197398277E+02  0.24539717181E+02  0.16542163283E+02  0.16169069783E+03  0.12500124739E+03 0.  0.
          2    1    1    2  501    0 -0.25616390275E+02 -0.14470112458E+02 -0.26144721951E+03  0.26309738158E+03  0.00000000000E+00 0. -1.
          1    1    1    2  502    0 -0.72581008002E+02 -0.10069604723E+02  0.34437790886E+03  0.35208740928E+03  0.00000000000E+00 0. -1.
         22    1    3    3    0    0  0.10465791995E+03  0.46310719206E+02 -0.22393220614E+02  0.11661654793E+03  0.00000000000E+00 0.  1.
         22    1    3    3    0    0 -0.64605216752E+01 -0.21771002025E+02  0.38935383897E+02  0.45074149894E+02  0.00000000000E+00 0.  1.
</event>
<event>
 7    1  0.6067783E-006  0.1241230E+03  0.7818608E-02  0.1435504E+00
          2   -1    0    0  502    0  0.00000000000E+00  0.00000000000E+00  0.23219617359E+03  0.23219617359E+03  0.00000000000E+00 0. -1.
          1   -1    0    0  501    0 -0.00000000000E+00 -0.00000000000E+00 -0.12340097265E+04  0.12340097265E+04  0.00000000000E+00 0. -1.
         25    2    1    2    0    0  0.13184015698E+03 -0.56492950043E+02 -0.37080138619E+03  0.41676345377E+03  0.12499931202E+03 0.  0.
          2    1    1    2  501    0 -0.21636643985E+02  0.13193638773E+01 -0.82192209947E+03  0.82220789505E+03  0.00000000000E+00 0. -1.
          1    1    1    2  502    0 -0.11020351300E+03  0.55173586166E+02  0.19090993273E+03  0.22723455129E+03  0.00000000000E+00 0. -1.
         22    1    3    3    0    0  0.86233152220E+02 -0.68216140270E+02 -0.34699372247E+03  0.36399758484E+03  0.00000000000E+00 0.  1.
         22    1    3    3    0    0  0.45607004762E+02  0.11723190227E+02 -0.23807663715E+02  0.52765868931E+02  0.00000000000E+00 0.  1.
</event>
<event>
 7    1  0.6067783E-006  0.7759618E+02  0.7818608E-02  0.1395553E+00
          2   -1    0    0  502    0  0.00000000000E+00  0.00000000000E+00  0.68201818692E+03  0.68201818692E+03  0.00000000000E+00 0. -1.
          1   -1    0    0  501    0 -0.00000000000E+00 -0.00000000000E+00 -0.32348183062E+03  0.32348183062E+03  0.00000000000E+00 0. -1.
         25    2    1    2    0    0  0.31693282442E+02  0.40797155762E+02 -0.18555903923E+02  0.13651992874E+03  0.12499798919E+03 0.  0.
          2    1    1    2  501    0 -0.28257876653E+02  0.37859798494E+02 -0.24115548329E+03  0.24573937221E+03  0.00000000000E+00 0. -1.
          1    1    1    2  502    0 -0.34354057886E+01 -0.78656954257E+02  0.61824774351E+03  0.62324071659E+03  0.00000000000E+00 0. -1.
         22    1    3    3    0    0 -0.17968758003E+02  0.24058726533E+02 -0.61712517312E+02  0.68630411477E+02  0.00000000000E+00 0.  1.
         22    1    3    3    0    0  0.49662040445E+02  0.16738429230E+02  0.43156613389E+02  0.67889517258E+02  0.00000000000E+00 0.  1.
</event>
<event>
 7    1  0.6067783E-006  0.1936054E+03  0.7818608E-02  0.1382173E+00
          2   -1    0    0  502    0  0.00000000000E+00  0.00000000000E+00  0.29694852312E+04  0.29694852312E+04  0.00000000000E+00 0. -1.
          1   -1    0    0  501    0 -0.00000000000E+00 -0.00000000000E+00 -0.47677192143E+03  0.47677192143E+03  0.00000000000E+00 0. -1.
         25    2    1    2    0    0  0.19952600044E+03 -0.43748802578E+02  0.77938401454E+03  0.81534576059E+03  0.12499873842E+03 0.  0.
          2    1    1    2  501    0 -0.16811912694E+02 -0.12730121948E+02 -0.45433649390E+03  0.45482562164E+03  0.00000000000E+00 0. -1.
          1    1    1    2  502    0 -0.18271408775E+03  0.56478924526E+02  0.21676657891E+04  0.21760857704E+04  0.00000000000E+00 0. -1.
         22    1    3    3    0    0  0.11727248751E+03 -0.59398882968E+02  0.28416946646E+03  0.31310277753E+03  0.00000000000E+00 0.  1.
         22    1    3    3    0    0  0.82253512931E+02  0.15650080390E+02  0.49521454808E+03  0.50224298306E+03  0.00000000000E+00 0.  1.
</event>
<event>
 7    1  0.6067783E-006  0.5398361E+02  0.7818608E-02  0.1430303E+00
          2   -1    0    0  502    0  0.00000000000E+00  0.00000000000E+00  0.91850760859E+03  0.91850760859E+03  0.00000000000E+00 0. -1.
          1   -1    0    0  501    0 -0.00000000000E+00 -0.00000000000E+00 -0.49797024225E+03  0.49797024225E+03  0.00000000000E+00 0. -1.
         25    2    1    2    0    0 -0.25852005704E+02  0.51034115464E+02 -0.15116287858E+03  0.20433221373E+03  0.12501452143E+03 0.  0.
          2    1    1    2  501    0 -0.25956337669E+02 -0.49323816247E+02 -0.31703642772E+03  0.32189853497E+03  0.00000000000E+00 0. -1.
          1    1    1    2  502    0  0.51808343373E+02 -0.17102992175E+01  0.88873667264E+03  0.89024710214E+03  0.00000000000E+00 0. -1.
         22    1    3    3    0    0 -0.62804805088E+02 -0.58753639212E+01 -0.10421971856E+03  0.12182246583E+03  0.00000000000E+00 0. -1.
         22    1    3    3    0    0  0.36952799384E+02  0.56909479385E+02 -0.46943160014E+02  0.82509747899E+02  0.00000000000E+00 0. -1.
</event>
<event>
 7    1  0.9944423E-006  0.7078370E+02  0.7818608E-02  0.1374185E+00
          2   -1    0    0  502    0  0.00000000000E+00  0.00000000000E+00  0.10140616720E+04  0.10140616720E+04  0.00000000000E+00 0. -1.
          1   -1    0    0  501    0 -0.00000000000E+00 -0.00000000000E+00 -0.13613672868E+04  0.13613672868E+04  0.00000000000E+00 0. -1.
         25    2    1    2    0    0 -0.92761730724E+02 -0.93758268862E+02 -0.43096630080E+03  0.46770988540E+03  0.12500093123E+03 0.  0.
          2    1    1    2  501    0  0.46321190797E+02  0.40564198354E+02 -0.90973527885E+03  0.91181653006E+03  0.00000000000E+00 0. -1.
          1    1    1    2  502    0  0.46440539926E+02  0.53194070508E+02  0.99339596487E+03  0.99590254338E+03  0.00000000000E+00 0. -1.
         22    1    3    3    0    0 -0.10919190306E+03 -0.31454730129E+02 -0.22775858513E+03  0.25453142211E+03  0.00000000000E+00 0. -1.
         22    1    3    3    0    0  0.16430172339E+02 -0.62303538733E+02 -0.20320771568E+03  0.21317846329E+03  0.00000000000E+00 0. -1.
</event>
<event>
 7    1  0.6067783E-006  0.2109339E+03  0.7818608E-02  0.1290982E+00
          2   -1    0    0  502    0  0.00000000000E+00  0.00000000000E+00  0.35779997090E+03  0.35779997090E+03  0.00000000000E+00 0. -1.
          1   -1    0    0  501    0 -0.00000000000E+00 -0.00000000000E+00 -0.69925459200E+03  0.69925459200E+03  0.00000000000E+00 0. -1.
         25    2    1    2    0    0  0.38618181606E+02  0.18874551514E+03 -0.49593748737E+02  0.23494726860E+03  0.12499778268E+03 0.  0.
          2    1    1    2  501    0 -0.51878712732E+01 -0.21557304775E+03 -0.53416155024E+03  0.57604445547E+03  0.00000000000E+00 0. -1.
          1    1    1    2  502    0 -0.33430310332E+02  0.26827532612E+02  0.24230067788E+03  0.24606283883E+03  0.00000000000E+00 0. -1.
         22    1    3    3    0    0 -0.32349822330E+02  0.92848433813E+02  0.14714692281E+02  0.99417628393E+02  0.00000000000E+00 0. -1.
         22    1    3    3    0    0  0.70968003935E+02  0.95897081325E+02 -0.64308441018E+02  0.13552964021E+03  0.00000000000E+00 0. -1.
</event>
<event>
 7    1  0.6067783E-006  0.4723623E+02  0.7818608E-02  0.1504654E+00
          2   -1    0    0  502    0  0.00000000000E+00  0.00000000000E+00  0.90553916475E+03  0.90553916475E+03  0.00000000000E+00 0. -1.
          1   -1    0    0  501    0 -0.00000000000E+00 -0.00000000000E+00 -0.25441859329E+03  0.25441859329E+03  0.00000000000E+00 0. -1.
         25    2    1    2    0    0  0.37358290354E+02  0.27839642562E+02  0.16623823171E+03  0.21314596352E+03  0.12500145809E+03 0.  0.
          2    1    1    2  501    0  0.10010203388E+02 -0.33227980842E+02 -0.22886146570E+03  0.23147758717E+03  0.00000000000E+00 0. -1.
          1    1    1    2  502    0 -0.47368493742E+02  0.53883382808E+01  0.71374380544E+03  0.71533420735E+03  0.00000000000E+00 0. -1.
         22    1    3    3    0    0  0.82799917420E+02  0.97371779228E+01  0.11770179989E+03  0.14423714035E+03  0.00000000000E+00 0.  1.
         22    1    3    3    0    0 -0.45441627066E+02  0.18102464639E+02  0.48536431823E+02  0.68908823168E+02  0.00000000000E+00 0.  1.
</event>
<event>
 7    1  0.6067783E-006  0.1533611E+03  0.7818608E-02  0.1359615E+00
          2   -1    0    0  502    0  0.00000000000E+00  0.00000000000E+00  0.16686159162E+04  0.16686159162E+04  0.00000000000E+00 0. -1.
          1   -1    0    0  501    0 -0.00000000000E+00 -0.00000000000E+00 -0.11088077476E+04  0.11088077476E+04  0.00000000000E+00 0. -1.
         25    2    1    2    0    0 -0.19423677944E+02 -0.13436341159E+03  0.13318761785E+03  0.22758454286E+03  0.12499990785E+03 0.  0.
          2    1    1    2  501    0 -0.29425643677E+02 -0.12775572263E+02 -0.10573276533E+04  0.10578141851E+04  0.00000000000E+00 0. -1.
          1    1    1    2  502    0  0.48849321621E+02  0.14713898385E+03  0.14839482041E+04  0.14920249359E+04  0.00000000000E+00 0. -1.
         22    1    3    3    0    0  0.40237247459E+02 -0.37511128532E+01  0.36661520735E+02  0.54563486265E+02  0.00000000000E+00 0.  1.
         22    1    3    3    0    0 -0.59660925403E+02 -0.13061229874E+03  0.96526097119E+02  0.17302105660E+03  0.00000000000E+00 0.  1.
</event>
<event>
 7    1  0.6067783E-006  0.6384502E+02  0.7818608E-02  0.1437497E+00
          2   -1    0    0  502    0  0.00000000000E+00  0.00000000000E+00  0.42749439889E+02  0.42749439889E+02  0.00000000000E+00 0. -1.
          1   -1    0    0  501    0 -0.00000000000E+00 -0.00000000000E+00 -0.10913555307E+04  0.10913555307E+04  0.00000000000E+00 0. -1.
         25    2    1    2    0    0  0.95461385927E+02 -0.78087991989E+01 -0.35548024872E+03  0.38879929552E+03  0.12499932566E+03 0.  0.
          2    1    1    2  501    0 -0.56972466982E+02  0.23372051832E+02 -0.70044698237E+03  0.70314869687E+03  0.00000000000E+00 0. -1.
          1    1    1    2  502    0 -0.38488918946E+02 -0.15563252633E+02  0.73211403005E+01  0.42156978182E+02  0.00000000000E+00 0. -1.
         22    1    3    3    0    0  0.47417274376E+02 -0.22968950938E+02 -0.32640906328E+03  0.33063400794E+03  0.00000000000E+00 0. -1.
         22    1    3    3    0    0  0.48044111552E+02  0.15160151739E+02 -0.29071185440E+02  0.58165287573E+02  0.00000000000E+00 0. -1.
</event>
<event>
 7    1  0.6067783E-006  0.1789672E+03  0.7818608E-02  0.1299874E+00
          2   -1    0    0  502    0  0.00000000000E+00  0.00000000000E+00  0.95244586609E+03  0.95244586609E+03  0.00000000000E+00 0. -1.
          1   -1    0    0  501    0 -0.00000000000E+00 -0.00000000000E+00 -0.20589434229E+03  0.20589434229E+03  0.00000000000E+00 0. -1.
         25    2    1    2    0    0  0.15098069649E+03 -0.76575397845E+02  0.53060786733E+03  0.57081437223E+03  0.12500150559E+03 0.  0.
          2    1    1    2  501    0  0.35816706775E+02  0.29680882541E+02 -0.15918702806E+03  0.16584420754E+03  0.00000000000E+00 0. -1.
          1    1    1    2  502    0 -0.18679740327E+03  0.46894515304E+02  0.37513068453E+03  0.42168162862E+03  0.00000000000E+00 0. -1.
         22    1    3    3    0    0  0.16072842440E+03 -0.55162535679E+02  0.35430437239E+03  0.39294798644E+03  0.00000000000E+00 0. -1.
         22    1    3    3    0    0 -0.97477279046E+01 -0.21412862166E+02  0.17630349494E+03  0.17786638579E+03  0.00000000000E+00 0. -1.
</event>
<event>
 7    1  0.6067783E-006  0.7566087E+02  0.7818608E-02  0.1411938E+00
          2   -1    0    0  502    0  0.00000000000E+00  0.00000000000E+00  0.21595859258E+03  0.21595859258E+03  0.00000000000E+00 0. -1.
          1   -1    0    0  501    0 -0.00000000000E+00 -0.00000000000E+00 -0.33841167495E+03  0.33841167495E+03  0.00000000000E+00 0. -1.
         25    2    1    2    0    0  0.69119215841E+02 -0.72695256862E+01 -0.43811594959E+02  0.14958268897E+03  0.12500085194E+03 0.  0.
          2    1    1    2  501    0 -0.40527568999E+00  0.42584146599E+02 -0.23050290212E+03  0.23440384313E+03  0.00000000000E+00 0. -1.
          1    1    1    2  502    0 -0.68713940151E+02 -0.35314620913E+02  0.15186141471E+03  0.17038373543E+03  0.00000000000E+00 0. -1.
         22    1    3    3    0    0  0.48690820074E+02 -0.13084742068E+02  0.39220585302E+02  0.63876918726E+02  0.00000000000E+00 0. -1.
         22    1    3    3    0    0  0.20428395768E+02  0.58152163817E+01 -0.83032180261E+02  0.85705770249E+02  0.00000000000E+00 0. -1.
</event>
<event>
 7    1  0.6067783E-006  0.1077979E+03  0.7818608E-02  0.1337002E+00
          2   -1    0    0  502    0  0.00000000000E+00  0.00000000000E+00  0.53126245947E+03  0.53126245947E+03  0.00000000000E+00 0. -1.
          1   -1    0    0  501    0 -0.00000000000E+00 -0.00000000000E+00 -0.15446835911E+03  0.15446835911E+03  0.00000000000E+00 0. -1.
         25    2    1    2    0    0 -0.64756824594E+02  0.59103566956E+02  0.65291486585E+02  0.16605448929E+03  0.12499774892E+03 0.  0.
          2    1    1    2  501    0  0.28702897376E+02  0.47358980697E+02 -0.88380108071E+02  0.10429656213E+03  0.00000000000E+00 0. -1.
          1    1    1    2  502    0  0.36053927218E+02 -0.10646254765E+03  0.39988272185E+03  0.41537976715E+03  0.00000000000E+00 0. -1.
         22    1    3    3    0    0 -0.50623467524E+02  0.87919720124E+02  0.97676081527E+01  0.10192163078E+03  0.00000000000E+00 0. -1.
         22    1    3    3    0    0 -0.14133357070E+02 -0.28816153168E+02  0.55523878432E+02  0.64132858518E+02  0.00000000000E+00 0. -1.
</event>
<event>
 7    1  0.6067783E-006  0.1321476E+03  0.7818608E-02  0.1373454E+00
          2   -1    0    0  502    0  0.00000000000E+00  0.00000000000E+00  0.97743716379E+03  0.97743716379E+03  0.00000000000E+00 0. -1.
          1   -1    0    0  501    0 -0.00000000000E+00 -0.00000000000E+00 -0.31652316136E+03  0.31652316136E+03  0.00000000000E+00 0. -1.
         25    2    1    2    0    0 -0.90667258215E+02 -0.12648675255E+03  0.83156691220E+02  0.21624063450E+03  0.12500210571E+03 0.  0.
          2    1    1    2  501    0  0.31580550795E+02  0.10176209632E+02 -0.24370975813E+03  0.24595798958E+03  0.00000000000E+00 0. -1.
          1    1    1    2  502    0  0.59086707421E+02  0.11631054292E+03  0.82146706933E+03  0.83176170108E+03  0.00000000000E+00 0. -1.
         22    1    3    3    0    0 -0.51449721389E+02  0.38740941951E+01  0.58309678651E+02  0.77859495639E+02  0.00000000000E+00 0. -1.
         22    1    3    3    0    0 -0.39217536826E+02 -0.13036084674E+03  0.24847012569E+02  0.13838113886E+03  0.00000000000E+00 0. -1.
</event>
<event>
 7    1  0.6067783E-006  0.5860987E+02  0.7818608E-02  0.1423616E+00
          2   -1    0    0  502    0  0.00000000000E+00  0.00000000000E+00  0.17488510353E+03  0.17488510353E+03  0.00000000000E+00 0. -1.
          1   -1    0    0  501    0 -0.00000000000E+00 -0.00000000000E+00 -0.32563416831E+03  0.32563416831E+03  0.00000000000E+00 0. -1.
         25    2    1    2    0    0 -0.70018799417E+02 -0.86478568484E+01 -0.13143249962E+00  0.14353753139E+03  0.12500235175E+03 0.  0.
          2    1    1    2  501    0  0.46785794466E+02 -0.35896026783E+02 -0.24395590735E+03  0.25098191176E+03  0.00000000000E+00 0. -1.
          1    1    1    2  502    0  0.23233004952E+02  0.44543883631E+02  0.93338275073E+02  0.10599982869E+03  0.00000000000E+00 0. -1.
         22    1    3    3    0    0 -0.75362346261E+01  0.54231136758E+02  0.30374413366E+01  0.54836457547E+02  0.00000000000E+00 0. -1.
         22    1    3    3    0    0 -0.62482564791E+02 -0.62878993606E+02 -0.31688738362E+01  0.88701073845E+02  0.00000000000E+00 0. -1.
</event>
<event>
 7    1  0.6067783E-006  0.1093141E+03  0.7818608E-02  0.1460325E+00
          2   -1    0    0  502    0  0.00000000000E+00  0.00000000000E+00  0.21563271759E+04  0.21563271759E+04  0.00000000000E+00 0. -1.
          1   -1    0    0  501    0 -0.00000000000E+00 -0.00000000000E+00 -0.21817536523E+03  0.21817536523E+03  0.00000000000E+00 0. -1.
         25    2    1    2    0    0  0.98500518207E+02 -0.60985659794E+02 -0.10904001520E+03  0.20232754222E+03  0.12500042655E+03 0.  0.
          2    1    1    2  501    0  0.29053991289E+01  0.20281646181E+02 -0.59357222782E+02  0.62793840560E+02  0.00000000000E+00 0. -1.
          1    1    1    2  502    0 -0.10140591734E+03  0.40704013613E+02  0.21065490486E+04  0.21093811583E+04  0.00000000000E+00 0. -1.
         22    1    3    3    0    0  0.28573421942E+02  0.32179501356E+02 -0.39295706719E+00  0.43036207596E+02  0.00000000000E+00 0. -1.
         22    1    3    3    0    0  0.69927096265E+02 -0.93165161150E+02 -0.10864705814E+03  0.15929133462E+03  0.00000000000E+00 0. -1.
</event>
<event>
 7    1  0.6067783E-006  0.9179981E+02  0.7818608E-02  0.1435992E+00
          2   -1    0    0  502    0  0.00000000000E+00  0.00000000000E+00  0.66702157413E+03  0.66702157413E+03  0.00000000000E+00 0. -1.
          1   -1    0    0  501    0 -0.00000000000E+00 -0.00000000000E+00 -0.65765078627E+02  0.65765078627E+02  0.00000000000E+00 0. -1.
         25    2    1    2    0    0 -0.83192110378E+02  0.29146749195E+02  0.38408693426E+03  0.41342279660E+03  0.12500070185E+03 0.  0.
          2    1    1    2  501    0  0.73306905439E+02 -0.56624681270E+02 -0.73802283238E+01  0.92923219295E+02  0.00000000000E+00 0. -1.
          1    1    1    2  502    0  0.98852049386E+01  0.27477932076E+02  0.22454978957E+03  0.22644063686E+03  0.00000000000E+00 0. -1.
         22    1    3    3    0    0  0.31448479118E+02  0.15880621138E+02  0.12345156178E+03  0.12838025188E+03  0.00000000000E+00 0. -1.
         22    1    3    3    0    0 -0.11464058950E+03  0.13266128057E+02  0.26063537248E+03  0.28504254472E+03  0.00000000000E+00 0. -1.
</event>
<event>
 7    1  0.6067783E-006  0.6468556E+02  0.7818608E-02  0.1485116E+00
          2   -1    0    0  502    0  0.00000000000E+00  0.00000000000E+00  0.21482319324E+03  0.21482319324E+03  0.00000000000E+00 0. -1.
          1   -1    0    0  501    0 -0.00000000000E+00 -0.00000000000E+00 -0.37095328266E+03  0.37095328266E+03  0.00000000000E+00 0. -1.
         25    2    1    2    0    0 -0.53352366559E+02 -0.61134651511E+01  0.97359914477E+02  0.16729674676E+03  0.12500159622E+03 0.  0.
          2    1    1    2  501    0  0.61325448030E+02 -0.21779632107E+02 -0.33015590292E+03  0.33650866732E+03  0.00000000000E+00 0. -1.
          1    1    1    2  502    0 -0.79730814711E+01  0.27893097258E+02  0.76665899020E+02  0.81971061817E+02  0.00000000000E+00 0. -1.
         22    1    3    3    0    0 -0.98581854036E+01 -0.59137286874E+02  0.73124632123E+02  0.94560109673E+02  0.00000000000E+00 0. -1.
         22    1    3    3    0    0 -0.43494181155E+02  0.53023821723E+02  0.24235282354E+02  0.72736637091E+02  0.00000000000E+00 0. -1.
</event>
<event>
 7    1  0.6067783E-006  0.6019192E+02  0.7818608E-02  0.1473671E+00
          2   -1    0    0  502    0  0.00000000000E+00  0.00000000000E+00  0.17065317910E+04  0.17065317910E+04  0.00000000000E+00 0. -1.
          1   -1    0    0  501    0 -0.00000000000E+00 -0.00000000000E+00 -0.54355692262E+02  0.54355692262E+02  0.00000000000E+00 0. -1.
         25    2    1    2    0    0  0.75272904847E+01 -0.27494830499E+02  0.33870418785E+03  0.36215837063E+03  0.12500213097E+03 0.  0.
          2    1    1    2  501    0 -0.13789109870E+02  0.60713289951E+02 -0.19566854123E+02  0.65261818147E+02  0.00000000000E+00 0. -1.
          1    1    1    2  502    0  0.62618193853E+01 -0.33218459452E+02  0.13330387650E+04  0.13334672945E+04  0.00000000000E+00 0. -1.
         22    1    3    3    0    0 -0.47072889429E+02  0.22127675403E+02  0.10666034275E+03  0.11866726446E+03  0.00000000000E+00 0. -1.
         22    1    3    3    0    0  0.54600179914E+02 -0.49622505902E+02  0.23204384510E+03  0.24349110618E+03  0.00000000000E+00 0. -1.
</event>
<event>
 7    1  0.6067783E-006  0.1428719E+03  0.7818608E-02  0.1375110E+00
          2   -1    0    0  502    0  0.00000000000E+00  0.00000000000E+00  0.84914553837E+03  0.84914553837E+03  0.00000000000E+00 0. -1.
          1   -1    0    0  501    0 -0.00000000000E+00 -0.00000000000E+00 -0.31069017221E+03  0.31069017221E+03  0.00000000000E+00 0. -1.
         25    2    1    2    0    0 -0.32137089528E+02  0.16175841446E+03  0.25296429447E+02  0.20847579318E+03  0.12499467919E+03 0.  0.
          2    1    1    2  501    0  0.21989730673E+02 -0.20807738488E+02 -0.21119306223E+03  0.21335186845E+03  0.00000000000E+00 0. -1.
          1    1    1    2  502    0  0.10147358855E+02 -0.14095067597E+03  0.72435199894E+03  0.73800804895E+03  0.00000000000E+00 0. -1.
         22    1    3    3    0    0 -0.52404761635E+02  0.11941569100E+03  0.66166485203E+02  0.14623395660E+03  0.00000000000E+00 0. -1.
         22    1    3    3    0    0  0.20267672107E+02  0.42342723458E+02 -0.40870055756E+02  0.62241836573E+02  0.00000000000E+00 0. -1.
</event>
<event>
 7    1  0.6067783E-006  0.4378502E+02  0.7818608E-02  0.1491962E+00
          2   -1    0    0  502    0  0.00000000000E+00  0.00000000000E+00  0.89168242861E+02  0.89168242861E+02  0.00000000000E+00 0. -1.
          1   -1    0    0  501    0 -0.00000000000E+00 -0.00000000000E+00 -0.47847037489E+03  0.47847037489E+03  0.00000000000E+00 0. -1.
         25    2    1    2    0    0 -0.17714572582E+02  0.26288958198E+02  0.38977983510E+01  0.12898729741E+03  0.12497045514E+03 0.  0.
          2    1    1    2  501    0  0.38740177319E+02  0.20404087518E+02 -0.38416463039E+03  0.38665177016E+03  0.00000000000E+00 0. -1.
          1    1    1    2  502    0 -0.21025604736E+02 -0.46693045716E+02 -0.90352999920E+01  0.51999550178E+02  0.00000000000E+00 0. -1.
         22    1    3    3    0    0 -0.13090907409E+02  0.48974632681E+02 -0.49458840963E+02  0.70824172797E+02  0.00000000000E+00 0. -1.
         22    1    3    3    0    0 -0.46236651736E+01 -0.22685674482E+02  0.53356639313E+02  0.58163124617E+02  0.00000000000E+00 0. -1.
</event>
<event>
 7    1  0.6067783E-006  0.5714659E+02  0.7818608E-02  0.1424616E+00
          2   -1    0    0  502    0  0.00000000000E+00  0.00000000000E+00  0.11805922553E+03  0.11805922553E+03  0.00000000000E+00 0. -1.
          1   -1    0    0  501    0 -0.00000000000E+00 -0.00000000000E+00 -0.12626042569E+04  0.12626042569E+04  0.00000000000E+00 0. -1.
         25    2    1    2    0    0  0.10521469374E+03  0.20420047085E+02 -0.38427553689E+03  0.41806621923E+03  0.12499826124E+03 0.  0.
          2    1    1    2  501    0 -0.49642362173E+02 -0.12255043819E+02 -0.85281151482E+03  0.85434304002E+03  0.00000000000E+00 0. -1.
          1    1    1    2  502    0 -0.55572331567E+02 -0.81650032663E+01  0.92542020316E+02  0.10825422319E+03  0.00000000000E+00 0. -1.
         22    1    3    3    0    0  0.32038289166E+01 -0.41749058290E+02 -0.66574886636E+02  0.78647720363E+02  0.00000000000E+00 0. -1.
         22    1    3    3    0    0  0.10201086482E+03  0.62169105375E+02 -0.31770065025E+03  0.33941849887E+03  0.00000000000E+00 0. -1.
</event>
<event>
 7    1  0.6067783E-006  0.5052223E+02  0.7818608E-02  0.1577705E+00
          2   -1    0    0  502    0  0.00000000000E+00  0.00000000000E+00  0.31356749989E+03  0.31356749989E+03  0.00000000000E+00 0. -1.
          1   -1    0    0  501    0 -0.00000000000E+00 -0.00000000000E+00 -0.38393136821E+03  0.38393136821E+03  0.00000000000E+00 0. -1.
         25    2    1    2    0    0 -0.11508051938E+02 -0.40775858341E+02 -0.86800991260E+02  0.15801499757E+03  0.12505687302E+03 0.  0.
          2    1    1    2  501    0  0.17759963415E+02 -0.95761469193E+01 -0.25881198994E+03  0.25959731321E+03  0.00000000000E+00 0. -1.
          1    1    1    2  502    0 -0.62519114771E+01  0.50352005260E+02  0.27524911287E+03  0.27988655732E+03  0.00000000000E+00 0. -1.
         22    1    3    3    0    0 -0.54899150723E+02 -0.40200299325E+02 -0.91870637129E+02  0.11432495258E+03  0.00000000000E+00 0. -1.
         22    1    3    3    0    0  0.43391098785E+02 -0.57555901559E+00  0.50696458693E+01  0.43690044990E+02  0.00000000000E+00 0. -1.
</event>
<event>
 7    1  0.6067783E-006  0.8860855E+02  0.7818608E-02  0.1386023E+00
          2   -1    0    0  502    0  0.00000000000E+00  0.00000000000E+00  0.43675315873E+03  0.43675315873E+03  0.00000000000E+00 0. -1.
          1   -1    0    0  501    0 -0.00000000000E+00 -0.00000000000E+00 -0.22056063688E+04  0.22056063688E+04  0.00000000000E+00 0. -1.
         25    2    1    2    0    0  0.63704495043E+02 -0.29648864873E+02  0.58424780102E+02  0.15482548147E+03  0.12498062612E+03 0.  0.
          2    1    1    2  501    0 -0.83158115807E+01 -0.43878840106E+02 -0.21507523144E+04  0.21512159406E+04  0.00000000000E+00 0. -1.
          1    1    1    2  502    0 -0.55388683462E+02  0.73527704979E+02  0.32347432419E+03  0.33631810547E+03  0.00000000000E+00 0. -1.
         22    1    3    3    0    0  0.74531361771E+02 -0.86861217345E+01  0.88868296112E+02  0.11630970145E+03  0.00000000000E+00 0.  1.
         22    1    3    3    0    0 -0.10826866729E+02 -0.20962743139E+02 -0.30443516010E+02  0.38515780014E+02  0.00000000000E+00 0.  1.
</event>
<event>
 7    1  0.6067783E-006  0.1076301E+03  0.7818608E-02  0.1310441E+00
          2   -1    0    0  502    0  0.00000000000E+00  0.00000000000E+00  0.14844552162E+03  0.14844552162E+03  0.00000000000E+00 0. -1.
          1   -1    0    0  501    0 -0.00000000000E+00 -0.00000000000E+00 -0.53154380123E+03  0.53154380123E+03  0.00000000000E+00 0. -1.
         25    2    1    2    0    0 -0.70995794995E+02  0.70471828467E+02 -0.21846393622E+03  0.27084418301E+03  0.12499359395E+03 0.  0.
          2    1    1    2  501    0  0.11685140282E+03 -0.17286572985E+02 -0.26298601006E+03  0.28829623209E+03  0.00000000000E+00 0. -1.
          1    1    1    2  502    0 -0.45855607824E+02 -0.53185255481E+02  0.98351666668E+02  0.12084890776E+03  0.00000000000E+00 0. -1.
         22    1    3    3    0    0  0.13546409984E+02 -0.17019298146E+02 -0.11396826223E+01  0.21782116731E+02  0.00000000000E+00 0.  1.
         22    1    3    3    0    0 -0.84542204979E+02  0.87491126612E+02 -0.21732425359E+03  0.24906206628E+03  0.00000000000E+00 0.  1.
</event>
<event>
 7    1  0.6067783E-006  0.8446426E+02  0.7818608E-02  0.1396629E+00
          2   -1    0    0  502    0  0.00000000000E+00  0.00000000000E+00  0.15434924723E+04  0.15434924723E+04  0.00000000000E+00 0. -1.
          1   -1    0    0  501    0 -0.00000000000E+00 -0.00000000000E+00 -0.83843563654E+03  0.83843563654E+03  0.00000000000E+00 0. -1.
         25    2    1    2    0    0  0.45356485053E+02  0.23453759855E+01  0.20502779730E+02  0.13456002632E+03  0.12499330055E+03 0.  0.
          2    1    1    2  501    0 -0.81977959670E+02 -0.24940381714E+02 -0.77874067948E+03  0.78344077912E+03  0.00000000000E+00 0. -1.
          1    1    1    2  502    0  0.36621474617E+02  0.22595005729E+02  0.14632947355E+04  0.14639273034E+04  0.00000000000E+00 0. -1.
         22    1    3    3    0    0 -0.33605485641E+02  0.24308508543E+01 -0.26323925522E+02  0.42757300616E+02  0.00000000000E+00 0. -1.
         22    1    3    3    0    0  0.78961970694E+02 -0.85474868866E-01  0.46826705252E+02  0.91802725704E+02  0.00000000000E+00 0. -1.
</event>
<event>
 7    1  0.6067783E-006  0.1061904E+03  0.7818608E-02  0.1302130E+00
          2   -1    0    0  502    0  0.00000000000E+00  0.00000000000E+00  0.40056811274E+04  0.40056811274E+04  0.00000000000E+00 0. -1.
          1   -1    0    0  501    0 -0.00000000000E+00 -0.00000000000E+00 -0.20152806881E+03  0.20152806881E+03  0.00000000000E+00 0. -1.
         25    2    1    2    0    0  0.82635705628E+02 -0.13205804083E+03  0.97941876761E+03  0.99957727965E+03  0.12500251853E+03 0.  0.
          2    1    1    2  501    0 -0.89873557534E+02  0.55614827977E+02 -0.17633373670E+03  0.20558174076E+03  0.00000000000E+00 0. -1.
          1    1    1    2  502    0  0.72378519055E+01  0.76443212854E+02  0.30010680277E+04  0.30020501758E+04  0.00000000000E+00 0. -1.
         22    1    3    3    0    0  0.74045468439E+02 -0.12597471798E+03  0.52279930575E+03  0.54283650859E+03  0.00000000000E+00 0. -1.
         22    1    3    3    0    0  0.85902371898E+01 -0.60833228508E+01  0.45661946186E+03  0.45674077106E+03  0.00000000000E+00 0. -1.
</event>
<event>
 7    1  0.6067783E-006  0.1183801E+03  0.7818608E-02  0.1317272E+00
          2   -1    0    0  502    0  0.00000000000E+00  0.00000000000E+00  0.26332356253E+04  0.26332356253E+04  0.00000000000E+00 0. -1.
          1   -1    0    0  501    0 -0.00000000000E+00 -0.00000000000E+00 -0.23403950864E+03  0.23403950864E+03  0.00000000000E+00 0. -1.
         25    2    1    2    0    0  0.71700308807E+02  0.30988314179E+02  0.85718673694E+03  0.86976729572E+03  0.12499934731E+03 0.  0.
          2    1    1    2  501    0 -0.11911042959E+03  0.58365507057E+01 -0.21158955805E+03  0.24288166015E+03  0.00000000000E+00 0. -1.
          1    1    1    2  502    0  0.47410120779E+02 -0.36824864884E+02  0.17535989378E+04  0.17546261781E+04  0.00000000000E+00 0. -1.
         22    1    3    3    0    0 -0.16937661061E+02 -0.25696538994E+02  0.84111651440E+02  0.89565430755E+02  0.00000000000E+00 0.  1.
         22    1    3    3    0    0  0.88637969868E+02  0.56684853173E+02  0.77307508550E+03  0.78020186497E+03  0.00000000000E+00 0.  1.
</event>
<event>
 7    1  0.6067783E-006  0.9803035E+02  0.7818608E-02  0.1387624E+00
          2   -1    0    0  502    0  0.00000000000E+00  0.00000000000E+00  0.17028110613E+04  0.17028110613E+04  0.00000000000E+00 0. -1.
          1   -1    0    0  501    0 -0.00000000000E+00 -0.00000000000E+00 -0.14841171950E+02  0.14841171950E+02  0.00000000000E+00 0. -1.
         25    2    1    2    0    0  0.75671901909E+02 -0.54438217409E+02  0.96001555729E+03  0.97259704345E+03  0.12500152978E+03 0.  0.
          2    1    1    2  501    0 -0.52729491347E+02  0.87020670377E+02  0.33568302303E+03  0.35076500436E+03  0.00000000000E+00 0. -1.
          1    1    1    2  502    0 -0.22942410562E+02 -0.32582452969E+02  0.39227130901E+03  0.39429018541E+03  0.00000000000E+00 0. -1.
         22    1    3    3    0    0 -0.26301503395E+02  0.12610988621E+02  0.10736328310E+03  0.11125502539E+03  0.00000000000E+00 0. -1.
         22    1    3    3    0    0  0.10197340530E+03 -0.67049206030E+02  0.85265227418E+03  0.86134201807E+03  0.00000000000E+00 0. -1.
</event>
<event>
 7    1  0.6067783E-006  0.3493241E+03  0.7818608E-02  0.1137060E+00
          2   -1    0    0  502    0  0.00000000000E+00  0.00000000000E+00  0.44165041664E+04  0.44165041664E+04  0.00000000000E+00 0. -1.
          1   -1    0    0  501    0 -0.00000000000E+00 -0.00000000000E+00 -0.15193361257E+03  0.15193361257E+03  0.00000000000E+00 0. -1.
         25    2    1    2    0    0  0.26671980986E+03  0.60476282145E+02  0.15819677147E+03  0.33977642048E+03  0.12499983893E+03 0.  0.
          2    1    1    2  501    0  0.88148911256E+02 -0.99996675412E+02  0.29945012034E+02  0.13662455634E+03  0.00000000000E+00 0. -1.
          1    1    1    2  502    0 -0.35486872112E+03  0.39520393267E+02  0.40764287703E+04  0.40920368022E+04  0.00000000000E+00 0. -1.
         22    1    3    3    0    0  0.17821224496E+03  0.72492812395E+02  0.48681901497E+02  0.19845588839E+03  0.00000000000E+00 0.  1.
         22    1    3    3    0    0  0.88507564901E+02 -0.12016530250E+02  0.10951486998E+03  0.14132053209E+03  0.00000000000E+00 0.  1.
</event>
<event>
 7    1  0.6067783E-006  0.3094246E+02  0.7818608E-02  0.1598797E+00
          2   -1    0    0  502    0  0.00000000000E+00  0.00000000000E+00  0.33632919297E+02  0.33632919297E+02  0.00000000000E+00 0. -1.
          1   -1    0    0  501    0 -0.00000000000E+00 -0.00000000000E+00 -0.14047165056E+04  0.14047165056E+04  0.00000000000E+00 0. -1.
         25    2    1    2    0    0 -0.33134920490E+02 -0.20875507411E+01 -0.42674773898E+03  0.44591657909E+03  0.12500272782E+03 0.  0.
          2    1    1    2  501    0  0.17043445239E+02  0.26168306855E+02 -0.95931707243E+03  0.95982524699E+03  0.00000000000E+00 0. -1.
          1    1    1    2  502    0  0.16091475251E+02 -0.24080756113E+02  0.14981225145E+02  0.32607598771E+02  0.00000000000E+00 0. -1.
         22    1    3    3    0    0  0.36532483971E+02  0.12422893471E+02 -0.28193625983E+03  0.28456458893E+03  0.00000000000E+00 0. -1.
         22    1    3    3    0    0 -0.69667404461E+02 -0.14510444212E+02 -0.14481147914E+03  0.16135199016E+03  0.00000000000E+00 0. -1.
</event>
<event>
 7    1  0.6067783E-006  0.5983689E+02  0.7818608E-02  0.1446938E+00
          2   -1    0    0  502    0  0.00000000000E+00  0.00000000000E+00  0.65597208583E+03  0.65597208583E+03  0.00000000000E+00 0. -1.
          1   -1    0    0  501    0 -0.00000000000E+00 -0.00000000000E+00 -0.31845034980E+02  0.31845034980E+02  0.00000000000E+00 0. -1.
         25    2    1    2    0    0 -0.33528120252E+02  0.39356180141E+01  0.27181638206E+03  0.30107993346E+03  0.12500142736E+03 0.  0.
          2    1    1    2  501    0 -0.27394305956E+02 -0.30892195928E+02  0.16634194547E+02  0.44513730424E+02  0.00000000000E+00 0. -1.
          1    1    1    2  502    0  0.60922426207E+02  0.26956577914E+02  0.33567647424E+03  0.34222345692E+03  0.00000000000E+00 0. -1.
         22    1    3    3    0    0  0.20814772433E+02  0.52390765543E+02  0.12880856695E+03  0.14060474382E+03  0.00000000000E+00 0.  1.
         22    1    3    3    0    0 -0.54342892685E+02 -0.48455147529E+02  0.14300781511E+03  0.16047518964E+03  0.00000000000E+00 0.  1.
</event>
<event>
 7    1  0.6067783E-006  0.1570913E+03  0.7818608E-02  0.1288009E+00
          2   -1    0    0  502    0  0.00000000000E+00  0.00000000000E+00  0.25440951864E+04  0.25440951864E+04  0.00000000000E+00 0. -1.
          1   -1    0    0  501    0 -0.00000000000E+00 -0.00000000000E+00 -0.19930104632E+03  0.19930104632E+03  0.00000000000E+00 0. -1.
         25    2    1    2    0    0 -0.11940749885E+03  0.17057397279E+03  0.33815012894E+03  0.41632351327E+03  0.12500450803E+03 0.  0.
          2    1    1    2  501    0  0.73293246848E+02 -0.13348054882E+03 -0.12352605572E+03  0.19608070632E+03  0.00000000000E+00 0. -1.
          1    1    1    2  502    0  0.46114252000E+02 -0.37093423964E+02  0.21301700668E+04  0.21309920131E+04  0.00000000000E+00 0. -1.
         22    1    3    3    0    0 -0.34710514565E+02  0.25543354911E+02  0.51962792835E+01  0.43408341593E+02  0.00000000000E+00 0. -1.
         22    1    3    3    0    0 -0.84696984284E+02  0.14503061788E+03  0.33295384966E+03  0.37291517168E+03  0.00000000000E+00 0. -1.
</event>
<event>
 7    1  0.6067783E-006  0.2314063E+03  0.7818608E-02  0.1196579E+00
          2   -1    0    0  502    0  0.00000000000E+00  0.00000000000E+00  0.16206030262E+04  0.16206030262E+04  0.00000000000E+00 0. -1.
          1   -1    0    0  501    0 -0.00000000000E+00 -0.00000000000E+00 -0.10401671398E+04  0.10401671398E+04  0.00000000000E+00 0. -1.
         25    2    1    2    0    0  0.82883015666E+02  0.14755631037E+03  0.13040026540E+03  0.24753718297E+03  0.12501187432E+03 0.  0.
          2    1    1    2  501    0 -0.31309806560E+02 -0.23491000476E+03 -0.96545306827E+03  0.99411399817E+03  0.00000000000E+00 0. -1.
          1    1    1    2  502    0 -0.51573209107E+02  0.87353694393E+02  0.14154886892E+04  0.14191189848E+04  0.00000000000E+00 0. -1.
         22    1    3    3    0    0  0.30109401201E+02 -0.10802233553E+01 -0.14426712010E+02  0.33404684440E+02  0.00000000000E+00 0.  1.
         22    1    3    3    0    0  0.52773614466E+02  0.14863653372E+03  0.14482697741E+03  0.21413249853E+03  0.00000000000E+00 0.  1.
</event>
<event>
 7    1  0.6067783E-006  0.1452676E+03  0.7818608E-02  0.1217371E+00
          2   -1    0    0  502    0  0.00000000000E+00  0.00000000000E+00  0.75147734924E+03  0.75147734924E+03  0.00000000000E+00 0. -1.
          1   -1    0    0  501    0 -0.00000000000E+00 -0.00000000000E+00 -0.49415065380E+03  0.49415065380E+03  0.00000000000E+00 0. -1.
         25    2    1    2    0    0 -0.10180479851E+03 -0.40910963235E+02  0.27062344898E+02  0.16850736360E+03  0.12499774863E+03 0.  0.
          2    1    1    2  501    0  0.36852679840E+02  0.15268316396E+03 -0.40209456634E+03  0.43168311161E+03  0.00000000000E+00 0. -1.
          1    1    1    2  502    0  0.64952118673E+02 -0.11177220072E+03  0.63235891688E+03  0.64543752783E+03  0.00000000000E+00 0. -1.
         22    1    3    3    0    0 -0.36933151881E+02 -0.74338602604E+02  0.43479821494E+02  0.93705818508E+02  0.00000000000E+00 0. -1.
         22    1    3    3    0    0 -0.64871646632E+02  0.33427639370E+02 -0.16417476596E+02  0.74801545093E+02  0.00000000000E+00 0. -1.
</event>
<event>
 7    1  0.6067783E-006  0.1193223E+03  0.7818608E-02  0.1277882E+00
          2   -1    0    0  502    0  0.00000000000E+00  0.00000000000E+00  0.13706832256E+04  0.13706832256E+04  0.00000000000E+00 0. -1.
          1   -1    0    0  501    0 -0.00000000000E+00 -0.00000000000E+00 -0.34314060321E+03  0.34314060321E+03  0.00000000000E+00 0. -1.
         25    2    1    2    0    0  0.89411845760E+02  0.10965953181E+03  0.77997739701E+02  0.20426231848E+03  0.12497902333E+03 0.  0.
          2    1    1    2  501    0 -0.11631068671E+03 -0.28230139120E+02 -0.26563789064E+03  0.29135649219E+03  0.00000000000E+00 0. -1.
          1    1    1    2  502    0  0.26898840946E+02 -0.81429392694E+02  0.12151827734E+04  0.12182050182E+04  0.00000000000E+00 0. -1.
         22    1    3    3    0    0  0.98937158662E+01 -0.27367958528E+02  0.38986553547E+01  0.29361373967E+02  0.00000000000E+00 0. -1.
         22    1    3    3    0    0  0.79518129893E+02  0.13702749034E+03  0.74099084346E+02  0.17490094452E+03  0.00000000000E+00 0. -1.
</event>
<event>
 7    1  0.6067783E-006  0.1081774E+03  0.7818608E-02  0.1394890E+00
          2   -1    0    0  502    0  0.00000000000E+00  0.00000000000E+00  0.16860584620E+04  0.16860584620E+04  0.00000000000E+00 0. -1.
          1   -1    0    0  501    0 -0.00000000000E+00 -0.00000000000E+00 -0.42142697226E+03  0.42142697226E+03  0.00000000000E+00 0. -1.
         25    2    1    2    0    0  0.88345489422E+02  0.10794285899E+03  0.10577870390E+04  0.10742414646E+04  0.12499887244E+03 0.  0.
          2    1    1    2  501    0 -0.59204886549E+02 -0.90296207997E+02 -0.40566447021E+03  0.41978838260E+03  0.00000000000E+00 0. -1.
          1    1    1    2  502    0 -0.29140602872E+02 -0.17646650994E+02  0.61250892093E+03  0.61345558702E+03  0.00000000000E+00 0. -1.
         22    1    3    3    0    0  0.72034022382E+02  0.12068631123E+03  0.61025494864E+03  0.62623093858E+03  0.00000000000E+00 0. -1.
         22    1    3    3    0    0  0.16311467040E+02 -0.12743452241E+02  0.44753209035E+03  0.44801052602E+03  0.00000000000E+00 0. -1.
</event>
<event>
 7    1  0.8721055E-006  0.6424926E+02  0.7818608E-02  0.1429392E+00
          2   -1    0    0  502    0  0.00000000000E+00  0.00000000000E+00  0.12964851697E+04  0.12964851697E+04  0.00000000000E+00 0. -1.
          1   -1    0    0  501    0 -0.00000000000E+00 -0.00000000000E+00 -0.77562625597E+03  0.77562625597E+03  0.00000000000E+00 0. -1.
         25    2    1    2    0    0  0.61787875585E+02  0.85981579217E+02 -0.51487714575E+01  0.16389411995E+03  0.12499679665E+03 0.  0.
          2    1    1    2  501    0 -0.17088210833E+02 -0.40390146448E+02 -0.68957036809E+03  0.69096357605E+03  0.00000000000E+00 0. -1.
          1    1    1    2  502    0 -0.44699664752E+02 -0.45591432770E+02  0.12155780533E+04  0.12172537297E+04  0.00000000000E+00 0. -1.
         22    1    3    3    0    0  0.26449320115E+01  0.67482518941E+02 -0.52798507008E+02  0.85723791156E+02  0.00000000000E+00 0.  1.
         22    1    3    3    0    0  0.59142943574E+02  0.18499060276E+02  0.47649735550E+02  0.78170328794E+02  0.00000000000E+00 0.  1.
</event>
<event>
 7    1  0.6067783E-006  0.9338822E+02  0.7818608E-02  0.1318191E+00
          2   -1    0    0  502    0  0.00000000000E+00  0.00000000000E+00  0.37706586060E+03  0.37706586060E+03  0.00000000000E+00 0. -1.
          1   -1    0    0  501    0 -0.00000000000E+00 -0.00000000000E+00 -0.42117495541E+03  0.42117495541E+03  0.00000000000E+00 0. -1.
         25    2    1    2    0    0  0.56127130627E+02  0.53549272126E+02 -0.51286284143E+01  0.14720472633E+03  0.12500059714E+03 0.  0.
          2    1    1    2  501    0 -0.96941486093E+02  0.99353225270E+01 -0.33326888670E+03  0.34722401011E+03  0.00000000000E+00 0. -1.
          1    1    1    2  502    0  0.40814355466E+02 -0.63484594653E+02  0.29428842030E+03  0.30381207957E+03  0.00000000000E+00 0. -1.
         22    1    3    3    0    0 -0.35336797098E+02  0.41190876821E+02  0.42325846010E+01  0.54436130785E+02  0.00000000000E+00 0.  1.
         22    1    3    3    0    0  0.91463927725E+02  0.12358395305E+02 -0.93612130153E+01  0.92768595541E+02  0.00000000000E+00 0.  1.
</event>
<event>
 7    1  0.6067783E-006  0.2058578E+03  0.7818608E-02  0.1196109E+00
          2   -1    0    0  502    0  0.00000000000E+00  0.00000000000E+00  0.12349153905E+03  0.12349153905E+03  0.00000000000E+00 0. -1.
          1   -1    0    0  501    0 -0.00000000000E+00 -0.00000000000E+00 -0.17393387149E+04  0.17393387149E+04  0.00000000000E+00 0. -1.
         25    2    1    2    0    0  0.91241402943E+02  0.11384295253E+03 -0.35120318992E+03  0.40031730004E+03  0.12500019458E+03 0.  0.
          2    1    1    2  501    0 -0.20585899872E+03 -0.11336033854E+03 -0.13160689772E+04  0.13368866991E+04  0.00000000000E+00 0. -1.
          1    1    1    2  502    0  0.11461759577E+03 -0.48261398627E+00  0.51424991190E+02  0.12562625480E+03  0.00000000000E+00 0. -1.
         22    1    3    3    0    0  0.45300365322E+02  0.14449874276E+02 -0.23845476968E+03  0.24314933508E+03  0.00000000000E+00 0.  1.
         22    1    3    3    0    0  0.45941037621E+02  0.99393078255E+02 -0.11274842024E+03  0.15716796496E+03  0.00000000000E+00 0.  1.
</event>
<event>
 7    1  0.6067783E-006  0.5705311E+02  0.7818608E-02  0.1521860E+00
          2   -1    0    0  502    0  0.00000000000E+00  0.00000000000E+00  0.76818164553E+03  0.76818164553E+03  0.00000000000E+00 0. -1.
          1   -1    0    0  501    0 -0.00000000000E+00 -0.00000000000E+00 -0.78984437180E+02  0.78984437180E+02  0.00000000000E+00 0. -1.
         25    2    1    2    0    0 -0.73744559503E+02  0.14154922438E+02  0.20801780710E+03  0.25403610749E+03  0.12499725578E+03 0.  0.
          2    1    1    2  501    0  0.50403577628E+02 -0.24626027232E+02 -0.41528338252E+02  0.69796595425E+02  0.00000000000E+00 0. -1.
          1    1    1    2  502    0  0.23340981875E+02  0.10471104794E+02  0.52270773951E+03  0.52333337980E+03  0.00000000000E+00 0. -1.
         22    1    3    3    0    0 -0.63967238896E+02 -0.24227703434E+02  0.20287423022E+03  0.21409517172E+03  0.00000000000E+00 0.  1.
         22    1    3    3    0    0 -0.97773206073E+01  0.38382625873E+02  0.51435768776E+01  0.39940935771E+02  0.00000000000E+00 0.  1.
</event>
<event>
 7    1  0.6067783E-006  0.5397138E+02  0.7818608E-02  0.1440676E+00
          2   -1    0    0  502    0  0.00000000000E+00  0.00000000000E+00  0.19843423554E+04  0.19843423554E+04  0.00000000000E+00 0. -1.
          1   -1    0    0  501    0 -0.00000000000E+00 -0.00000000000E+00 -0.27939235898E+02  0.27939235898E+02  0.00000000000E+00 0. -1.
         25    2    1    2    0    0  0.43901585761E+02 -0.38444167101E+02  0.66021103322E+03  0.67446967963E+03  0.12500174853E+03 0.  0.
          2    1    1    2  501    0 -0.54182016775E+02 -0.83979924936E+01  0.16551166739E+02  0.57272666606E+02  0.00000000000E+00 0. -1.
          1    1    1    2  502    0  0.10280431014E+02  0.46842159594E+02  0.12796409195E+04  0.12805392450E+04  0.00000000000E+00 0. -1.
         22    1    3    3    0    0  0.68625038178E+02 -0.43472300592E+02  0.23754876308E+03  0.25105507688E+03  0.00000000000E+00 0.  1.
         22    1    3    3    0    0 -0.24723452417E+02  0.50281334916E+01  0.42266227013E+03  0.42341460275E+03  0.00000000000E+00 0.  1.
</event>
<event>
 7    1  0.6067783E-006  0.7423078E+02  0.7818608E-02  0.1357525E+00
          2   -1    0    0  502    0  0.00000000000E+00  0.00000000000E+00  0.98583803630E+03  0.98583803630E+03  0.00000000000E+00 0. -1.
          1   -1    0    0  501    0 -0.00000000000E+00 -0.00000000000E+00 -0.75588133958E+02  0.75588133958E+02  0.00000000000E+00 0. -1.
         25    2    1    2    0    0  0.89159294596E+01  0.29394898357E+02  0.37658670353E+03  0.39797772393E+03  0.12500067850E+03 0.  0.
          2    1    1    2  501    0  0.62264872684E+02  0.25941706383E+02 -0.42860049009E+02  0.79917897254E+02  0.00000000000E+00 0. -1.
          1    1    1    2  502    0 -0.71180802144E+02 -0.55336604741E+02  0.57652324782E+03  0.58353054907E+03  0.00000000000E+00 0. -1.
         22    1    3    3    0    0  0.48185833067E+02  0.47641778254E+02  0.12041136506E+03  0.13816841310E+03  0.00000000000E+00 0. -1.
         22    1    3    3    0    0 -0.39269903608E+02 -0.18246879897E+02  0.25617533847E+03  0.25980931083E+03  0.00000000000E+00 0. -1.
</event>
<event>
 7    1  0.6067783E-006  0.3432915E+02  0.7818608E-02  0.1628714E+00
          2   -1    0    0  502    0  0.00000000000E+00  0.00000000000E+00  0.18050266845E+04  0.18050266845E+04  0.00000000000E+00 0. -1.
          1   -1    0    0  501    0 -0.00000000000E+00 -0.00000000000E+00 -0.84521029197E+02  0.84521029197E+02  0.00000000000E+00 0. -1.
         25    2    1    2    0    0 -0.10563017286E+01  0.23223299664E+02  0.79320490733E+03  0.80332972731E+03  0.12499675332E+03 0.  0.
          2    1    1    2  501    0 -0.20344480410E+02 -0.27745249342E+02 -0.75609517119E+02  0.83069223080E+02  0.00000000000E+00 0. -1.
          1    1    1    2  502    0  0.21400782138E+02  0.45219496775E+01  0.10029102651E+04  0.10031487633E+04  0.00000000000E+00 0. -1.
         22    1    3    3    0    0 -0.33196646569E+02  0.24585517827E+02  0.86136453100E+02  0.95529857023E+02  0.00000000000E+00 0.  1.
         22    1    3    3    0    0  0.32140344841E+02 -0.13622181625E+01  0.70706845423E+03  0.70779987028E+03  0.00000000000E+00 0.  1.
</event>
<event>
 7    1  0.6067783E-006  0.8077412E+02  0.7818608E-02  0.1379111E+00
          2   -1    0    0  502    0  0.00000000000E+00  0.00000000000E+00  0.28386836682E+04  0.28386836682E+04  0.00000000000E+00 0. -1.
          1   -1    0    0  501    0 -0.00000000000E+00 -0.00000000000E+00 -0.12032672581E+04  0.12032672581E+04  0.00000000000E+00 0. -1.
         25    2    1    2    0    0  0.95547337364E+02  0.84105482030E+02  0.20396726710E+03  0.27097987011E+03  0.12499767266E+03 0.  0.
          2    1    1    2  501    0 -0.70627809288E+02 -0.38668672312E+02 -0.11681167555E+04  0.11708886831E+04  0.00000000000E+00 0. -1.
          1    1    1    2  502    0 -0.24919528076E+02 -0.45436809718E+02  0.25995658985E+04  0.26000823731E+04  0.00000000000E+00 0. -1.
         22    1    3    3    0    0  0.12166222403E+02  0.41671225054E+02 -0.33397117356E+01  0.43539196588E+02  0.00000000000E+00 0.  1.
         22    1    3    3    0    0  0.83381114961E+02  0.42434256976E+02  0.20730697884E+03  0.22744067352E+03  0.00000000000E+00 0.  1.
</event>
<event>
 7    1  0.6067783E-006  0.1841872E+03  0.7818608E-02  0.1306420E+00
          2   -1    0    0  502    0  0.00000000000E+00  0.00000000000E+00  0.12535834521E+04  0.12535834521E+04  0.00000000000E+00 0. -1.
          1   -1    0    0  501    0 -0.00000000000E+00 -0.00000000000E+00 -0.87948001860E+03  0.87948001860E+03  0.00000000000E+00 0. -1.
         25    2    1    2    0    0 -0.93760315266E+02 -0.11095820244E+03 -0.49762984467E+01  0.19170931085E+03  0.12499990766E+03 0.  0.
          2    1    1    2  501    0 -0.33332845678E+02 -0.26469628014E+02 -0.77299779201E+03  0.77416878410E+03  0.00000000000E+00 0. -1.
          1    1    1    2  502    0  0.12709316094E+03  0.13742783045E+03  0.11520775240E+04  0.11671853758E+04  0.00000000000E+00 0. -1.
         22    1    3    3    0    0 -0.19818347907E+02 -0.96424483511E+02  0.37340132633E+02  0.10528406071E+03  0.00000000000E+00 0. -1.
         22    1    3    3    0    0 -0.73941967360E+02 -0.14533718924E+02 -0.42316431080E+02  0.86425250142E+02  0.00000000000E+00 0. -1.
</event>
<event>
 7    1  0.6067783E-006  0.5209115E+02  0.7818608E-02  0.1456735E+00
          2   -1    0    0  502    0  0.00000000000E+00  0.00000000000E+00  0.27966943722E+04  0.27966943722E+04  0.00000000000E+00 0. -1.
          1   -1    0    0  501    0 -0.00000000000E+00 -0.00000000000E+00 -0.41632253097E+02  0.41632253097E+02  0.00000000000E+00 0. -1.
         25    2    1    2    0    0  0.41877485175E+02  0.40316873092E+02  0.11301075111E+03  0.17825398884E+03  0.12499552252E+03 0.  0.
          2    1    1    2  501    0 -0.55141620382E+02  0.17769174004E+01  0.77445925800E+02  0.95087471083E+02  0.00000000000E+00 0. -1.
          1    1    1    2  502    0  0.13264135207E+02 -0.42093790493E+02  0.25646054422E+04  0.25649851654E+04  0.00000000000E+00 0. -1.
         22    1    3    3    0    0  0.54531362458E+02  0.72759298887E+02  0.44126343818E+02  0.10106789443E+03  0.00000000000E+00 0. -1.
         22    1    3    3    0    0 -0.12653877283E+02 -0.32442425794E+02  0.68884407296E+02  0.77186094409E+02  0.00000000000E+00 0. -1.
</event>
<event>
 7    1  0.6067783E-006  0.7736291E+02  0.7818608E-02  0.1358486E+00
          2   -1    0    0  502    0  0.00000000000E+00  0.00000000000E+00  0.94103353330E+03  0.94103353330E+03  0.00000000000E+00 0. -1.
          1   -1    0    0  501    0 -0.00000000000E+00 -0.00000000000E+00 -0.46375398424E+03  0.46375398424E+03  0.00000000000E+00 0. -1.
         25    2    1    2    0    0 -0.38499600248E+02 -0.11555733224E+03  0.78875307351E+03  0.80783068626E+03  0.12499316160E+03 0.  0.
          2    1    1    2  501    0  0.55547744088E+02  0.53662133320E+02 -0.44348607330E+03  0.45016116407E+03  0.00000000000E+00 0. -1.
          1    1    1    2  502    0 -0.17048143839E+02  0.61895198921E+02  0.13201254885E+03  0.14679566721E+03  0.00000000000E+00 0. -1.
         22    1    3    3    0    0 -0.79823880534E+02 -0.48720491933E+02  0.49454483159E+03  0.50330917803E+03  0.00000000000E+00 0. -1.
         22    1    3    3    0    0  0.41324280286E+02 -0.66836840308E+02  0.29420824192E+03  0.30452150823E+03  0.00000000000E+00 0. -1.
</event>
<event>
 7    1  0.6067783E-006  0.1015773E+03  0.7818608E-02  0.1435734E+00
          2   -1    0    0  502    0  0.00000000000E+00  0.00000000000E+00  0.85239075202E+03  0.85239075202E+03  0.00000000000E+00 0. -1.
          1   -1    0    0  501    0 -0.00000000000E+00 -0.00000000000E+00 -0.90056302827E+03  0.90056302827E+03  0.00000000000E+00 0. -1.
         25    2    1    2    0    0 -0.61321116154E+02  0.96341163903E+02 -0.25675094551E+03  0.30754762617E+03  0.12499038039E+03 0.  0.
          2    1    1    2  501    0 -0.10220279136E+02 -0.24387416347E+02 -0.61501624792E+03  0.61558442589E+03  0.00000000000E+00 0. -1.
          1    1    1    2  502    0  0.71541395290E+02 -0.71953747556E+02  0.82359491719E+03  0.82982172823E+03  0.00000000000E+00 0. -1.
         22    1    3    3    0    0  0.19057965980E+02  0.61068444802E+02 -0.17970657623E+03  0.19075380615E+03  0.00000000000E+00 0.  1.
         22    1    3    3    0    0 -0.80379082134E+02  0.35272719101E+02 -0.77044369281E+02  0.11679382002E+03  0.00000000000E+00 0.  1.
</event>
<event>
 7    1  0.6067783E-006  0.4166197E+02  0.7818608E-02  0.1573392E+00
          2   -1    0    0  502    0  0.00000000000E+00  0.00000000000E+00  0.52121170168E+02  0.52121170168E+02  0.00000000000E+00 0. -1.
          1   -1    0    0  501    0 -0.00000000000E+00 -0.00000000000E+00 -0.11859844027E+04  0.11859844027E+04  0.00000000000E+00 0. -1.
         25    2    1    2    0    0  0.64966063854E+02  0.40431188603E+00 -0.60839755120E+03  0.62449425496E+03  0.12499896498E+03 0.  0.
          2    1    1    2  501    0 -0.24254551555E+02  0.65849519624E+01 -0.55951532779E+03  0.56007950051E+03  0.00000000000E+00 0. -1.
          1    1    1    2  502    0 -0.40711512299E+02 -0.69892638484E+01  0.34049646500E+02  0.53531817357E+02  0.00000000000E+00 0. -1.
         22    1    3    3    0    0  0.19496948019E+02  0.60950447717E+02 -0.31898476066E+03  0.32534038421E+03  0.00000000000E+00 0. -1.
         22    1    3    3    0    0  0.45469115835E+02 -0.60546135831E+02 -0.28941279054E+03  0.29915387075E+03  0.00000000000E+00 0. -1.
</event>
<event>
 7    1  0.6067783E-006  0.4691971E+02  0.7818608E-02  0.1514587E+00
          2   -1    0    0  502    0  0.00000000000E+00  0.00000000000E+00  0.92655629624E+03  0.92655629624E+03  0.00000000000E+00 0. -1.
          1   -1    0    0  501    0 -0.00000000000E+00 -0.00000000000E+00 -0.48212978468E+03  0.48212978468E+03  0.00000000000E+00 0. -1.
         25    2    1    2    0    0 -0.54640010649E+02 -0.51037566281E+02 -0.38023219319E+03  0.40717599436E+03  0.12500162283E+03 0.  0.
          2    1    1    2  501    0  0.12697444938E+02  0.30091992607E+02 -0.84785210673E+02  0.90858599350E+02  0.00000000000E+00 0. -1.
          1    1    1    2  502    0  0.41942565711E+02  0.20945573674E+02  0.90944391542E+03  0.91065148721E+03  0.00000000000E+00 0. -1.
         22    1    3    3    0    0 -0.15636433192E+02  0.39451184906E+02 -0.16650305090E+03  0.17182595844E+03  0.00000000000E+00 0.  1.
         22    1    3    3    0    0 -0.39003577458E+02 -0.90488751188E+02 -0.21372914228E+03  0.23535003592E+03  0.00000000000E+00 0.  1.
</event>
<event>
 7    1  0.6067783E-006  0.1207551E+03  0.7818608E-02  0.1368590E+00
          2   -1    0    0  502    0  0.00000000000E+00  0.00000000000E+00  0.22726188649E+03  0.22726188649E+03  0.00000000000E+00 0. -1.
          1   -1    0    0  501    0 -0.00000000000E+00 -0.00000000000E+00 -0.34110882263E+03  0.34110882263E+03  0.00000000000E+00 0. -1.
         25    2    1    2    0    0 -0.19069833875E+02 -0.14930060328E+03 -0.19181336449E+02  0.19659094355E+03  0.12500298682E+03 0.  0.
          2    1    1    2  501    0  0.13886744521E+02  0.35155930106E+02 -0.20766614004E+03  0.21107820071E+03  0.00000000000E+00 0. -1.
          1    1    1    2  502    0  0.51830893541E+01  0.11414467317E+03  0.11300054035E+03  0.16070156486E+03  0.00000000000E+00 0. -1.
         22    1    3    3    0    0  0.51396111098E+01  0.16315698494E+02 -0.23610430305E+02  0.29155960607E+02  0.00000000000E+00 0. -1.
         22    1    3    3    0    0 -0.24209444985E+02 -0.16561630177E+03  0.44290938565E+01  0.16743498294E+03  0.00000000000E+00 0. -1.
</event>
<event>
 7    1  0.6067783E-006  0.8544647E+02  0.7818608E-02  0.1344531E+00
          2   -1    0    0  502    0  0.00000000000E+00  0.00000000000E+00  0.52709571062E+03  0.52709571062E+03  0.00000000000E+00 0. -1.
          1   -1    0    0  501    0 -0.00000000000E+00 -0.00000000000E+00 -0.46385502237E+03  0.46385502237E+03  0.00000000000E+00 0. -1.
         25    2    1    2    0    0  0.16496055434E+02  0.19971994699E+02 -0.30103421928E+01  0.12768992541E+03  0.12499861789E+03 0.  0.
          2    1    1    2  501    0  0.15483649703E+02  0.63600427756E+02 -0.39145486259E+03  0.39688999391E+03  0.00000000000E+00 0. -1.
          1    1    1    2  502    0 -0.31979705137E+02 -0.83572422455E+02  0.45770589303E+03  0.46637081367E+03  0.00000000000E+00 0. -1.
         22    1    3    3    0    0 -0.14377799030E+00  0.67272844554E+02 -0.26517730149E+02  0.72310761984E+02  0.00000000000E+00 0. -1.
         22    1    3    3    0    0  0.16639833424E+02 -0.47300849855E+02  0.23507387956E+02  0.55379163427E+02  0.00000000000E+00 0. -1.
</event>
<event>
 7    1  0.6067783E-006  0.5247306E+02  0.7818608E-02  0.1548225E+00
          2   -1    0    0  502    0  0.00000000000E+00  0.00000000000E+00  0.44569852926E+03  0.44569852926E+03  0.00000000000E+00 0. -1.
          1   -1    0    0  501    0 -0.00000000000E+00 -0.00000000000E+00 -0.13398298677E+03  0.13398298677E+03  0.00000000000E+00 0. -1.
         25    2    1    2    0    0 -0.13113127081E+02  0.30126836124E+02  0.17049797197E+03  0.21395757678E+03  0.12501482255E+03 0.  0.
          2    1    1    2  501    0  0.33834417999E+02 -0.41002118035E+02 -0.10537432519E+03  0.11802410743E+03  0.00000000000E+00 0. -1.
          1    1    1    2  502    0 -0.20721290918E+02  0.10875281911E+02  0.24659189571E+03  0.24769983182E+03  0.00000000000E+00 0. -1.
         22    1    3    3    0    0 -0.27685327973E+01  0.24596133017E+02  0.18978027997E+03  0.19138753669E+03  0.00000000000E+00 0. -1.
         22    1    3    3    0    0 -0.10344594284E+02  0.55307031073E+01 -0.19282308000E+02  0.22570040088E+02  0.00000000000E+00 0. -1.
</event>
<event>
 7    1  0.6067783E-006  0.2423806E+03  0.7818608E-02  0.1241000E+00
          2   -1    0    0  502    0  0.00000000000E+00  0.00000000000E+00  0.15908384917E+04  0.15908384917E+04  0.00000000000E+00 0. -1.
          1   -1    0    0  501    0 -0.00000000000E+00 -0.00000000000E+00 -0.14408113787E+04  0.14408113787E+04  0.00000000000E+00 0. -1.
         25    2    1    2    0    0 -0.19039890679E+03  0.10769426310E+03  0.18252855663E+03  0.31111462383E+03  0.12500334861E+03 0.  0.
          2    1    1    2  501    0  0.17746791495E+03 -0.16698554738E+03 -0.13650380978E+04  0.13866174824E+04  0.00000000000E+00 0. -1.
          1    1    1    2  502    0  0.12930991841E+02  0.59291284286E+02  0.13325366541E+04  0.13339177642E+04  0.00000000000E+00 0. -1.
         22    1    3    3    0    0 -0.10454642197E+03  0.46792079783E+00  0.36756178434E+02  0.11082053036E+03  0.00000000000E+00 0.  1.
         22    1    3    3    0    0 -0.85852484817E+02  0.10722634230E+03  0.14577237820E+03  0.20029409346E+03  0.00000000000E+00 0.  1.
</event>
<event>
 7    1  0.6067783E-006  0.9159253E+02  0.7818608E-02  0.1451426E+00
          2   -1    0    0  502    0  0.00000000000E+00  0.00000000000E+00  0.11246337362E+04  0.11246337362E+04  0.00000000000E+00 0. -1.
          1   -1    0    0  501    0 -0.00000000000E+00 -0.00000000000E+00 -0.71140179762E+02  0.71140179762E+02  0.00000000000E+00 0. -1.
         25    2    1    2    0    0  0.76016382846E+02  0.87558547164E+02  0.48975947365E+03  0.51859234466E+03  0.12501475218E+03 0.  0.
          2    1    1    2  501    0 -0.58502709694E+02 -0.68212860239E+02 -0.20657297235E+02  0.92207837371E+02  0.00000000000E+00 0. -1.
          1    1    1    2  502    0 -0.17513673152E+02 -0.19345686925E+02  0.58439137999E+03  0.58497373390E+03  0.00000000000E+00 0. -1.
         22    1    3    3    0    0  0.37606952553E+02 -0.27018436105E+02  0.93872478648E+02  0.10467244631E+03  0.00000000000E+00 0.  1.
         22    1    3    3    0    0  0.38409430293E+02  0.11457698327E+03  0.39588699500E+03  0.41391989834E+03  0.00000000000E+00 0.  1.
</event>
<event>
 7    1  0.6067783E-006  0.8736825E+02  0.7818608E-02  0.1340103E+00
          2   -1    0    0  502    0  0.00000000000E+00  0.00000000000E+00  0.57139121964E+03  0.57139121964E+03  0.00000000000E+00 0. -1.
          1   -1    0    0  501    0 -0.00000000000E+00 -0.00000000000E+00 -0.92608763257E+02  0.92608763257E+02  0.00000000000E+00 0. -1.
         25    2    1    2    0    0  0.55441936666E+02 -0.10802748355E+03  0.30521415225E+02  0.17692736019E+03  0.12501195324E+03 0.  0.
          2    1    1    2  501    0 -0.53937399917E+02  0.41532542086E+02  0.53052228334E+02  0.86306048995E+02  0.00000000000E+00 0. -1.
          1    1    1    2  502    0 -0.15045367492E+01  0.66494941462E+02  0.39520881282E+03  0.40076657371E+03  0.00000000000E+00 0. -1.
         22    1    3    3    0    0  0.12517068839E+02 -0.67641816461E+02  0.75981351590E+02  0.10249516152E+03  0.00000000000E+00 0.  1.
         22    1    3    3    0    0  0.42924867827E+02 -0.40385667086E+02 -0.45459936365E+02  0.74432198666E+02  0.00000000000E+00 0.  1.
</event>
<event>
 7    1  0.6067783E-006  0.4585513E+02  0.7818608E-02  0.1555488E+00
          2   -1    0    0  502    0  0.00000000000E+00  0.00000000000E+00  0.10280871549E+04  0.10280871549E+04  0.00000000000E+00 0. -1.
          1   -1    0    0  501    0 -0.00000000000E+00 -0.00000000000E+00 -0.58424136896E+03  0.58424136896E+03  0.00000000000E+00 0. -1.
         25    2    1    2    0    0  0.28930997183E+02 -0.17347621824E+02  0.52584335011E+03  0.54154818479E+03  0.12500106006E+03 0.  0.
          2    1    1    2  501    0 -0.55925860342E+01 -0.24942258859E+02 -0.57492450077E+03  0.57549246292E+03  0.00000000000E+00 0. -1.
          1    1    1    2  502    0 -0.23338411149E+02  0.42289880683E+02  0.49292693661E+03  0.49528787617E+03  0.00000000000E+00 0. -1.
         22    1    3    3    0    0  0.15102941125E+02  0.47392788561E+02  0.11345219647E+03  0.12387726232E+03  0.00000000000E+00 0. -1.
         22    1    3    3    0    0  0.13828056058E+02 -0.64740410385E+02  0.41239115364E+03  0.41767092247E+03  0.00000000000E+00 0. -1.
</event>
<event>
 7    1  0.6067783E-006  0.7003047E+02  0.7818608E-02  0.1369093E+00
          2   -1    0    0  502    0  0.00000000000E+00  0.00000000000E+00  0.29670525195E+03  0.29670525195E+03  0.00000000000E+00 0. -1.
          1   -1    0    0  501    0 -0.00000000000E+00 -0.00000000000E+00 -0.15173850825E+04  0.15173850825E+04  0.00000000000E+00 0. -1.
         25    2    1    2    0    0 -0.28311734014E+02 -0.96947601511E+02 -0.32064722946E+03  0.35866426468E+03  0.12500006911E+03 0.  0.
          2    1    1    2  501    0 -0.29602583310E+02  0.57763275187E+02 -0.11724155923E+04  0.11742108967E+04  0.00000000000E+00 0. -1.
          1    1    1    2  502    0  0.57914317324E+02  0.39184326324E+02  0.27238299128E+03  0.28121517299E+03  0.00000000000E+00 0. -1.
         22    1    3    3    0    0 -0.11376295598E+02 -0.58832170433E+02 -0.33793554669E+02  0.68794249153E+02  0.00000000000E+00 0. -1.
         22    1    3    3    0    0 -0.16935438415E+02 -0.38115431078E+02 -0.28685367479E+03  0.28987001553E+03  0.00000000000E+00 0. -1.
</event>
<event>
 7    1  0.6067783E-006  0.4506047E+03  0.7818608E-02  0.1110672E+00
          2   -1    0    0  502    0  0.00000000000E+00  0.00000000000E+00  0.20643138173E+04  0.20643138173E+04  0.00000000000E+00 0. -1.
          1   -1    0    0  501    0 -0.00000000000E+00 -0.00000000000E+00 -0.47301520902E+03  0.47301520902E+03  0.00000000000E+00 0. -1.
         25    2    1    2    0    0 -0.33824276504E+03 -0.74335404306E+02  0.34411445509E+03  0.50396108322E+03  0.12501237845E+03 0.  0.
          2    1    1    2  501    0  0.48146617525E+03  0.81737363762E+02 -0.23661253858E+03  0.54265658381E+03  0.00000000000E+00 0. -1.
          1    1    1    2  502    0 -0.14322341021E+03 -0.74019594554E+01  0.14837966917E+04  0.14907113593E+04  0.00000000000E+00 0. -1.
         22    1    3    3    0    0 -0.13506422748E+03  0.12457639016E+02  0.19452163255E+03  0.23714173788E+03  0.00000000000E+00 0.  1.
         22    1    3    3    0    0 -0.20317853756E+03 -0.86793043323E+02  0.14959282254E+03  0.26681934534E+03  0.00000000000E+00 0.  1.
</event>
<event>
 7    1  0.6067783E-006  0.2161345E+03  0.7818608E-02  0.1269793E+00
          2   -1    0    0  502    0  0.00000000000E+00  0.00000000000E+00  0.76395933558E+03  0.76395933558E+03  0.00000000000E+00 0. -1.
          1   -1    0    0  501    0 -0.00000000000E+00 -0.00000000000E+00 -0.19089727878E+03  0.19089727878E+03  0.00000000000E+00 0. -1.
         25    2    1    2    0    0 -0.60782316667E+02  0.16658875352E+03  0.24333098516E+03  0.32600819721E+03  0.12500029396E+03 0.  0.
          2    1    1    2  501    0  0.71766900698E+02 -0.21656702761E+03 -0.59892488683E+02  0.23587894286E+03  0.00000000000E+00 0. -1.
          1    1    1    2  502    0 -0.10984584031E+02  0.49978274090E+02  0.38962356033E+03  0.39296947430E+03  0.00000000000E+00 0. -1.
         22    1    3    3    0    0  0.79996117960E+01 -0.17576866211E+02  0.32000372381E+02  0.37375979549E+02  0.00000000000E+00 0.  1.
         22    1    3    3    0    0 -0.68781928463E+02  0.18416561973E+03  0.21133061278E+03  0.28863221766E+03  0.00000000000E+00 0.  1.
</event>
<event>
 7    1  0.6067783E-006  0.7111819E+02  0.7818608E-02  0.1445674E+00
          2   -1    0    0  502    0  0.00000000000E+00  0.00000000000E+00  0.28463117626E+03  0.28463117626E+03  0.00000000000E+00 0. -1.
          1   -1    0    0  501    0 -0.00000000000E+00 -0.00000000000E+00 -0.58001831982E+02  0.58001831982E+02  0.00000000000E+00 0. -1.
         25    2    1    2    0    0 -0.45109009388E+02  0.28108889454E+02  0.12937428335E+03  0.18758905220E+03  0.12500805941E+03 0.  0.
          2    1    1    2  501    0  0.56270038610E+02 -0.61351469692E+02  0.81838742571E+02  0.11673859629E+03  0.00000000000E+00 0. -1.
          1    1    1    2  502    0 -0.11161029222E+02  0.33242580238E+02  0.15416318361E+02  0.38305359755E+02  0.00000000000E+00 0. -1.
         22    1    3    3    0    0 -0.80394035811E+02  0.33751005787E+02  0.49923066468E+02  0.10047210534E+03  0.00000000000E+00 0.  1.
         22    1    3    3    0    0  0.35285026423E+02 -0.56421163326E+01  0.79451216879E+02  0.87116946858E+02  0.00000000000E+00 0.  1.
</event>
<event>
 7    1  0.6067783E-006  0.6053877E+02  0.7818608E-02  0.1418193E+00
          2   -1    0    0  502    0  0.00000000000E+00  0.00000000000E+00  0.11559927524E+03  0.11559927524E+03  0.00000000000E+00 0. -1.
          1   -1    0    0  501    0 -0.00000000000E+00 -0.00000000000E+00 -0.45436191348E+03  0.45436191348E+03  0.00000000000E+00 0. -1.
         25    2    1    2    0    0 -0.33277947218E+02  0.61839656944E+01 -0.51655152658E+01  0.12960355054E+03  0.12499893824E+03 0.  0.
          2    1    1    2  501    0  0.26281001884E+02 -0.56405444761E+02 -0.37173640489E+03  0.37690876878E+03  0.00000000000E+00 0. -1.
          1    1    1    2  502    0  0.69969453344E+01  0.50221479067E+02  0.38139281915E+02  0.63448869404E+02  0.00000000000E+00 0. -1.
         22    1    3    3    0    0 -0.57639263327E+02  0.31504907977E+02  0.36462261731E+02  0.75128825587E+02  0.00000000000E+00 0. -1.
         22    1    3    3    0    0  0.24361316108E+02 -0.25320942283E+02 -0.41627776997E+02  0.54474724950E+02  0.00000000000E+00 0. -1.
</event>
<event>
 7    1  0.6067783E-006  0.7699521E+02  0.7818608E-02  0.1380032E+00
          2   -1    0    0  502    0  0.00000000000E+00  0.00000000000E+00  0.33173515471E+04  0.33173515471E+04  0.00000000000E+00 0. -1.
          1   -1    0    0  501    0 -0.00000000000E+00 -0.00000000000E+00 -0.29314838040E+03  0.29314838040E+03  0.00000000000E+00 0. -1.
         25    2    1    2    0    0  0.26893586231E+02  0.92971592768E+02  0.10283076583E+03  0.18858959239E+03  0.12499954366E+03 0.  0.
          2    1    1    2  501    0  0.23312978951E+02 -0.73203986373E+02 -0.24413765107E+03  0.25594044479E+03  0.00000000000E+00 0. -1.
          1    1    1    2  502    0 -0.50206565183E+02 -0.19767606395E+02  0.31655100519E+04  0.31659698903E+04  0.00000000000E+00 0. -1.
         22    1    3    3    0    0 -0.30687554036E+02  0.19820676374E+01  0.69291174450E+02  0.75808452177E+02  0.00000000000E+00 0.  1.
         22    1    3    3    0    0  0.57581140267E+02  0.90989525131E+02  0.33539591378E+02  0.11278114021E+03  0.00000000000E+00 0.  1.
</event>
<event>
 7    1  0.6067783E-006  0.1089172E+03  0.7818608E-02  0.1330544E+00
          2   -1    0    0  502    0  0.00000000000E+00  0.00000000000E+00  0.23985825582E+04  0.23985825582E+04  0.00000000000E+00 0. -1.
          1   -1    0    0  501    0 -0.00000000000E+00 -0.00000000000E+00 -0.20509401985E+03  0.20509401985E+03  0.00000000000E+00 0. -1.
         25    2    1    2    0    0 -0.52347877760E+02  0.97783546215E+02  0.30732950370E+02  0.16991212206E+03  0.12499477097E+03 0.  0.
          2    1    1    2  501    0  0.56884973935E+02  0.11284503138E+02 -0.12793951276E+03  0.14046978037E+03  0.00000000000E+00 0. -1.
          1    1    1    2  502    0 -0.45370961750E+01 -0.10906804935E+03  0.22906951007E+04  0.22932946756E+04  0.00000000000E+00 0. -1.
         22    1    3    3    0    0 -0.15640734518E+02 -0.21927144152E+02 -0.21280735474E+02  0.34326402801E+02  0.00000000000E+00 0.  1.
         22    1    3    3    0    0 -0.36707143242E+02  0.11971069037E+03  0.52013685845E+02  0.13558571926E+03  0.00000000000E+00 0.  1.
</event>
<event>
 7    1  0.6067783E-006  0.5154937E+02  0.7818608E-02  0.1437415E+00
          2   -1    0    0  502    0  0.00000000000E+00  0.00000000000E+00  0.20479908956E+04  0.20479908956E+04  0.00000000000E+00 0. -1.
          1   -1    0    0  501    0 -0.00000000000E+00 -0.00000000000E+00 -0.68693269457E+02  0.68693269457E+02  0.00000000000E+00 0. -1.
         25    2    1    2    0    0 -0.38609676426E+02  0.37795174997E+02  0.11981576415E+04  0.12058715565E+04  0.12500117803E+03 0.  0.
          2    1    1    2  501    0 -0.11244837813E+02 -0.50511749212E+02 -0.53590982404E+02  0.74497493790E+02  0.00000000000E+00 0. -1.
          1    1    1    2  502    0  0.49854514239E+02  0.12716574215E+02  0.83473096699E+03  0.83631511472E+03  0.00000000000E+00 0. -1.
         22    1    3    3    0    0 -0.58522650578E+02 -0.18090611592E+02  0.32643987903E+03  0.33213726904E+03  0.00000000000E+00 0.  1.
         22    1    3    3    0    0  0.19912974152E+02  0.55885786590E+02  0.87171776248E+03  0.87373428748E+03  0.00000000000E+00 0.  1.
</event>
<event>
 7    1  0.6067783E-006  0.7799129E+02  0.7818608E-02  0.1432768E+00
          2   -1    0    0  502    0  0.00000000000E+00  0.00000000000E+00  0.29804007697E+04  0.29804007697E+04  0.00000000000E+00 0. -1.
          1   -1    0    0  501    0 -0.00000000000E+00 -0.00000000000E+00 -0.48426319232E+02  0.48426319232E+02  0.00000000000E+00 0. -1.
         25    2    1    2    0    0  0.32201614234E+02  0.85243381282E+02  0.19012038905E+04  0.19074865817E+04  0.12500179325E+03 0.  0.
          2    1    1    2  501    0  0.22299957895E+01 -0.77845578026E+02 -0.11284221604E+02  0.78690790800E+02  0.00000000000E+00 0. -1.
          1    1    1    2  502    0 -0.34431610024E+02 -0.73978032560E+01  0.10420547816E+04  0.10426497164E+04  0.00000000000E+00 0. -1.
         22    1    3    3    0    0  0.75887199147E+02  0.47130805239E+02  0.84900950462E+03  0.85369626843E+03  0.00000000000E+00 0. -1.
         22    1    3    3    0    0 -0.43685584913E+02  0.38112576043E+02  0.10521943858E+04  0.10537903133E+04  0.00000000000E+00 0. -1.
</event>
<event>
 7    1  0.6067783E-006  0.4491974E+02  0.7818608E-02  0.1502258E+00
          2   -1    0    0  502    0  0.00000000000E+00  0.00000000000E+00  0.90111690435E+03  0.90111690435E+03  0.00000000000E+00 0. -1.
          1   -1    0    0  501    0 -0.00000000000E+00 -0.00000000000E+00 -0.29728817356E+02  0.29728817356E+02  0.00000000000E+00 0. -1.
         25    2    1    2    0    0 -0.61619723425E+00  0.49674958285E+02  0.15591324218E+03  0.20592706382E+03  0.12501614033E+03 0.  0.
          2    1    1    2  501    0  0.33958995589E+02 -0.33416234069E+02  0.13321350824E+03  0.14147684213E+03  0.00000000000E+00 0. -1.
          1    1    1    2  502    0 -0.33342798354E+02 -0.16258724216E+02  0.58226133658E+03  0.58344181577E+03  0.00000000000E+00 0. -1.
         22    1    3    3    0    0 -0.46419447912E+02  0.43562424864E+02  0.27302301634E+02  0.69266627455E+02  0.00000000000E+00 0. -1.
         22    1    3    3    0    0  0.45803250677E+02  0.61125334206E+01  0.12861094055E+03  0.13666043636E+03  0.00000000000E+00 0. -1.
</event>
<event>
 7    1  0.6067783E-006  0.5332680E+02  0.7818608E-02  0.1499982E+00
          2   -1    0    0  502    0  0.00000000000E+00  0.00000000000E+00  0.29475827294E+04  0.29475827294E+04  0.00000000000E+00 0. -1.
          1   -1    0    0  501    0 -0.00000000000E+00 -0.00000000000E+00 -0.68896215735E+02  0.68896215735E+02  0.00000000000E+00 0. -1.
         25    2    1    2    0    0  0.14669200604E+02 -0.26266735593E+02  0.14204330623E+04  0.14262400267E+04  0.12500160907E+03 0.  0.
          2    1    1    2  501    0 -0.59410612688E+01 -0.31178148264E+02 -0.61588997873E+02  0.69286202069E+02  0.00000000000E+00 0. -1.
          1    1    1    2  502    0 -0.87281393354E+01  0.57444883857E+02  0.15198424493E+04  0.15209527164E+04  0.00000000000E+00 0. -1.
         22    1    3    3    0    0 -0.37519854336E+01  0.44454210046E+02  0.28631416931E+03  0.28976897304E+03  0.00000000000E+00 0. -1.
         22    1    3    3    0    0  0.18421186038E+02 -0.70720945639E+02  0.11341188930E+04  0.11364710536E+04  0.00000000000E+00 0. -1.
</event>
<event>
 7    1  0.6067783E-006  0.9157300E+02  0.7818608E-02  0.1345318E+00
          2   -1    0    0  502    0  0.00000000000E+00  0.00000000000E+00  0.22467040107E+03  0.22467040107E+03  0.00000000000E+00 0. -1.
          1   -1    0    0  501    0 -0.00000000000E+00 -0.00000000000E+00 -0.28466058022E+03  0.28466058022E+03  0.00000000000E+00 0. -1.
         25    2    1    2    0    0 -0.55656707856E+02 -0.24923370820E+02 -0.11542961630E+03  0.18074057914E+03  0.12499726832E+03 0.  0.
          2    1    1    2  501    0  0.11788818150E+02 -0.59509944083E+02 -0.11691423752E+03  0.13171692607E+03  0.00000000000E+00 0. -1.
          1    1    1    2  502    0  0.43867889706E+02  0.84433314903E+02  0.17235367467E+03  0.19687347608E+03  0.00000000000E+00 0. -1.
         22    1    3    3    0    0  0.37828354676E+02 -0.66969662833E+01 -0.57848266531E+02  0.69442463346E+02  0.00000000000E+00 0.  1.
         22    1    3    3    0    0 -0.93485062532E+02 -0.18226404537E+02 -0.57581349769E+02  0.11129811580E+03  0.00000000000E+00 0.  1.
</event>
<event>
 7    1  0.6067783E-006  0.1175665E+03  0.7818608E-02  0.1335264E+00
          2   -1    0    0  502    0  0.00000000000E+00  0.00000000000E+00  0.17024411112E+03  0.17024411112E+03  0.00000000000E+00 0. -1.
          1   -1    0    0  501    0 -0.00000000000E+00 -0.00000000000E+00 -0.60285739923E+03  0.60285739923E+03  0.00000000000E+00 0. -1.
         25    2    1    2    0    0 -0.52204093789E+02  0.97757857886E+02  0.17836848724E+02  0.16800357704E+03  0.12500073016E+03 0.  0.
          2    1    1    2  501    0  0.43028321404E+02  0.28392267023E+02 -0.47369878848E+03  0.47649564476E+03  0.00000000000E+00 0. -1.
          1    1    1    2  502    0  0.91757723849E+01 -0.12615012491E+03  0.23248651648E+02  0.12860228854E+03  0.00000000000E+00 0. -1.
         22    1    3    3    0    0  0.23239088296E+02  0.33204809593E+02 -0.36738350335E+02  0.54702111388E+02  0.00000000000E+00 0.  1.
         22    1    3    3    0    0 -0.75443182085E+02  0.64553048292E+02  0.54575199059E+02  0.11330146565E+03  0.00000000000E+00 0.  1.
</event>
<event>
 7    1  0.6067783E-006  0.2406223E+03  0.7818608E-02  0.1260522E+00
          2   -1    0    0  502    0  0.00000000000E+00  0.00000000000E+00  0.21651690871E+04  0.21651690871E+04  0.00000000000E+00 0. -1.
          1   -1    0    0  501    0 -0.00000000000E+00 -0.00000000000E+00 -0.67710473454E+03  0.67710473454E+03  0.00000000000E+00 0. -1.
         25    2    1    2    0    0 -0.12696708801E+03  0.18272165363E+03 -0.10357917958E+03  0.27543000941E+03  0.12500079798E+03 0.  0.
          2    1    1    2  501    0  0.10202055441E+03 -0.22641076280E+03 -0.45565190021E+03  0.51893032403E+03  0.00000000000E+00 0. -1.
          1    1    1    2  502    0  0.24946533601E+02  0.43689109170E+02  0.20472954323E+04  0.20479134882E+04  0.00000000000E+00 0. -1.
         22    1    3    3    0    0 -0.69210262271E+01 -0.69000582192E+01  0.17782145735E+02  0.20290788905E+02  0.00000000000E+00 0. -1.
         22    1    3    3    0    0 -0.12004606178E+03  0.18962171185E+03 -0.12136132531E+03  0.25513922050E+03  0.00000000000E+00 0. -1.
</event>
<event>
 7    1  0.6067783E-006  0.7878692E+02  0.7818608E-02  0.1432487E+00
          2   -1    0    0  502    0  0.00000000000E+00  0.00000000000E+00  0.13904820639E+04  0.13904820639E+04  0.00000000000E+00 0. -1.
          1   -1    0    0  501    0 -0.00000000000E+00 -0.00000000000E+00 -0.36033259397E+02  0.36033259397E+02  0.00000000000E+00 0. -1.
         25    2    1    2    0    0  0.86102011522E+02  0.53755667527E+02  0.20236742278E+03  0.25860828161E+03  0.12498976491E+03 0.  0.
          2    1    1    2  501    0 -0.10993790423E+02 -0.33160808226E+02  0.40026423802E+02  0.53128309144E+02  0.00000000000E+00 0. -1.
          1    1    1    2  502    0 -0.75108221100E+02 -0.20594859300E+02  0.11120549580E+04  0.11147787326E+04  0.00000000000E+00 0. -1.
         22    1    3    3    0    0  0.81762389558E+02  0.85599251290E+02  0.19063253067E+03  0.22439492400E+03  0.00000000000E+00 0. -1.
         22    1    3    3    0    0  0.43396219639E+01 -0.31843583763E+02  0.11734892108E+02  0.34213357603E+02  0.00000000000E+00 0. -1.
</event>
<event>
 7    1  0.6067783E-006  0.1351949E+03  0.7818608E-02  0.1341672E+00
          2   -1    0    0  502    0  0.00000000000E+00  0.00000000000E+00  0.17477689124E+04  0.17477689124E+04  0.00000000000E+00 0. -1.
          1   -1    0    0  501    0 -0.00000000000E+00 -0.00000000000E+00 -0.42726881551E+03  0.42726881551E+03  0.00000000000E+00 0. -1.
         25    2    1    2    0    0  0.35795222407E+02 -0.91779552904E+02 -0.62125572444E+01  0.15927588270E+03  0.12500170664E+03 0.  0.
          2    1    1    2  501    0  0.33785268884E+02 -0.25624511352E+02 -0.34042088193E+03  0.34305165329E+03  0.00000000000E+00 0. -1.
          1    1    1    2  502    0 -0.69580491291E+02  0.11740406426E+03  0.16671335360E+04  0.16727101919E+04  0.00000000000E+00 0. -1.
         22    1    3    3    0    0 -0.22924619130E+02 -0.94282551336E+02 -0.19618821205E+02  0.98993109832E+02  0.00000000000E+00 0. -1.
         22    1    3    3    0    0  0.58719841536E+02  0.25029984325E+01  0.13406263961E+02  0.60282772867E+02  0.00000000000E+00 0. -1.
</event>
<event>
 7    1  0.6067783E-006  0.7232232E+02  0.7818608E-02  0.1497533E+00
          2   -1    0    0  502    0  0.00000000000E+00  0.00000000000E+00  0.19374791050E+04  0.19374791050E+04  0.00000000000E+00 0. -1.
          1   -1    0    0  501    0 -0.00000000000E+00 -0.00000000000E+00 -0.35524647792E+03  0.35524647792E+03  0.00000000000E+00 0. -1.
         25    2    1    2    0    0  0.63413568669E+01  0.93713416339E+02  0.26410065329E+03  0.30691614564E+03  0.12500379264E+03 0.  0.
          2    1    1    2  501    0  0.33155789751E+01 -0.71959932459E+02 -0.32986577585E+03  0.33763983033E+03  0.00000000000E+00 0. -1.
          1    1    1    2  502    0 -0.96569358420E+01 -0.21753483881E+02  0.16479977496E+04  0.16481696069E+04  0.00000000000E+00 0. -1.
         22    1    3    3    0    0  0.51088213107E+02  0.81364341968E+02  0.11035679794E+03  0.14631741016E+03  0.00000000000E+00 0.  1.
         22    1    3    3    0    0 -0.44746856240E+02  0.12349074372E+02  0.15374385535E+03  0.16059873548E+03  0.00000000000E+00 0.  1.
</event>
<event>
 7    1  0.6067783E-006  0.1217133E+03  0.7818608E-02  0.1316368E+00
          2   -1    0    0  502    0  0.00000000000E+00  0.00000000000E+00  0.33739123800E+03  0.33739123800E+03  0.00000000000E+00 0. -1.
          1   -1    0    0  501    0 -0.00000000000E+00 -0.00000000000E+00 -0.51210239318E+03  0.51210239318E+03  0.00000000000E+00 0. -1.
         25    2    1    2    0    0 -0.12474771170E+03 -0.61471999135E+02 -0.14959892011E+03  0.23947396323E+03  0.12500857536E+03 0.  0.
          2    1    1    2  501    0  0.75233702815E+02  0.93304612413E+02 -0.30306342348E+03  0.32590381923E+03  0.00000000000E+00 0. -1.
          1    1    1    2  502    0  0.49514008890E+02 -0.31832613279E+02  0.27795118842E+03  0.28411584871E+03  0.00000000000E+00 0. -1.
         22    1    3    3    0    0 -0.12941714760E+03 -0.64156055523E+02 -0.16726616898E+03  0.22100400186E+03  0.00000000000E+00 0.  1.
         22    1    3    3    0    0  0.46694358963E+01  0.26840563888E+01  0.17667248870E+02  0.18469961368E+02  0.00000000000E+00 0.  1.
</event>
<event>
 7    1  0.6067783E-006  0.6613183E+02  0.7818608E-02  0.1444821E+00
          2   -1    0    0  502    0  0.00000000000E+00  0.00000000000E+00  0.86358375405E+03  0.86358375405E+03  0.00000000000E+00 0. -1.
          1   -1    0    0  501    0 -0.00000000000E+00 -0.00000000000E+00 -0.14463051054E+03  0.14463051054E+03  0.00000000000E+00 0. -1.
         25    2    1    2    0    0  0.32165633481E+02  0.27863177896E+02  0.35291043933E+02  0.13668296596E+03  0.12500316293E+03 0.  0.
          2    1    1    2  501    0 -0.26276141849E+02 -0.65353050502E+02 -0.80192378566E+02  0.10673459805E+03  0.00000000000E+00 0. -1.
          1    1    1    2  502    0 -0.58894916316E+01  0.37489872607E+02  0.76385457814E+03  0.76479670058E+03  0.00000000000E+00 0. -1.
         22    1    3    3    0    0 -0.75687638598E+01  0.57350674524E+02  0.58286389222E+02  0.82119968480E+02  0.00000000000E+00 0. -1.
         22    1    3    3    0    0  0.39734397340E+02 -0.29487496628E+02 -0.22995345289E+02  0.54562997483E+02  0.00000000000E+00 0. -1.
</event>
<event>
 7    1  0.6067783E-006  0.4378333E+02  0.7818608E-02  0.1493737E+00
          2   -1    0    0  502    0  0.00000000000E+00  0.00000000000E+00  0.33868468783E+03  0.33868468783E+03  0.00000000000E+00 0. -1.
          1   -1    0    0  501    0 -0.00000000000E+00 -0.00000000000E+00 -0.91441571950E+02  0.91441571950E+02  0.00000000000E+00 0. -1.
         25    2    1    2    0    0  0.33320569496E+02 -0.28692603898E+02  0.87396689228E+01  0.13279644167E+03  0.12499994894E+03 0.  0.
          2    1    1    2  501    0  0.79686995471E+01  0.43258860386E+02 -0.99085220555E+01  0.45088889804E+02  0.00000000000E+00 0. -1.
          1    1    1    2  502    0 -0.41289269043E+02 -0.14566256489E+02  0.24841196901E+03  0.25224092831E+03  0.00000000000E+00 0. -1.
         22    1    3    3    0    0 -0.26020604533E+02  0.31946323162E+02 -0.16339070144E+02  0.44323860809E+02  0.00000000000E+00 0. -1.
         22    1    3    3    0    0  0.59341174030E+02 -0.60638927060E+02  0.25078739067E+02  0.88472580856E+02  0.00000000000E+00 0. -1.
</event>
<event>
 7    1  0.6067783E-006  0.7212352E+02  0.7818608E-02  0.1391788E+00
          2   -1    0    0  502    0  0.00000000000E+00  0.00000000000E+00  0.86340108675E+03  0.86340108675E+03  0.00000000000E+00 0. -1.
          1   -1    0    0  501    0 -0.00000000000E+00 -0.00000000000E+00 -0.12087926824E+04  0.12087926824E+04  0.00000000000E+00 0. -1.
         25    2    1    2    0    0  0.96039307471E+02 -0.27772838609E+02 -0.19477632166E+03  0.25210516482E+03  0.12499727799E+03 0.  0.
          2    1    1    2  501    0 -0.26195717987E+02  0.45359242433E+02 -0.98309981800E+03  0.98449425019E+03  0.00000000000E+00 0. -1.
          1    1    1    2  502    0 -0.69843589485E+02 -0.17586403824E+02  0.83248454403E+03  0.83559435412E+03  0.00000000000E+00 0. -1.
         22    1    3    3    0    0  0.35053525457E+02  0.26639960230E+02 -0.35807589870E+01  0.44173056980E+02  0.00000000000E+00 0.  1.
         22    1    3    3    0    0  0.60985782014E+02 -0.54412798839E+02 -0.19119556267E+03  0.20793210784E+03  0.00000000000E+00 0.  1.
</event>
<event>
 7    1  0.6067783E-006  0.4131211E+02  0.7818608E-02  0.1507863E+00
          2   -1    0    0  502    0  0.00000000000E+00  0.00000000000E+00  0.39061168060E+02  0.39061168060E+02  0.00000000000E+00 0. -1.
          1   -1    0    0  501    0 -0.00000000000E+00 -0.00000000000E+00 -0.57038803666E+03  0.57038803666E+03  0.00000000000E+00 0. -1.
         25    2    1    2    0    0  0.55329048820E+01  0.20433887194E+02 -0.37851569424E+03  0.39918289070E+03  0.12499877064E+03 0.  0.
          2    1    1    2  501    0 -0.46143824064E+02 -0.12854743054E+02 -0.16115220246E+03  0.16812057957E+03  0.00000000000E+00 0. -1.
          1    1    1    2  502    0  0.40610919182E+02 -0.75791441397E+01  0.83410280937E+01  0.42145734450E+02  0.00000000000E+00 0. -1.
         22    1    3    3    0    0 -0.55456336869E+02 -0.12018333446E+02 -0.14670720048E+03  0.15729859602E+03  0.00000000000E+00 0. -1.
         22    1    3    3    0    0  0.60989241751E+02  0.32452220640E+02 -0.23180849376E+03  0.24188429468E+03  0.00000000000E+00 0. -1.
</event>
<event>
 7    1  0.6067783E-006  0.4577918E+02  0.7818608E-02  0.1471362E+00
          2   -1    0    0  502    0  0.00000000000E+00  0.00000000000E+00  0.95119305375E+03  0.95119305375E+03  0.00000000000E+00 0. -1.
          1   -1    0    0  501    0 -0.00000000000E+00 -0.00000000000E+00 -0.94618228679E+03  0.94618228679E+03  0.00000000000E+00 0. -1.
         25    2    1    2    0    0 -0.85339313377E+02  0.10848225008E+02  0.54608714532E+02  0.16126898605E+03  0.12500036706E+03 0.  0.
          2    1    1    2  501    0  0.40792411432E+02 -0.19432072622E+02 -0.89166951848E+03  0.89281361798E+03  0.00000000000E+00 0. -1.
          1    1    1    2  502    0  0.44546901945E+02  0.85838476140E+01  0.84207157091E+03  0.84329273651E+03  0.00000000000E+00 0. -1.
         22    1    3    3    0    0 -0.47932343062E+02  0.66500755228E+02  0.14839852460E+02  0.83307149623E+02  0.00000000000E+00 0.  1.
         22    1    3    3    0    0 -0.37406970315E+02 -0.55652530220E+02  0.39768862072E+02  0.77961836423E+02  0.00000000000E+00 0.  1.
</event>
<event>
 7    1  0.6067783E-006  0.6836290E+02  0.7818608E-02  0.1384515E+00
          2   -1    0    0  502    0  0.00000000000E+00  0.00000000000E+00  0.10704557663E+04  0.10704557663E+04  0.00000000000E+00 0. -1.
          1   -1    0    0  501    0 -0.00000000000E+00 -0.00000000000E+00 -0.11125591422E+03  0.11125591422E+03  0.00000000000E+00 0. -1.
         25    2    1    2    0    0  0.26224373706E+02 -0.10666784881E+03  0.23400891538E+02  0.16804158596E+03  0.12499850055E+03 0.  0.
          2    1    1    2  501    0 -0.34354113525E+02  0.48637953718E+02 -0.14725813224E+02  0.61340893644E+02  0.00000000000E+00 0. -1.
          1    1    1    2  502    0  0.81297398184E+01  0.58029895092E+02  0.95052477373E+03  0.95232920089E+03  0.00000000000E+00 0. -1.
         22    1    3    3    0    0 -0.26676448775E+02 -0.79175709044E+02 -0.29231458162E+02  0.88514992900E+02  0.00000000000E+00 0.  1.
         22    1    3    3    0    0  0.52900822481E+02 -0.27492139766E+02  0.52632349700E+02  0.79526593055E+02  0.00000000000E+00 0.  1.
</event>
<event>
 7    1  0.6067783E-006  0.1428090E+03  0.7818608E-02  0.1284280E+00
          2   -1    0    0  502    0  0.00000000000E+00  0.00000000000E+00  0.60259832126E+03  0.60259832126E+03  0.00000000000E+00 0. -1.
          1   -1    0    0  501    0 -0.00000000000E+00 -0.00000000000E+00 -0.11725905326E+04  0.11725905326E+04  0.00000000000E+00 0. -1.
         25    2    1    2    0    0 -0.65880184913E+02  0.93653346217E+02  0.13023184496E+02  0.17001696517E+03  0.12500006835E+03 0.  0.
          2    1    1    2  501    0  0.42227394032E+02  0.52567798318E+02 -0.10822901224E+04  0.10843885075E+04  0.00000000000E+00 0. -1.
          1    1    1    2  502    0  0.23652790881E+02 -0.14622114454E+03  0.49927472651E+03  0.52078338122E+03  0.00000000000E+00 0. -1.
         22    1    3    3    0    0 -0.79236701443E+02  0.15621284282E+02 -0.21614444864E+02  0.83604208058E+02  0.00000000000E+00 0. -1.
         22    1    3    3    0    0  0.13356516530E+02  0.78032061935E+02  0.34637629360E+02  0.86412757110E+02  0.00000000000E+00 0. -1.
</event>
<event>
 7    1  0.6067783E-006  0.3068319E+03  0.7818608E-02  0.1219772E+00
          2   -1    0    0  502    0  0.00000000000E+00  0.00000000000E+00  0.18098596662E+04  0.18098596662E+04  0.00000000000E+00 0. -1.
          1   -1    0    0  501    0 -0.00000000000E+00 -0.00000000000E+00 -0.41856921038E+03  0.41856921038E+03  0.00000000000E+00 0. -1.
         25    2    1    2    0    0  0.30155119192E+03 -0.14253113875E+03 -0.48307371911E+02  0.35945449695E+03  0.12500274530E+03 0.  0.
          2    1    1    2  501    0 -0.27734778743E+03  0.87982141821E+02 -0.11526441629E+03  0.31296731161E+03  0.00000000000E+00 0. -1.
          1    1    1    2  502    0 -0.24203404490E+02  0.54548996933E+02  0.15548622440E+04  0.15560070680E+04  0.00000000000E+00 0. -1.
         22    1    3    3    0    0  0.91451433874E+02 -0.15178073592E+02  0.36378073861E+02  0.99584652098E+02  0.00000000000E+00 0. -1.
         22    1    3    3    0    0  0.21009975805E+03 -0.12735306516E+03 -0.84685445772E+02  0.25986984485E+03  0.00000000000E+00 0. -1.
</event>
<event>
 7    1  0.6067783E-006  0.1235134E+03  0.7818608E-02  0.1305701E+00
          2   -1    0    0  502    0  0.00000000000E+00  0.00000000000E+00  0.17709413752E+04  0.17709413752E+04  0.00000000000E+00 0. -1.
          1   -1    0    0  501    0 -0.00000000000E+00 -0.00000000000E+00 -0.88835152238E+02  0.88835152238E+02  0.00000000000E+00 0. -1.
         25    2    1    2    0    0 -0.83920063278E+02  0.74520369059E+02  0.70575971852E+03  0.72547784799E+03  0.12500186081E+03 0.  0.
          2    1    1    2  501    0 -0.45475730299E+02 -0.44878208526E+02 -0.61093764429E+02  0.88399907799E+02  0.00000000000E+00 0. -1.
          1    1    1    2  502    0  0.12939579358E+03 -0.29642160533E+02  0.10374402688E+04  0.10458987716E+04  0.00000000000E+00 0. -1.
         22    1    3    3    0    0  0.21986846386E+02  0.44571930629E+02  0.33697230845E+03  0.34061769637E+03  0.00000000000E+00 0.  1.
         22    1    3    3    0    0 -0.10590690966E+03  0.29948438430E+02  0.36878741007E+03  0.38486015162E+03  0.00000000000E+00 0.  1.
</event>
<event>
 7    1  0.6067783E-006  0.5677012E+02  0.7818608E-02  0.1547668E+00
          2   -1    0    0  502    0  0.00000000000E+00  0.00000000000E+00  0.34101302942E+02  0.34101302942E+02  0.00000000000E+00 0. -1.
          1   -1    0    0  501    0 -0.00000000000E+00 -0.00000000000E+00 -0.13141469986E+04  0.13141469986E+04  0.00000000000E+00 0. -1.
         25    2    1    2    0    0 -0.87367088762E+00 -0.38637161194E+02 -0.40440430314E+03  0.42504345036E+03  0.12500200307E+03 0.  0.
          2    1    1    2  501    0 -0.94329616171E+01  0.57742723936E+02 -0.89330452437E+03  0.89521850751E+03  0.00000000000E+00 0. -1.
          1    1    1    2  502    0  0.10306632505E+02 -0.19105562743E+02  0.17663131894E+02  0.27986343627E+02  0.00000000000E+00 0. -1.
         22    1    3    3    0    0  0.97699198869E+01 -0.46080989930E+02 -0.40866750387E+03  0.41137335558E+03  0.00000000000E+00 0.  1.
         22    1    3    3    0    0 -0.10643590775E+02  0.74438287364E+01  0.42632007257E+01  0.13670094779E+02  0.00000000000E+00 0.  1.
</event>
<event>
 7    1  0.6067783E-006  0.1616170E+03  0.7818608E-02  0.1393346E+00
          2   -1    0    0  502    0  0.00000000000E+00  0.00000000000E+00  0.23949087583E+04  0.23949087583E+04  0.00000000000E+00 0. -1.
          1   -1    0    0  501    0 -0.00000000000E+00 -0.00000000000E+00 -0.15725203121E+03  0.15725203121E+03  0.00000000000E+00 0. -1.
         25    2    1    2    0    0  0.74284519703E+02  0.11988420391E+03  0.29231691874E+03  0.34780001295E+03  0.12500102324E+03 0.  0.
          2    1    1    2  501    0  0.10194023136E+02  0.20712945781E+02 -0.12521194106E+03  0.12732232489E+03  0.00000000000E+00 0. -1.
          1    1    1    2  502    0 -0.84478542839E+02 -0.14059714969E+03  0.20705517494E+04  0.20770384517E+04  0.00000000000E+00 0. -1.
         22    1    3    3    0    0  0.12026408990E+02  0.12407409165E+03  0.21406329752E+03  0.24771376643E+03  0.00000000000E+00 0. -1.
         22    1    3    3    0    0  0.62258110713E+02 -0.41898877396E+01  0.78253621219E+02  0.10008624652E+03  0.00000000000E+00 0. -1.
</event>
<event>
 7    1  0.6067783E-006  0.6879117E+02  0.7818608E-02  0.1412716E+00
          2   -1    0    0  502    0  0.00000000000E+00  0.00000000000E+00  0.62666705914E+02  0.62666705914E+02  0.00000000000E+00 0. -1.
          1   -1    0    0  501    0 -0.00000000000E+00 -0.00000000000E+00 -0.18494828924E+04  0.18494828924E+04  0.00000000000E+00 0. -1.
         25    2    1    2    0    0 -0.76734421836E+02  0.64112098310E+02 -0.93457282999E+03  0.94818165354E+03  0.12499416353E+03 0.  0.
          2    1    1    2  501    0  0.46465281580E+02 -0.29115648765E+01 -0.88640150096E+03  0.88762329876E+03  0.00000000000E+00 0. -1.
          1    1    1    2  502    0  0.30269140256E+02 -0.61200533434E+02  0.34158144447E+02  0.76344646024E+02  0.00000000000E+00 0. -1.
         22    1    3    3    0    0 -0.66898631178E+01  0.52813529312E+02 -0.12987655059E+03  0.14036360476E+03  0.00000000000E+00 0. -1.
         22    1    3    3    0    0 -0.70044558718E+02  0.11298568998E+02 -0.80469627939E+03  0.80781804878E+03  0.00000000000E+00 0. -1.
</event>
<event>
 7    1  0.6067783E-006  0.6696231E+02  0.7818608E-02  0.1446461E+00
          2   -1    0    0  502    0  0.00000000000E+00  0.00000000000E+00  0.62989970276E+03  0.62989970276E+03  0.00000000000E+00 0. -1.
          1   -1    0    0  501    0 -0.00000000000E+00 -0.00000000000E+00 -0.15939341370E+03  0.15939341370E+03  0.00000000000E+00 0. -1.
         25    2    1    2    0    0  0.39944745397E+02 -0.85688755293E+02  0.51769969394E+02  0.16505691059E+03  0.12500203412E+03 0.  0.
          2    1    1    2  501    0 -0.31025986675E+02  0.20206999258E+02 -0.97236992823E+02  0.10404790936E+03  0.00000000000E+00 0. -1.
          1    1    1    2  502    0 -0.89187587221E+01  0.65481756036E+02  0.51597331248E+03  0.52018829651E+03  0.00000000000E+00 0. -1.
         22    1    3    3    0    0  0.41935820691E+02 -0.11671217576E+03  0.31534621139E+02  0.12796396898E+03  0.00000000000E+00 0. -1.
         22    1    3    3    0    0 -0.19910752945E+01  0.31023420466E+02  0.20235348256E+02  0.37092941610E+02  0.00000000000E+00 0. -1.
</event>
<event>
 7    1  0.6067783E-006  0.8155894E+02  0.7818608E-02  0.1441662E+00
          2   -1    0    0  502    0  0.00000000000E+00  0.00000000000E+00  0.15843568683E+03  0.15843568683E+03  0.00000000000E+00 0. -1.
          1   -1    0    0  501    0 -0.00000000000E+00 -0.00000000000E+00 -0.80184600063E+03  0.80184600063E+03  0.00000000000E+00 0. -1.
         25    2    1    2    0    0 -0.67109710838E+02 -0.52334452881E+02 -0.17659086422E+03  0.23249371253E+03  0.12500553906E+03 0.  0.
          2    1    1    2  501    0  0.25768068491E+02 -0.18122968879E+02 -0.58405168923E+03  0.58490068477E+03  0.00000000000E+00 0. -1.
          1    1    1    2  502    0  0.41341642347E+02  0.70457421760E+02  0.11723223965E+03  0.14288729015E+03  0.00000000000E+00 0. -1.
         22    1    3    3    0    0  0.67515201810E+00 -0.49177573625E+02 -0.15290541456E+03  0.16062053225E+03  0.00000000000E+00 0. -1.
         22    1    3    3    0    0 -0.67784862856E+02 -0.31568792555E+01 -0.23685449660E+02  0.71873180288E+02  0.00000000000E+00 0. -1.
</event>
<event>
 7    1  0.6067783E-006  0.9571621E+02  0.7818608E-02  0.1366393E+00
          2   -1    0    0  502    0  0.00000000000E+00  0.00000000000E+00  0.11357336989E+03  0.11357336989E+03  0.00000000000E+00 0. -1.
          1   -1    0    0  501    0 -0.00000000000E+00 -0.00000000000E+00 -0.24017774933E+04  0.24017774933E+04  0.00000000000E+00 0. -1.
         25    2    1    2    0    0 -0.55636214748E+02  0.44867105394E+02 -0.24689727103E+03  0.28581818909E+03  0.12500131693E+03 0.  0.
          2    1    1    2  501    0  0.37709586715E+02 -0.90003483675E+02 -0.21279607659E+04  0.21301970945E+04  0.00000000000E+00 0. -1.
          1    1    1    2  502    0  0.17926628033E+02  0.45136378281E+02  0.86653913570E+02  0.99335579597E+02  0.00000000000E+00 0. -1.
         22    1    3    3    0    0 -0.86132278990E+02  0.64458739710E+02 -0.17860911685E+03  0.20850639134E+03  0.00000000000E+00 0. -1.
         22    1    3    3    0    0  0.30496064243E+02 -0.19591634316E+02 -0.68288154180E+02  0.77311797747E+02  0.00000000000E+00 0. -1.
</event>
<event>
 7    1  0.6067783E-006  0.7495581E+02  0.7818608E-02  0.1438710E+00
          2   -1    0    0  502    0  0.00000000000E+00  0.00000000000E+00  0.75814515499E+03  0.75814515499E+03  0.00000000000E+00 0. -1.
          1   -1    0    0  501    0 -0.00000000000E+00 -0.00000000000E+00 -0.32729260007E+03  0.32729260007E+03  0.00000000000E+00 0. -1.
         25    2    1    2    0    0  0.25306806917E+02  0.46151267106E+02  0.63480030497E+02  0.14975223291E+03  0.12500257221E+03 0.  0.
          2    1    1    2  501    0 -0.60346520872E+02 -0.46580713231E+02 -0.27856011066E+03  0.28880304824E+03  0.00000000000E+00 0. -1.
          1    1    1    2  502    0  0.35039713955E+02  0.42944612568E+00  0.64593263508E+03  0.64688247390E+03  0.00000000000E+00 0. -1.
         22    1    3    3    0    0 -0.46180827739E+02  0.17848777687E+01  0.43076021117E+02  0.63177513678E+02  0.00000000000E+00 0.  1.
         22    1    3    3    0    0  0.71487634656E+02  0.44366389337E+02  0.20404009380E+02  0.86574719233E+02  0.00000000000E+00 0.  1.
</event>
<event>
 7    1  0.6067783E-006  0.5201857E+02  0.7818608E-02  0.1497595E+00
          2   -1    0    0  502    0  0.00000000000E+00  0.00000000000E+00  0.46601443003E+03  0.46601443003E+03  0.00000000000E+00 0. -1.
          1   -1    0    0  501    0 -0.00000000000E+00 -0.00000000000E+00 -0.21245998900E+03  0.21245998900E+03  0.00000000000E+00 0. -1.
         25    2    1    2    0    0  0.55137684690E+02  0.63214713667E+02  0.17652223888E+03  0.23199425635E+03  0.12499987944E+03 0.  0.
          2    1    1    2  501    0 -0.29791011615E+02 -0.41963955986E+02 -0.18005942705E+03  0.18726952567E+03  0.00000000000E+00 0. -1.
          1    1    1    2  502    0 -0.25346673075E+02 -0.21250757680E+02  0.25709162920E+03  0.25921063702E+03  0.00000000000E+00 0. -1.
         22    1    3    3    0    0  0.10963434759E+02  0.86266906475E+02  0.61110720707E+02  0.10628591741E+03  0.00000000000E+00 0. -1.
         22    1    3    3    0    0  0.44174249931E+02 -0.23052192809E+02  0.11541151817E+03  0.12570833893E+03  0.00000000000E+00 0. -1.
</event>
<event>
 7    1  0.6067783E-006  0.5682467E+02  0.7818608E-02  0.1439917E+00
          2   -1    0    0  502    0  0.00000000000E+00  0.00000000000E+00  0.54253315162E+03  0.54253315162E+03  0.00000000000E+00 0. -1.
          1   -1    0    0  501    0 -0.00000000000E+00 -0.00000000000E+00 -0.91474811528E+02  0.91474811528E+02  0.00000000000E+00 0. -1.
         25    2    1    2    0    0  0.70745435681E+02 -0.19642413291E+01  0.36458966694E+03  0.39186620705E+03  0.12499889629E+03 0.  0.
          2    1    1    2  501    0 -0.27013399937E+02  0.36995400140E+02 -0.65638351321E+02  0.80042342369E+02  0.00000000000E+00 0. -1.
          1    1    1    2  502    0 -0.43732035744E+02 -0.35031158811E+02  0.15210702447E+03  0.16209941373E+03  0.00000000000E+00 0. -1.
         22    1    3    3    0    0  0.10192491058E+03 -0.22838771660E+02  0.29259999038E+03  0.31068481015E+03  0.00000000000E+00 0. -1.
         22    1    3    3    0    0 -0.31179474896E+02  0.20874530331E+02  0.71989676560E+02  0.81181396899E+02  0.00000000000E+00 0. -1.
</event>
<event>
 7    1  0.6067783E-006  0.2774214E+03  0.7818608E-02  0.1203212E+00
          2   -1    0    0  502    0  0.00000000000E+00  0.00000000000E+00  0.23902884471E+04  0.23902884471E+04  0.00000000000E+00 0. -1.
          1   -1    0    0  501    0 -0.00000000000E+00 -0.00000000000E+00 -0.69357548866E+03  0.69357548866E+03  0.00000000000E+00 0. -1.
         25    2    1    2    0    0 -0.20469833774E+03  0.12989696120E+03  0.26419884914E+03  0.37973550722E+03  0.12499357408E+03 0.  0.
          2    1    1    2  501    0 -0.66129399253E+02 -0.42731331187E+02 -0.62353585333E+03  0.62848709175E+03  0.00000000000E+00 0. -1.
          1    1    1    2  502    0  0.27082773699E+03 -0.87165630009E+02  0.20560499627E+04  0.20756413368E+04  0.00000000000E+00 0. -1.
         22    1    3    3    0    0 -0.32772343826E+02  0.58218403767E+02  0.14756220482E+02  0.68418967398E+02  0.00000000000E+00 0. -1.
         22    1    3    3    0    0 -0.17192599391E+03  0.71678557429E+02  0.24944262866E+03  0.31131653983E+03  0.00000000000E+00 0. -1.
</event>
<event>
 7    1  0.6067783E-006  0.1519988E+03  0.7818608E-02  0.1214928E+00
          2   -1    0    0  502    0  0.00000000000E+00  0.00000000000E+00  0.29179411626E+04  0.29179411626E+04  0.00000000000E+00 0. -1.
          1   -1    0    0  501    0 -0.00000000000E+00 -0.00000000000E+00 -0.60567678122E+03  0.60567678122E+03  0.00000000000E+00 0. -1.
         25    2    1    2    0    0  0.48683099074E+02 -0.85431715940E+02  0.56734813798E+03  0.58921757034E+03  0.12499925321E+03 0.  0.
          2    1    1    2  501    0 -0.94745751663E+02 -0.84241268114E+02 -0.58463526041E+03  0.59822381800E+03  0.00000000000E+00 0. -1.
          1    1    1    2  502    0  0.46062652589E+02  0.16967298405E+03  0.23295515038E+04  0.23361765555E+04  0.00000000000E+00 0. -1.
         22    1    3    3    0    0  0.41113413264E+02  0.22126369277E+02  0.24215220998E+03  0.24661220928E+03  0.00000000000E+00 0. -1.
         22    1    3    3    0    0  0.75696858100E+01 -0.10755808522E+03  0.32519592800E+03  0.34260536106E+03  0.00000000000E+00 0. -1.
</event>
<event>
 7    1  0.6067783E-006  0.9481054E+02  0.7818608E-02  0.1452516E+00
          2   -1    0    0  502    0  0.00000000000E+00  0.00000000000E+00  0.13881417830E+03  0.13881417830E+03  0.00000000000E+00 0. -1.
          1   -1    0    0  501    0 -0.00000000000E+00 -0.00000000000E+00 -0.18455004364E+04  0.18455004364E+04  0.00000000000E+00 0. -1.
         25    2    1    2    0    0 -0.36896184066E+02 -0.87965164582E+02 -0.93314280695E+02  0.18284353664E+03  0.12500002133E+03 0.  0.
          2    1    1    2  501    0  0.58232071225E+02  0.74918128221E+02 -0.17044157051E+04  0.17070549481E+04  0.00000000000E+00 0. -1.
          1    1    1    2  502    0 -0.21335887159E+02  0.13047036361E+02  0.91043727710E+02  0.94416129946E+02  0.00000000000E+00 0. -1.
         22    1    3    3    0    0 -0.67864375119E+02 -0.65873992877E+02 -0.14973829092E+02  0.95755793065E+02  0.00000000000E+00 0.  1.
         22    1    3    3    0    0  0.30968191053E+02 -0.22091171705E+02 -0.78340451602E+02  0.87087743579E+02  0.00000000000E+00 0.  1.
</event>
<event>
 7    1  0.6067783E-006  0.1082622E+03  0.7818608E-02  0.1338431E+00
          2   -1    0    0  502    0  0.00000000000E+00  0.00000000000E+00  0.27043661746E+03  0.27043661746E+03  0.00000000000E+00 0. -1.
          1   -1    0    0  501    0 -0.00000000000E+00 -0.00000000000E+00 -0.11537243446E+04  0.11537243446E+04  0.00000000000E+00 0. -1.
         25    2    1    2    0    0 -0.37350795555E+02 -0.46725213375E+02  0.60732445293E+01  0.13869824479E+03  0.12498796468E+03 0.  0.
          2    1    1    2  501    0  0.44870701933E+02  0.10066322190E+03 -0.10808120001E+04  0.10864166069E+04  0.00000000000E+00 0. -1.
          1    1    1    2  502    0 -0.75199063781E+01 -0.53938008527E+02  0.19145102846E+03  0.19904611037E+03  0.00000000000E+00 0. -1.
         22    1    3    3    0    0  0.49146934028E+01 -0.33440418242E+02  0.60024838973E+02  0.68886842555E+02  0.00000000000E+00 0.  1.
         22    1    3    3    0    0 -0.42265488958E+02 -0.13284795133E+02 -0.53951594444E+02  0.69811402232E+02  0.00000000000E+00 0.  1.
</event>
<event>
 7    1  0.6067783E-006  0.8009324E+02  0.7818608E-02  0.1493400E+00
          2   -1    0    0  502    0  0.00000000000E+00  0.00000000000E+00  0.21907365838E+03  0.21907365838E+03  0.00000000000E+00 0. -1.
          1   -1    0    0  501    0 -0.00000000000E+00 -0.00000000000E+00 -0.73833704137E+03  0.73833704137E+03  0.00000000000E+00 0. -1.
         25    2    1    2    0    0  0.62768619282E+02  0.70998980907E+02  0.70090058839E+01  0.15701478360E+03  0.12499504490E+03 0.  0.
          2    1    1    2  501    0 -0.62960449069E+02 -0.48885375086E+02 -0.66002832004E+03  0.66482417322E+03  0.00000000000E+00 0. -1.
          1    1    1    2  502    0  0.19182978642E+00 -0.22113605821E+02  0.13375593117E+03  0.13557174294E+03  0.00000000000E+00 0. -1.
         22    1    3    3    0    0 -0.85961879373E+01  0.83868144966E+02  0.54184091929E+01  0.84481473384E+02  0.00000000000E+00 0.  1.
         22    1    3    3    0    0  0.71364807220E+02 -0.12869164059E+02  0.15905966911E+01  0.72533310216E+02  0.00000000000E+00 0.  1.
</event>
<event>
 7    1  0.6067783E-006  0.2369228E+03  0.7818608E-02  0.1126904E+00
          2   -1    0    0  502    0  0.00000000000E+00  0.00000000000E+00  0.19982130104E+04  0.19982130104E+04  0.00000000000E+00 0. -1.
          1   -1    0    0  501    0 -0.00000000000E+00 -0.00000000000E+00 -0.13148516546E+03  0.13148516546E+03  0.00000000000E+00 0. -1.
         25    2    1    2    0    0  0.50179489315E+02  0.26400314941E+02  0.51979657047E+03  0.53760448388E+03  0.12496058833E+03 0.  0.
          2    1    1    2  501    0 -0.27917301601E+03  0.34380966282E+02  0.65319568143E+02  0.28876680850E+03  0.00000000000E+00 0. -1.
          1    1    1    2  502    0  0.22899352670E+03 -0.60781281223E+02  0.12816117063E+04  0.13033268835E+04  0.00000000000E+00 0. -1.
         22    1    3    3    0    0 -0.17193461207E+02 -0.19718704804E+02  0.25235462872E+02  0.36349291792E+02  0.00000000000E+00 0. -1.
         22    1    3    3    0    0  0.67372950522E+02  0.46119019745E+02  0.49456110760E+03  0.50125519208E+03  0.00000000000E+00 0. -1.
</event>
<event>
 7    1  0.6067783E-006  0.1427329E+03  0.7818608E-02  0.1353308E+00
          2   -1    0    0  502    0  0.00000000000E+00  0.00000000000E+00  0.29095152806E+03  0.29095152806E+03  0.00000000000E+00 0. -1.
          1   -1    0    0  501    0 -0.00000000000E+00 -0.00000000000E+00 -0.69126914009E+03  0.69126914009E+03  0.00000000000E+00 0. -1.
         25    2    1    2    0    0  0.14240172431E+03  0.66798651331E+02 -0.51154497476E+03  0.54958433601E+03  0.12499748113E+03 0.  0.
          2    1    1    2  501    0 -0.33810131479E+01 -0.36196994967E+02 -0.13958640331E+03  0.14424291207E+03  0.00000000000E+00 0. -1.
          1    1    1    2  502    0 -0.13902071116E+03 -0.30601656363E+02  0.25081376603E+03  0.28839342006E+03  0.00000000000E+00 0. -1.
         22    1    3    3    0    0  0.92551777472E+02  0.99479114546E+02 -0.40893587369E+03  0.43091817615E+03  0.00000000000E+00 0. -1.
         22    1    3    3    0    0  0.49849946841E+02 -0.32680463216E+02 -0.10260910106E+03  0.11866615987E+03  0.00000000000E+00 0. -1.
</event>
<event>
 7    1  0.6067783E-006  0.4518708E+02  0.7818608E-02  0.1487437E+00
          2   -1    0    0  502    0  0.00000000000E+00  0.00000000000E+00  0.83305754495E+03  0.83305754495E+03  0.00000000000E+00 0. -1.
          1   -1    0    0  501    0 -0.00000000000E+00 -0.00000000000E+00 -0.37217997986E+02  0.37217997986E+02  0.00000000000E+00 0. -1.
         25    2    1    2    0    0  0.81882548452E+02  0.12366629075E+02  0.26014377548E+03  0.30026254420E+03  0.12500050510E+03 0.  0.
          2    1    1    2  501    0 -0.40803562577E+02  0.21258809713E+01  0.94112013960E+01  0.41928758634E+02  0.00000000000E+00 0. -1.
          1    1    1    2  502    0 -0.41078985875E+02 -0.14492510046E+02  0.52628457009E+03  0.52808424010E+03  0.00000000000E+00 0. -1.
         22    1    3    3    0    0  0.46498644009E+02  0.56361569512E+02  0.67349657341E+02  0.99371659725E+02  0.00000000000E+00 0. -1.
         22    1    3    3    0    0  0.35383904442E+02 -0.43994940437E+02  0.19279411814E+03  0.20089088448E+03  0.00000000000E+00 0. -1.
</event>
<event>
 7    1  0.6067783E-006  0.7314723E+02  0.7818608E-02  0.1374736E+00
          2   -1    0    0  502    0  0.00000000000E+00  0.00000000000E+00  0.40649467334E+02  0.40649467334E+02  0.00000000000E+00 0. -1.
          1   -1    0    0  501    0 -0.00000000000E+00 -0.00000000000E+00 -0.16480447325E+04  0.16480447325E+04  0.00000000000E+00 0. -1.
         25    2    1    2    0    0  0.48793058921E+01 -0.28084790453E+02 -0.44017871096E+03  0.45847083219E+03  0.12500257322E+03 0.  0.
          2    1    1    2  501    0 -0.56164965507E+02  0.57880696143E+02 -0.11681226567E+04  0.11709035910E+04  0.00000000000E+00 0. -1.
          1    1    1    2  502    0  0.51285659615E+02 -0.29795905690E+02  0.90610249173E+00  0.59319776632E+02  0.00000000000E+00 0. -1.
         22    1    3    3    0    0  0.43228494676E+02  0.46582863764E+01 -0.36720139437E+03  0.36976650256E+03  0.00000000000E+00 0.  1.
         22    1    3    3    0    0 -0.38349188784E+02 -0.32743076829E+02 -0.72977316587E+02  0.88704329640E+02  0.00000000000E+00 0.  1.
</event>
<event>
 7    1  0.1155573E-005  0.7215670E+02  0.7818608E-02  0.1422865E+00
          2   -1    0    0  502    0  0.00000000000E+00  0.00000000000E+00  0.96663614582E+03  0.96663614582E+03  0.00000000000E+00 0. -1.
          1   -1    0    0  501    0 -0.00000000000E+00 -0.00000000000E+00 -0.22236179083E+04  0.22236179083E+04  0.00000000000E+00 0. -1.
         25    2    1    2    0    0 -0.96250048696E+02 -0.56262840349E+02 -0.66271355235E+03  0.68355264140E+03  0.12500152807E+03 0.  0.
          2    1    1    2  501    0  0.39172983982E+02  0.12244533356E+02 -0.15488542636E+04  0.15493979415E+04  0.00000000000E+00 0. -1.
          1    1    1    2  502    0  0.57077064714E+02  0.44018306994E+02  0.95458605343E+03  0.95730347125E+03  0.00000000000E+00 0. -1.
         22    1    3    3    0    0 -0.10521628001E+03 -0.84780811528E+02 -0.49087240068E+03  0.50913059752E+03  0.00000000000E+00 0.  1.
         22    1    3    3    0    0  0.89662313135E+01  0.28517971179E+02 -0.17184115167E+03  0.17442204388E+03  0.00000000000E+00 0.  1.
</event>
<event>
 7    1  0.6067783E-006  0.1019023E+03  0.7818608E-02  0.1431741E+00
          2   -1    0    0  502    0  0.00000000000E+00  0.00000000000E+00  0.50472423203E+03  0.50472423203E+03  0.00000000000E+00 0. -1.
          1   -1    0    0  501    0 -0.00000000000E+00 -0.00000000000E+00 -0.11682453452E+04  0.11682453452E+04  0.00000000000E+00 0. -1.
         25    2    1    2    0    0  0.10425674677E+03  0.76359361927E+01  0.14020056103E+03  0.21496269549E+03  0.12499994548E+03 0.  0.
          2    1    1    2  501    0 -0.96221554215E+02 -0.33583933581E+02 -0.11279991323E+04  0.11325937094E+04  0.00000000000E+00 0. -1.
          1    1    1    2  502    0 -0.80351925574E+01  0.25947997389E+02  0.32427745811E+03  0.32541317233E+03  0.00000000000E+00 0. -1.
         22    1    3    3    0    0 -0.19479610692E+02 -0.14636240551E+02  0.62705750202E+02  0.67273218137E+02  0.00000000000E+00 0.  1.
         22    1    3    3    0    0  0.12373635746E+03  0.22272176744E+02  0.77494810833E+02  0.14768947736E+03  0.00000000000E+00 0.  1.
</event>
<event>
 7    1  0.6067783E-006  0.8975666E+02  0.7818608E-02  0.1350126E+00
          2   -1    0    0  502    0  0.00000000000E+00  0.00000000000E+00  0.61156668023E+03  0.61156668023E+03  0.00000000000E+00 0. -1.
          1   -1    0    0  501    0 -0.00000000000E+00 -0.00000000000E+00 -0.32741788271E+04  0.32741788271E+04  0.00000000000E+00 0. -1.
         25    2    1    2    0    0  0.51216223081E+02  0.13240736407E+03  0.10937648470E+03  0.21850203156E+03  0.12500044330E+03 0.  0.
          2    1    1    2  501    0 -0.51891395348E+02 -0.73013016080E+02 -0.32170194282E+04  0.32182662443E+04  0.00000000000E+00 0. -1.
          1    1    1    2  502    0  0.67517226663E+00 -0.59394347988E+02  0.44503079665E+03  0.44897723149E+03  0.00000000000E+00 0. -1.
         22    1    3    3    0    0  0.20857354522E+01  0.93625489654E+01 -0.26825807682E+02  0.28489148343E+02  0.00000000000E+00 0.  1.
         22    1    3    3    0    0  0.49130487629E+02  0.12304481510E+03  0.13620229239E+03  0.19001288322E+03  0.00000000000E+00 0.  1.
</event>
<event>
 7    1  0.6067783E-006  0.6673275E+02  0.7818608E-02  0.1435708E+00
          2   -1    0    0  502    0  0.00000000000E+00  0.00000000000E+00  0.81766555443E+02  0.81766555443E+02  0.00000000000E+00 0. -1.
          1   -1    0    0  501    0 -0.00000000000E+00 -0.00000000000E+00 -0.29796800799E+03  0.29796800799E+03  0.00000000000E+00 0. -1.
         25    2    1    2    0    0  0.79088620999E+01 -0.53036962830E+02 -0.25005092021E+02  0.13828811036E+03  0.12499150897E+03 0.  0.
          2    1    1    2  501    0 -0.31350635651E+02 -0.25254115538E+02 -0.13843511850E+03  0.14416974281E+03  0.00000000000E+00 0. -1.
          1    1    1    2  502    0  0.23441773551E+02  0.78291078368E+02 -0.52761242020E+02  0.97276710258E+02  0.00000000000E+00 0. -1.
         22    1    3    3    0    0 -0.34452577826E+02 -0.64643454778E+02 -0.49105487670E+02  0.88187897604E+02  0.00000000000E+00 0. -1.
         22    1    3    3    0    0  0.42361439925E+02  0.11606491948E+02  0.24100395649E+02  0.50100212757E+02  0.00000000000E+00 0. -1.
</event>
<event>
 7    1  0.6067783E-006  0.7287313E+02  0.7818608E-02  0.1496521E+00
          2   -1    0    0  502    0  0.00000000000E+00  0.00000000000E+00  0.77385925535E+03  0.77385925535E+03  0.00000000000E+00 0. -1.
          1   -1    0    0  501    0 -0.00000000000E+00 -0.00000000000E+00 -0.48500207121E+02  0.48500207121E+02  0.00000000000E+00 0. -1.
         25    2    1    2    0    0  0.20767698933E+02  0.46403732791E+02  0.56727745507E+03  0.58310684321E+03  0.12500110332E+03 0.  0.
          2    1    1    2  501    0 -0.25349688335E+02 -0.69744442892E+02 -0.50650664773E+01  0.74381105876E+02  0.00000000000E+00 0. -1.
          1    1    1    2  502    0  0.45819894018E+01  0.23340710101E+02  0.16314665964E+03  0.16487151339E+03  0.00000000000E+00 0. -1.
         22    1    3    3    0    0  0.31922955477E+02  0.51807740663E+02  0.56745668426E+03  0.57071026414E+03  0.00000000000E+00 0.  1.
         22    1    3    3    0    0 -0.11155256544E+02 -0.54040078718E+01 -0.17922919015E+00  0.12396579074E+02  0.00000000000E+00 0.  1.
</event>
<event>
 7    1  0.6067783E-006  0.7480484E+02  0.7818608E-02  0.1473269E+00
          2   -1    0    0  502    0  0.00000000000E+00  0.00000000000E+00  0.32549125067E+04  0.32549125067E+04  0.00000000000E+00 0. -1.
          1   -1    0    0  501    0 -0.00000000000E+00 -0.00000000000E+00 -0.26711180057E+02  0.26711180057E+02  0.00000000000E+00 0. -1.
         25    2    1    2    0    0  0.40135444621E+02 -0.64202897039E+02  0.68235052459E+03  0.69782442091E+03  0.12499527231E+03 0.  0.
          2    1    1    2  501    0  0.19699930866E+02  0.18868269018E+02 -0.83252025435E+01  0.28520305911E+02  0.00000000000E+00 0. -1.
          1    1    1    2  502    0 -0.59835375486E+02  0.45334628021E+02  0.25541760046E+04  0.25552789599E+04  0.00000000000E+00 0. -1.
         22    1    3    3    0    0  0.81338271619E+02 -0.64164721075E+02  0.52808242654E+03  0.53814874810E+03  0.00000000000E+00 0.  1.
         22    1    3    3    0    0 -0.41202826999E+02 -0.38175964693E-01  0.15426809805E+03  0.15967567281E+03  0.00000000000E+00 0.  1.
</event>
<event>
 7    1  0.6067783E-006  0.5613861E+02  0.7818608E-02  0.1479223E+00
          2   -1    0    0  502    0  0.00000000000E+00  0.00000000000E+00  0.11068070198E+04  0.11068070198E+04  0.00000000000E+00 0. -1.
          1   -1    0    0  501    0 -0.00000000000E+00 -0.00000000000E+00 -0.44014095485E+03  0.44014095485E+03  0.00000000000E+00 0. -1.
         25    2    1    2    0    0 -0.40001109069E+02 -0.22328505315E+02  0.63146574833E+03  0.64534630519E+03  0.12499684573E+03 0.  0.
          2    1    1    2  501    0 -0.20762336392E+02  0.27982213462E+02 -0.43050610681E+03  0.43191386512E+03  0.00000000000E+00 0. -1.
          1    1    1    2  502    0  0.60763445461E+02 -0.56537081477E+01  0.46570642342E+03  0.46968780433E+03  0.00000000000E+00 0. -1.
         22    1    3    3    0    0  0.26410018631E+02 -0.21995638234E+02  0.53575042159E+02  0.63652041033E+02  0.00000000000E+00 0. -1.
         22    1    3    3    0    0 -0.66411127699E+02 -0.33286708069E+00  0.57789070617E+03  0.58169426416E+03  0.00000000000E+00 0. -1.
</event>
<event>
 7    1  0.6067783E-006  0.7906244E+02  0.7818608E-02  0.1456475E+00
          2   -1    0    0  502    0  0.00000000000E+00  0.00000000000E+00  0.82662250897E+03  0.82662250897E+03  0.00000000000E+00 0. -1.
          1   -1    0    0  501    0 -0.00000000000E+00 -0.00000000000E+00 -0.13410842875E+04  0.13410842875E+04  0.00000000000E+00 0. -1.
         25    2    1    2    0    0  0.18838100223E+02  0.76549827268E+02 -0.48270170192E+03  0.50481763173E+03  0.12500063281E+03 0.  0.
          2    1    1    2  501    0 -0.45778068904E+02 -0.65459132403E+02 -0.84518071001E+03  0.84894697254E+03  0.00000000000E+00 0. -1.
          1    1    1    2  502    0  0.26939968680E+02 -0.11090694865E+02  0.81342063339E+03  0.81394219221E+03  0.00000000000E+00 0. -1.
         22    1    3    3    0    0  0.87669631465E+01  0.90248871737E+02 -0.17914456883E+03  0.20078469820E+03  0.00000000000E+00 0.  1.
         22    1    3    3    0    0  0.10071137077E+02 -0.13699044470E+02 -0.30355713309E+03  0.30403293353E+03  0.00000000000E+00 0.  1.
</event>
<event>
 7    1  0.6067783E-006  0.3725487E+02  0.7818608E-02  0.1581890E+00
          2   -1    0    0  502    0  0.00000000000E+00  0.00000000000E+00  0.13123935286E+04  0.13123935286E+04  0.00000000000E+00 0. -1.
          1   -1    0    0  501    0 -0.00000000000E+00 -0.00000000000E+00 -0.19410993430E+03  0.19410993430E+03  0.00000000000E+00 0. -1.
         25    2    1    2    0    0  0.22312014457E+01  0.21624599885E+02  0.10038674598E+04  0.10118542139E+04  0.12500588671E+03 0.  0.
          2    1    1    2  501    0  0.21467516498E+02  0.15816061294E+02 -0.18755673538E+03  0.18944268538E+03  0.00000000000E+00 0. -1.
          1    1    1    2  502    0 -0.23698717944E+02 -0.37440661178E+02  0.30197286994E+03  0.30520656369E+03  0.00000000000E+00 0. -1.
         22    1    3    3    0    0  0.25451407932E+01  0.41342067967E+02  0.98008347946E+03  0.98095834317E+03  0.00000000000E+00 0.  1.
         22    1    3    3    0    0 -0.31393934743E+00 -0.19717468083E+02  0.23783980319E+02  0.30895870684E+02  0.00000000000E+00 0.  1.
</event>
<event>
 7    1  0.6067783E-006  0.1117888E+03  0.7818608E-02  0.1286532E+00
          2   -1    0    0  502    0  0.00000000000E+00  0.00000000000E+00  0.14339936572E+04  0.14339936572E+04  0.00000000000E+00 0. -1.
          1   -1    0    0  501    0 -0.00000000000E+00 -0.00000000000E+00 -0.12327870591E+03  0.12327870591E+03  0.00000000000E+00 0. -1.
         25    2    1    2    0    0  0.10900328133E+02 -0.44253414228E+02  0.28750337155E+03  0.31679694701E+03  0.12499974062E+03 0.  0.
          2    1    1    2  501    0  0.41810937520E+02 -0.73233123614E+02 -0.87968281934E+02  0.12185919546E+03  0.00000000000E+00 0. -1.
          1    1    1    2  502    0 -0.52711265653E+02  0.11748653784E+03  0.11111798617E+04  0.11186162207E+04  0.00000000000E+00 0. -1.
         22    1    3    3    0    0 -0.43028610481E+02  0.20575166160E+02  0.12336432412E+03  0.13226320444E+03  0.00000000000E+00 0. -1.
         22    1    3    3    0    0  0.53928938614E+02 -0.64828580388E+02  0.16413904743E+03  0.18453374257E+03  0.00000000000E+00 0. -1.
</event>
<event>
 7    1  0.6067783E-006  0.9009722E+02  0.7818608E-02  0.1479406E+00
          2   -1    0    0  502    0  0.00000000000E+00  0.00000000000E+00  0.38756018758E+03  0.38756018758E+03  0.00000000000E+00 0. -1.
          1   -1    0    0  501    0 -0.00000000000E+00 -0.00000000000E+00 -0.82655322145E+03  0.82655322145E+03  0.00000000000E+00 0. -1.
         25    2    1    2    0    0  0.32563975243E+02  0.79654869528E+02 -0.16413383431E+03  0.22353988923E+03  0.12499942316E+03 0.  0.
          2    1    1    2  501    0 -0.13397120287E+02 -0.89792125881E+02 -0.62912656264E+03  0.63564324941E+03  0.00000000000E+00 0. -1.
          1    1    1    2  502    0 -0.19166854956E+02  0.10137256353E+02  0.35426736308E+03  0.35493027039E+03  0.00000000000E+00 0. -1.
         22    1    3    3    0    0  0.37983294753E+02  0.72348831571E+01  0.54612947583E+01  0.39049967413E+02  0.00000000000E+00 0. -1.
         22    1    3    3    0    0 -0.54193195096E+01  0.72419986371E+02 -0.16959512906E+03  0.18448992182E+03  0.00000000000E+00 0. -1.
</event>
<event>
 7    1  0.6067783E-006  0.8100084E+02  0.7818608E-02  0.1347680E+00
          2   -1    0    0  502    0  0.00000000000E+00  0.00000000000E+00  0.84492734092E+03  0.84492734092E+03  0.00000000000E+00 0. -1.
          1   -1    0    0  501    0 -0.00000000000E+00 -0.00000000000E+00 -0.49328344858E+02  0.49328344858E+02  0.00000000000E+00 0. -1.
         25    2    1    2    0    0 -0.69370597587E+02 -0.11290461717E+03  0.37166141901E+03  0.41390449344E+03  0.12499994770E+03 0.  0.
          2    1    1    2  501    0  0.12427720257E+02  0.66050490610E+02  0.20553121559E+02  0.70281906252E+02  0.00000000000E+00 0. -1.
          1    1    1    2  502    0  0.56942877330E+02  0.46854126557E+02  0.40338445550E+03  0.41006928609E+03  0.00000000000E+00 0. -1.
         22    1    3    3    0    0  0.12287813268E+02 -0.46687046716E+02  0.30960905375E+02  0.57351968995E+02  0.00000000000E+00 0. -1.
         22    1    3    3    0    0 -0.81658410855E+02 -0.66217570451E+02  0.34070051363E+03  0.35655252445E+03  0.00000000000E+00 0. -1.
</event>
<event>
 7    1  0.6067783E-006  0.9335466E+02  0.7818608E-02  0.1342001E+00
          2   -1    0    0  502    0  0.00000000000E+00  0.00000000000E+00  0.31006534509E+04  0.31006534509E+04  0.00000000000E+00 0. -1.
          1   -1    0    0  501    0 -0.00000000000E+00 -0.00000000000E+00 -0.14177612849E+04  0.14177612849E+04  0.00000000000E+00 0. -1.
         25    2    1    2    0    0  0.31195054789E+02  0.61212838599E+02 -0.14535691428E+03  0.20366233865E+03  0.12501828906E+03 0.  0.
          2    1    1    2  501    0 -0.87938148357E+02 -0.38196116926E+02 -0.12410974407E+04  0.12447951312E+04  0.00000000000E+00 0. -1.
          1    1    1    2  502    0  0.56743093568E+02 -0.23016721674E+02  0.30693465210E+04  0.30699572659E+04  0.00000000000E+00 0. -1.
         22    1    3    3    0    0  0.69341546104E+02  0.57524266667E+02 -0.13773868063E+03  0.16458807798E+03  0.00000000000E+00 0. -1.
         22    1    3    3    0    0 -0.38146491315E+02  0.36885719326E+01 -0.76182336544E+01  0.39074260666E+02  0.00000000000E+00 0. -1.
</event>
<event>
 7    1  0.6067783E-006  0.8166204E+02  0.7818608E-02  0.1471285E+00
          2   -1    0    0  502    0  0.00000000000E+00  0.00000000000E+00  0.48349328403E+03  0.48349328403E+03  0.00000000000E+00 0. -1.
          1   -1    0    0  501    0 -0.00000000000E+00 -0.00000000000E+00 -0.54408809401E+03  0.54408809401E+03  0.00000000000E+00 0. -1.
         25    2    1    2    0    0  0.76863358492E+02 -0.53155128223E+01  0.28453090884E+03  0.32018658452E+03  0.12500152105E+03 0.  0.
          2    1    1    2  501    0 -0.79287956307E+02 -0.19912255990E+02 -0.52217764091E+03  0.52853814112E+03  0.00000000000E+00 0. -1.
          1    1    1    2  502    0  0.24245978157E+01  0.25227768812E+02  0.17705192209E+03  0.17885665240E+03  0.00000000000E+00 0. -1.
         22    1    3    3    0    0  0.86251163309E+02 -0.33446210869E+02  0.11265299823E+03  0.14576903033E+03  0.00000000000E+00 0.  1.
         22    1    3    3    0    0 -0.93878048176E+01  0.28130698046E+02  0.17187791061E+03  0.17441755419E+03  0.00000000000E+00 0.  1.
</event>
<event>
 7    1  0.6067783E-006  0.2650938E+03  0.7818608E-02  0.1251170E+00
          2   -1    0    0  502    0  0.00000000000E+00  0.00000000000E+00  0.16534590473E+04  0.16534590473E+04  0.00000000000E+00 0. -1.
          1   -1    0    0  501    0 -0.00000000000E+00 -0.00000000000E+00 -0.80951023451E+03  0.80951023451E+03  0.00000000000E+00 0. -1.
         25    2    1    2    0    0 -0.96023448676E+02  0.25830692561E+03 -0.47064256242E+03  0.55952933766E+03  0.12500275046E+03 0.  0.
          2    1    1    2  501    0  0.50023611657E+02  0.26349106696E+01 -0.28128815967E+03  0.28571372604E+03  0.00000000000E+00 0. -1.
          1    1    1    2  502    0  0.45999837018E+02 -0.26094183628E+03  0.15958795349E+04  0.16177262181E+04  0.00000000000E+00 0. -1.
         22    1    3    3    0    0 -0.11366149425E+03  0.26058619061E+03 -0.45000163723E+03  0.53228335642E+03  0.00000000000E+00 0. -1.
         22    1    3    3    0    0  0.17638045577E+02 -0.22792650038E+01 -0.20640925188E+02  0.27245981233E+02  0.00000000000E+00 0. -1.
</event>
<event>
 7    1  0.6067783E-006  0.6900900E+02  0.7818608E-02  0.1386776E+00
          2   -1    0    0  502    0  0.00000000000E+00  0.00000000000E+00  0.32613727762E+03  0.32613727762E+03  0.00000000000E+00 0. -1.
          1   -1    0    0  501    0 -0.00000000000E+00 -0.00000000000E+00 -0.33281162775E+03  0.33281162775E+03  0.00000000000E+00 0. -1.
         25    2    1    2    0    0  0.76905382523E+01 -0.55900415079E+02 -0.95745149152E+02  0.16726991465E+03  0.12501235929E+03 0.  0.
          2    1    1    2  501    0 -0.62698629261E+02  0.40977316758E+02 -0.19136938093E+03  0.20550547087E+03  0.00000000000E+00 0. -1.
          1    1    1    2  502    0  0.55008091009E+02  0.14923098321E+02  0.28044017994E+03  0.28617351986E+03  0.00000000000E+00 0. -1.
         22    1    3    3    0    0  0.24004711187E+02 -0.52810470797E+01  0.25167108176E+02  0.35178103294E+02  0.00000000000E+00 0.  1.
         22    1    3    3    0    0 -0.16314172934E+02 -0.50619367999E+02 -0.12091225733E+03  0.13209181136E+03  0.00000000000E+00 0.  1.
</event>
<event>
 7    1  0.6067783E-006  0.6890113E+02  0.7818608E-02  0.1446269E+00
          2   -1    0    0  502    0  0.00000000000E+00  0.00000000000E+00  0.10370445653E+04  0.10370445653E+04  0.00000000000E+00 0. -1.
          1   -1    0    0  501    0 -0.00000000000E+00 -0.00000000000E+00 -0.43970021721E+03  0.43970021721E+03  0.00000000000E+00 0. -1.
         25    2    1    2    0    0  0.35102313456E+02  0.18489367673E+02 -0.39782075467E+01  0.13120475270E+03  0.12499932747E+03 0.  0.
          2    1    1    2  501    0 -0.47239416065E+02 -0.52419151583E+02 -0.36842573333E+03  0.37512244782E+03  0.00000000000E+00 0. -1.
          1    1    1    2  502    0  0.12137102609E+02  0.33929783910E+02  0.96974828897E+03  0.97041758200E+03  0.00000000000E+00 0. -1.
         22    1    3    3    0    0  0.20193268471E+02  0.72346496849E+02  0.82217629671E+00  0.75116307629E+02  0.00000000000E+00 0.  1.
         22    1    3    3    0    0  0.14909044985E+02 -0.53857129176E+02 -0.48003838434E+01  0.56088445071E+02  0.00000000000E+00 0.  1.
</event>
<event>
 7    1  0.6067783E-006  0.1617593E+03  0.7818608E-02  0.1197609E+00
          2   -1    0    0  502    0  0.00000000000E+00  0.00000000000E+00  0.10013652713E+04  0.10013652713E+04  0.00000000000E+00 0. -1.
          1   -1    0    0  501    0 -0.00000000000E+00 -0.00000000000E+00 -0.25604679011E+03  0.25604679011E+03  0.00000000000E+00 0. -1.
         25    2    1    2    0    0 -0.12517544835E+03  0.10742824202E+03  0.14353437898E+03  0.25186939354E+03  0.12500541348E+03 0.  0.
          2    1    1    2  501    0 -0.42564371327E+02 -0.13703837095E+03 -0.16580748720E+03  0.21927919106E+03  0.00000000000E+00 0. -1.
          1    1    1    2  502    0  0.16773981968E+03  0.29610128933E+02  0.76759158943E+03  0.78626347683E+03  0.00000000000E+00 0. -1.
         22    1    3    3    0    0 -0.30594018375E+02  0.10769207104E+03  0.69660234927E+02  0.13185645398E+03  0.00000000000E+00 0. -1.
         22    1    3    3    0    0 -0.94581429979E+02 -0.26382902219E+00  0.73874144051E+02  0.12001293956E+03  0.00000000000E+00 0. -1.
</event>
<event>
 7    1  0.6067783E-006  0.8229216E+02  0.7818608E-02  0.1377727E+00
          2   -1    0    0  502    0  0.00000000000E+00  0.00000000000E+00  0.96361587475E+03  0.96361587475E+03  0.00000000000E+00 0. -1.
          1   -1    0    0  501    0 -0.00000000000E+00 -0.00000000000E+00 -0.32551119484E+04  0.32551119484E+04  0.00000000000E+00 0. -1.
         25    2    1    2    0    0  0.72727031337E+02 -0.88543641962E+02 -0.20301734329E+03  0.26451795509E+03  0.12499803705E+03 0.  0.
          2    1    1    2  501    0 -0.22212203849E+02  0.78808723795E+02 -0.30200797667E+04  0.30211894999E+04  0.00000000000E+00 0. -1.
          1    1    1    2  502    0 -0.50514827488E+02  0.97349181671E+01  0.93160103637E+03  0.93302036816E+03  0.00000000000E+00 0. -1.
         22    1    3    3    0    0  0.42674256831E+02  0.26197487453E+02 -0.73028473927E+02  0.88546928513E+02  0.00000000000E+00 0.  1.
         22    1    3    3    0    0  0.30052774505E+02 -0.11474112942E+03 -0.12998886937E+03  0.17597102658E+03  0.00000000000E+00 0.  1.
</event>
<event>
 7    1  0.6067783E-006  0.8336231E+02  0.7818608E-02  0.1494313E+00
          2   -1    0    0  502    0  0.00000000000E+00  0.00000000000E+00  0.19813169993E+03  0.19813169993E+03  0.00000000000E+00 0. -1.
          1   -1    0    0  501    0 -0.00000000000E+00 -0.00000000000E+00 -0.51534235442E+03  0.51534235442E+03  0.00000000000E+00 0. -1.
         25    2    1    2    0    0  0.40127343735E+02 -0.72319268453E+02 -0.14990306409E+03  0.21198164409E+03  0.12500003401E+03 0.  0.
          2    1    1    2  501    0 -0.57796425757E+02  0.60762069063E+02 -0.32844297548E+03  0.33897971032E+03  0.00000000000E+00 0. -1.
          1    1    1    2  502    0  0.17669082022E+02  0.11557199391E+02  0.16113538508E+03  0.16251269994E+03  0.00000000000E+00 0. -1.
         22    1    3    3    0    0 -0.30181315936E+02 -0.39816858860E+02 -0.11812817619E+03  0.12825973683E+03  0.00000000000E+00 0.  1.
         22    1    3    3    0    0  0.70308659671E+02 -0.32502409593E+02 -0.31774887897E+02  0.83721907258E+02  0.00000000000E+00 0.  1.
</event>
<event>
 7    1  0.6067783E-006  0.1236871E+03  0.7818608E-02  0.1260341E+00
          2   -1    0    0  502    0  0.00000000000E+00  0.00000000000E+00  0.35773542984E+03  0.35773542984E+03  0.00000000000E+00 0. -1.
          1   -1    0    0  501    0 -0.00000000000E+00 -0.00000000000E+00 -0.16555168805E+03  0.16555168805E+03  0.00000000000E+00 0. -1.
         25    2    1    2    0    0  0.50514143719E+02  0.67800676905E+02  0.20481645484E+03  0.25440680694E+03  0.12499773094E+03 0.  0.
          2    1    1    2  501    0 -0.13374221898E+03 -0.15969658441E+02 -0.73534212724E+02  0.15345778433E+03  0.00000000000E+00 0. -1.
          1    1    1    2  502    0  0.83228075266E+02 -0.51831018464E+02  0.60901499675E+02  0.11542252661E+03  0.00000000000E+00 0. -1.
         22    1    3    3    0    0  0.83110845723E+02  0.14800315094E+02  0.87336842606E+02  0.12146681061E+03  0.00000000000E+00 0.  1.
         22    1    3    3    0    0 -0.32596702004E+02  0.53000361810E+02  0.11747961224E+03  0.13293999633E+03  0.00000000000E+00 0.  1.
</event>
<event>
 7    1  0.6067783E-006  0.5657320E+03  0.7818608E-02  0.1071521E+00
          2   -1    0    0  502    0  0.00000000000E+00  0.00000000000E+00  0.10221600606E+04  0.10221600606E+04  0.00000000000E+00 0. -1.
          1   -1    0    0  501    0 -0.00000000000E+00 -0.00000000000E+00 -0.49979341174E+03  0.49979341174E+03  0.00000000000E+00 0. -1.
         25    2    1    2    0    0 -0.25188714219E+03  0.37910869663E+03  0.30244333323E+03  0.56059437189E+03  0.12499417475E+03 0.  0.
          2    1    1    2  501    0  0.38339621565E+03 -0.51829178134E+03 -0.31341744711E+02  0.64544661572E+03  0.00000000000E+00 0. -1.
          1    1    1    2  502    0 -0.13150907345E+03  0.13918308472E+03  0.25126506038E+03  0.31591248478E+03  0.00000000000E+00 0. -1.
         22    1    3    3    0    0 -0.10372116073E+03  0.22868075928E+03  0.10724745801E+03  0.27304758944E+03  0.00000000000E+00 0. -1.
         22    1    3    3    0    0 -0.14816598146E+03  0.15042793735E+03  0.19519587522E+03  0.28754678245E+03  0.00000000000E+00 0. -1.
</event>
<event>
 7    1  0.6067783E-006  0.5984303E+02  0.7818608E-02  0.1524497E+00
          2   -1    0    0  502    0  0.00000000000E+00  0.00000000000E+00  0.17872202784E+04  0.17872202784E+04  0.00000000000E+00 0. -1.
          1   -1    0    0  501    0 -0.00000000000E+00 -0.00000000000E+00 -0.53306251585E+03  0.53306251585E+03  0.00000000000E+00 0. -1.
         25    2    1    2    0    0  0.72690704399E+02  0.33896624839E+02 -0.34187280129E+03  0.37273980306E+03  0.12500011537E+03 0.  0.
          2    1    1    2  501    0 -0.14797816203E+02 -0.18850634031E+02 -0.17443184302E+03  0.17607041099E+03  0.00000000000E+00 0. -1.
          1    1    1    2  502    0 -0.57892888195E+02 -0.15045990808E+02  0.17704624068E+04  0.17714725802E+04  0.00000000000E+00 0. -1.
         22    1    3    3    0    0  0.79515347996E+02  0.24547463375E+02 -0.97889124355E+02  0.12848170762E+03  0.00000000000E+00 0. -1.
         22    1    3    3    0    0 -0.68246435973E+01  0.93491614640E+01 -0.24398367693E+03  0.24425809544E+03  0.00000000000E+00 0. -1.
</event>
<event>
 7    1  0.6067783E-006  0.5964936E+02  0.7818608E-02  0.1477468E+00
          2   -1    0    0  502    0  0.00000000000E+00  0.00000000000E+00  0.92292655504E+03  0.92292655504E+03  0.00000000000E+00 0. -1.
          1   -1    0    0  501    0 -0.00000000000E+00 -0.00000000000E+00 -0.12634363372E+04  0.12634363372E+04  0.00000000000E+00 0. -1.
         25    2    1    2    0    0  0.12681081000E+02  0.69239982749E+02  0.69689552234E+02  0.15949005490E+03  0.12500183556E+03 0.  0.
          2    1    1    2  501    0 -0.30772447052E+02 -0.12469387944E+02 -0.12172114005E+04  0.12176641666E+04  0.00000000000E+00 0. -1.
          1    1    1    2  502    0  0.18091366052E+02 -0.56770594804E+02  0.80701206611E+03  0.80920867074E+03  0.00000000000E+00 0. -1.
         22    1    3    3    0    0  0.24621355336E+01  0.75566856209E+02  0.10087759595E+03  0.12606625731E+03  0.00000000000E+00 0.  1.
         22    1    3    3    0    0  0.10218945466E+02 -0.63268734606E+01 -0.31188043713E+02  0.33423797583E+02  0.00000000000E+00 0.  1.
</event>
<event>
 7    1  0.6067783E-006  0.1477395E+03  0.7818608E-02  0.1369634E+00
          2   -1    0    0  502    0  0.00000000000E+00  0.00000000000E+00  0.18049271979E+04  0.18049271979E+04  0.00000000000E+00 0. -1.
          1   -1    0    0  501    0 -0.00000000000E+00 -0.00000000000E+00 -0.10109397542E+04  0.10109397542E+04  0.00000000000E+00 0. -1.
         25    2    1    2    0    0  0.29218963846E+02  0.16395309057E+03  0.41882268334E+03  0.46772976556E+03  0.12499731899E+03 0.  0.
          2    1    1    2  501    0 -0.47770559121E+02 -0.13958127658E+03 -0.98079652200E+03  0.99183001399E+03  0.00000000000E+00 0. -1.
          1    1    1    2  502    0  0.18551595275E+02 -0.24371813997E+02  0.13559612823E+04  0.13563071725E+04  0.00000000000E+00 0. -1.
         22    1    3    3    0    0  0.33318104201E+02  0.15458222631E+03  0.23280984856E+03  0.28143593648E+03  0.00000000000E+00 0.  1.
         22    1    3    3    0    0 -0.40991403556E+01  0.93708642607E+01  0.18601283478E+03  0.18629382907E+03  0.00000000000E+00 0.  1.
</event>
<event>
 7    1  0.6067783E-006  0.4301163E+03  0.7818608E-02  0.1263905E+00
          2   -1    0    0  502    0  0.00000000000E+00  0.00000000000E+00  0.64180001036E+03  0.64180001036E+03  0.00000000000E+00 0. -1.
          1   -1    0    0  501    0 -0.00000000000E+00 -0.00000000000E+00 -0.17862859471E+04  0.17862859471E+04  0.00000000000E+00 0. -1.
         25    2    1    2    0    0 -0.16115286960E+03  0.38243964938E+03 -0.28058751081E+03  0.51631804168E+03  0.12499854459E+03 0.  0.
          2    1    1    2  501    0  0.15073084856E+03 -0.40759415983E+03 -0.13534262128E+04  0.14214834861E+04  0.00000000000E+00 0. -1.
          1    1    1    2  502    0  0.10422021036E+02  0.25154510459E+02  0.48952778683E+03  0.49028442969E+03  0.00000000000E+00 0. -1.
         22    1    3    3    0    0 -0.54645907489E+02  0.97648005382E+02 -0.15570120769E+02  0.11297670920E+03  0.00000000000E+00 0.  1.
         22    1    3    3    0    0 -0.10650696211E+03  0.28479164399E+03 -0.26501739004E+03  0.40334133249E+03  0.00000000000E+00 0.  1.
</event>
<event>
 7    1  0.6067783E-006  0.7390707E+02  0.7818608E-02  0.1441869E+00
          2   -1    0    0  502    0  0.00000000000E+00  0.00000000000E+00  0.11540984365E+04  0.11540984365E+04  0.00000000000E+00 0. -1.
          1   -1    0    0  501    0 -0.00000000000E+00 -0.00000000000E+00 -0.45522533941E+03  0.45522533941E+03  0.00000000000E+00 0. -1.
         25    2    1    2    0    0  0.58115410995E+02 -0.33255266892E+02  0.43027236106E+03  0.45303848594E+03  0.12500500501E+03 0.  0.
          2    1    1    2  501    0 -0.16367649173E+02 -0.30609445465E+02 -0.44111571631E+03  0.44247928004E+03  0.00000000000E+00 0. -1.
          1    1    1    2  502    0 -0.41747761822E+02  0.63864712357E+02  0.70971645237E+03  0.71380600997E+03  0.00000000000E+00 0. -1.
         22    1    3    3    0    0  0.40688575255E+02 -0.81088541495E+02  0.28626045526E+03  0.30029312340E+03  0.00000000000E+00 0.  1.
         22    1    3    3    0    0  0.17426835740E+02  0.47833274603E+02  0.14401190580E+03  0.15274536254E+03  0.00000000000E+00 0.  1.
</event>
<event>
 7    1  0.6067783E-006  0.1789418E+03  0.7818608E-02  0.1292602E+00
          2   -1    0    0  502    0  0.00000000000E+00  0.00000000000E+00  0.12534844516E+04  0.12534844516E+04  0.00000000000E+00 0. -1.
          1   -1    0    0  501    0 -0.00000000000E+00 -0.00000000000E+00 -0.59706533437E+02  0.59706533437E+02  0.00000000000E+00 0. -1.
         25    2    1    2    0    0 -0.14172114774E+03 -0.12858884056E+03  0.51439245592E+03  0.56288937197E+03  0.12499949096E+03 0.  0.
          2    1    1    2  501    0  0.95591709109E+02  0.14726967873E+03  0.19119068771E+03  0.25957660178E+03  0.00000000000E+00 0. -1.
          1    1    1    2  502    0  0.46129438626E+02 -0.18680838176E+02  0.48819477450E+03  0.49072501125E+03  0.00000000000E+00 0. -1.
         22    1    3    3    0    0 -0.32916165844E+02 -0.10517645026E+03  0.32546182510E+03  0.34361455042E+03  0.00000000000E+00 0.  1.
         22    1    3    3    0    0 -0.10880498189E+03 -0.23412390294E+02  0.18893063082E+03  0.21927482155E+03  0.00000000000E+00 0.  1.
</event>
<event>
 7    1  0.6067783E-006  0.1437449E+03  0.7818608E-02  0.1292601E+00
          2   -1    0    0  502    0  0.00000000000E+00  0.00000000000E+00  0.21763194384E+04  0.21763194384E+04  0.00000000000E+00 0. -1.
          1   -1    0    0  501    0 -0.00000000000E+00 -0.00000000000E+00 -0.43195380998E+03  0.43195380998E+03  0.00000000000E+00 0. -1.
         25    2    1    2    0    0  0.15048767075E+03 -0.12403096952E+03  0.62912558211E+03  0.67041380764E+03  0.12500181982E+03 0.  0.
          2    1    1    2  501    0 -0.35478560211E+02  0.50790707335E+02 -0.40590987751E+03  0.41061082894E+03  0.00000000000E+00 0. -1.
          1    1    1    2  502    0 -0.11500911054E+03  0.73240262189E+02  0.15211499238E+04  0.15272486118E+04  0.00000000000E+00 0. -1.
         22    1    3    3    0    0  0.10577987274E+03 -0.14089562074E+03  0.41196067461E+03  0.44805418740E+03  0.00000000000E+00 0.  1.
         22    1    3    3    0    0  0.44707798011E+02  0.16864651216E+02  0.21716490750E+03  0.22235962024E+03  0.00000000000E+00 0.  1.
</event>
<event>
 7    1  0.6067783E-006  0.1045487E+03  0.7818608E-02  0.1377322E+00
          2   -1    0    0  502    0  0.00000000000E+00  0.00000000000E+00  0.27462457352E+04  0.27462457352E+04  0.00000000000E+00 0. -1.
          1   -1    0    0  501    0 -0.00000000000E+00 -0.00000000000E+00 -0.81006211598E+02  0.81006211598E+02  0.00000000000E+00 0. -1.
         25    2    1    2    0    0  0.20655761018E+02 -0.79717141910E+02  0.82591335495E+02  0.17097167136E+03  0.12501400134E+03 0.  0.
          2    1    1    2  501    0 -0.37540857677E+02  0.11666936247E+03  0.65804888971E+02  0.13910909225E+03  0.00000000000E+00 0. -1.
          1    1    1    2  502    0  0.16885096659E+02 -0.36952220555E+02  0.25168432992E+04  0.25171711832E+04  0.00000000000E+00 0. -1.
         22    1    3    3    0    0 -0.48454450817E+02 -0.50451983923E+02  0.18699833638E+02  0.72408012428E+02  0.00000000000E+00 0. -1.
         22    1    3    3    0    0  0.69110211835E+02 -0.29265157987E+02  0.63891501856E+02  0.98563658929E+02  0.00000000000E+00 0. -1.
</event>
<event>
 7    1  0.6067783E-006  0.2273892E+03  0.7818608E-02  0.1194019E+00
          2   -1    0    0  502    0  0.00000000000E+00  0.00000000000E+00  0.86898884747E+03  0.86898884747E+03  0.00000000000E+00 0. -1.
          1   -1    0    0  501    0 -0.00000000000E+00 -0.00000000000E+00 -0.16971285809E+04  0.16971285809E+04  0.00000000000E+00 0. -1.
         25    2    1    2    0    0 -0.21284354642E+03  0.63415809075E+02  0.25083207203E+03  0.35758267759E+03  0.12499881144E+03 0.  0.
          2    1    1    2  501    0  0.39196001341E+02  0.98667531628E+02 -0.16169589682E+04  0.16204406540E+04  0.00000000000E+00 0. -1.
          1    1    1    2  502    0  0.17364754508E+03 -0.16208334070E+03  0.53798716280E+03  0.58809409671E+03  0.00000000000E+00 0. -1.
         22    1    3    3    0    0 -0.13315858919E+03 -0.99105910645E+01  0.19337063002E+03  0.23499283020E+03  0.00000000000E+00 0. -1.
         22    1    3    3    0    0 -0.79684957228E+02  0.73326400139E+02  0.57461442008E+02  0.12258984739E+03  0.00000000000E+00 0. -1.
</event>
<event>
 7    1  0.6067783E-006  0.1223027E+03  0.7818608E-02  0.1270106E+00
          2   -1    0    0  502    0  0.00000000000E+00  0.00000000000E+00  0.11697068824E+04  0.11697068824E+04  0.00000000000E+00 0. -1.
          1   -1    0    0  501    0 -0.00000000000E+00 -0.00000000000E+00 -0.12050261609E+03  0.12050261609E+03  0.00000000000E+00 0. -1.
         25    2    1    2    0    0 -0.56338320309E+02 -0.11189344938E+02  0.13208269953E+03  0.19071056858E+03  0.12500189470E+03 0.  0.
          2    1    1    2  501    0  0.13893098683E+03  0.47338588501E+02 -0.28561783596E+02  0.14952771163E+03  0.00000000000E+00 0. -1.
          1    1    1    2  502    0 -0.82592666520E+02 -0.36149243563E+02  0.94568335033E+03  0.94997121823E+03  0.00000000000E+00 0. -1.
         22    1    3    3    0    0 -0.71850243733E+02  0.15584788934E+02  0.14056041405E+03  0.15862715142E+03  0.00000000000E+00 0. -1.
         22    1    3    3    0    0  0.15511923424E+02 -0.26774133872E+02 -0.84777145225E+01  0.32083417157E+02  0.00000000000E+00 0. -1.
</event>
<event>
 7    1  0.6067783E-006  0.1070569E+03  0.7818608E-02  0.1295585E+00
          2   -1    0    0  502    0  0.00000000000E+00  0.00000000000E+00  0.14964562399E+04  0.14964562399E+04  0.00000000000E+00 0. -1.
          1   -1    0    0  501    0 -0.00000000000E+00 -0.00000000000E+00 -0.92900419674E+03  0.92900419674E+03  0.00000000000E+00 0. -1.
         25    2    1    2    0    0  0.11418108580E+03  0.13322699271E+03 -0.30605531772E+03  0.37427464829E+03  0.12499961165E+03 0.  0.
          2    1    1    2  501    0 -0.78237007358E+02 -0.60740216832E+02 -0.58354376698E+03  0.59188996549E+03  0.00000000000E+00 0. -1.
          1    1    1    2  502    0 -0.35944078440E+02 -0.72486775874E+02  0.14570511279E+04  0.14592958229E+04  0.00000000000E+00 0. -1.
         22    1    3    3    0    0  0.64819427954E+02  0.32673281622E+02 -0.34191818651E+02  0.80238282851E+02  0.00000000000E+00 0. -1.
         22    1    3    3    0    0  0.49361657845E+02  0.10055371108E+03 -0.27186349907E+03  0.29403636544E+03  0.00000000000E+00 0. -1.
</event>
<event>
 7    1  0.6067783E-006  0.8041613E+02  0.7818608E-02  0.1404405E+00
          2   -1    0    0  502    0  0.00000000000E+00  0.00000000000E+00  0.40479019536E+03  0.40479019536E+03  0.00000000000E+00 0. -1.
          1   -1    0    0  501    0 -0.00000000000E+00 -0.00000000000E+00 -0.27547461549E+04  0.27547461549E+04  0.00000000000E+00 0. -1.
         25    2    1    2    0    0 -0.11154980240E+03  0.33692665165E+02 -0.68840916704E+03  0.70930332556E+03  0.12500188911E+03 0.  0.
          2    1    1    2  501    0  0.69119044268E+02 -0.36124984743E+02 -0.20540025816E+04  0.20554826835E+04  0.00000000000E+00 0. -1.
          1    1    1    2  502    0  0.42430758131E+02  0.24323195782E+01  0.39245578916E+03  0.39475034118E+03  0.00000000000E+00 0. -1.
         22    1    3    3    0    0 -0.72078505606E+02 -0.43478762464E+02 -0.34636393240E+03  0.35644591094E+03  0.00000000000E+00 0. -1.
         22    1    3    3    0    0 -0.39471296792E+02  0.77171427629E+02 -0.34204523464E+03  0.35285741462E+03  0.00000000000E+00 0. -1.
</event>
<event>
 7    1  0.6067783E-006  0.7972087E+02  0.7818608E-02  0.1347156E+00
          2   -1    0    0  502    0  0.00000000000E+00  0.00000000000E+00  0.13259529602E+04  0.13259529602E+04  0.00000000000E+00 0. -1.
          1   -1    0    0  501    0 -0.00000000000E+00 -0.00000000000E+00 -0.25643531757E+03  0.25643531757E+03  0.00000000000E+00 0. -1.
         25    2    1    2    0    0 -0.65315687462E+02 -0.21670108968E+02  0.35148141798E+03  0.37933519849E+03  0.12498109047E+03 0.  0.
          2    1    1    2  501    0  0.36893990636E+02 -0.57828859432E+02 -0.23575548477E+03  0.24553205927E+03  0.00000000000E+00 0. -1.
          1    1    1    2  502    0  0.28421696826E+02  0.79498968400E+02  0.95379170938E+03  0.95752101998E+03  0.00000000000E+00 0. -1.
         22    1    3    3    0    0 -0.98315910458E+02 -0.33774350422E+02  0.29530365094E+03  0.31306703956E+03  0.00000000000E+00 0. -1.
         22    1    3    3    0    0  0.33000222996E+02  0.12104241454E+02  0.56177767039E+02  0.66268158934E+02  0.00000000000E+00 0. -1.
</event>
<event>
 7    1  0.6067783E-006  0.2066264E+03  0.7818608E-02  0.1326434E+00
          2   -1    0    0  502    0  0.00000000000E+00  0.00000000000E+00  0.16042085898E+03  0.16042085898E+03  0.00000000000E+00 0. -1.
          1   -1    0    0  501    0 -0.00000000000E+00 -0.00000000000E+00 -0.16409591789E+04  0.16409591789E+04  0.00000000000E+00 0. -1.
         25    2    1    2    0    0  0.87744231460E+02  0.16559704842E+03 -0.34743999205E+02  0.22793453109E+03  0.12500228951E+03 0.  0.
          2    1    1    2  501    0 -0.74464965055E+02 -0.19437924728E+03 -0.14979877188E+04  0.15123807486E+04  0.00000000000E+00 0. -1.
          1    1    1    2  502    0 -0.13279266406E+02  0.28782198861E+02  0.52193398141E+02  0.61064758225E+02  0.00000000000E+00 0. -1.
         22    1    3    3    0    0  0.17386740836E+02  0.13773208908E+03  0.11414202517E+02  0.13929361485E+03  0.00000000000E+00 0.  1.
         22    1    3    3    0    0  0.70357490624E+02  0.27864959338E+02 -0.46158201722E+02  0.88640916241E+02  0.00000000000E+00 0.  1.
</event>
<event>
 7    1  0.6067783E-006  0.5147180E+02  0.7818608E-02  0.1454845E+00
          2   -1    0    0  502    0  0.00000000000E+00  0.00000000000E+00  0.27757353584E+04  0.27757353584E+04  0.00000000000E+00 0. -1.
          1   -1    0    0  501    0 -0.00000000000E+00 -0.00000000000E+00 -0.13844660311E+03  0.13844660311E+03  0.00000000000E+00 0. -1.
         25    2    1    2    0    0 -0.60712961909E+02 -0.67836830387E+02  0.71144002016E+03  0.72805606934E+03  0.12502335192E+03 0.  0.
          2    1    1    2  501    0  0.44368698012E+02  0.25602528331E+02 -0.12483796795E+03  0.13493920506E+03  0.00000000000E+00 0. -1.
          1    1    1    2  502    0  0.16344263897E+02  0.42234302056E+02  0.20506867031E+04  0.20511866871E+04  0.00000000000E+00 0. -1.
         22    1    3    3    0    0 -0.29042981686E+02  0.10571099172E+02  0.36449496369E+02  0.47789211215E+02  0.00000000000E+00 0. -1.
         22    1    3    3    0    0 -0.31669980222E+02 -0.78407929559E+02  0.67499052379E+03  0.68026685813E+03  0.00000000000E+00 0. -1.
</event>
<event>
 7    1  0.6067783E-006  0.1123316E+03  0.7818608E-02  0.1429752E+00
          2   -1    0    0  502    0  0.00000000000E+00  0.00000000000E+00  0.93400073838E+03  0.93400073838E+03  0.00000000000E+00 0. -1.
          1   -1    0    0  501    0 -0.00000000000E+00 -0.00000000000E+00 -0.67147804565E+03  0.67147804565E+03  0.00000000000E+00 0. -1.
         25    2    1    2    0    0 -0.26116873396E+02 -0.13260869596E+03  0.16336390037E+03  0.24613043748E+03  0.12500108395E+03 0.  0.
          2    1    1    2  501    0  0.29503410955E+02  0.10782348306E+03 -0.62491895680E+03  0.63483860731E+03  0.00000000000E+00 0. -1.
          1    1    1    2  502    0 -0.33865375588E+01  0.24785212898E+02  0.72407774916E+03  0.72450973924E+03  0.00000000000E+00 0. -1.
         22    1    3    3    0    0 -0.67949036061E+02 -0.40995512340E+02  0.97847281466E+02  0.12598330851E+03  0.00000000000E+00 0. -1.
         22    1    3    3    0    0  0.41832162665E+02 -0.91613183619E+02  0.65516618909E+02  0.12014712897E+03  0.00000000000E+00 0. -1.
</event>
<event>
 7    1  0.6067783E-006  0.1279014E+03  0.7818608E-02  0.1406730E+00
          2   -1    0    0  502    0  0.00000000000E+00  0.00000000000E+00  0.10358746666E+03  0.10358746666E+03  0.00000000000E+00 0. -1.
          1   -1    0    0  501    0 -0.00000000000E+00 -0.00000000000E+00 -0.16379922473E+04  0.16379922473E+04  0.00000000000E+00 0. -1.
         25    2    1    2    0    0  0.38909124987E+02  0.12464501812E+03 -0.31538251541E+03  0.36351252157E+03  0.12499968707E+03 0.  0.
          2    1    1    2  501    0 -0.26112918860E+02  0.25587436720E+01 -0.12469339840E+04  0.12472100032E+04  0.00000000000E+00 0. -1.
          1    1    1    2  502    0 -0.12796206127E+02 -0.12720376179E+03  0.27911718785E+02  0.13085718914E+03  0.00000000000E+00 0. -1.
         22    1    3    3    0    0 -0.39035097164E+02  0.82586712608E+02 -0.14251970680E+03  0.16928133606E+03  0.00000000000E+00 0. -1.
         22    1    3    3    0    0  0.77944222151E+02  0.42058305511E+02 -0.17286280860E+03  0.19423118552E+03  0.00000000000E+00 0. -1.
</event>
<event>
 7    1  0.6067783E-006  0.1401928E+03  0.7818608E-02  0.1330075E+00
          2   -1    0    0  502    0  0.00000000000E+00  0.00000000000E+00  0.10254889956E+04  0.10254889956E+04  0.00000000000E+00 0. -1.
          1   -1    0    0  501    0 -0.00000000000E+00 -0.00000000000E+00 -0.12130565300E+03  0.12130565300E+03  0.00000000000E+00 0. -1.
         25    2    1    2    0    0  0.24557707057E+02 -0.12467068543E+03  0.11309627404E+03  0.21109794281E+03  0.12500285387E+03 0.  0.
          2    1    1    2  501    0  0.45239553813E+02  0.46131586068E+00 -0.58664531091E+02  0.74083447879E+02  0.00000000000E+00 0. -1.
          1    1    1    2  502    0 -0.69797260870E+02  0.12420936957E+03  0.84975159968E+03  0.86161325795E+03  0.00000000000E+00 0. -1.
         22    1    3    3    0    0  0.56233979246E+02 -0.97045957385E+02  0.27112926261E+02  0.11539189329E+03  0.00000000000E+00 0.  1.
         22    1    3    3    0    0 -0.31676272190E+02 -0.27624728043E+02  0.85983347779E+02  0.95706049520E+02  0.00000000000E+00 0.  1.
</event>
<event>
 7    1  0.6067783E-006  0.3200074E+02  0.7818608E-02  0.1583417E+00
          2   -1    0    0  502    0  0.00000000000E+00  0.00000000000E+00  0.31921483866E+03  0.31921483866E+03  0.00000000000E+00 0. -1.
          1   -1    0    0  501    0 -0.00000000000E+00 -0.00000000000E+00 -0.46492943194E+02  0.46492943194E+02  0.00000000000E+00 0. -1.
         25    2    1    2    0    0 -0.21955102201E+02  0.20075221551E+02  0.66846018663E+02  0.14483951299E+03  0.12500021311E+03 0.  0.
          2    1    1    2  501    0  0.37526586429E+02  0.64434887285E+01  0.55021976405E+02  0.66911741298E+02  0.00000000000E+00 0. -1.
          1    1    1    2  502    0 -0.15571484228E+02 -0.26518710280E+02  0.15085390040E+03  0.15395652757E+03  0.00000000000E+00 0. -1.
         22    1    3    3    0    0  0.38773708633E+02  0.29922338882E+02 -0.61656362355E+01  0.49363568707E+02  0.00000000000E+00 0.  1.
         22    1    3    3    0    0 -0.60728810834E+02 -0.98471173305E+01  0.73011654899E+02  0.95475944280E+02  0.00000000000E+00 0.  1.
</event>
<event>
 7    1  0.6067783E-006  0.1025343E+03  0.7818608E-02  0.1276963E+00
          2   -1    0    0  502    0  0.00000000000E+00  0.00000000000E+00  0.80138383236E+03  0.80138383236E+03  0.00000000000E+00 0. -1.
          1   -1    0    0  501    0 -0.00000000000E+00 -0.00000000000E+00 -0.15425925177E+04  0.15425925177E+04  0.00000000000E+00 0. -1.
         25    2    1    2    0    0  0.35490086197E+02 -0.73245008150E+02  0.56401023434E+02  0.15946937708E+03  0.12500011738E+03 0.  0.
          2    1    1    2  501    0  0.64902253582E+02  0.80826167846E+02 -0.14855885250E+04  0.14892006035E+04  0.00000000000E+00 0. -1.
          1    1    1    2  502    0 -0.10039233978E+03 -0.75811596961E+01  0.68797881621E+03  0.69530636947E+03  0.00000000000E+00 0. -1.
         22    1    3    3    0    0  0.37160622170E+02  0.37644297847E+00 -0.28681997005E+02  0.46943695014E+02  0.00000000000E+00 0.  1.
         22    1    3    3    0    0 -0.16705359736E+01 -0.73621451128E+02  0.85083020439E+02  0.11252568206E+03  0.00000000000E+00 0.  1.
</event>
<event>
 7    1  0.6067783E-006  0.1096342E+03  0.7818608E-02  0.1437158E+00
          2   -1    0    0  502    0  0.00000000000E+00  0.00000000000E+00  0.19521446587E+04  0.19521446587E+04  0.00000000000E+00 0. -1.
          1   -1    0    0  501    0 -0.00000000000E+00 -0.00000000000E+00 -0.42363157497E+03  0.42363157497E+03  0.00000000000E+00 0. -1.
         25    2    1    2    0    0  0.49859422017E+02  0.10136366208E+03 -0.24614881278E+03  0.29828681156E+03  0.12500091984E+03 0.  0.
          2    1    1    2  501    0 -0.23696181475E+02  0.50987202488E+01 -0.14887282572E+03  0.15083310048E+03  0.00000000000E+00 0. -1.
          1    1    1    2  502    0 -0.26163240542E+02 -0.10646238233E+03  0.19235347222E+04  0.19266563216E+04  0.00000000000E+00 0. -1.
         22    1    3    3    0    0  0.37164872311E+02  0.12807043703E+03 -0.22631182529E+03  0.26267909480E+03  0.00000000000E+00 0.  1.
         22    1    3    3    0    0  0.12694549706E+02 -0.26706774949E+02 -0.19836987494E+02  0.35607716766E+02  0.00000000000E+00 0.  1.
</event>
<event>
 7    1  0.6067783E-006  0.7622033E+02  0.7818608E-02  0.1429252E+00
          2   -1    0    0  502    0  0.00000000000E+00  0.00000000000E+00  0.63468148120E+03  0.63468148120E+03  0.00000000000E+00 0. -1.
          1   -1    0    0  501    0 -0.00000000000E+00 -0.00000000000E+00 -0.46709596156E+03  0.46709596156E+03  0.00000000000E+00 0. -1.
         25    2    1    2    0    0 -0.81394475071E+02  0.18895136036E+02  0.14681814080E+03  0.21014942701E+03  0.12500051387E+03 0.  0.
          2    1    1    2  501    0  0.58964949931E+02 -0.48331062059E+02 -0.43133108090E+03  0.43801741773E+03  0.00000000000E+00 0. -1.
          1    1    1    2  502    0  0.22429525140E+02  0.29435926023E+02  0.45209845974E+03  0.45361059802E+03  0.00000000000E+00 0. -1.
         22    1    3    3    0    0 -0.83266517197E+02  0.59416470721E+02  0.13192650166E+03  0.16693780794E+03  0.00000000000E+00 0.  1.
         22    1    3    3    0    0  0.18720421256E+01 -0.40521334685E+02  0.14891639137E+02  0.43211619069E+02  0.00000000000E+00 0.  1.
</event>
<event>
 7    1  0.6067783E-006  0.9465940E+02  0.7818608E-02  0.1359199E+00
          2   -1    0    0  502    0  0.00000000000E+00  0.00000000000E+00  0.19587563757E+04  0.19587563757E+04  0.00000000000E+00 0. -1.
          1   -1    0    0  501    0 -0.00000000000E+00 -0.00000000000E+00 -0.42995207753E+03  0.42995207753E+03  0.00000000000E+00 0. -1.
         25    2    1    2    0    0 -0.52500661711E+02  0.53758625204E+02  0.94125800597E+02  0.17358488414E+03  0.12500294556E+03 0.  0.
          2    1    1    2  501    0  0.33492223741E+02  0.39980293672E+02 -0.38721975968E+03  0.39071638719E+03  0.00000000000E+00 0. -1.
          1    1    1    2  502    0  0.19008437970E+02 -0.93738918876E+02  0.18218982573E+04  0.18244071819E+04  0.00000000000E+00 0. -1.
         22    1    3    3    0    0  0.58369358467E+01 -0.36504184810E+02  0.14001487767E+02  0.39530582951E+02  0.00000000000E+00 0. -1.
         22    1    3    3    0    0 -0.58337597558E+02  0.90262810014E+02  0.80124312830E+02  0.13405430119E+03  0.00000000000E+00 0. -1.
</event>
<event>
 7    1  0.6067783E-006  0.1053575E+03  0.7818608E-02  0.1347158E+00
          2   -1    0    0  502    0  0.00000000000E+00  0.00000000000E+00  0.17358930788E+04  0.17358930788E+04  0.00000000000E+00 0. -1.
          1   -1    0    0  501    0 -0.00000000000E+00 -0.00000000000E+00 -0.56432092882E+02  0.56432092882E+02  0.00000000000E+00 0. -1.
         25    2    1    2    0    0 -0.32725377494E+02  0.57877938611E+02  0.32278818628E+03  0.35246481368E+03  0.12497369952E+03 0.  0.
          2    1    1    2  501    0  0.76497480756E+02 -0.85769914597E+02  0.39293723861E+02  0.12145920939E+03  0.00000000000E+00 0. -1.
          1    1    1    2  502    0 -0.43772103262E+02  0.27891975986E+02  0.13173790758E+04  0.13184011486E+04  0.00000000000E+00 0. -1.
         22    1    3    3    0    0  0.42075308548E+02  0.10187690530E+02  0.52812861757E+02  0.68288498261E+02  0.00000000000E+00 0.  1.
         22    1    3    3    0    0 -0.74800686042E+02  0.47690248081E+02  0.26997532452E+03  0.28417631542E+03  0.00000000000E+00 0.  1.
</event>
<event>
 7    1  0.6067783E-006  0.4539502E+02  0.7818608E-02  0.1591861E+00
          2   -1    0    0  502    0  0.00000000000E+00  0.00000000000E+00  0.21158487194E+03  0.21158487194E+03  0.00000000000E+00 0. -1.
          1   -1    0    0  501    0 -0.00000000000E+00 -0.00000000000E+00 -0.27659482981E+03  0.27659482981E+03  0.00000000000E+00 0. -1.
         25    2    1    2    0    0 -0.62856920357E+02  0.19032367850E+02  0.10928759831E+03  0.17855531032E+03  0.12499998494E+03 0.  0.
          2    1    1    2  501    0  0.43311005049E+02 -0.12565670173E+02 -0.23822892487E+03  0.24245981083E+03  0.00000000000E+00 0. -1.
          1    1    1    2  502    0  0.19545915308E+02 -0.64666976766E+01  0.63931368691E+02  0.67164580597E+02  0.00000000000E+00 0. -1.
         22    1    3    3    0    0 -0.96366777343E+02  0.36876534061E+02  0.77633659566E+02  0.12912559637E+03  0.00000000000E+00 0.  1.
         22    1    3    3    0    0  0.33509856986E+02 -0.17844166211E+02  0.31653938743E+02  0.49429713947E+02  0.00000000000E+00 0.  1.
</event>
<event>
 7    1  0.6067783E-006  0.1223759E+03  0.7818608E-02  0.1423404E+00
          2   -1    0    0  502    0  0.00000000000E+00  0.00000000000E+00  0.43451576851E+04  0.43451576851E+04  0.00000000000E+00 0. -1.
          1   -1    0    0  501    0 -0.00000000000E+00 -0.00000000000E+00 -0.10885945119E+03  0.10885945119E+03  0.00000000000E+00 0. -1.
         25    2    1    2    0    0 -0.93274874219E+02  0.87656639321E+02  0.59897130033E+03  0.62511896239E+03  0.12499283957E+03 0.  0.
          2    1    1    2  501    0 -0.97114412529E+01 -0.22056805145E+02 -0.93254847278E+02  0.96318644536E+02  0.00000000000E+00 0. -1.
          1    1    1    2  502    0  0.10298631547E+03 -0.65599834176E+02  0.37305817809E+04  0.37325795294E+04  0.00000000000E+00 0. -1.
         22    1    3    3    0    0 -0.77672436149E+01  0.91758950095E+02  0.34656090877E+03  0.35858680746E+03  0.00000000000E+00 0. -1.
         22    1    3    3    0    0 -0.85507630604E+02 -0.41023107737E+01  0.25241039155E+03  0.26653215492E+03  0.00000000000E+00 0. -1.
</event>
<event>
 7    1  0.6067783E-006  0.3912446E+02  0.7818608E-02  0.1575535E+00
          2   -1    0    0  502    0  0.00000000000E+00  0.00000000000E+00  0.46782287988E+03  0.46782287988E+03  0.00000000000E+00 0. -1.
          1   -1    0    0  501    0 -0.00000000000E+00 -0.00000000000E+00 -0.53571139189E+03  0.53571139189E+03  0.00000000000E+00 0. -1.
         25    2    1    2    0    0  0.13874070043E+02  0.71328045871E+01 -0.52691477717E+02  0.13654688623E+03  0.12500117437E+03 0.  0.
          2    1    1    2  501    0  0.25492199396E+02 -0.68954987201E+01 -0.43978556943E+03  0.44057774253E+03  0.00000000000E+00 0. -1.
          1    1    1    2  502    0 -0.39366269438E+02 -0.23730586704E+00  0.42458853514E+03  0.42640964301E+03  0.00000000000E+00 0. -1.
         22    1    3    3    0    0  0.63182269745E+02 -0.22571292934E+02 -0.18511384277E+02  0.69599811944E+02  0.00000000000E+00 0.  1.
         22    1    3    3    0    0 -0.49308199702E+02  0.29704097521E+02 -0.34180093440E+02  0.66947074282E+02  0.00000000000E+00 0.  1.
</event>
<event>
 7    1  0.6067783E-006  0.1006335E+03  0.7818608E-02  0.1412531E+00
          2   -1    0    0  502    0  0.00000000000E+00  0.00000000000E+00  0.42774103647E+03  0.42774103647E+03  0.00000000000E+00 0. -1.
          1   -1    0    0  501    0 -0.00000000000E+00 -0.00000000000E+00 -0.12459742963E+04  0.12459742963E+04  0.00000000000E+00 0. -1.
         25    2    1    2    0    0 -0.76920678430E+00 -0.79054515127E+02 -0.35433089509E+03  0.38396109011E+03  0.12500210981E+03 0.  0.
          2    1    1    2  501    0 -0.26051882410E+02 -0.18359213983E+02 -0.87035149229E+03  0.87093483192E+03  0.00000000000E+00 0. -1.
          1    1    1    2  502    0  0.26821089194E+02  0.97413729109E+02  0.40644912761E+03  0.41881941070E+03  0.00000000000E+00 0. -1.
         22    1    3    3    0    0 -0.32935578828E+02 -0.63246623375E+02 -0.79466841463E+02  0.10677015788E+03  0.00000000000E+00 0.  1.
         22    1    3    3    0    0  0.32166372044E+02 -0.15807891752E+02 -0.27486405363E+03  0.27719093223E+03  0.00000000000E+00 0.  1.
</event>
<event>
 7    1  0.6067783E-006  0.8306330E+02  0.7818608E-02  0.1323959E+00
          2   -1    0    0  502    0  0.00000000000E+00  0.00000000000E+00  0.80530196728E+03  0.80530196728E+03  0.00000000000E+00 0. -1.
          1   -1    0    0  501    0 -0.00000000000E+00 -0.00000000000E+00 -0.20552384998E+04  0.20552384998E+04  0.00000000000E+00 0. -1.
         25    2    1    2    0    0  0.13156418731E+03 -0.95431403498E+02 -0.95366317921E+02  0.22613876485E+03  0.12501087241E+03 0.  0.
          2    1    1    2  501    0 -0.65730773021E+02  0.46643793070E+02 -0.18913564543E+04  0.18930730084E+04  0.00000000000E+00 0. -1.
          1    1    1    2  502    0 -0.65833414286E+02  0.48787610428E+02  0.73678623967E+03  0.74132869385E+03  0.00000000000E+00 0. -1.
         22    1    3    3    0    0  0.13457576453E+02  0.29898732965E+02 -0.17042890256E+02  0.36952681976E+02  0.00000000000E+00 0.  1.
         22    1    3    3    0    0  0.11810661085E+03 -0.12533013646E+03 -0.78323427665E+02  0.18918608288E+03  0.00000000000E+00 0.  1.
</event>
<event>
 7    1  0.6067783E-006  0.1083788E+03  0.7818608E-02  0.1427360E+00
          2   -1    0    0  502    0  0.00000000000E+00  0.00000000000E+00  0.16032883400E+04  0.16032883400E+04  0.00000000000E+00 0. -1.
          1   -1    0    0  501    0 -0.00000000000E+00 -0.00000000000E+00 -0.12089360392E+04  0.12089360392E+04  0.00000000000E+00 0. -1.
         25    2    1    2    0    0 -0.19180957540E+02 -0.94788024027E+02  0.42229076392E+02  0.16358839620E+03  0.12500075938E+03 0.  0.
          2    1    1    2  501    0  0.45268257429E+02  0.98861733607E+02 -0.11455656686E+04  0.11507143688E+04  0.00000000000E+00 0. -1.
          1    1    1    2  502    0 -0.26087299889E+02 -0.40737095798E+01  0.14976888929E+04  0.14979216142E+04  0.00000000000E+00 0. -1.
         22    1    3    3    0    0  0.25919976080E+02  0.20189103927E+02 -0.61820829550E+00  0.32860725172E+02  0.00000000000E+00 0.  1.
         22    1    3    3    0    0 -0.45100933620E+02 -0.11497712795E+03  0.42847284688E+02  0.13072767102E+03  0.00000000000E+00 0.  1.
</event>
<event>
 7    1  0.6067783E-006  0.1676216E+03  0.7818608E-02  0.1282639E+00
          2   -1    0    0  502    0  0.00000000000E+00  0.00000000000E+00  0.87950271539E+03  0.87950271539E+03  0.00000000000E+00 0. -1.
          1   -1    0    0  501    0 -0.00000000000E+00 -0.00000000000E+00 -0.32473136499E+03  0.32473136499E+03  0.00000000000E+00 0. -1.
         25    2    1    2    0    0 -0.11711365301E+03 -0.10780859240E+03  0.56657385248E+02  0.21017536570E+03  0.12500129889E+03 0.  0.
          2    1    1    2  501    0  0.15797102684E+03  0.66156149857E+02 -0.21707068233E+03  0.27649803365E+03  0.00000000000E+00 0. -1.
          1    1    1    2  502    0 -0.40857373827E+02  0.41652442548E+02  0.71518464748E+03  0.71756068103E+03  0.00000000000E+00 0. -1.
         22    1    3    3    0    0 -0.49502758598E+02  0.22968403205E+02  0.81951588252E+01  0.55183614260E+02  0.00000000000E+00 0.  1.
         22    1    3    3    0    0 -0.67610894416E+02 -0.13077699561E+03  0.48462226423E+02  0.15499175144E+03  0.00000000000E+00 0.  1.
</event>
<event>
 7    1  0.6067783E-006  0.1062135E+03  0.7818608E-02  0.1328866E+00
          2   -1    0    0  502    0  0.00000000000E+00  0.00000000000E+00  0.26572805770E+04  0.26572805770E+04  0.00000000000E+00 0. -1.
          1   -1    0    0  501    0 -0.00000000000E+00 -0.00000000000E+00 -0.29471813644E+03  0.29471813644E+03  0.00000000000E+00 0. -1.
         25    2    1    2    0    0  0.13501718150E+03  0.65191514725E+02  0.10375081429E+02  0.19547815688E+03  0.12499797842E+03 0.  0.
          2    1    1    2  501    0 -0.74759248618E+02 -0.68602960499E+02 -0.18905446937E+03  0.21456212115E+03  0.00000000000E+00 0. -1.
          1    1    1    2  502    0 -0.60257932879E+02  0.34114457741E+01  0.25412418285E+04  0.25419584355E+04  0.00000000000E+00 0. -1.
         22    1    3    3    0    0  0.33045974831E+02 -0.35461213910E+02 -0.13281267496E+02  0.50258593403E+02  0.00000000000E+00 0.  1.
         22    1    3    3    0    0  0.10197120667E+03  0.10065272864E+03  0.23656348925E+02  0.14521956347E+03  0.00000000000E+00 0.  1.
</event>
<event>
 7    1  0.6067783E-006  0.7807588E+02  0.7818608E-02  0.1342313E+00
          2   -1    0    0  502    0  0.00000000000E+00  0.00000000000E+00  0.86107942140E+02  0.86107942140E+02  0.00000000000E+00 0. -1.
          1   -1    0    0  501    0 -0.00000000000E+00 -0.00000000000E+00 -0.13175266963E+04  0.13175266963E+04  0.00000000000E+00 0. -1.
         25    2    1    2    0    0 -0.27828795125E+01  0.76119464143E+02 -0.87107145826E+02  0.17033168575E+03  0.12499324412E+03 0.  0.
          2    1    1    2  501    0  0.69924408079E+02 -0.21034819465E+02 -0.11441285866E+04  0.11464563268E+04  0.00000000000E+00 0. -1.
          1    1    1    2  502    0 -0.67141528566E+02 -0.55084644678E+02 -0.18302171729E+00  0.86846625924E+02  0.00000000000E+00 0. -1.
         22    1    3    3    0    0 -0.32086256470E+02 -0.12902157946E+02 -0.65626388379E+02  0.74180970509E+02  0.00000000000E+00 0.  1.
         22    1    3    3    0    0  0.29303376957E+02  0.89021622089E+02 -0.21480757446E+02  0.96150715238E+02  0.00000000000E+00 0.  1.
</event>
<event>
 7    1  0.6067783E-006  0.8965013E+02  0.7818608E-02  0.1449295E+00
          2   -1    0    0  502    0  0.00000000000E+00  0.00000000000E+00  0.15579242231E+04  0.15579242231E+04  0.00000000000E+00 0. -1.
          1   -1    0    0  501    0 -0.00000000000E+00 -0.00000000000E+00 -0.63669730371E+02  0.63669730371E+02  0.00000000000E+00 0. -1.
         25    2    1    2    0    0 -0.69465406518E+02  0.19153193960E+02  0.81690547571E+03  0.82955037775E+03  0.12500794154E+03 0.  0.
          2    1    1    2  501    0 -0.25008235820E+02  0.10395038039E+02 -0.50601804760E+02  0.57393478023E+02  0.00000000000E+00 0. -1.
          1    1    1    2  502    0  0.94473642338E+02 -0.29548231999E+02  0.72795082177E+03  0.73465009768E+03  0.00000000000E+00 0. -1.
         22    1    3    3    0    0 -0.38537427835E+02  0.47023978167E+02  0.15742843855E+03  0.16876048451E+03  0.00000000000E+00 0.  1.
         22    1    3    3    0    0 -0.30927978683E+02 -0.27870784207E+02  0.65947703716E+03  0.66078989325E+03  0.00000000000E+00 0.  1.
</event>
<event>
 7    1  0.6067783E-006  0.2737947E+02  0.7818608E-02  0.1639602E+00
          2   -1    0    0  502    0  0.00000000000E+00  0.00000000000E+00  0.13782518701E+03  0.13782518701E+03  0.00000000000E+00 0. -1.
          1   -1    0    0  501    0 -0.00000000000E+00 -0.00000000000E+00 -0.64485902018E+03  0.64485902018E+03  0.00000000000E+00 0. -1.
         25    2    1    2    0    0  0.24445080081E+02  0.14767862950E+02 -0.28167111483E+03  0.30948151695E+03  0.12499816275E+03 0.  0.
          2    1    1    2  501    0  0.69685107882E+00 -0.25748870239E+02 -0.34728134190E+03  0.34823529452E+03  0.00000000000E+00 0. -1.
          1    1    1    2  502    0 -0.25141931159E+02  0.10981007289E+02  0.12191862355E+03  0.12496739572E+03  0.00000000000E+00 0. -1.
         22    1    3    3    0    0  0.65879204857E+02  0.42165719272E+02 -0.18289752855E+03  0.19892089750E+03  0.00000000000E+00 0.  1.
         22    1    3    3    0    0 -0.41434124776E+02 -0.27397856321E+02 -0.98773586281E+02  0.11056061945E+03  0.00000000000E+00 0.  1.
</event>
<event>
 7    1  0.6067783E-006  0.1660896E+03  0.7818608E-02  0.1249028E+00
          2   -1    0    0  502    0  0.00000000000E+00  0.00000000000E+00  0.41672129470E+03  0.41672129470E+03  0.00000000000E+00 0. -1.
          1   -1    0    0  501    0 -0.00000000000E+00 -0.00000000000E+00 -0.12347736757E+04  0.12347736757E+04  0.00000000000E+00 0. -1.
         25    2    1    2    0    0 -0.15827779226E+03 -0.97238746672E+02 -0.16133215942E+02  0.22448069080E+03  0.12499626598E+03 0.  0.
          2    1    1    2  501    0  0.88816394133E+02  0.14021457620E+03 -0.11028118193E+04  0.11152319884E+04  0.00000000000E+00 0. -1.
          1    1    1    2  502    0  0.69461398127E+02 -0.42975829524E+02  0.30089265420E+03  0.31178229120E+03  0.00000000000E+00 0. -1.
         22    1    3    3    0    0 -0.27068974743E+01  0.24604453153E+02 -0.10238883485E+02  0.26786958467E+02  0.00000000000E+00 0. -1.
         22    1    3    3    0    0 -0.15557089479E+03 -0.12184319983E+03 -0.58943324563E+01  0.19769373233E+03  0.00000000000E+00 0. -1.
</event>
<event>
 7    1  0.6067783E-006  0.7606887E+02  0.7818608E-02  0.1486779E+00
          2   -1    0    0  502    0  0.00000000000E+00  0.00000000000E+00  0.13506202833E+04  0.13506202833E+04  0.00000000000E+00 0. -1.
          1   -1    0    0  501    0 -0.00000000000E+00 -0.00000000000E+00 -0.11691780154E+03  0.11691780154E+03  0.00000000000E+00 0. -1.
         25    2    1    2    0    0 -0.37127943580E+02 -0.89159029375E+02  0.28567585104E+03  0.32643929424E+03  0.12499641691E+03 0.  0.
          2    1    1    2  501    0 -0.21272623412E+00  0.24382454898E+02 -0.93634737279E+02  0.96757497821E+02  0.00000000000E+00 0. -1.
          1    1    1    2  502    0  0.37340669814E+02  0.64776574477E+02  0.10416613680E+04  0.10443412928E+04  0.00000000000E+00 0. -1.
         22    1    3    3    0    0 -0.43549839403E+02  0.22069366004E+01  0.25277356123E+02  0.50402418729E+02  0.00000000000E+00 0.  1.
         22    1    3    3    0    0  0.64218958235E+01 -0.91365965975E+02  0.26039849492E+03  0.27603687551E+03  0.00000000000E+00 0.  1.
</event>
<event>
 7    1  0.6067783E-006  0.8257317E+02  0.7818608E-02  0.1388309E+00
          2   -1    0    0  502    0  0.00000000000E+00  0.00000000000E+00  0.93159126998E+03  0.93159126998E+03  0.00000000000E+00 0. -1.
          1   -1    0    0  501    0 -0.00000000000E+00 -0.00000000000E+00 -0.16756899448E+03  0.16756899448E+03  0.00000000000E+00 0. -1.
         25    2    1    2    0    0  0.10047578262E+03 -0.79936419486E+02 -0.61746697154E+02  0.18953185022E+03  0.12499781432E+03 0.  0.
          2    1    1    2  501    0 -0.33109888212E+02  0.33425826522E+02 -0.26121713537E+02  0.53813515907E+02  0.00000000000E+00 0. -1.
          1    1    1    2  502    0 -0.67365894407E+02  0.46510592964E+02  0.85189068619E+03  0.85581489833E+03  0.00000000000E+00 0. -1.
         22    1    3    3    0    0  0.98660034800E+02 -0.85404933920E+02 -0.30224928418E+01  0.13052563222E+03  0.00000000000E+00 0.  1.
         22    1    3    3    0    0  0.18157478193E+01  0.54685144335E+01 -0.58724204312E+02  0.59006217997E+02  0.00000000000E+00 0.  1.
</event>
<event>
 7    1  0.6067783E-006  0.8058525E+02  0.7818608E-02  0.1459575E+00
          2   -1    0    0  502    0  0.00000000000E+00  0.00000000000E+00  0.17439141175E+04  0.17439141175E+04  0.00000000000E+00 0. -1.
          1   -1    0    0  501    0 -0.00000000000E+00 -0.00000000000E+00 -0.33895866593E+03  0.33895866593E+03  0.00000000000E+00 0. -1.
         25    2    1    2    0    0 -0.30901466390E+02 -0.54578051650E+02  0.13322812890E+03  0.19315504842E+03  0.12500189621E+03 0.  0.
          2    1    1    2  501    0  0.58806169955E+02  0.56075150756E+02 -0.30352715539E+03  0.31421540735E+03  0.00000000000E+00 0. -1.
          1    1    1    2  502    0 -0.27904703565E+02 -0.14970991060E+01  0.15752544781E+04  0.15755023276E+04  0.00000000000E+00 0. -1.
         22    1    3    3    0    0 -0.26135818695E+02  0.34976210809E+02  0.18213433773E+02  0.47309042594E+02  0.00000000000E+00 0. -1.
         22    1    3    3    0    0 -0.47656476949E+01 -0.89554262459E+02  0.11501469512E+03  0.14584600583E+03  0.00000000000E+00 0. -1.
</event>
<event>
 7    1  0.6067783E-006  0.4312073E+03  0.7818608E-02  0.1157078E+00
          2   -1    0    0  502    0  0.00000000000E+00  0.00000000000E+00  0.13513860197E+04  0.13513860197E+04  0.00000000000E+00 0. -1.
          1   -1    0    0  501    0 -0.00000000000E+00 -0.00000000000E+00 -0.16933464429E+04  0.16933464429E+04  0.00000000000E+00 0. -1.
         25    2    1    2    0    0 -0.43757248349E+03  0.10880226101E+02  0.39533756017E+03  0.60291359756E+03  0.12499984808E+03 0.  0.
          2    1    1    2  501    0  0.17337717145E+02  0.83297425356E+02 -0.15338997764E+04  0.15362576547E+04  0.00000000000E+00 0. -1.
          1    1    1    2  502    0  0.42023476635E+03 -0.94177651456E+02  0.79660179306E+03  0.90556121029E+03  0.00000000000E+00 0. -1.
         22    1    3    3    0    0 -0.34994645899E+03 -0.18103837721E+02  0.24889406649E+03  0.42981220252E+03  0.00000000000E+00 0. -1.
         22    1    3    3    0    0 -0.87626024499E+02  0.28984063822E+02  0.14644349368E+03  0.17310139504E+03  0.00000000000E+00 0. -1.
</event>
<event>
 7    1  0.6067783E-006  0.6505120E+02  0.7818608E-02  0.1394101E+00
          2   -1    0    0  502    0  0.00000000000E+00  0.00000000000E+00  0.11654476546E+04  0.11654476546E+04  0.00000000000E+00 0. -1.
          1   -1    0    0  501    0 -0.00000000000E+00 -0.00000000000E+00 -0.16229108497E+03  0.16229108497E+03  0.00000000000E+00 0. -1.
         25    2    1    2    0    0 -0.10409912114E+03 -0.13169193744E+02  0.52371735002E+02  0.17139403639E+03  0.12499224934E+03 0.  0.
          2    1    1    2  501    0  0.43847236839E+02  0.36435810651E+02 -0.93799419624E+02  0.10976556654E+03  0.00000000000E+00 0. -1.
          1    1    1    2  502    0  0.60251884306E+02 -0.23266616907E+02  0.10445842542E+04  0.10465791366E+04  0.00000000000E+00 0. -1.
         22    1    3    3    0    0 -0.65464435794E+02  0.94901602141E+01  0.90826413904E+02  0.11236143893E+03  0.00000000000E+00 0. -1.
         22    1    3    3    0    0 -0.38634685351E+02 -0.22659353958E+02 -0.38454678902E+02  0.59032597464E+02  0.00000000000E+00 0. -1.
</event>
<event>
 7    1  0.6067783E-006  0.4023236E+03  0.7818608E-02  0.1232062E+00
          2   -1    0    0  502    0  0.00000000000E+00  0.00000000000E+00  0.16404121683E+04  0.16404121683E+04  0.00000000000E+00 0. -1.
          1   -1    0    0  501    0 -0.00000000000E+00 -0.00000000000E+00 -0.29908583538E+03  0.29908583538E+03  0.00000000000E+00 0. -1.
         25    2    1    2    0    0 -0.27594150539E+03  0.25360177444E+03  0.42182549561E+03  0.57794512663E+03  0.12500498492E+03 0.  0.
          2    1    1    2  501    0  0.31240917483E+03 -0.27016833610E+03 -0.27279336328E+02  0.41392582009E+03  0.00000000000E+00 0. -1.
          1    1    1    2  502    0 -0.36467669440E+02  0.16566561660E+02  0.94678017365E+03  0.94762705696E+03  0.00000000000E+00 0. -1.
         22    1    3    3    0    0 -0.15372308223E+03  0.21737889767E+03  0.26230972917E+03  0.37375227782E+03  0.00000000000E+00 0. -1.
         22    1    3    3    0    0 -0.12221842316E+03  0.36222876771E+02  0.15951576644E+03  0.20419284881E+03  0.00000000000E+00 0. -1.
</event>
<event>
 7    1  0.6067783E-006  0.5703690E+02  0.7818608E-02  0.1471577E+00
          2   -1    0    0  502    0  0.00000000000E+00  0.00000000000E+00  0.91381058926E+02  0.91381058926E+02  0.00000000000E+00 0. -1.
          1   -1    0    0  501    0 -0.00000000000E+00 -0.00000000000E+00 -0.84156321434E+03  0.84156321434E+03  0.00000000000E+00 0. -1.
         25    2    1    2    0    0 -0.34376191037E+02 -0.63240249960E+02 -0.50198876010E+03  0.52230263962E+03  0.12500512135E+03 0.  0.
          2    1    1    2  501    0 -0.94232018438E+00  0.55253379800E+02 -0.32291450732E+03  0.32760891774E+03  0.00000000000E+00 0. -1.
          1    1    1    2  502    0  0.35318511221E+02  0.79868701606E+01  0.74721112008E+02  0.83032715899E+02  0.00000000000E+00 0. -1.
         22    1    3    3    0    0 -0.28174332003E+02 -0.30924883481E+02 -0.48197890995E+03  0.48379108202E+03  0.00000000000E+00 0.  1.
         22    1    3    3    0    0 -0.62018590341E+01 -0.32315366479E+02 -0.20009850152E+02  0.38511557606E+02  0.00000000000E+00 0.  1.
</event>
<event>
 7    1  0.6067783E-006  0.3919950E+02  0.7818608E-02  0.1518969E+00
          2   -1    0    0  502    0  0.00000000000E+00  0.00000000000E+00  0.56701899253E+02  0.56701899253E+02  0.00000000000E+00 0. -1.
          1   -1    0    0  501    0 -0.00000000000E+00 -0.00000000000E+00 -0.13866990771E+04  0.13866990771E+04  0.00000000000E+00 0. -1.
         25    2    1    2    0    0  0.11256577958E+02  0.73251132640E+01 -0.68164837367E+03  0.69314425428E+03  0.12499633631E+03 0.  0.
          2    1    1    2  501    0  0.19013290824E+02 -0.32855171175E+02 -0.69100890172E+03  0.69205077109E+03  0.00000000000E+00 0. -1.
          1    1    1    2  502    0 -0.30269868782E+02  0.25530057911E+02  0.42660097516E+02  0.58205951011E+02  0.00000000000E+00 0. -1.
         22    1    3    3    0    0 -0.10106906933E+02  0.62400082297E+02 -0.27139063023E+03  0.27865533193E+03  0.00000000000E+00 0. -1.
         22    1    3    3    0    0  0.21363484891E+02 -0.55074969033E+02 -0.41025774344E+03  0.41448892235E+03  0.00000000000E+00 0. -1.
</event>
<event>
 7    1  0.6067783E-006  0.4953408E+02  0.7818608E-02  0.1531821E+00
          2   -1    0    0  502    0  0.00000000000E+00  0.00000000000E+00  0.13075697733E+04  0.13075697733E+04  0.00000000000E+00 0. -1.
          1   -1    0    0  501    0 -0.00000000000E+00 -0.00000000000E+00 -0.10687243026E+03  0.10687243026E+03  0.00000000000E+00 0. -1.
         25    2    1    2    0    0 -0.59549074700E+02  0.37710222415E+02  0.36426949505E+02  0.14805733209E+03  0.12500359100E+03 0.  0.
          2    1    1    2  501    0  0.11865890516E+02 -0.24901124435E+02 -0.46791599977E+02  0.54316840706E+02  0.00000000000E+00 0. -1.
          1    1    1    2  502    0  0.47683184184E+02 -0.12809097980E+02  0.12110619935E+04  0.12120680307E+04  0.00000000000E+00 0. -1.
         22    1    3    3    0    0  0.35973688346E+02 -0.70879538042E+01  0.18397554790E+02  0.41022132619E+02  0.00000000000E+00 0. -1.
         22    1    3    3    0    0 -0.95522763045E+02  0.44798176219E+02  0.18029394715E+02  0.10703519947E+03  0.00000000000E+00 0. -1.
</event>
<event>
 7    1  0.6067783E-006  0.3923109E+02  0.7818608E-02  0.1557760E+00
          2   -1    0    0  502    0  0.00000000000E+00  0.00000000000E+00  0.72134790394E+03  0.72134790394E+03  0.00000000000E+00 0. -1.
          1   -1    0    0  501    0 -0.00000000000E+00 -0.00000000000E+00 -0.21075009060E+04  0.21075009060E+04  0.00000000000E+00 0. -1.
         25    2    1    2    0    0 -0.34326916178E+02 -0.75457676460E+01  0.21082043491E+03  0.24759776946E+03  0.12499649548E+03 0.  0.
          2    1    1    2  501    0  0.32596199690E+02 -0.21851932996E+02 -0.20884872073E+04  0.20888558672E+04  0.00000000000E+00 0. -1.
          1    1    1    2  502    0  0.17307164878E+01  0.29397700642E+02  0.49151377032E+03  0.49239517321E+03  0.00000000000E+00 0. -1.
         22    1    3    3    0    0  0.16531867003E+01 -0.33600443142E+02  0.19873201864E+03  0.20155926681E+03  0.00000000000E+00 0. -1.
         22    1    3    3    0    0 -0.35980102878E+02  0.26054675496E+02  0.12088416271E+02  0.46038502650E+02  0.00000000000E+00 0. -1.
</event>
<event>
 7    1  0.6067783E-006  0.1070736E+03  0.7818608E-02  0.1282686E+00
          2   -1    0    0  502    0  0.00000000000E+00  0.00000000000E+00  0.30673580244E+04  0.30673580244E+04  0.00000000000E+00 0. -1.
          1   -1    0    0  501    0 -0.00000000000E+00 -0.00000000000E+00 -0.53079992516E+02  0.53079992516E+02  0.00000000000E+00 0. -1.
         25    2    1    2    0    0 -0.10226823201E+03 -0.54044520833E+01  0.11135719635E+04  0.11252353411E+04  0.12499622288E+03 0.  0.
          2    1    1    2  501    0  0.20158496878E+02  0.89045696708E+02  0.41454127131E+00  0.91299906588E+02  0.00000000000E+00 0. -1.
          1    1    1    2  502    0  0.82109735129E+02 -0.83641244625E+02  0.19002915271E+04  0.19039027692E+04  0.00000000000E+00 0. -1.
         22    1    3    3    0    0  0.15429206186E+02 -0.32577047396E+02  0.15804141718E+03  0.16210001223E+03  0.00000000000E+00 0.  1.
         22    1    3    3    0    0 -0.11769743819E+03  0.27172595313E+02  0.95553054629E+03  0.96313532891E+03  0.00000000000E+00 0.  1.
</event>
<event>
 7    1  0.6067783E-006  0.9797551E+02  0.7818608E-02  0.1292951E+00
          2   -1    0    0  502    0  0.00000000000E+00  0.00000000000E+00  0.19604036935E+04  0.19604036935E+04  0.00000000000E+00 0. -1.
          1   -1    0    0  501    0 -0.00000000000E+00 -0.00000000000E+00 -0.87553852707E+03  0.87553852707E+03  0.00000000000E+00 0. -1.
         25    2    1    2    0    0 -0.92955019554E+02  0.16117401496E+03  0.19586425112E+02  0.22500454227E+03  0.12500286891E+03 0.  0.
          2    1    1    2  501    0  0.42615065365E+02 -0.85845178279E+02 -0.76873554674E+03  0.77468689111E+03  0.00000000000E+00 0. -1.
          1    1    1    2  502    0  0.50339954189E+02 -0.75328836677E+02  0.18340142881E+04  0.18362507872E+04  0.00000000000E+00 0. -1.
         22    1    3    3    0    0 -0.11048106481E+03  0.16235794408E+03 -0.29823533073E+01  0.19640535155E+03  0.00000000000E+00 0.  1.
         22    1    3    3    0    0  0.17526045253E+02 -0.11839291249E+01  0.22568778419E+02  0.28599190718E+02  0.00000000000E+00 0.  1.
</event>
<event>
 7    1  0.6067783E-006  0.8992348E+02  0.7818608E-02  0.1463320E+00
          2   -1    0    0  502    0  0.00000000000E+00  0.00000000000E+00  0.91958607705E+02  0.91958607705E+02  0.00000000000E+00 0. -1.
          1   -1    0    0  501    0 -0.00000000000E+00 -0.00000000000E+00 -0.15221229496E+04  0.15221229496E+04  0.00000000000E+00 0. -1.
         25    2    1    2    0    0 -0.56290504825E+02 -0.82788104206E+02 -0.65127239978E+03  0.67067385106E+03  0.12500073864E+03 0.  0.
          2    1    1    2  501    0  0.64541718113E+02  0.59855278140E+02 -0.85703940682E+03  0.86154792818E+03  0.00000000000E+00 0. -1.
          1    1    1    2  502    0 -0.82512132876E+01  0.22932826066E+02  0.78147464682E+02  0.81859778086E+02  0.00000000000E+00 0. -1.
         22    1    3    3    0    0 -0.85151017506E+02 -0.16158096700E+02 -0.38876909036E+03  0.39831292409E+03  0.00000000000E+00 0.  1.
         22    1    3    3    0    0  0.28860512681E+02 -0.66630007506E+02 -0.26250330941E+03  0.27236092698E+03  0.00000000000E+00 0.  1.
</event>
<event>
 7    1  0.6067783E-006  0.9056872E+02  0.7818608E-02  0.1302854E+00
          2   -1    0    0  502    0  0.00000000000E+00  0.00000000000E+00  0.79630104613E+03  0.79630104613E+03  0.00000000000E+00 0. -1.
          1   -1    0    0  501    0 -0.00000000000E+00 -0.00000000000E+00 -0.19624083730E+04  0.19624083730E+04  0.00000000000E+00 0. -1.
         25    2    1    2    0    0 -0.39322227212E+02  0.28134013213E+01  0.39082653335E+02  0.13677089810E+03  0.12499868798E+03 0.  0.
          2    1    1    2  501    0  0.18250314120E+02 -0.89728052000E+02 -0.19096401633E+04  0.19118341326E+04  0.00000000000E+00 0. -1.
          1    1    1    2  502    0  0.21071913092E+02  0.86914650679E+02  0.70445018308E+03  0.71010438843E+03  0.00000000000E+00 0. -1.
         22    1    3    3    0    0 -0.45959652896E+01  0.55719586173E+02  0.46938702252E+02  0.73000253077E+02  0.00000000000E+00 0. -1.
         22    1    3    3    0    0 -0.34726261923E+02 -0.52906184851E+02 -0.78560489171E+01  0.63770645028E+02  0.00000000000E+00 0. -1.
</event>
<event>
 7    1  0.6067783E-006  0.1115768E+03  0.7818608E-02  0.1350982E+00
          2   -1    0    0  502    0  0.00000000000E+00  0.00000000000E+00  0.44718259220E+03  0.44718259220E+03  0.00000000000E+00 0. -1.
          1   -1    0    0  501    0 -0.00000000000E+00 -0.00000000000E+00 -0.33431114088E+03  0.33431114088E+03  0.00000000000E+00 0. -1.
         25    2    1    2    0    0 -0.98311204995E+02  0.11763349684E+03  0.18920700186E+02  0.19871082612E+03  0.12500106765E+03 0.  0.
          2    1    1    2  501    0  0.75301067727E+02 -0.76153502586E+02 -0.23087858120E+03  0.25450840067E+03  0.00000000000E+00 0. -1.
          1    1    1    2  502    0  0.23010137268E+02 -0.41479994256E+02  0.32482933233E+03  0.32827450630E+03  0.00000000000E+00 0. -1.
         22    1    3    3    0    0 -0.98779999843E+02  0.14077379549E+03  0.57249782165E+01  0.17206837374E+03  0.00000000000E+00 0.  1.
         22    1    3    3    0    0  0.46879484820E+00 -0.23140298652E+02  0.13195721969E+02  0.26642452376E+02  0.00000000000E+00 0.  1.
</event>
<event>
 7    1  0.6067783E-006  0.9213720E+02  0.7818608E-02  0.1401647E+00
          2   -1    0    0  502    0  0.00000000000E+00  0.00000000000E+00  0.54002010140E+02  0.54002010140E+02  0.00000000000E+00 0. -1.
          1   -1    0    0  501    0 -0.00000000000E+00 -0.00000000000E+00 -0.15602316271E+04  0.15602316271E+04  0.00000000000E+00 0. -1.
         25    2    1    2    0    0 -0.80960797534E+02 -0.97594092392E+02 -0.29433577449E+03  0.34400261850E+03  0.12499998312E+03 0.  0.
          2    1    1    2  501    0  0.51673240695E+02  0.73524641767E+02 -0.12263653790E+04  0.12296536259E+04  0.00000000000E+00 0. -1.
          1    1    1    2  502    0  0.29287556839E+02  0.24069450625E+02  0.14471536582E+02  0.40577392844E+02  0.00000000000E+00 0. -1.
         22    1    3    3    0    0 -0.10185079321E+03 -0.10951609364E+03 -0.22121139452E+03  0.26702404369E+03  0.00000000000E+00 0. -1.
         22    1    3    3    0    0  0.20889995671E+02  0.11922001252E+02 -0.73124379974E+02  0.76978574809E+02  0.00000000000E+00 0. -1.
</event>
<event>
 7    1  0.6067783E-006  0.7432733E+02  0.7818608E-02  0.1515874E+00
          2   -1    0    0  502    0  0.00000000000E+00  0.00000000000E+00  0.93294479588E+03  0.93294479588E+03  0.00000000000E+00 0. -1.
          1   -1    0    0  501    0 -0.00000000000E+00 -0.00000000000E+00 -0.55872806345E+02  0.55872806345E+02  0.00000000000E+00 0. -1.
         25    2    1    2    0    0 -0.80721187904E+02  0.31156750720E+02  0.45397857872E+03  0.47875789915E+03  0.12500369101E+03 0.  0.
          2    1    1    2  501    0  0.72559344787E+02 -0.12417160387E+02 -0.11914274758E+02  0.74572074740E+02  0.00000000000E+00 0. -1.
          1    1    1    2  502    0  0.81618431168E+01 -0.18739590333E+02  0.43500768557E+03  0.43548762834E+03  0.00000000000E+00 0. -1.
         22    1    3    3    0    0 -0.69120080524E+02 -0.66853386549E+00  0.43391889674E+03  0.43939007888E+03  0.00000000000E+00 0.  1.
         22    1    3    3    0    0 -0.11601107380E+02  0.31825284585E+02  0.20059681977E+02  0.39367820264E+02  0.00000000000E+00 0.  1.
</event>
<event>
 7    1  0.6067783E-006  0.1164790E+03  0.7818608E-02  0.1358838E+00
          2   -1    0    0  502    0  0.00000000000E+00  0.00000000000E+00  0.91717810028E+03  0.91717810028E+03  0.00000000000E+00 0. -1.
          1   -1    0    0  501    0 -0.00000000000E+00 -0.00000000000E+00 -0.25478074321E+04  0.25478074321E+04  0.00000000000E+00 0. -1.
         25    2    1    2    0    0  0.12686750483E+03 -0.22159065084E+02  0.21800777391E+03  0.28238081432E+03  0.12500058746E+03 0.  0.
          2    1    1    2  501    0 -0.12833503555E+02  0.40530932269E+02 -0.25104389803E+04  0.25107989424E+04  0.00000000000E+00 0. -1.
          1    1    1    2  502    0 -0.11403400128E+03 -0.18371867185E+02  0.66180187461E+03  0.67180577564E+03  0.00000000000E+00 0. -1.
         22    1    3    3    0    0  0.25877676465E+02 -0.58718780981E+02  0.12411932467E+03  0.13972528810E+03  0.00000000000E+00 0.  1.
         22    1    3    3    0    0  0.10098982837E+03  0.36559715897E+02  0.93888449237E+02  0.14265552622E+03  0.00000000000E+00 0.  1.
</event>
<event>
 7    1  0.6067783E-006  0.1981533E+03  0.7818608E-02  0.1296333E+00
          2   -1    0    0  502    0  0.00000000000E+00  0.00000000000E+00  0.13421868509E+04  0.13421868509E+04  0.00000000000E+00 0. -1.
          1   -1    0    0  501    0 -0.00000000000E+00 -0.00000000000E+00 -0.30119105025E+04  0.30119105025E+04  0.00000000000E+00 0. -1.
         25    2    1    2    0    0 -0.17204169661E+03  0.16780885847E+03  0.96286048633E+01  0.27106606811E+03  0.12500377954E+03 0.  0.
          2    1    1    2  501    0  0.13832187723E+03 -0.14046912178E+03 -0.28774259465E+04  0.28841713876E+04  0.00000000000E+00 0. -1.
          1    1    1    2  502    0  0.33719819384E+02 -0.27339736686E+02  0.11980736900E+04  0.11988598976E+04  0.00000000000E+00 0. -1.
         22    1    3    3    0    0 -0.29080137390E+02  0.94378730404E+02 -0.34146624010E+02  0.10449397626E+03  0.00000000000E+00 0.  1.
         22    1    3    3    0    0 -0.14296155922E+03  0.73430128062E+02  0.43775228874E+02  0.16657209185E+03  0.00000000000E+00 0.  1.
</event>
<event>
 7    1  0.6067783E-006  0.6875439E+02  0.7818608E-02  0.1428989E+00
          2   -1    0    0  502    0  0.00000000000E+00  0.00000000000E+00  0.19102805807E+04  0.19102805807E+04  0.00000000000E+00 0. -1.
          1   -1    0    0  501    0 -0.00000000000E+00 -0.00000000000E+00 -0.21916606985E+03  0.21916606985E+03  0.00000000000E+00 0. -1.
         25    2    1    2    0    0 -0.38998746410E+02  0.16896425702E+02  0.82876475313E+02  0.15588079758E+03  0.12499568581E+03 0.  0.
          2    1    1    2  501    0  0.40294842181E+02 -0.57984011185E+02 -0.17559448966E+03  0.18925972804E+03  0.00000000000E+00 0. -1.
          1    1    1    2  502    0 -0.12960957712E+01  0.41087585482E+02  0.17838325252E+04  0.17843061250E+04  0.00000000000E+00 0. -1.
         22    1    3    3    0    0  0.32723905701E+02  0.31387324845E+02  0.24777554433E-01  0.45343343273E+02  0.00000000000E+00 0.  1.
         22    1    3    3    0    0 -0.71722652110E+02 -0.14490899143E+02  0.82851697759E+02  0.11053745431E+03  0.00000000000E+00 0.  1.
</event>
<event>
 7    1  0.6067783E-006  0.1061157E+03  0.7818608E-02  0.1449795E+00
          2   -1    0    0  502    0  0.00000000000E+00  0.00000000000E+00  0.81164704512E+03  0.81164704512E+03  0.00000000000E+00 0. -1.
          1   -1    0    0  501    0 -0.00000000000E+00 -0.00000000000E+00 -0.15956962098E+03  0.15956962098E+03  0.00000000000E+00 0. -1.
         25    2    1    2    0    0  0.12212903583E+03  0.25670271824E+02  0.17956732034E+03  0.25188120523E+03  0.12500101907E+03 0.  0.
          2    1    1    2  501    0 -0.19172524522E+02 -0.12332156586E+02 -0.11779001922E+03  0.11997564924E+03  0.00000000000E+00 0. -1.
          1    1    1    2  502    0 -0.10295651131E+03 -0.13338115238E+02  0.59030012302E+03  0.59935981161E+03  0.00000000000E+00 0. -1.
         22    1    3    3    0    0  0.37449434997E+02  0.70301459191E+02  0.66726458928E+02  0.10390945899E+03  0.00000000000E+00 0. -1.
         22    1    3    3    0    0  0.84679600830E+02 -0.44631187367E+02  0.11284086141E+03  0.14797174625E+03  0.00000000000E+00 0. -1.
</event>
<event>
 7    1  0.6067783E-006  0.8112870E+02  0.7818608E-02  0.1417279E+00
          2   -1    0    0  502    0  0.00000000000E+00  0.00000000000E+00  0.31293999649E+03  0.31293999649E+03  0.00000000000E+00 0. -1.
          1   -1    0    0  501    0 -0.00000000000E+00 -0.00000000000E+00 -0.21349462659E+03  0.21349462659E+03  0.00000000000E+00 0. -1.
         25    2    1    2    0    0 -0.13051511271E+02  0.72885914763E+02  0.10191006445E+03  0.17746414558E+03  0.12500065284E+03 0.  0.
          2    1    1    2  501    0  0.37144380166E+02  0.85038082719E+01 -0.16299020034E+03  0.16738525962E+03  0.00000000000E+00 0. -1.
          1    1    1    2  502    0 -0.24092868896E+02 -0.81389723035E+02  0.16052550578E+03  0.18158521788E+03  0.00000000000E+00 0. -1.
         22    1    3    3    0    0 -0.16074630977E+02  0.50864548006E+02 -0.17393008524E+02  0.56108045327E+02  0.00000000000E+00 0.  1.
         22    1    3    3    0    0  0.30231197064E+01  0.22021366757E+02  0.11930307298E+03  0.12135610025E+03  0.00000000000E+00 0.  1.
</event>
<event>
 7    1  0.6067783E-006  0.4891338E+02  0.7818608E-02  0.1506260E+00
          2   -1    0    0  502    0  0.00000000000E+00  0.00000000000E+00  0.55055077003E+02  0.55055077003E+02  0.00000000000E+00 0. -1.
          1   -1    0    0  501    0 -0.00000000000E+00 -0.00000000000E+00 -0.52721026667E+03  0.52721026667E+03  0.00000000000E+00 0. -1.
         25    2    1    2    0    0  0.21097745682E+02  0.11276727151E+01 -0.22870547419E+03  0.26149005858E+03  0.12499788116E+03 0.  0.
          2    1    1    2  501    0 -0.51317618931E+02 -0.14749646924E+02 -0.27189932701E+03  0.27709257321E+03  0.00000000000E+00 0. -1.
          1    1    1    2  502    0  0.30219873249E+02  0.13621974209E+02  0.28449611538E+02  0.43682711881E+02  0.00000000000E+00 0. -1.
         22    1    3    3    0    0  0.50434376519E+02  0.44544638369E+02 -0.84242883169E+02  0.10781796931E+03  0.00000000000E+00 0. -1.
         22    1    3    3    0    0 -0.29336630837E+02 -0.43416965654E+02 -0.14446259102E+03  0.15367208927E+03  0.00000000000E+00 0. -1.
</event>
<event>
 7    1  0.6067783E-006  0.6836063E+02  0.7818608E-02  0.1375250E+00
          2   -1    0    0  502    0  0.00000000000E+00  0.00000000000E+00  0.74662031357E+03  0.74662031357E+03  0.00000000000E+00 0. -1.
          1   -1    0    0  501    0 -0.00000000000E+00 -0.00000000000E+00 -0.79026476699E+03  0.79026476699E+03  0.00000000000E+00 0. -1.
         25    2    1    2    0    0  0.10692661647E+03  0.16384920903E+02  0.18710621283E+03  0.24967793502E+03  0.12501427685E+03 0.  0.
          2    1    1    2  501    0 -0.62111028800E+02  0.28175467619E+02 -0.75554704172E+03  0.75861911993E+03  0.00000000000E+00 0. -1.
          1    1    1    2  502    0 -0.44815587667E+02 -0.44560388522E+02  0.52479637546E+03  0.52858802561E+03  0.00000000000E+00 0. -1.
         22    1    3    3    0    0  0.93389226216E+02 -0.42806529220E+02  0.13515271963E+03  0.16976514407E+03  0.00000000000E+00 0. -1.
         22    1    3    3    0    0  0.13537390252E+02  0.59191450124E+02  0.51953493199E+02  0.79912790955E+02  0.00000000000E+00 0. -1.
</event>
<event>
 7    1  0.6067783E-006  0.1298774E+03  0.7818608E-02  0.1377133E+00
          2   -1    0    0  502    0  0.00000000000E+00  0.00000000000E+00  0.13718729584E+04  0.13718729584E+04  0.00000000000E+00 0. -1.
          1   -1    0    0  501    0 -0.00000000000E+00 -0.00000000000E+00 -0.21357903548E+03  0.21357903548E+03  0.00000000000E+00 0. -1.
         25    2    1    2    0    0 -0.30717020098E+02  0.95620267316E+02  0.13205345126E+02  0.16089568397E+03  0.12500507643E+03 0.  0.
          2    1    1    2  501    0  0.28731115908E+01  0.32628404088E+02 -0.13441076205E+03  0.13834421013E+03  0.00000000000E+00 0. -1.
          1    1    1    2  502    0  0.27843908507E+02 -0.12824867140E+03  0.12794993399E+04  0.12862120998E+04  0.00000000000E+00 0. -1.
         22    1    3    3    0    0  0.17602583811E+02  0.10294180265E+03  0.30913623695E+02  0.10891518636E+03  0.00000000000E+00 0.  1.
         22    1    3    3    0    0 -0.48319603909E+02 -0.73215353364E+01 -0.17708278569E+02  0.51980497607E+02  0.00000000000E+00 0.  1.
</event>
<event>
 7    1  0.6067783E-006  0.1946802E+03  0.7818608E-02  0.1281728E+00
          2   -1    0    0  502    0  0.00000000000E+00  0.00000000000E+00  0.29763923953E+04  0.29763923953E+04  0.00000000000E+00 0. -1.
          1   -1    0    0  501    0 -0.00000000000E+00 -0.00000000000E+00 -0.89619959368E+03  0.89619959368E+03  0.00000000000E+00 0. -1.
         25    2    1    2    0    0  0.23751958112E+03  0.10564983701E+02  0.48870780632E+02  0.27302087569E+03  0.12499950027E+03 0.  0.
          2    1    1    2  501    0 -0.18967465294E+03 -0.27253959153E+02 -0.77218509167E+03  0.79560610106E+03  0.00000000000E+00 0. -1.
          1    1    1    2  502    0 -0.47844928180E+02  0.16688975452E+02  0.28035071126E+04  0.28039650122E+04  0.00000000000E+00 0. -1.
         22    1    3    3    0    0  0.20523070623E+03 -0.66786875568E+01  0.84400542991E+02  0.22200833161E+03  0.00000000000E+00 0. -1.
         22    1    3    3    0    0  0.32288874887E+02  0.17243671258E+02 -0.35529762359E+02  0.51012544077E+02  0.00000000000E+00 0. -1.
</event>
<event>
 7    1  0.6067783E-006  0.8148746E+02  0.7818608E-02  0.1430443E+00
          2   -1    0    0  502    0  0.00000000000E+00  0.00000000000E+00  0.85653122459E+03  0.85653122459E+03  0.00000000000E+00 0. -1.
          1   -1    0    0  501    0 -0.00000000000E+00 -0.00000000000E+00 -0.22134470415E+03  0.22134470415E+03  0.00000000000E+00 0. -1.
         25    2    1    2    0    0 -0.79021549402E+02 -0.10447324326E+02  0.40694606085E+03  0.43310874916E+03  0.12499816118E+03 0.  0.
          2    1    1    2  501    0  0.78097452227E+02 -0.23844318989E+02 -0.19954627357E+03  0.21560723292E+03  0.00000000000E+00 0. -1.
          1    1    1    2  502    0  0.92409717497E+00  0.34291643315E+02  0.42778673315E+03  0.42915994666E+03  0.00000000000E+00 0. -1.
         22    1    3    3    0    0  0.26232872134E+02 -0.30935464237E+02  0.12747047011E+03  0.13376803534E+03  0.00000000000E+00 0. -1.
         22    1    3    3    0    0 -0.10525442154E+03  0.20488139911E+02  0.27947559074E+03  0.29934071382E+03  0.00000000000E+00 0. -1.
</event>
<event>
 7    1  0.6067783E-006  0.1088517E+03  0.7818608E-02  0.1289803E+00
          2   -1    0    0  502    0  0.00000000000E+00  0.00000000000E+00  0.90076913717E+03  0.90076913717E+03  0.00000000000E+00 0. -1.
          1   -1    0    0  501    0 -0.00000000000E+00 -0.00000000000E+00 -0.39255723674E+02  0.39255723674E+02  0.00000000000E+00 0. -1.
         25    2    1    2    0    0  0.11225789949E+03 -0.42139644808E+01  0.42557536761E+03  0.45755773816E+03  0.12500038697E+03 0.  0.
          2    1    1    2  501    0 -0.89043654885E+02 -0.76496778125E+02  0.19849792922E+03  0.23061213637E+03  0.00000000000E+00 0. -1.
          1    1    1    2  502    0 -0.23214244601E+02  0.80710742606E+02  0.23744011667E+03  0.25185498631E+03  0.00000000000E+00 0. -1.
         22    1    3    3    0    0  0.12411825704E+03  0.21690862581E+02  0.25292005706E+03  0.28256749727E+03  0.00000000000E+00 0. -1.
         22    1    3    3    0    0 -0.11860357557E+02 -0.25904827061E+02  0.17265531055E+03  0.17499024089E+03  0.00000000000E+00 0. -1.
</event>
<event>
 7    1  0.6067783E-006  0.5079853E+02  0.7818608E-02  0.1492261E+00
          2   -1    0    0  502    0  0.00000000000E+00  0.00000000000E+00  0.29588021920E+03  0.29588021920E+03  0.00000000000E+00 0. -1.
          1   -1    0    0  501    0 -0.00000000000E+00 -0.00000000000E+00 -0.21689688981E+04  0.21689688981E+04  0.00000000000E+00 0. -1.
         25    2    1    2    0    0  0.37461169307E+02  0.39209105764E+02 -0.30311328980E+03  0.33233161435E+03  0.12500376900E+03 0.  0.
          2    1    1    2  501    0 -0.33218455049E+02  0.11473840921E+02 -0.18487789059E+04  0.18491129111E+04  0.00000000000E+00 0. -1.
          1    1    1    2  502    0 -0.42427142577E+01 -0.50682946685E+02  0.27880351684E+03  0.28340459190E+03  0.00000000000E+00 0. -1.
         22    1    3    3    0    0  0.49173801818E+02  0.56750583290E+02 -0.30201554672E+03  0.31121067133E+03  0.00000000000E+00 0. -1.
         22    1    3    3    0    0 -0.11712632511E+02 -0.17541477526E+02 -0.10977430763E+01  0.21120943019E+02  0.00000000000E+00 0. -1.
</event>
<event>
 7    1  0.6067783E-006  0.1832764E+03  0.7818608E-02  0.1265652E+00
          2   -1    0    0  502    0  0.00000000000E+00  0.00000000000E+00  0.44452779371E+03  0.44452779371E+03  0.00000000000E+00 0. -1.
          1   -1    0    0  501    0 -0.00000000000E+00 -0.00000000000E+00 -0.13555821054E+04  0.13555821054E+04  0.00000000000E+00 0. -1.
         25    2    1    2    0    0 -0.14331939011E+03  0.55435249580E+01 -0.39781941754E+03  0.44097169949E+03  0.12499829010E+03 0.  0.
          2    1    1    2  501    0  0.20380271094E+03  0.11430809210E+02 -0.92263560293E+03  0.94494585251E+03  0.00000000000E+00 0. -1.
          1    1    1    2  502    0 -0.60483320835E+02 -0.16974334168E+02  0.40940070874E+03  0.41419234714E+03  0.00000000000E+00 0. -1.
         22    1    3    3    0    0 -0.10094983647E+03  0.37702860300E+02 -0.35979573148E+03  0.37558666584E+03  0.00000000000E+00 0. -1.
         22    1    3    3    0    0 -0.42369553633E+02 -0.32159335342E+02 -0.38023686060E+02  0.65385033656E+02  0.00000000000E+00 0. -1.
</event>
<event>
 7    1  0.6067783E-006  0.8035829E+02  0.7818608E-02  0.1418804E+00
          2   -1    0    0  502    0  0.00000000000E+00  0.00000000000E+00  0.82100239530E+03  0.82100239530E+03  0.00000000000E+00 0. -1.
          1   -1    0    0  501    0 -0.00000000000E+00 -0.00000000000E+00 -0.27692204865E+03  0.27692204865E+03  0.00000000000E+00 0. -1.
         25    2    1    2    0    0  0.94923483028E+02  0.26907716183E+01 -0.53070454331E+02  0.16570921376E+03  0.12500145007E+03 0.  0.
          2    1    1    2  501    0 -0.71814407859E+02 -0.32882974737E+02 -0.15771754447E+03  0.17638997431E+03  0.00000000000E+00 0. -1.
          1    1    1    2  502    0 -0.23109075169E+02  0.30192203119E+02  0.75486834545E+03  0.75582525589E+03  0.00000000000E+00 0. -1.
         22    1    3    3    0    0  0.90712329218E+02 -0.10589833362E+02 -0.88785789228E+02  0.12737263290E+03  0.00000000000E+00 0. -1.
         22    1    3    3    0    0  0.42111538107E+01  0.13280604981E+02  0.35715334897E+02  0.38336580858E+02  0.00000000000E+00 0. -1.
</event>
<event>
 7    1  0.6067783E-006  0.1043231E+03  0.7818608E-02  0.1374152E+00
          2   -1    0    0  502    0  0.00000000000E+00  0.00000000000E+00  0.19942934051E+03  0.19942934051E+03  0.00000000000E+00 0. -1.
          1   -1    0    0  501    0 -0.00000000000E+00 -0.00000000000E+00 -0.34236753466E+03  0.34236753466E+03  0.00000000000E+00 0. -1.
         25    2    1    2    0    0 -0.48858875766E+02  0.66266383602E+02 -0.94351663006E+02  0.17693510937E+03  0.12500149311E+03 0.  0.
          2    1    1    2  501    0 -0.41240848482E+02 -0.67413036429E+01 -0.18569225602E+03  0.19033619389E+03  0.00000000000E+00 0. -1.
          1    1    1    2  502    0  0.90099724247E+02 -0.59525079959E+02  0.13710572488E+03  0.17452557191E+03  0.00000000000E+00 0. -1.
         22    1    3    3    0    0  0.48070543910E+01  0.77794981121E+02 -0.13336584665E+02  0.79076111121E+02  0.00000000000E+00 0. -1.
         22    1    3    3    0    0 -0.53665930157E+02 -0.11528597519E+02 -0.81015078341E+02  0.97858998252E+02  0.00000000000E+00 0. -1.
</event>
<event>
 7    1  0.6067783E-006  0.1751265E+03  0.7818608E-02  0.1322381E+00
          2   -1    0    0  502    0  0.00000000000E+00  0.00000000000E+00  0.24877948189E+04  0.24877948189E+04  0.00000000000E+00 0. -1.
          1   -1    0    0  501    0 -0.00000000000E+00 -0.00000000000E+00 -0.20634482254E+03  0.20634482254E+03  0.00000000000E+00 0. -1.
         25    2    1    2    0    0 -0.11495177751E+03 -0.14018245911E+03  0.17293156208E+04  0.17432791688E+04  0.12499884458E+03 0.  0.
          2    1    1    2  501    0  0.79542610028E+02  0.15596847260E+03 -0.16029522174E+03  0.23737680883E+03  0.00000000000E+00 0. -1.
          1    1    1    2  502    0  0.35409167482E+02 -0.15786013497E+02  0.71242959730E+03  0.71348366377E+03  0.00000000000E+00 0. -1.
         22    1    3    3    0    0  0.25202155156E+02 -0.94958035281E+01  0.15224901379E+03  0.15461268095E+03  0.00000000000E+00 0. -1.
         22    1    3    3    0    0 -0.14015393267E+03 -0.13068665558E+03  0.15770666070E+04  0.15886664879E+04  0.00000000000E+00 0. -1.
</event>
<event>
 7    1  0.6067783E-006  0.1174489E+03  0.7818608E-02  0.1303469E+00
          2   -1    0    0  502    0  0.00000000000E+00  0.00000000000E+00  0.90137100129E+03  0.90137100129E+03  0.00000000000E+00 0. -1.
          1   -1    0    0  501    0 -0.00000000000E+00 -0.00000000000E+00 -0.67952674655E+02  0.67952674655E+02  0.00000000000E+00 0. -1.
         25    2    1    2    0    0  0.46414916361E+02 -0.55378874789E+02  0.16342660820E+03  0.21806476307E+03  0.12499128126E+03 0.  0.
          2    1    1    2  501    0  0.68526090468E+02 -0.26434539543E+01 -0.43694170517E+00  0.68578450271E+02  0.00000000000E+00 0. -1.
          1    1    1    2  502    0 -0.11494100683E+03  0.58022328743E+02  0.67042866014E+03  0.68268046260E+03  0.00000000000E+00 0. -1.
         22    1    3    3    0    0 -0.14207293725E+02 -0.16412534165E+02  0.14089746315E+03  0.14255985969E+03  0.00000000000E+00 0. -1.
         22    1    3    3    0    0  0.60622210086E+02 -0.38966340624E+02  0.22529145046E+02  0.75504903377E+02  0.00000000000E+00 0. -1.
</event>
<event>
 7    1  0.6067783E-006  0.1514061E+03  0.7818608E-02  0.1230687E+00
          2   -1    0    0  502    0  0.00000000000E+00  0.00000000000E+00  0.43433702895E+03  0.43433702895E+03  0.00000000000E+00 0. -1.
          1   -1    0    0  501    0 -0.00000000000E+00 -0.00000000000E+00 -0.41808572440E+03  0.41808572440E+03  0.00000000000E+00 0. -1.
         25    2    1    2    0    0  0.75534088027E+01  0.54219033428E+02  0.14540081676E+03  0.19940818833E+03  0.12500188194E+03 0.  0.
          2    1    1    2  501    0 -0.53041922402E+02 -0.15211976773E+03 -0.36206998136E+03  0.39629350318E+03  0.00000000000E+00 0. -1.
          1    1    1    2  502    0  0.45488513599E+02  0.97900734297E+02  0.23292046914E+03  0.25672106184E+03  0.00000000000E+00 0. -1.
         22    1    3    3    0    0 -0.52761364650E+02  0.42473243437E+02  0.43768219088E+02  0.80643629692E+02  0.00000000000E+00 0. -1.
         22    1    3    3    0    0  0.60314773453E+02  0.11745789991E+02  0.10163259767E+03  0.11876455864E+03  0.00000000000E+00 0. -1.
</event>
<event>
 7    1  0.6067783E-006  0.5376035E+02  0.7818608E-02  0.1491075E+00
          2   -1    0    0  502    0  0.00000000000E+00  0.00000000000E+00  0.18703102496E+03  0.18703102496E+03  0.00000000000E+00 0. -1.
          1   -1    0    0  501    0 -0.00000000000E+00 -0.00000000000E+00 -0.13152290370E+04  0.13152290370E+04  0.00000000000E+00 0. -1.
         25    2    1    2    0    0  0.93531022712E+01  0.19633647017E+02 -0.12871481756E+03  0.18073639376E+03  0.12500071660E+03 0.  0.
          2    1    1    2  501    0  0.56523653911E+01  0.33002358308E+02 -0.11556027867E+04  0.11560877586E+04  0.00000000000E+00 0. -1.
          1    1    1    2  502    0 -0.15005467662E+02 -0.52636005325E+02  0.15611959223E+03  0.16543590963E+03  0.00000000000E+00 0. -1.
         22    1    3    3    0    0  0.66960795726E+02  0.56493403111E+01 -0.61213773771E+02  0.90899886190E+02  0.00000000000E+00 0.  1.
         22    1    3    3    0    0 -0.57607693455E+02  0.13984306706E+02 -0.67501043790E+02  0.89836507568E+02  0.00000000000E+00 0.  1.
</event>
<event>
 7    1  0.6067783E-006  0.8541866E+02  0.7818608E-02  0.1378253E+00
          2   -1    0    0  502    0  0.00000000000E+00  0.00000000000E+00  0.61587749278E+02  0.61587749278E+02  0.00000000000E+00 0. -1.
          1   -1    0    0  501    0 -0.00000000000E+00 -0.00000000000E+00 -0.18090619778E+04  0.18090619778E+04  0.00000000000E+00 0. -1.
         25    2    1    2    0    0 -0.72719078945E+02 -0.10332657191E+03 -0.32141562296E+03  0.36726442062E+03  0.12494281519E+03 0.  0.
          2    1    1    2  501    0  0.15099802004E+02  0.46981760906E+02 -0.14218284060E+04  0.14226845420E+04  0.00000000000E+00 0. -1.
          1    1    1    2  502    0  0.57619276941E+02  0.56344811005E+02 -0.42301995880E+01  0.80700764500E+02  0.00000000000E+00 0. -1.
         22    1    3    3    0    0 -0.73065754527E+01  0.75833556513E+01 -0.16200099743E+03  0.16234289790E+03  0.00000000000E+00 0. -1.
         22    1    3    3    0    0 -0.65412503492E+02 -0.11090992756E+03 -0.15941462552E+03  0.20492152273E+03  0.00000000000E+00 0. -1.
</event>
<event>
 7    1  0.6067783E-006  0.6298750E+02  0.7818608E-02  0.1441904E+00
          2   -1    0    0  502    0  0.00000000000E+00  0.00000000000E+00  0.10285598198E+03  0.10285598198E+03  0.00000000000E+00 0. -1.
          1   -1    0    0  501    0 -0.00000000000E+00 -0.00000000000E+00 -0.21333224346E+04  0.21333224346E+04  0.00000000000E+00 0. -1.
         25    2    1    2    0    0  0.50704229471E+02 -0.28098707410E+02 -0.11035912189E+03  0.17653471099E+03  0.12499964862E+03 0.  0.
          2    1    1    2  501    0 -0.25689639088E+02 -0.31591030798E+02 -0.19746113736E+04  0.19750311459E+04  0.00000000000E+00 0. -1.
          1    1    1    2  502    0 -0.25014590384E+02  0.59689738208E+02  0.54504042790E+02  0.84612559705E+02  0.00000000000E+00 0. -1.
         22    1    3    3    0    0  0.73560668349E+02 -0.37082856703E+02 -0.12367405425E+03  0.14859872774E+03  0.00000000000E+00 0. -1.
         22    1    3    3    0    0 -0.22856438878E+02  0.89841492931E+01  0.13314932360E+02  0.27935983255E+02  0.00000000000E+00 0. -1.
</event>
<event>
 7    1  0.6067783E-006  0.7843959E+02  0.7818608E-02  0.1432602E+00
          2   -1    0    0  502    0  0.00000000000E+00  0.00000000000E+00  0.47111695588E+03  0.47111695588E+03  0.00000000000E+00 0. -1.
          1   -1    0    0  501    0 -0.00000000000E+00 -0.00000000000E+00 -0.24756151900E+03  0.24756151900E+03  0.00000000000E+00 0. -1.
         25    2    1    2    0    0 -0.10713136730E+03 -0.17904048963E+02  0.78188042108E+02  0.18313061530E+03  0.12500306997E+03 0.  0.
          2    1    1    2  501    0  0.34668012747E+02 -0.52272989743E+01 -0.18921094788E+03  0.19243175040E+03  0.00000000000E+00 0. -1.
          1    1    1    2  502    0  0.72463354556E+02  0.23131347937E+02  0.33457834265E+03  0.34311610918E+03  0.00000000000E+00 0. -1.
         22    1    3    3    0    0 -0.98097901612E+02  0.40542378553E+02  0.44762938750E+02  0.11519810521E+03  0.00000000000E+00 0. -1.
         22    1    3    3    0    0 -0.90334656915E+01 -0.58446427516E+02  0.33425103358E+02  0.67932510084E+02  0.00000000000E+00 0. -1.
</event>
<event>
 7    1  0.6067783E-006  0.8884885E+02  0.7818608E-02  0.1481341E+00
          2   -1    0    0  502    0  0.00000000000E+00  0.00000000000E+00  0.17304145346E+03  0.17304145346E+03  0.00000000000E+00 0. -1.
          1   -1    0    0  501    0 -0.00000000000E+00 -0.00000000000E+00 -0.20241884895E+03  0.20241884895E+03  0.00000000000E+00 0. -1.
         25    2    1    2    0    0 -0.10635416103E+03  0.83477855431E+01 -0.14907681275E+02  0.16501461985E+03  0.12500677067E+03 0.  0.
          2    1    1    2  501    0  0.21681255326E+02  0.57212048420E+00 -0.92468239361E+02  0.94977783954E+02  0.00000000000E+00 0. -1.
          1    1    1    2  502    0  0.84672905699E+02 -0.89199060273E+01  0.77998525143E+02  0.11546789860E+03  0.00000000000E+00 0. -1.
         22    1    3    3    0    0  0.85860062157E+01 -0.22908359170E+02 -0.36518578736E+02  0.43955875779E+02  0.00000000000E+00 0.  1.
         22    1    3    3    0    0 -0.11494016724E+03  0.31256144713E+02  0.21610897461E+02  0.12105874407E+03  0.00000000000E+00 0.  1.
</event>
<event>
 7    1  0.6067783E-006  0.5087413E+02  0.7818608E-02  0.1513082E+00
          2   -1    0    0  502    0  0.00000000000E+00  0.00000000000E+00  0.11949081977E+03  0.11949081977E+03  0.00000000000E+00 0. -1.
          1   -1    0    0  501    0 -0.00000000000E+00 -0.00000000000E+00 -0.73838802519E+03  0.73838802519E+03  0.00000000000E+00 0. -1.
         25    2    1    2    0    0  0.42224422644E+02 -0.16624053311E+02 -0.67712326208E+03  0.69006123232E+03  0.12501732395E+03 0.  0.
          2    1    1    2  501    0 -0.72583732581E+02  0.14553541940E+02 -0.25843936917E+02  0.78409903034E+02  0.00000000000E+00 0. -1.
          1    1    1    2  502    0  0.30359309937E+02  0.20705113711E+01  0.84069993574E+02  0.89407709605E+02  0.00000000000E+00 0. -1.
         22    1    3    3    0    0  0.67394835877E+02 -0.92191692807E+01 -0.18286048991E+03  0.19510257752E+03  0.00000000000E+00 0. -1.
         22    1    3    3    0    0 -0.25170413233E+02 -0.74048840306E+01 -0.49426277217E+03  0.49495865480E+03  0.00000000000E+00 0. -1.
</event>
<event>
 7    1  0.6067783E-006  0.1801429E+03  0.7818608E-02  0.1218986E+00
          2   -1    0    0  502    0  0.00000000000E+00  0.00000000000E+00  0.22485474484E+03  0.22485474484E+03  0.00000000000E+00 0. -1.
          1   -1    0    0  501    0 -0.00000000000E+00 -0.00000000000E+00 -0.94841424109E+03  0.94841424109E+03  0.00000000000E+00 0. -1.
         25    2    1    2    0    0 -0.56847114256E+02  0.73342240177E+02  0.59963985613E+02  0.16682752224E+03  0.12500025605E+03 0.  0.
          2    1    1    2  501    0  0.69411249815E+02 -0.17505830941E+03 -0.85884670886E+03  0.87925025028E+03  0.00000000000E+00 0. -1.
          1    1    1    2  502    0 -0.12564135559E+02  0.10171606924E+03  0.75323227001E+02  0.12719121341E+03  0.00000000000E+00 0. -1.
         22    1    3    3    0    0 -0.57955089448E+02  0.30498852182E+02  0.92275966600E+02  0.11315399414E+03  0.00000000000E+00 0. -1.
         22    1    3    3    0    0  0.11079751926E+01  0.42843387994E+02 -0.32311980987E+02  0.53673528104E+02  0.00000000000E+00 0. -1.
</event>
<event>
 7    1  0.6067783E-006  0.1081933E+03  0.7818608E-02  0.1400033E+00
          2   -1    0    0  502    0  0.00000000000E+00  0.00000000000E+00  0.12952453586E+04  0.12952453586E+04  0.00000000000E+00 0. -1.
          1   -1    0    0  501    0 -0.00000000000E+00 -0.00000000000E+00 -0.20482386264E+03  0.20482386264E+03  0.00000000000E+00 0. -1.
         25    2    1    2    0    0 -0.28084895098E+02  0.11030860046E+03 -0.13353952955E+03  0.21543966321E+03  0.12499877545E+03 0.  0.
          2    1    1    2  501    0 -0.27726721034E+01 -0.99493302003E+02  0.52157592098E+02  0.11237001053E+03  0.00000000000E+00 0. -1.
          1    1    1    2  502    0  0.30857567202E+02 -0.10815298461E+02  0.11718034334E+04  0.11722595475E+04  0.00000000000E+00 0. -1.
         22    1    3    3    0    0 -0.70288098753E+02  0.31731130339E+02 -0.81372212295E+02  0.11211029566E+03  0.00000000000E+00 0. -1.
         22    1    3    3    0    0  0.42203203655E+02  0.78577470126E+02 -0.52167317253E+02  0.10332936756E+03  0.00000000000E+00 0. -1.
</event>
<event>
 7    1  0.6067783E-006  0.1177023E+03  0.7818608E-02  0.1284050E+00
          2   -1    0    0  502    0  0.00000000000E+00  0.00000000000E+00  0.16486979846E+04  0.16486979846E+04  0.00000000000E+00 0. -1.
          1   -1    0    0  501    0 -0.00000000000E+00 -0.00000000000E+00 -0.81303282109E+03  0.81303282109E+03  0.00000000000E+00 0. -1.
         25    2    1    2    0    0 -0.29838961587E+02  0.77334324500E+02  0.34463312095E+03  0.37585587385E+03  0.12499875391E+03 0.  0.
          2    1    1    2  501    0  0.10722119275E+03 -0.50238897933E+02 -0.79170991512E+03  0.80051540943E+03  0.00000000000E+00 0. -1.
          1    1    1    2  502    0 -0.77382231168E+02 -0.27095426567E+02  0.12827419577E+04  0.12853595224E+04  0.00000000000E+00 0. -1.
         22    1    3    3    0    0 -0.35923932012E+02  0.50752227414E+02  0.34294245222E+03  0.34853384773E+03  0.00000000000E+00 0.  1.
         22    1    3    3    0    0  0.60849704249E+01  0.26582097086E+02  0.16906687260E+01  0.27322026120E+02  0.00000000000E+00 0.  1.
</event>
<event>
 7    1  0.6067783E-006  0.1029438E+03  0.7818608E-02  0.1339191E+00
          2   -1    0    0  502    0  0.00000000000E+00  0.00000000000E+00  0.65709269092E+03  0.65709269092E+03  0.00000000000E+00 0. -1.
          1   -1    0    0  501    0 -0.00000000000E+00 -0.00000000000E+00 -0.60161238326E+03  0.60161238326E+03  0.00000000000E+00 0. -1.
         25    2    1    2    0    0 -0.15724528210E+03 -0.18619779501E+02  0.11813598973E+03  0.23378242026E+03  0.12500133207E+03 0.  0.
          2    1    1    2  501    0  0.10079594366E+03  0.11496497322E+02 -0.53734386525E+03  0.54683674093E+03  0.00000000000E+00 0. -1.
          1    1    1    2  502    0  0.56449338432E+02  0.71232821791E+01  0.47468818318E+03  0.47808591300E+03  0.00000000000E+00 0. -1.
         22    1    3    3    0    0 -0.58379290519E+02  0.53585522677E+02  0.49398642962E+02  0.93379739390E+02  0.00000000000E+00 0. -1.
         22    1    3    3    0    0 -0.98865991578E+02 -0.72205302178E+02  0.68737346770E+02  0.14040268087E+03  0.00000000000E+00 0. -1.
</event>
<event>
 7    1  0.6067783E-006  0.1453665E+03  0.7818608E-02  0.1421765E+00
          2   -1    0    0  502    0  0.00000000000E+00  0.00000000000E+00  0.64135182943E+03  0.64135182943E+03  0.00000000000E+00 0. -1.
          1   -1    0    0  501    0 -0.00000000000E+00 -0.00000000000E+00 -0.42916058378E+03  0.42916058378E+03  0.00000000000E+00 0. -1.
         25    2    1    2    0    0 -0.45979758257E+02 -0.12617088808E+03  0.29177758438E+03  0.34466269623E+03  0.12499993702E+03 0.  0.
          2    1    1    2  501    0 -0.14701091503E+02 -0.14351695394E+02 -0.38430190774E+03  0.38485068474E+03  0.00000000000E+00 0. -1.
          1    1    1    2  502    0  0.60680849760E+02  0.14052258347E+03  0.30471556901E+03  0.34099903224E+03  0.00000000000E+00 0. -1.
         22    1    3    3    0    0 -0.39123189145E+01  0.19464129421E+02  0.90694395785E+02  0.92841973268E+02  0.00000000000E+00 0. -1.
         22    1    3    3    0    0 -0.42067439343E+02 -0.14563501750E+03  0.20108318860E+03  0.25182072296E+03  0.00000000000E+00 0. -1.
</event>
<event>
 7    1  0.6067783E-006  0.5564653E+02  0.7818608E-02  0.1528365E+00
          2   -1    0    0  502    0  0.00000000000E+00  0.00000000000E+00  0.18163430255E+03  0.18163430255E+03  0.00000000000E+00 0. -1.
          1   -1    0    0  501    0 -0.00000000000E+00 -0.00000000000E+00 -0.30737826491E+03  0.30737826491E+03  0.00000000000E+00 0. -1.
         25    2    1    2    0    0 -0.38600739977E+02  0.67002878721E+01  0.83706814281E+02  0.15545402613E+03  0.12499684996E+03 0.  0.
          2    1    1    2  501    0  0.47252444385E+02 -0.30283382170E+02 -0.26590733408E+03  0.27176568410E+03  0.00000000000E+00 0. -1.
          1    1    1    2  502    0 -0.86517044084E+01  0.23583094298E+02  0.56456557442E+02  0.61792857225E+02  0.00000000000E+00 0. -1.
         22    1    3    3    0    0 -0.45555359699E+02 -0.30963944888E+02 -0.83833440560E+01  0.55716578662E+02  0.00000000000E+00 0.  1.
         22    1    3    3    0    0  0.69546197220E+01  0.37664232760E+02  0.92090158337E+02  0.99737447468E+02  0.00000000000E+00 0.  1.
</event>
<event>
 7    1  0.6067783E-006  0.3231970E+02  0.7818608E-02  0.1573880E+00
          2   -1    0    0  502    0  0.00000000000E+00  0.00000000000E+00  0.56537347692E+03  0.56537347692E+03  0.00000000000E+00 0. -1.
          1   -1    0    0  501    0 -0.00000000000E+00 -0.00000000000E+00 -0.25071930887E+03  0.25071930887E+03  0.00000000000E+00 0. -1.
         25    2    1    2    0    0 -0.52166771945E+00  0.48965649450E+01  0.32657318947E+02  0.12928641852E+03  0.12499691616E+03 0.  0.
          2    1    1    2  501    0  0.32160147235E+02  0.32074712633E+01 -0.20055905756E+03  0.20314649520E+03  0.00000000000E+00 0. -1.
          1    1    1    2  502    0 -0.31638479516E+02 -0.81040362083E+01  0.48255590666E+03  0.48365987206E+03  0.00000000000E+00 0. -1.
         22    1    3    3    0    0 -0.33435184311E+02  0.34092280470E+02  0.60610385271E+02  0.77160961246E+02  0.00000000000E+00 0. -1.
         22    1    3    3    0    0  0.32913516592E+02 -0.29195715525E+02 -0.27953066325E+02  0.52125457278E+02  0.00000000000E+00 0. -1.
</event>
<event>
 7    1  0.6067783E-006  0.4860200E+02  0.7818608E-02  0.1507270E+00
          2   -1    0    0  502    0  0.00000000000E+00  0.00000000000E+00  0.19443461600E+03  0.19443461600E+03  0.00000000000E+00 0. -1.
          1   -1    0    0  501    0 -0.00000000000E+00 -0.00000000000E+00 -0.10753552718E+03  0.10753552718E+03  0.00000000000E+00 0. -1.
         25    2    1    2    0    0 -0.46264038072E+02  0.20329526608E+02  0.45426296000E+02  0.14227018640E+03  0.12499442667E+03 0.  0.
          2    1    1    2  501    0  0.22973940364E+02 -0.43894028601E+02 -0.45104746079E+02  0.66999446278E+02  0.00000000000E+00 0. -1.
          1    1    1    2  502    0  0.23290097708E+02  0.23564501993E+02  0.86577538898E+02  0.92700510500E+02  0.00000000000E+00 0. -1.
         22    1    3    3    0    0 -0.22623626570E+02  0.32299380319E+02  0.85541416436E+02  0.94193483713E+02  0.00000000000E+00 0. -1.
         22    1    3    3    0    0 -0.23640411503E+02 -0.11969853711E+02 -0.40115120435E+02  0.48076702689E+02  0.00000000000E+00 0. -1.
</event>
<event>
 7    1  0.6067783E-006  0.1946306E+03  0.7818608E-02  0.1252344E+00
          2   -1    0    0  502    0  0.00000000000E+00  0.00000000000E+00  0.12725441185E+04  0.12725441185E+04  0.00000000000E+00 0. -1.
          1   -1    0    0  501    0 -0.00000000000E+00 -0.00000000000E+00 -0.27852091084E+03  0.27852091084E+03  0.00000000000E+00 0. -1.
         25    2    1    2    0    0 -0.61468980574E+02  0.24766402351E+03  0.54811450209E+03  0.61738996615E+03  0.12499983515E+03 0.  0.
          2    1    1    2  501    0  0.28972145672E+02 -0.18857577119E+03 -0.20455831501E+03  0.27972184567E+03  0.00000000000E+00 0. -1.
          1    1    1    2  502    0  0.32496834902E+02 -0.59088252320E+02  0.65046702056E+03  0.65395321750E+03  0.00000000000E+00 0. -1.
         22    1    3    3    0    0  0.80422611141E+01  0.72276713519E+02  0.28173302207E+03  0.29096751881E+03  0.00000000000E+00 0. -1.
         22    1    3    3    0    0 -0.69511241689E+02  0.17538730999E+03  0.26638148002E+03  0.32642244734E+03  0.00000000000E+00 0. -1.
</event>
<event>
 7    1  0.6067783E-006  0.9217615E+02  0.7818608E-02  0.1369648E+00
          2   -1    0    0  502    0  0.00000000000E+00  0.00000000000E+00  0.23848500270E+03  0.23848500270E+03  0.00000000000E+00 0. -1.
          1   -1    0    0  501    0 -0.00000000000E+00 -0.00000000000E+00 -0.37483079266E+03  0.37483079266E+03  0.00000000000E+00 0. -1.
         25    2    1    2    0    0 -0.42791852305E+02 -0.92325571239E+02 -0.30230496691E+02  0.16399826336E+03  0.12500557478E+03 0.  0.
          2    1    1    2  501    0 -0.31595113897E+02  0.37566299426E+02 -0.26284757282E+03  0.26739170633E+03  0.00000000000E+00 0. -1.
          1    1    1    2  502    0  0.74386966202E+02  0.54759271812E+02  0.15673227955E+03  0.18192582566E+03  0.00000000000E+00 0. -1.
         22    1    3    3    0    0  0.75841654464E+01  0.68970317050E+01 -0.49945762306E+02  0.50986937387E+02  0.00000000000E+00 0.  1.
         22    1    3    3    0    0 -0.50376017752E+02 -0.99222602944E+02  0.19715265615E+02  0.11301132597E+03  0.00000000000E+00 0.  1.
</event>
<event>
 7    1  0.6067783E-006  0.5994874E+02  0.7818608E-02  0.1450247E+00
          2   -1    0    0  502    0  0.00000000000E+00  0.00000000000E+00  0.16277837692E+03  0.16277837692E+03  0.00000000000E+00 0. -1.
          1   -1    0    0  501    0 -0.00000000000E+00 -0.00000000000E+00 -0.37581475336E+03  0.37581475336E+03  0.00000000000E+00 0. -1.
         25    2    1    2    0    0  0.81428263718E+02  0.20218028816E+02  0.10831387877E+02  0.15093715435E+03  0.12500149910E+03 0.  0.
          2    1    1    2  501    0 -0.45455416816E+02 -0.38201407203E+02 -0.29770924014E+03  0.30357261750E+03  0.00000000000E+00 0. -1.
          1    1    1    2  502    0 -0.35972846902E+02  0.17983378387E+02  0.73841475824E+02  0.84083358427E+02  0.00000000000E+00 0. -1.
         22    1    3    3    0    0  0.17275980611E+02 -0.50458448329E+02  0.14977993589E+02  0.55397245471E+02  0.00000000000E+00 0. -1.
         22    1    3    3    0    0  0.64152283107E+02  0.70676477145E+02 -0.41466057125E+01  0.95539908878E+02  0.00000000000E+00 0. -1.
</event>
<event>
 7    1  0.6067783E-006  0.2009358E+03  0.7818608E-02  0.1159628E+00
          2   -1    0    0  502    0  0.00000000000E+00  0.00000000000E+00  0.11070913130E+04  0.11070913130E+04  0.00000000000E+00 0. -1.
          1   -1    0    0  501    0 -0.00000000000E+00 -0.00000000000E+00 -0.64136222992E+03  0.64136222992E+03  0.00000000000E+00 0. -1.
         25    2    1    2    0    0  0.15460956248E+03  0.28942637030E+03 -0.10752109981E+03  0.36723009883E+03  0.12500167179E+03 0.  0.
          2    1    1    2  501    0 -0.14530306639E+03 -0.11243803338E+03 -0.37444913713E+03  0.41709405265E+03  0.00000000000E+00 0. -1.
          1    1    1    2  502    0 -0.93064960948E+01 -0.17698833691E+03  0.94769932001E+03  0.96412939143E+03  0.00000000000E+00 0. -1.
         22    1    3    3    0    0  0.15787362923E+03  0.20310804642E+03 -0.46367780640E+02  0.26139420883E+03  0.00000000000E+00 0. -1.
         22    1    3    3    0    0 -0.32640667437E+01  0.86318323876E+02 -0.61153319167E+02  0.10583589001E+03  0.00000000000E+00 0. -1.
</event>
<event>
 7    1  0.6067783E-006  0.7532656E+02  0.7818608E-02  0.1416265E+00
          2   -1    0    0  502    0  0.00000000000E+00  0.00000000000E+00  0.60888444143E+03  0.60888444143E+03  0.00000000000E+00 0. -1.
          1   -1    0    0  501    0 -0.00000000000E+00 -0.00000000000E+00 -0.12031755017E+04  0.12031755017E+04  0.00000000000E+00 0. -1.
         25    2    1    2    0    0  0.61888098467E+02 -0.72425407699E+02 -0.10997345369E+03  0.19182066565E+03  0.12500172335E+03 0.  0.
          2    1    1    2  501    0 -0.41363206861E+02  0.14469958516E+00 -0.10493841052E+04  0.10501989983E+04  0.00000000000E+00 0. -1.
          1    1    1    2  502    0 -0.20524891606E+02  0.72280708113E+02  0.56506649865E+03  0.57004027914E+03  0.00000000000E+00 0. -1.
         22    1    3    3    0    0 -0.72582261026E+01  0.22624405851E+02 -0.59186650545E+02  0.63777779744E+02  0.00000000000E+00 0. -1.
         22    1    3    3    0    0  0.69146324570E+02 -0.95049813550E+02 -0.50786803148E+02  0.12804288591E+03  0.00000000000E+00 0. -1.
</event>
<event>
 7    1  0.6067783E-006  0.1642985E+03  0.7818608E-02  0.1186734E+00
          2   -1    0    0  502    0  0.00000000000E+00  0.00000000000E+00  0.82095897769E+03  0.82095897769E+03  0.00000000000E+00 0. -1.
          1   -1    0    0  501    0 -0.00000000000E+00 -0.00000000000E+00 -0.15824969375E+03  0.15824969375E+03  0.00000000000E+00 0. -1.
         25    2    1    2    0    0 -0.57466471343E+02  0.26812275755E+02  0.14950699730E+03  0.20493619291E+03  0.12500082985E+03 0.  0.
          2    1    1    2  501    0  0.21643793995E+03  0.14685441928E+02 -0.18539753314E+02  0.21772635695E+03  0.00000000000E+00 0. -1.
          1    1    1    2  502    0 -0.15897146861E+03 -0.41497717683E+02  0.53174203995E+03  0.55654612159E+03  0.00000000000E+00 0. -1.
         22    1    3    3    0    0 -0.87683520049E+02  0.44694187681E+01  0.14148016437E+03  0.16650829500E+03  0.00000000000E+00 0. -1.
         22    1    3    3    0    0  0.30217048706E+02  0.22342856987E+02  0.80268329256E+01  0.38427897908E+02  0.00000000000E+00 0. -1.
</event>
<event>
 7    1  0.6067783E-006  0.1142565E+03  0.7818608E-02  0.1309800E+00
          2   -1    0    0  502    0  0.00000000000E+00  0.00000000000E+00  0.30902947115E+04  0.30902947115E+04  0.00000000000E+00 0. -1.
          1   -1    0    0  501    0 -0.00000000000E+00 -0.00000000000E+00 -0.22823606544E+04  0.22823606544E+04  0.00000000000E+00 0. -1.
         25    2    1    2    0    0 -0.17095011238E+03  0.28716762683E+02  0.11080128023E+04  0.11284361579E+04  0.12500879617E+03 0.  0.
          2    1    1    2  501    0  0.10589989920E+03 -0.42703905090E+02 -0.22701523890E+04  0.22730222791E+04  0.00000000000E+00 0. -1.
          1    1    1    2  502    0  0.65050213179E+02  0.13987142406E+02  0.19700736438E+04  0.19711969289E+04  0.00000000000E+00 0. -1.
         22    1    3    3    0    0 -0.18971316948E+03  0.26149203822E+02  0.93645042509E+03  0.95583171436E+03  0.00000000000E+00 0.  1.
         22    1    3    3    0    0  0.18763057101E+02  0.25675588614E+01  0.17156237721E+03  0.17260444358E+03  0.00000000000E+00 0.  1.
</event>
<event>
 7    1  0.6067783E-006  0.6910956E+02  0.7818608E-02  0.1452612E+00
          2   -1    0    0  502    0  0.00000000000E+00  0.00000000000E+00  0.22183966684E+04  0.22183966684E+04  0.00000000000E+00 0. -1.
          1   -1    0    0  501    0 -0.00000000000E+00 -0.00000000000E+00 -0.11616983944E+04  0.11616983944E+04  0.00000000000E+00 0. -1.
         25    2    1    2    0    0 -0.62010149279E+02 -0.82568678439E+02  0.25821171446E+03  0.30489692484E+03  0.12500400002E+03 0.  0.
          2    1    1    2  501    0  0.41869948437E+02  0.54822748036E+02 -0.11371587779E+04  0.11392491880E+04  0.00000000000E+00 0. -1.
          1    1    1    2  502    0  0.20140200841E+02  0.27745930403E+02  0.19356453374E+04  0.19359489499E+04  0.00000000000E+00 0. -1.
         22    1    3    3    0    0 -0.54527264863E+02 -0.11583618243E+03  0.20242211599E+03  0.23951191373E+03  0.00000000000E+00 0.  1.
         22    1    3    3    0    0 -0.74828844153E+01  0.33267503996E+02  0.55789598464E+02  0.65385011112E+02  0.00000000000E+00 0.  1.
</event>
<event>
 7    1  0.6067783E-006  0.1065045E+03  0.7818608E-02  0.1337359E+00
          2   -1    0    0  502    0  0.00000000000E+00  0.00000000000E+00  0.44776978395E+04  0.44776978395E+04  0.00000000000E+00 0. -1.
          1   -1    0    0  501    0 -0.00000000000E+00 -0.00000000000E+00 -0.31415343108E+03  0.31415343108E+03  0.00000000000E+00 0. -1.
         25    2    1    2    0    0 -0.31634942571E+02  0.41424183545E+02  0.91154657997E+03  0.92155295625E+03  0.12500380454E+03 0.  0.
          2    1    1    2  501    0  0.75965746982E+02 -0.75438686195E+02 -0.29965510555E+03  0.31820586477E+03  0.00000000000E+00 0. -1.
          1    1    1    2  502    0 -0.44330804411E+02  0.34014502650E+02  0.35516529340E+04  0.35520924495E+04  0.00000000000E+00 0. -1.
         22    1    3    3    0    0  0.40408277177E+02  0.68297245828E+01  0.53770345083E+03  0.53926289974E+03  0.00000000000E+00 0. -1.
         22    1    3    3    0    0 -0.72043219748E+02  0.34594458962E+02  0.37384312913E+03  0.38229005650E+03  0.00000000000E+00 0. -1.
</event>
<event>
 7    1  0.6067783E-006  0.5791629E+02  0.7818608E-02  0.1472681E+00
          2   -1    0    0  502    0  0.00000000000E+00  0.00000000000E+00  0.13138770407E+04  0.13138770407E+04  0.00000000000E+00 0. -1.
          1   -1    0    0  501    0 -0.00000000000E+00 -0.00000000000E+00 -0.22057969986E+02  0.22057969986E+02  0.00000000000E+00 0. -1.
         25    2    1    2    0    0  0.38293609959E+02  0.18208600494E+01  0.34049218332E+03  0.36473021712E+03  0.12499395298E+03 0.  0.
          2    1    1    2  501    0 -0.56773844412E+02 -0.31991518376E+02  0.10135685583E+03  0.12049870905E+03  0.00000000000E+00 0. -1.
          1    1    1    2  502    0  0.18480234453E+02  0.30170658326E+02  0.84997003159E+03  0.85070608455E+03  0.00000000000E+00 0. -1.
         22    1    3    3    0    0  0.10861133873E+01 -0.17547305229E+02 -0.37212015470E+01  0.17970389646E+02  0.00000000000E+00 0.  1.
         22    1    3    3    0    0  0.37207496572E+02  0.19368165278E+02  0.34421338486E+03  0.34675982747E+03  0.00000000000E+00 0.  1.
</event>
<event>
 7    1  0.6067783E-006  0.3887768E+02  0.7818608E-02  0.1524768E+00
          2   -1    0    0  502    0  0.00000000000E+00  0.00000000000E+00  0.95364829248E+03  0.95364829248E+03  0.00000000000E+00 0. -1.
          1   -1    0    0  501    0 -0.00000000000E+00 -0.00000000000E+00 -0.45142200922E+03  0.45142200922E+03  0.00000000000E+00 0. -1.
         25    2    1    2    0    0  0.94575775577E+01  0.21292436965E+02  0.17875529866E+03  0.21936696836E+03  0.12500238543E+03 0.  0.
          2    1    1    2  501    0  0.30168016155E+02 -0.21113014047E+02 -0.42980820062E+03  0.43138261193E+03  0.00000000000E+00 0. -1.
          1    1    1    2  502    0 -0.39625593712E+02 -0.17942291734E+00  0.75327918521E+03  0.75432072141E+03  0.00000000000E+00 0. -1.
         22    1    3    3    0    0 -0.24735197282E+02  0.53280133274E+02  0.35457983976E+02  0.68613928716E+02  0.00000000000E+00 0.  1.
         22    1    3    3    0    0  0.34192774840E+02 -0.31987696309E+02  0.14329731469E+03  0.15075303965E+03  0.00000000000E+00 0.  1.
</event>
<event>
 7    1  0.6067783E-006  0.3594345E+02  0.7818608E-02  0.1592572E+00
          2   -1    0    0  502    0  0.00000000000E+00  0.00000000000E+00  0.61224721056E+03  0.61224721056E+03  0.00000000000E+00 0. -1.
          1   -1    0    0  501    0 -0.00000000000E+00 -0.00000000000E+00 -0.10389428109E+04  0.10389428109E+04  0.00000000000E+00 0. -1.
         25    2    1    2    0    0 -0.35364857190E+02 -0.46166120208E+02  0.23379769709E+02  0.13983432557E+03  0.12500016479E+03 0.  0.
          2    1    1    2  501    0  0.65311113979E+01  0.25052172197E+02 -0.97994265412E+03  0.98028458731E+03  0.00000000000E+00 0. -1.
          1    1    1    2  502    0  0.28833745792E+02  0.21113948011E+02  0.52986728404E+03  0.53107110860E+03  0.00000000000E+00 0. -1.
         22    1    3    3    0    0 -0.57962548301E+02  0.18356579369E+01 -0.29382093780E+02  0.65010261348E+02  0.00000000000E+00 0.  1.
         22    1    3    3    0    0  0.22597691111E+02 -0.48001778145E+02  0.52761863489E+02  0.74824064227E+02  0.00000000000E+00 0.  1.
</event>
<event>
 7    1  0.6067783E-006  0.5441229E+02  0.7818608E-02  0.1481203E+00
          2   -1    0    0  502    0  0.00000000000E+00  0.00000000000E+00  0.11441723059E+04  0.11441723059E+04  0.00000000000E+00 0. -1.
          1   -1    0    0  501    0 -0.00000000000E+00 -0.00000000000E+00 -0.12335031865E+04  0.12335031865E+04  0.00000000000E+00 0. -1.
         25    2    1    2    0    0 -0.43357566690E+02 -0.50789839245E+02  0.51328631955E+02  0.15073509435E+03  0.12500781516E+03 0.  0.
          2    1    1    2  501    0 -0.84971156007E+01  0.34416537248E+02 -0.11828255450E+04  0.11833566533E+04  0.00000000000E+00 0. -1.
          1    1    1    2  502    0  0.51854682290E+02  0.16373301996E+02  0.10421660324E+04  0.10435837447E+04  0.00000000000E+00 0. -1.
         22    1    3    3    0    0  0.19038456931E+02  0.16719454834E+02  0.53050613722E+02  0.58790906002E+02  0.00000000000E+00 0.  1.
         22    1    3    3    0    0 -0.62396023621E+02 -0.67509294079E+02 -0.17219817665E+01  0.91944188353E+02  0.00000000000E+00 0.  1.
</event>
<event>
 7    1  0.6067783E-006  0.6600541E+02  0.7818608E-02  0.1467619E+00
          2   -1    0    0  502    0  0.00000000000E+00  0.00000000000E+00  0.14939790088E+04  0.14939790088E+04  0.00000000000E+00 0. -1.
          1   -1    0    0  501    0 -0.00000000000E+00 -0.00000000000E+00 -0.70655313366E+02  0.70655313366E+02  0.00000000000E+00 0. -1.
         25    2    1    2    0    0 -0.54644171225E+02 -0.33896609898E+01  0.85929066615E+03  0.87005863178E+03  0.12499639412E+03 0.  0.
          2    1    1    2  501    0 -0.84287390320E+01 -0.31067543374E+02 -0.59107156652E+02  0.67304471326E+02  0.00000000000E+00 0. -1.
          1    1    1    2  502    0  0.63072910257E+02  0.34457204364E+02  0.62314018590E+03  0.62727121903E+03  0.00000000000E+00 0. -1.
         22    1    3    3    0    0 -0.30121207960E+02 -0.63059775276E+02  0.52161562220E+03  0.52627623901E+03  0.00000000000E+00 0.  1.
         22    1    3    3    0    0 -0.24522963265E+02  0.59670114286E+02  0.33767504395E+03  0.34378239277E+03  0.00000000000E+00 0.  1.
</event>
<event>
 7    1  0.6067783E-006  0.8414356E+02  0.7818608E-02  0.1324355E+00
          2   -1    0    0  502    0  0.00000000000E+00  0.00000000000E+00  0.23945989713E+03  0.23945989713E+03  0.00000000000E+00 0. -1.
          1   -1    0    0  501    0 -0.00000000000E+00 -0.00000000000E+00 -0.50282504614E+03  0.50282504614E+03  0.00000000000E+00 0. -1.
         25    2    1    2    0    0 -0.33637289869E+02 -0.30632520130E+02 -0.14602185773E+03  0.19752595498E+03  0.12499720554E+03 0.  0.
          2    1    1    2  501    0 -0.45094988739E+01  0.10013751492E+03 -0.31565328845E+03  0.33118704078E+03  0.00000000000E+00 0. -1.
          1    1    1    2  502    0  0.38146788743E+02 -0.69504994786E+02  0.19830999716E+03  0.21357194752E+03  0.00000000000E+00 0. -1.
         22    1    3    3    0    0 -0.13937355405E+02 -0.26106027293E+02 -0.16628911010E+03  0.16890187292E+03  0.00000000000E+00 0. -1.
         22    1    3    3    0    0 -0.19699934464E+02 -0.45264928375E+01  0.20267252366E+02  0.28624082060E+02  0.00000000000E+00 0. -1.
</event>
<event>
 7    1  0.6067783E-006  0.9871923E+02  0.7818608E-02  0.1303296E+00
          2   -1    0    0  502    0  0.00000000000E+00  0.00000000000E+00  0.11187205637E+04  0.11187205637E+04  0.00000000000E+00 0. -1.
          1   -1    0    0  501    0 -0.00000000000E+00 -0.00000000000E+00 -0.44849920166E+03  0.44849920166E+03  0.00000000000E+00 0. -1.
         25    2    1    2    0    0  0.50816925578E+02 -0.10892354777E+03 -0.10037619709E+03  0.20036745254E+03  0.12500014364E+03 0.  0.
          2    1    1    2  501    0 -0.91920562551E+02  0.38296531073E+02 -0.28819359949E+03  0.30491238889E+03  0.00000000000E+00 0. -1.
          1    1    1    2  502    0  0.41103636973E+02  0.70627016697E+02  0.10587911586E+04  0.10619399239E+04  0.00000000000E+00 0. -1.
         22    1    3    3    0    0  0.83109154679E+02 -0.58318912920E+02 -0.26033376975E+02  0.10481394904E+03  0.00000000000E+00 0. -1.
         22    1    3    3    0    0 -0.32292229102E+02 -0.50604634850E+02 -0.74342820117E+02  0.95553503503E+02  0.00000000000E+00 0. -1.
</event>
<event>
 7    1  0.6067783E-006  0.5322121E+02  0.7818608E-02  0.1456798E+00
          2   -1    0    0  502    0  0.00000000000E+00  0.00000000000E+00  0.79353065178E+02  0.79353065178E+02  0.00000000000E+00 0. -1.
          1   -1    0    0  501    0 -0.00000000000E+00 -0.00000000000E+00 -0.54397155604E+03  0.54397155604E+03  0.00000000000E+00 0. -1.
         25    2    1    2    0    0  0.71867666671E+02  0.54640536907E+02 -0.31526169956E+03  0.35094956029E+03  0.12500041949E+03 0.  0.
          2    1    1    2  501    0 -0.35121875837E+02 -0.31968704931E+02 -0.20015151900E+03  0.20570895658E+03  0.00000000000E+00 0. -1.
          1    1    1    2  502    0 -0.36745790835E+02 -0.22671831975E+02  0.50794727692E+02  0.66666104359E+02  0.00000000000E+00 0. -1.
         22    1    3    3    0    0 -0.18111598284E+02  0.60421982898E+02 -0.14926379874E+03  0.16204483214E+03  0.00000000000E+00 0. -1.
         22    1    3    3    0    0  0.89979264956E+02 -0.57814459911E+01 -0.16599790082E+03  0.18890472815E+03  0.00000000000E+00 0. -1.
</event>
<event>
 7    1  0.6067783E-006  0.6577502E+02  0.7818608E-02  0.1470590E+00
          2   -1    0    0  502    0  0.00000000000E+00  0.00000000000E+00  0.16402600811E+04  0.16402600811E+04  0.00000000000E+00 0. -1.
          1   -1    0    0  501    0 -0.00000000000E+00 -0.00000000000E+00 -0.72388861178E+03  0.72388861178E+03  0.00000000000E+00 0. -1.
         25    2    1    2    0    0  0.19023866645E+02 -0.47376654891E+02  0.64092893044E+02  0.14946413667E+03  0.12500069713E+03 0.  0.
          2    1    1    2  501    0  0.67199780071E+01  0.65740448133E+02 -0.67943674536E+03  0.68264284628E+03  0.00000000000E+00 0. -1.
          1    1    1    2  502    0 -0.25743844652E+02 -0.18363793242E+02  0.15317153216E+04  0.15320417099E+04  0.00000000000E+00 0. -1.
         22    1    3    3    0    0 -0.44898412248E+02 -0.33572715531E+02  0.62623649890E+02  0.84051865988E+02  0.00000000000E+00 0.  1.
         22    1    3    3    0    0  0.63922278894E+02 -0.13803939359E+02  0.14692431538E+01  0.65412270685E+02  0.00000000000E+00 0.  1.
</event>
<event>
 7    1  0.6067783E-006  0.7340901E+02  0.7818608E-02  0.1462255E+00
          2   -1    0    0  502    0  0.00000000000E+00  0.00000000000E+00  0.10645359903E+04  0.10645359903E+04  0.00000000000E+00 0. -1.
          1   -1    0    0  501    0 -0.00000000000E+00 -0.00000000000E+00 -0.89338382610E+02  0.89338382610E+02  0.00000000000E+00 0. -1.
         25    2    1    2    0    0 -0.52545647033E+02 -0.87836659650E+02  0.46518307921E+03  0.49244053000E+03  0.12500421834E+03 0.  0.
          2    1    1    2  501    0  0.35440390163E+02  0.63086396656E+02 -0.57930636618E+02  0.92692358676E+02  0.00000000000E+00 0. -1.
          1    1    1    2  502    0  0.17105256871E+02  0.24750262994E+02  0.56794516509E+03  0.56874148422E+03  0.00000000000E+00 0. -1.
         22    1    3    3    0    0  0.35434307103E+02 -0.97832923752E+01  0.58489852824E+02  0.69082311867E+02  0.00000000000E+00 0. -1.
         22    1    3    3    0    0 -0.87979954136E+02 -0.78053367275E+02  0.40669322639E+03  0.42335821814E+03  0.00000000000E+00 0. -1.
</event>
<event>
 7    1  0.6067783E-006  0.2264295E+03  0.7818608E-02  0.1293308E+00
          2   -1    0    0  502    0  0.00000000000E+00  0.00000000000E+00  0.10898760149E+04  0.10898760149E+04  0.00000000000E+00 0. -1.
          1   -1    0    0  501    0 -0.00000000000E+00 -0.00000000000E+00 -0.16113778872E+04  0.16113778872E+04  0.00000000000E+00 0. -1.
         25    2    1    2    0    0 -0.21426351593E+03 -0.48664577164E+02 -0.39408688740E+03  0.46819461875E+03  0.12499852346E+03 0.  0.
          2    1    1    2  501    0 -0.12152383034E+02  0.37134807931E+02 -0.11677019815E+04  0.11683555075E+04  0.00000000000E+00 0. -1.
          1    1    1    2  502    0  0.22641589897E+03  0.11529769233E+02  0.10402869966E+04  0.10647037758E+04  0.00000000000E+00 0. -1.
         22    1    3    3    0    0 -0.76898039904E+02 -0.54215055976E+02 -0.25855756034E+03  0.27514467621E+03  0.00000000000E+00 0.  1.
         22    1    3    3    0    0 -0.13736547603E+03  0.55504788117E+01 -0.13552932706E+03  0.19304994254E+03  0.00000000000E+00 0.  1.
</event>
<event>
 7    1  0.6067783E-006  0.9661086E+02  0.7818608E-02  0.1367051E+00
          2   -1    0    0  502    0  0.00000000000E+00  0.00000000000E+00  0.27889689010E+03  0.27889689010E+03  0.00000000000E+00 0. -1.
          1   -1    0    0  501    0 -0.00000000000E+00 -0.00000000000E+00 -0.18213341889E+04  0.18213341889E+04  0.00000000000E+00 0. -1.
         25    2    1    2    0    0  0.57268501619E+02  0.24112317730E+02 -0.16157150034E+03  0.21352301154E+03  0.12500256634E+03 0.  0.
          2    1    1    2  501    0  0.41353999123E+02 -0.24079410470E+02 -0.16238069671E+04  0.16245119383E+04  0.00000000000E+00 0. -1.
          1    1    1    2  502    0 -0.98622500742E+02 -0.32907259910E-01  0.24294116863E+03  0.26219612917E+03  0.00000000000E+00 0. -1.
         22    1    3    3    0    0  0.84699463787E+02 -0.20258034168E+02 -0.93721240287E+02  0.12793771139E+03  0.00000000000E+00 0. -1.
         22    1    3    3    0    0 -0.27430962169E+02  0.44370351898E+02 -0.67850260057E+02  0.85585300156E+02  0.00000000000E+00 0. -1.
</event>
<event>
 7    1  0.6067783E-006  0.1653651E+03  0.7818608E-02  0.1356521E+00
          2   -1    0    0  502    0  0.00000000000E+00  0.00000000000E+00  0.53194815951E+03  0.53194815951E+03  0.00000000000E+00 0. -1.
          1   -1    0    0  501    0 -0.00000000000E+00 -0.00000000000E+00 -0.19628739980E+04  0.19628739980E+04  0.00000000000E+00 0. -1.
         25    2    1    2    0    0 -0.76218976516E+01  0.14272490261E+03 -0.15732050764E+03  0.24658382614E+03  0.12500140016E+03 0.  0.
          2    1    1    2  501    0 -0.10769112488E+02 -0.16710221999E+03 -0.17564576777E+04  0.17644213497E+04  0.00000000000E+00 0. -1.
          1    1    1    2  502    0  0.18391010140E+02  0.24377317379E+02  0.48285234687E+03  0.48381698165E+03  0.00000000000E+00 0. -1.
         22    1    3    3    0    0 -0.20562592581E+02  0.70702587616E+02 -0.15699832546E+03  0.17340746900E+03  0.00000000000E+00 0.  1.
         22    1    3    3    0    0  0.12940694930E+02  0.72022314998E+02 -0.32218217895E+00  0.73176357140E+02  0.00000000000E+00 0.  1.
</event>
<event>
 7    1  0.6067783E-006  0.8200401E+02  0.7818608E-02  0.1394484E+00
          2   -1    0    0  502    0  0.00000000000E+00  0.00000000000E+00  0.19557792452E+02  0.19557792452E+02  0.00000000000E+00 0. -1.
          1   -1    0    0  501    0 -0.00000000000E+00 -0.00000000000E+00 -0.13264161391E+04  0.13264161391E+04  0.00000000000E+00 0. -1.
         25    2    1    2    0    0 -0.49942740578E+02  0.31215980195E+01 -0.54785288285E+03  0.56415553031E+03  0.12499863768E+03 0.  0.
          2    1    1    2  501    0  0.94317470485E+02  0.48569942315E+01 -0.70574879192E+03  0.71203983943E+03  0.00000000000E+00 0. -1.
          1    1    1    2  502    0 -0.44374729907E+02 -0.79785922510E+01 -0.53256671845E+02  0.69778561784E+02  0.00000000000E+00 0. -1.
         22    1    3    3    0    0 -0.10591378892E+02 -0.19271181387E+02 -0.95871791527E+01  0.23988950435E+02  0.00000000000E+00 0. -1.
         22    1    3    3    0    0 -0.39351361686E+02  0.22392779407E+02 -0.53826570370E+03  0.54016657987E+03  0.00000000000E+00 0. -1.
</event>
<event>
 7    1  0.6067783E-006  0.3564387E+02  0.7818608E-02  0.1565016E+00
          2   -1    0    0  502    0  0.00000000000E+00  0.00000000000E+00  0.69238749852E+03  0.69238749852E+03  0.00000000000E+00 0. -1.
          1   -1    0    0  501    0 -0.00000000000E+00 -0.00000000000E+00 -0.96543419775E+02  0.96543419775E+02  0.00000000000E+00 0. -1.
         25    2    1    2    0    0  0.17677976813E+01 -0.74028065005E+01  0.42221621981E+02  0.13215906115E+03  0.12500170171E+03 0.  0.
          2    1    1    2  501    0 -0.21431660517E+02  0.31313562234E+02 -0.44140048522E+02  0.58208239415E+02  0.00000000000E+00 0. -1.
          1    1    1    2  502    0  0.19663862836E+02 -0.23910755733E+02  0.59776250529E+03  0.59856361773E+03  0.00000000000E+00 0. -1.
         22    1    3    3    0    0  0.55852387944E+02  0.15045343443E+02  0.45373612842E+02  0.73516095794E+02  0.00000000000E+00 0. -1.
         22    1    3    3    0    0 -0.54084590263E+02 -0.22448149944E+02 -0.31519908610E+01  0.58642965360E+02  0.00000000000E+00 0. -1.
</event>
<event>
 7    1  0.6067783E-006  0.8525492E+02  0.7818608E-02  0.1394139E+00
          2   -1    0    0  502    0  0.00000000000E+00  0.00000000000E+00  0.78320811833E+03  0.78320811833E+03  0.00000000000E+00 0. -1.
          1   -1    0    0  501    0 -0.00000000000E+00 -0.00000000000E+00 -0.10847439350E+03  0.10847439350E+03  0.00000000000E+00 0. -1.
         25    2    1    2    0    0 -0.85070099191E+01 -0.87221753094E+02  0.50209585576E+02  0.16070792537E+03  0.12500412539E+03 0.  0.
          2    1    1    2  501    0 -0.34403872335E+02  0.80168823370E+02 -0.16238858326E+02  0.88737631205E+02  0.00000000000E+00 0. -1.
          1    1    1    2  502    0  0.42910882254E+02  0.70529297240E+01  0.64076299758E+03  0.64223695526E+03  0.00000000000E+00 0. -1.
         22    1    3    3    0    0 -0.31797672197E+02  0.14932885375E+02  0.43224106238E+02  0.55699249391E+02  0.00000000000E+00 0.  1.
         22    1    3    3    0    0  0.23290662277E+02 -0.10215463847E+03  0.69854793385E+01  0.10500867598E+03  0.00000000000E+00 0.  1.
</event>
<event>
 7    1  0.7850408E-006  0.7638429E+02  0.7818608E-02  0.1403354E+00
          2   -1    0    0  502    0  0.00000000000E+00  0.00000000000E+00  0.12577684443E+04  0.12577684443E+04  0.00000000000E+00 0. -1.
          1   -1    0    0  501    0 -0.00000000000E+00 -0.00000000000E+00 -0.91034864476E+03  0.91034864476E+03  0.00000000000E+00 0. -1.
         25    2    1    2    0    0 -0.13099773145E+02  0.32017731498E+02 -0.73538981379E+02  0.14909479621E+03  0.12499814914E+03 0.  0.
          2    1    1    2  501    0  0.68842798682E+01  0.44587042329E+02 -0.79718287902E+03  0.79845847748E+03  0.00000000000E+00 0. -1.
          1    1    1    2  502    0  0.62154932767E+01 -0.76604773827E+02  0.12181416600E+04  0.12205638154E+04  0.00000000000E+00 0. -1.
         22    1    3    3    0    0 -0.36444822719E+02 -0.31113814555E+02 -0.65716212076E+02  0.81332128269E+02  0.00000000000E+00 0. -1.
         22    1    3    3    0    0  0.23345049574E+02  0.63131546053E+02 -0.78227693030E+01  0.67762667939E+02  0.00000000000E+00 0. -1.
</event>
<event>
 7    1  0.6067783E-006  0.1775003E+03  0.7818608E-02  0.1203732E+00
          2   -1    0    0  502    0  0.00000000000E+00  0.00000000000E+00  0.19071604726E+04  0.19071604726E+04  0.00000000000E+00 0. -1.
          1   -1    0    0  501    0 -0.00000000000E+00 -0.00000000000E+00 -0.72341893620E+02  0.72341893620E+02  0.00000000000E+00 0. -1.
         25    2    1    2    0    0 -0.19853032270E+03 -0.18117516671E+03  0.88738172111E+03  0.93558037627E+03  0.12500236574E+03 0.  0.
          2    1    1    2  501    0  0.14822695463E+03  0.69624583872E+02  0.10927631955E+03  0.19687591720E+03  0.00000000000E+00 0. -1.
          1    1    1    2  502    0  0.50303368070E+02  0.11155058284E+03  0.83816053835E+03  0.84704607279E+03  0.00000000000E+00 0. -1.
         22    1    3    3    0    0  0.13131636149E+01 -0.30128243968E+02  0.30738991807E+02  0.43061828811E+02  0.00000000000E+00 0. -1.
         22    1    3    3    0    0 -0.19984348631E+03 -0.15104692275E+03  0.85664272930E+03  0.89251854746E+03  0.00000000000E+00 0. -1.
</event>
<event>
 7    1  0.6067783E-006  0.6357808E+02  0.7818608E-02  0.1443735E+00
          2   -1    0    0  502    0  0.00000000000E+00  0.00000000000E+00  0.16240640351E+04  0.16240640351E+04  0.00000000000E+00 0. -1.
          1   -1    0    0  501    0 -0.00000000000E+00 -0.00000000000E+00 -0.11610319935E+04  0.11610319935E+04  0.00000000000E+00 0. -1.
         25    2    1    2    0    0 -0.68378663909E+02 -0.71293706754E+02  0.39876967427E+02  0.16423635458E+03  0.12499989334E+03 0.  0.
          2    1    1    2  501    0  0.52994114373E+02  0.34594264204E+02 -0.10976806124E+04  0.10995034635E+04  0.00000000000E+00 0. -1.
          1    1    1    2  502    0  0.15384549537E+02  0.36699442550E+02  0.15208356867E+04  0.15213562105E+04  0.00000000000E+00 0. -1.
         22    1    3    3    0    0 -0.51837784240E+01  0.34115847287E+02 -0.15458378112E+01  0.34542035398E+02  0.00000000000E+00 0. -1.
         22    1    3    3    0    0 -0.63194885485E+02 -0.10540955404E+03  0.41422805239E+02  0.12969431918E+03  0.00000000000E+00 0. -1.
</event>
<event>
 7    1  0.6067783E-006  0.1186154E+03  0.7818608E-02  0.1365808E+00
          2   -1    0    0  502    0  0.00000000000E+00  0.00000000000E+00  0.30305824954E+03  0.30305824954E+03  0.00000000000E+00 0. -1.
          1   -1    0    0  501    0 -0.00000000000E+00 -0.00000000000E+00 -0.64233914690E+03  0.64233914690E+03  0.00000000000E+00 0. -1.
         25    2    1    2    0    0  0.12915677331E+03 -0.71888893559E+02 -0.18912863688E+02  0.19450619354E+03  0.12500191120E+03 0.  0.
          2    1    1    2  501    0 -0.89855591066E+02  0.74402443081E+02 -0.52739916238E+03  0.54014778280E+03  0.00000000000E+00 0. -1.
          1    1    1    2  502    0 -0.39301182248E+02 -0.25135495217E+01  0.20703112871E+03  0.21074342009E+03  0.00000000000E+00 0. -1.
         22    1    3    3    0    0  0.19301121905E+02 -0.12433904910E+02  0.47702929056E+02  0.52940577430E+02  0.00000000000E+00 0.  1.
         22    1    3    3    0    0  0.10985565141E+03 -0.59454988649E+02 -0.66615792744E+02  0.14156561611E+03  0.00000000000E+00 0.  1.
</event>
<event>
 7    1  0.6067783E-006  0.8600444E+02  0.7818608E-02  0.1406312E+00
          2   -1    0    0  502    0  0.00000000000E+00  0.00000000000E+00  0.18662439001E+04  0.18662439001E+04  0.00000000000E+00 0. -1.
          1   -1    0    0  501    0 -0.00000000000E+00 -0.00000000000E+00 -0.47607383471E+03  0.47607383471E+03  0.00000000000E+00 0. -1.
         25    2    1    2    0    0  0.48812062992E+02 -0.63236940456E+02 -0.13355616040E+02  0.14894495174E+03  0.12499879215E+03 0.  0.
          2    1    1    2  501    0 -0.32751834076E+02 -0.21444983315E+02 -0.39291758871E+03  0.39486301607E+03  0.00000000000E+00 0. -1.
          1    1    1    2  502    0 -0.16060228916E+02  0.84681923771E+02  0.17964432701E+04  0.17985097670E+04  0.00000000000E+00 0. -1.
         22    1    3    3    0    0  0.86627515097E+02 -0.67387650940E+02 -0.42813205321E+01  0.10983511085E+03  0.00000000000E+00 0.  1.
         22    1    3    3    0    0 -0.37815452105E+02  0.41507104839E+01 -0.90742955082E+01  0.39109840889E+02  0.00000000000E+00 0.  1.
</event>
<event>
 7    1  0.6067783E-006  0.6987158E+02  0.7818608E-02  0.1509607E+00
          2   -1    0    0  502    0  0.00000000000E+00  0.00000000000E+00  0.17549078288E+04  0.17549078288E+04  0.00000000000E+00 0. -1.
          1   -1    0    0  501    0 -0.00000000000E+00 -0.00000000000E+00 -0.84204035060E+02  0.84204035060E+02  0.00000000000E+00 0. -1.
         25    2    1    2    0    0 -0.74124556333E+02 -0.22791493742E+02  0.22062711008E+03  0.26517065617E+03  0.12500101261E+03 0.  0.
          2    1    1    2  501    0  0.16156013097E+02 -0.15922027163E+02 -0.59023412371E+02  0.63232040265E+02  0.00000000000E+00 0. -1.
          1    1    1    2  502    0  0.57968543236E+02  0.38713520905E+02  0.15091000960E+04  0.15107091674E+04  0.00000000000E+00 0. -1.
         22    1    3    3    0    0 -0.38336412418E+02 -0.35872292757E+01 -0.23013263779E+01  0.38572591747E+02  0.00000000000E+00 0. -1.
         22    1    3    3    0    0 -0.35788143914E+02 -0.19204264466E+02  0.22292843646E+03  0.22659806442E+03  0.00000000000E+00 0. -1.
</event>
<event>
 7    1  0.6067783E-006  0.1755348E+03  0.7818608E-02  0.1309770E+00
          2   -1    0    0  502    0  0.00000000000E+00  0.00000000000E+00  0.96611193085E+03  0.96611193085E+03  0.00000000000E+00 0. -1.
          1   -1    0    0  501    0 -0.00000000000E+00 -0.00000000000E+00 -0.23574424668E+04  0.23574424668E+04  0.00000000000E+00 0. -1.
         25    2    1    2    0    0  0.11903759313E+03  0.13948203220E+03  0.15596020562E+03  0.27124431863E+03  0.12499883506E+03 0.  0.
          2    1    1    2  501    0  0.22662457843E+02 -0.36920748130E+02 -0.22894275002E+04  0.22898373321E+04  0.00000000000E+00 0. -1.
          1    1    1    2  502    0 -0.14170005097E+03 -0.10256128407E+03  0.74213675861E+03  0.76247274700E+03  0.00000000000E+00 0. -1.
         22    1    3    3    0    0  0.68884960753E+02  0.11584328365E+03  0.36635260178E+02  0.13966727058E+03  0.00000000000E+00 0. -1.
         22    1    3    3    0    0  0.50152632377E+02  0.23638748552E+02  0.11932494544E+03  0.13157704804E+03  0.00000000000E+00 0. -1.
</event>
<event>
 7    1  0.6067783E-006  0.1721869E+03  0.7818608E-02  0.1226394E+00
          2   -1    0    0  502    0  0.00000000000E+00  0.00000000000E+00  0.11522170606E+04  0.11522170606E+04  0.00000000000E+00 0. -1.
          1   -1    0    0  501    0 -0.00000000000E+00 -0.00000000000E+00 -0.55773036963E+03  0.55773036963E+03  0.00000000000E+00 0. -1.
         25    2    1    2    0    0 -0.98242021421E+02  0.19915067072E+03  0.10764956660E+03  0.27662898158E+03  0.12499071901E+03 0.  0.
          2    1    1    2  501    0 -0.33990055598E+02 -0.93234430427E+02 -0.46043862418E+03  0.47101136879E+03  0.00000000000E+00 0. -1.
          1    1    1    2  502    0  0.13223207702E+03 -0.10591624029E+03  0.94727574856E+03  0.96230707987E+03  0.00000000000E+00 0. -1.
         22    1    3    3    0    0 -0.30837222518E+02  0.12854649443E+03  0.11962446964E+03  0.17828390073E+03  0.00000000000E+00 0. -1.
         22    1    3    3    0    0 -0.67404798903E+02  0.70604176286E+02 -0.11974903037E+02  0.98345080848E+02  0.00000000000E+00 0. -1.
</event>
<event>
 7    1  0.6067783E-006  0.5586113E+02  0.7818608E-02  0.1419688E+00
          2   -1    0    0  502    0  0.00000000000E+00  0.00000000000E+00  0.12984789675E+04  0.12984789675E+04  0.00000000000E+00 0. -1.
          1   -1    0    0  501    0 -0.00000000000E+00 -0.00000000000E+00 -0.16858904725E+03  0.16858904725E+03  0.00000000000E+00 0. -1.
         25    2    1    2    0    0  0.86387378922E+01 -0.27667379069E+02  0.33377625574E+02  0.13259516754E+03  0.12500920330E+03 0.  0.
          2    1    1    2  501    0  0.46804791946E+02  0.34485061892E+02 -0.11119410264E+03  0.12547524260E+03  0.00000000000E+00 0. -1.
          1    1    1    2  502    0 -0.55443529838E+02 -0.68176828225E+01  0.12077063973E+04  0.12089976046E+04  0.00000000000E+00 0. -1.
         22    1    3    3    0    0  0.48606492172E+02  0.29055738228E+02  0.27511304513E+02  0.62957913571E+02  0.00000000000E+00 0. -1.
         22    1    3    3    0    0 -0.39967754280E+02 -0.56723117297E+02  0.58663210612E+01  0.69637253972E+02  0.00000000000E+00 0. -1.
</event>
<event>
 7    1  0.6067783E-006  0.5068421E+02  0.7818608E-02  0.1474915E+00
          2   -1    0    0  502    0  0.00000000000E+00  0.00000000000E+00  0.30918155264E+03  0.30918155264E+03  0.00000000000E+00 0. -1.
          1   -1    0    0  501    0 -0.00000000000E+00 -0.00000000000E+00 -0.30961632779E+03  0.30961632779E+03  0.00000000000E+00 0. -1.
         25    2    1    2    0    0  0.73883586108E+02 -0.48580779353E+02 -0.62924247691E+01  0.15324449894E+03  0.12500162169E+03 0.  0.
          2    1    1    2  501    0 -0.44004000715E+02  0.22303330867E+02 -0.22548245098E+03  0.23081621769E+03  0.00000000000E+00 0. -1.
          1    1    1    2  502    0 -0.29879585393E+02  0.26277448486E+02  0.23134010061E+03  0.23473716380E+03  0.00000000000E+00 0. -1.
         22    1    3    3    0    0  0.98410551773E+01  0.33896459142E+02  0.26117793921E+02  0.43908489710E+02  0.00000000000E+00 0.  1.
         22    1    3    3    0    0  0.64042530931E+02 -0.82477238495E+02 -0.32410218690E+02  0.10933600923E+03  0.00000000000E+00 0.  1.
</event>
<event>
 7    1  0.6067783E-006  0.4771050E+02  0.7818608E-02  0.1502532E+00
          2   -1    0    0  502    0  0.00000000000E+00  0.00000000000E+00  0.12950876357E+04  0.12950876357E+04  0.00000000000E+00 0. -1.
          1   -1    0    0  501    0 -0.00000000000E+00 -0.00000000000E+00 -0.32133732653E+03  0.32133732653E+03  0.00000000000E+00 0. -1.
         25    2    1    2    0    0  0.64245846739E+02  0.31804516721E+02  0.58559576174E+02  0.15555387059E+03  0.12501490546E+03 0.  0.
          2    1    1    2  501    0 -0.47354620988E+02 -0.13099975365E+01 -0.27052576941E+03  0.27464225483E+03  0.00000000000E+00 0. -1.
          1    1    1    2  502    0 -0.16891225752E+02 -0.30494519184E+02  0.11857165024E+04  0.11862288368E+04  0.00000000000E+00 0. -1.
         22    1    3    3    0    0  0.24059883734E+02  0.72751518355E+02  0.61280669523E+02  0.98117184455E+02  0.00000000000E+00 0. -1.
         22    1    3    3    0    0  0.40185963005E+02 -0.40947001634E+02 -0.27210933484E+01  0.57436686138E+02  0.00000000000E+00 0. -1.
</event>
<event>
 7    1  0.6067783E-006  0.4336601E+02  0.7818608E-02  0.1485923E+00
          2   -1    0    0  502    0  0.00000000000E+00  0.00000000000E+00  0.45770157451E+02  0.45770157451E+02  0.00000000000E+00 0. -1.
          1   -1    0    0  501    0 -0.00000000000E+00 -0.00000000000E+00 -0.73905468717E+03  0.73905468717E+03  0.00000000000E+00 0. -1.
         25    2    1    2    0    0  0.54384794627E+01 -0.31212216294E+01 -0.47844994891E+03  0.49454907629E+03  0.12500046465E+03 0.  0.
          2    1    1    2  501    0  0.27569074695E+02  0.33035905995E+02 -0.23675139018E+03  0.24062968586E+03  0.00000000000E+00 0. -1.
          1    1    1    2  502    0 -0.33007554157E+02 -0.29914684365E+02  0.21916809369E+02  0.49646082474E+02  0.00000000000E+00 0. -1.
         22    1    3    3    0    0 -0.35967154249E+02  0.23947921448E+02 -0.39634143462E+03  0.39868994459E+03  0.00000000000E+00 0.  1.
         22    1    3    3    0    0  0.41405633711E+02 -0.27069143077E+02 -0.82108514291E+02  0.95859131693E+02  0.00000000000E+00 0.  1.
</event>
<event>
 7    1  0.6067783E-006  0.1879078E+03  0.7818608E-02  0.1280156E+00
          2   -1    0    0  502    0  0.00000000000E+00  0.00000000000E+00  0.92715318752E+03  0.92715318752E+03  0.00000000000E+00 0. -1.
          1   -1    0    0  501    0 -0.00000000000E+00 -0.00000000000E+00 -0.12386042129E+04  0.12386042129E+04  0.00000000000E+00 0. -1.
         25    2    1    2    0    0  0.13366911726E+03  0.80980817926E+02 -0.34376603810E+03  0.39777570871E+03  0.12500039883E+03 0.  0.
          2    1    1    2  501    0 -0.15526912105E+03 -0.12969538000E+03 -0.85523264477E+03  0.87883574587E+03  0.00000000000E+00 0. -1.
          1    1    1    2  502    0  0.21600003791E+02  0.48714562072E+02  0.88754765748E+03  0.88914594585E+03  0.00000000000E+00 0. -1.
         22    1    3    3    0    0 -0.22020901137E+02  0.18667541674E+01 -0.66680439514E+02  0.70247319321E+02  0.00000000000E+00 0.  1.
         22    1    3    3    0    0  0.15569001839E+03  0.79114063759E+02 -0.27708559858E+03  0.32752838938E+03  0.00000000000E+00 0.  1.
</event>
<event>
 7    1  0.6067783E-006  0.5797492E+02  0.7818608E-02  0.1415783E+00
          2   -1    0    0  502    0  0.00000000000E+00  0.00000000000E+00  0.12491749606E+04  0.12491749606E+04  0.00000000000E+00 0. -1.
          1   -1    0    0  501    0 -0.00000000000E+00 -0.00000000000E+00 -0.48659803917E+03  0.48659803917E+03  0.00000000000E+00 0. -1.
         25    2    1    2    0    0  0.31670348351E+02  0.12600612533E+02  0.67889772239E+02  0.14627266518E+03  0.12499954001E+03 0.  0.
          2    1    1    2  501    0 -0.35706343683E+01 -0.58647995374E+02 -0.44483669774E+03  0.44870037268E+03  0.00000000000E+00 0. -1.
          1    1    1    2  502    0 -0.28099713982E+02  0.46047382842E+02  0.11395238469E+04  0.11407999619E+04  0.00000000000E+00 0. -1.
         22    1    3    3    0    0 -0.17439646615E+02 -0.30298464981E+01 -0.30464517755E+02  0.35233621527E+02  0.00000000000E+00 0. -1.
         22    1    3    3    0    0  0.49109994966E+02  0.15630459031E+02  0.98354289994E+02  0.11103904365E+03  0.00000000000E+00 0. -1.
</event>
<event>
 7    1  0.6067783E-006  0.5873125E+02  0.7818608E-02  0.1490335E+00
          2   -1    0    0  502    0  0.00000000000E+00  0.00000000000E+00  0.10449050874E+04  0.10449050874E+04  0.00000000000E+00 0. -1.
          1   -1    0    0  501    0 -0.00000000000E+00 -0.00000000000E+00 -0.47238541174E+02  0.47238541174E+02  0.00000000000E+00 0. -1.
         25    2    1    2    0    0 -0.48551847149E+02  0.57839800919E+02  0.65319577078E+03  0.66932261948E+03  0.12500131818E+03 0.  0.
          2    1    1    2  501    0  0.17829133286E+02 -0.55559603305E+02 -0.16420922869E+02  0.60616781678E+02  0.00000000000E+00 0. -1.
          1    1    1    2  502    0  0.30722713863E+02 -0.22801976140E+01  0.36089169836E+03  0.36220422747E+03  0.00000000000E+00 0. -1.
         22    1    3    3    0    0  0.17325588103E+02  0.10476810999E+02  0.45101318604E+03  0.45146742247E+03  0.00000000000E+00 0.  1.
         22    1    3    3    0    0 -0.65877435252E+02  0.47362989921E+02  0.20218258475E+03  0.21785519701E+03  0.00000000000E+00 0.  1.
</event>
<event>
 7    1  0.6067783E-006  0.1114465E+03  0.7818608E-02  0.1299104E+00
          2   -1    0    0  502    0  0.00000000000E+00  0.00000000000E+00  0.13212672978E+03  0.13212672978E+03  0.00000000000E+00 0. -1.
          1   -1    0    0  501    0 -0.00000000000E+00 -0.00000000000E+00 -0.98315192736E+03  0.98315192736E+03  0.00000000000E+00 0. -1.
         25    2    1    2    0    0  0.47317806201E+02  0.58744444325E+02 -0.12229118696E+03  0.19044675469E+03  0.12499978977E+03 0.  0.
          2    1    1    2  501    0 -0.11500461324E+03 -0.25907568282E+02 -0.80741291697E+03  0.81597357902E+03  0.00000000000E+00 0. -1.
          1    1    1    2  502    0  0.67686807041E+02 -0.32836876043E+02  0.78678906350E+02  0.10885832343E+03  0.00000000000E+00 0. -1.
         22    1    3    3    0    0  0.54308073402E+02  0.43981907313E+02 -0.29007677435E+01  0.69944188186E+02  0.00000000000E+00 0.  1.
         22    1    3    3    0    0 -0.69902672006E+01  0.14762537013E+02 -0.11939041921E+03  0.12050256651E+03  0.00000000000E+00 0.  1.
</event>
<event>
 7    1  0.6067783E-006  0.6471554E+02  0.7818608E-02  0.1387880E+00
          2   -1    0    0  502    0  0.00000000000E+00  0.00000000000E+00  0.50033349843E+02  0.50033349843E+02  0.00000000000E+00 0. -1.
          1   -1    0    0  501    0 -0.00000000000E+00 -0.00000000000E+00 -0.14775946758E+04  0.14775946758E+04  0.00000000000E+00 0. -1.
         25    2    1    2    0    0 -0.10113536457E+02 -0.19345236106E+02 -0.21061630945E+03  0.24588781921E+03  0.12500027219E+03 0.  0.
          2    1    1    2  501    0 -0.58126815254E+02  0.28449510645E+02 -0.12109024415E+04  0.12126305390E+04  0.00000000000E+00 0. -1.
          1    1    1    2  502    0  0.68240351711E+02 -0.91042745390E+01 -0.60425749835E+01  0.69109667406E+02  0.00000000000E+00 0. -1.
         22    1    3    3    0    0 -0.35279621150E+02 -0.62688790611E+02 -0.89597777607E+02  0.11490125277E+03  0.00000000000E+00 0.  1.
         22    1    3    3    0    0  0.25166084693E+02  0.43343554506E+02 -0.12101853185E+03  0.13098656644E+03  0.00000000000E+00 0.  1.
</event>
<event>
 7    1  0.6067783E-006  0.1019664E+03  0.7818608E-02  0.1426481E+00
          2   -1    0    0  502    0  0.00000000000E+00  0.00000000000E+00  0.11803336771E+04  0.11803336771E+04  0.00000000000E+00 0. -1.
          1   -1    0    0  501    0 -0.00000000000E+00 -0.00000000000E+00 -0.11420505715E+04  0.11420505715E+04  0.00000000000E+00 0. -1.
         25    2    1    2    0    0  0.98199832457E+02  0.58577973184E+02 -0.13791298434E+03  0.21844757527E+03  0.12499906342E+03 0.  0.
          2    1    1    2  501    0 -0.72654661173E+02 -0.70645847917E+02 -0.96103074575E+03  0.96635895500E+03  0.00000000000E+00 0. -1.
          1    1    1    2  502    0 -0.25545171284E+02  0.12067874733E+02  0.11372268358E+04  0.11375777184E+04  0.00000000000E+00 0. -1.
         22    1    3    3    0    0  0.80244564509E+01  0.60268713824E+02 -0.10706930250E+03  0.12312816617E+03  0.00000000000E+00 0.  1.
         22    1    3    3    0    0  0.90175376006E+02 -0.16907406397E+01 -0.30843681841E+02  0.95319409100E+02  0.00000000000E+00 0.  1.
</event>
<event>
 7    1  0.6067783E-006  0.9418117E+02  0.7818608E-02  0.1384091E+00
          2   -1    0    0  502    0  0.00000000000E+00  0.00000000000E+00  0.39903379882E+02  0.39903379882E+02  0.00000000000E+00 0. -1.
          1   -1    0    0  501    0 -0.00000000000E+00 -0.00000000000E+00 -0.16611498598E+04  0.16611498598E+04  0.00000000000E+00 0. -1.
         25    2    1    2    0    0  0.12958233622E+03  0.21108291311E+02 -0.39304468213E+03  0.43283575498E+03  0.12500210724E+03 0.  0.
          2    1    1    2  501    0 -0.91062742979E+02 -0.27292200658E+01 -0.12216448320E+04  0.12250371289E+04  0.00000000000E+00 0. -1.
          1    1    1    2  502    0 -0.38519593245E+02 -0.18379071245E+02 -0.65569658271E+01  0.43180355771E+02  0.00000000000E+00 0. -1.
         22    1    3    3    0    0 -0.21663098219E+02 -0.94012797471E+01 -0.86297397091E+02  0.89470188499E+02  0.00000000000E+00 0.  1.
         22    1    3    3    0    0  0.15124543444E+03  0.30509571058E+02 -0.30674728504E+03  0.34336556648E+03  0.00000000000E+00 0.  1.
</event>
<event>
 7    1  0.6067783E-006  0.1022505E+03  0.7818608E-02  0.1299251E+00
          2   -1    0    0  502    0  0.00000000000E+00  0.00000000000E+00  0.12345114610E+04  0.12345114610E+04  0.00000000000E+00 0. -1.
          1   -1    0    0  501    0 -0.00000000000E+00 -0.00000000000E+00 -0.40091642908E+03  0.40091642908E+03  0.00000000000E+00 0. -1.
         25    2    1    2    0    0  0.97143393462E+01  0.10889585048E+03 -0.91080070773E+01  0.16631349769E+03  0.12499819631E+03 0.  0.
          2    1    1    2  501    0 -0.76086173117E+02 -0.30269830242E+02 -0.30551331776E+03  0.31629694227E+03  0.00000000000E+00 0. -1.
          1    1    1    2  502    0  0.66371833771E+02 -0.78626020237E+02  0.11482163567E+04  0.11528174501E+04  0.00000000000E+00 0. -1.
         22    1    3    3    0    0  0.43118943585E+02  0.50481415046E+02 -0.53868391189E+02  0.85495146823E+02  0.00000000000E+00 0. -1.
         22    1    3    3    0    0 -0.33404604239E+02  0.58414435433E+02  0.44760384112E+02  0.80818350868E+02  0.00000000000E+00 0. -1.
</event>
<event>
 7    1  0.6067783E-006  0.4901276E+02  0.7818608E-02  0.1475621E+00
          2   -1    0    0  502    0  0.00000000000E+00  0.00000000000E+00  0.17092378117E+04  0.17092378117E+04  0.00000000000E+00 0. -1.
          1   -1    0    0  501    0 -0.00000000000E+00 -0.00000000000E+00 -0.52049794285E+03  0.52049794285E+03  0.00000000000E+00 0. -1.
         25    2    1    2    0    0 -0.32211290559E+02 -0.15617868756E+02 -0.23738805662E+03  0.27066575230E+03  0.12500149991E+03 0.  0.
          2    1    1    2  501    0 -0.10611403858E+02  0.39542354130E+02 -0.26454061956E+03  0.26769000553E+03  0.00000000000E+00 0. -1.
          1    1    1    2  502    0  0.42822694417E+02 -0.23924485373E+02  0.16906685450E+04  0.16913799967E+04  0.00000000000E+00 0. -1.
         22    1    3    3    0    0  0.10402520047E+00  0.49717724001E+02 -0.14308370541E+03  0.15147544241E+03  0.00000000000E+00 0.  1.
         22    1    3    3    0    0 -0.32315315760E+02 -0.65335592757E+02 -0.94304351217E+02  0.11919030989E+03  0.00000000000E+00 0.  1.
</event>
<event>
 7    1  0.6067783E-006  0.1248110E+03  0.7818608E-02  0.1306304E+00
          2   -1    0    0  502    0  0.00000000000E+00  0.00000000000E+00  0.11308089488E+04  0.11308089488E+04  0.00000000000E+00 0. -1.
          1   -1    0    0  501    0 -0.00000000000E+00 -0.00000000000E+00 -0.31941719702E+03  0.31941719702E+03  0.00000000000E+00 0. -1.
         25    2    1    2    0    0  0.10337250829E+03  0.23635306414E+02 -0.41481631597E+02  0.16908435731E+03  0.12499716375E+03 0.  0.
          2    1    1    2  501    0 -0.12992473844E+03  0.33363048009E+02 -0.19208869821E+03  0.23428956147E+03  0.00000000000E+00 0. -1.
          1    1    1    2  502    0  0.26552230155E+02 -0.56998354423E+02  0.10449620816E+04  0.10468522270E+04  0.00000000000E+00 0. -1.
         22    1    3    3    0    0  0.98630714295E+02 -0.62039952583E+01 -0.74922711387E+02  0.12401580561E+03  0.00000000000E+00 0. -1.
         22    1    3    3    0    0  0.47417939944E+01  0.29839301673E+02  0.33441079790E+02  0.45068551697E+02  0.00000000000E+00 0. -1.
</event>
<event>
 7    1  0.6067783E-006  0.7309340E+02  0.7818608E-02  0.1515550E+00
          2   -1    0    0  502    0  0.00000000000E+00  0.00000000000E+00  0.12633774749E+03  0.12633774749E+03  0.00000000000E+00 0. -1.
          1   -1    0    0  501    0 -0.00000000000E+00 -0.00000000000E+00 -0.19918978613E+03  0.19918978613E+03  0.00000000000E+00 0. -1.
         25    2    1    2    0    0 -0.60161628216E+02 -0.26805721429E+02 -0.12220027166E+03  0.18679116843E+03  0.12498026243E+03 0.  0.
          2    1    1    2  501    0 -0.13100943464E+02  0.16194546165E+02 -0.25861209469E+02  0.33206930005E+02  0.00000000000E+00 0. -1.
          1    1    1    2  502    0  0.73262571680E+02  0.10611175264E+02  0.75209442492E+02  0.10552943518E+03  0.00000000000E+00 0. -1.
         22    1    3    3    0    0 -0.60038035554E+02 -0.24451646977E+02 -0.14763855803E+03  0.16124389157E+03  0.00000000000E+00 0.  1.
         22    1    3    3    0    0 -0.12359266272E+00 -0.23540744520E+01  0.25438286363E+02  0.25547276856E+02  0.00000000000E+00 0.  1.
</event>
<event>
 7    1  0.6067783E-006  0.3686262E+02  0.7818608E-02  0.1534631E+00
          2   -1    0    0  502    0  0.00000000000E+00  0.00000000000E+00  0.94022563900E+03  0.94022563900E+03  0.00000000000E+00 0. -1.
          1   -1    0    0  501    0 -0.00000000000E+00 -0.00000000000E+00 -0.16541266404E+04  0.16541266404E+04  0.00000000000E+00 0. -1.
         25    2    1    2    0    0 -0.20656399368E+02 -0.37740433758E+02  0.99691439643E+02  0.16556951103E+03  0.12499541060E+03 0.  0.
          2    1    1    2  501    0 -0.16000751769E+02  0.32681015382E+02 -0.16205593659E+04  0.16209678378E+04  0.00000000000E+00 0. -1.
          1    1    1    2  502    0  0.36657151137E+02  0.50594183756E+01  0.80696692478E+03  0.80781493062E+03  0.00000000000E+00 0. -1.
         22    1    3    3    0    0  0.33569010725E+02  0.16977282854E+02  0.76286587045E+02  0.85057333470E+02  0.00000000000E+00 0.  1.
         22    1    3    3    0    0 -0.54225410093E+02 -0.54717716612E+02  0.23404852599E+02  0.80512177564E+02  0.00000000000E+00 0.  1.
</event>
<event>
 7    1  0.6067783E-006  0.8166276E+02  0.7818608E-02  0.1487737E+00
          2   -1    0    0  502    0  0.00000000000E+00  0.00000000000E+00  0.17061252266E+04  0.17061252266E+04  0.00000000000E+00 0. -1.
          1   -1    0    0  501    0 -0.00000000000E+00 -0.00000000000E+00 -0.10242838762E+02  0.10242838762E+02  0.00000000000E+00 0. -1.
         25    2    1    2    0    0 -0.50941013505E+02  0.42267660900E+02  0.95131763823E+03  0.96177511394E+03  0.12499831584E+03 0.  0.
          2    1    1    2  501    0  0.70392536897E+02 -0.53698197948E+02  0.41922977746E+03  0.42847661782E+03  0.00000000000E+00 0. -1.
          1    1    1    2  502    0 -0.19451523391E+02  0.11430537048E+02  0.32533497212E+03  0.32611633358E+03  0.00000000000E+00 0. -1.
         22    1    3    3    0    0 -0.29186193635E+02 -0.27969774999E+02  0.10900714231E+03  0.11626134047E+03  0.00000000000E+00 0.  1.
         22    1    3    3    0    0 -0.21754819871E+02  0.70237435899E+02  0.84231049592E+03  0.84551377347E+03  0.00000000000E+00 0.  1.
</event>
<event>
 7    1  0.6067783E-006  0.1178487E+03  0.7818608E-02  0.1330664E+00
          2   -1    0    0  502    0  0.00000000000E+00  0.00000000000E+00  0.22310658463E+04  0.22310658463E+04  0.00000000000E+00 0. -1.
          1   -1    0    0  501    0 -0.00000000000E+00 -0.00000000000E+00 -0.14390307987E+04  0.14390307987E+04  0.00000000000E+00 0. -1.
         25    2    1    2    0    0  0.10147487310E+03 -0.10387859083E+03 -0.28049757629E+02  0.19364843389E+03  0.12500006217E+03 0.  0.
          2    1    1    2  501    0 -0.48022728842E+02  0.10697635142E+03 -0.13252588921E+04  0.13304364898E+04  0.00000000000E+00 0. -1.
          1    1    1    2  502    0 -0.53452144255E+02 -0.30977605904E+01  0.21453436974E+04  0.21460117213E+04  0.00000000000E+00 0. -1.
         22    1    3    3    0    0 -0.17284767840E+02 -0.18201960755E+02  0.27311404652E+02  0.37094304128E+02  0.00000000000E+00 0. -1.
         22    1    3    3    0    0  0.11875964094E+03 -0.85676630070E+02 -0.55361162282E+02  0.15655412976E+03  0.00000000000E+00 0. -1.
</event>
<event>
 7    1  0.6067783E-006  0.3413556E+02  0.7818608E-02  0.1566637E+00
          2   -1    0    0  502    0  0.00000000000E+00  0.00000000000E+00  0.84245975955E+03  0.84245975955E+03  0.00000000000E+00 0. -1.
          1   -1    0    0  501    0 -0.00000000000E+00 -0.00000000000E+00 -0.40199778983E+03  0.40199778983E+03  0.00000000000E+00 0. -1.
         25    2    1    2    0    0 -0.10048369784E+02 -0.35057271292E+02  0.42680426726E+03  0.44622527899E+03  0.12500054023E+03 0.  0.
          2    1    1    2  501    0  0.31191121644E+02  0.71398055240E+01 -0.39087703408E+03  0.39218454669E+03  0.00000000000E+00 0. -1.
          1    1    1    2  502    0 -0.21142751860E+02  0.27917465768E+02  0.40453473654E+03  0.40604772370E+03  0.00000000000E+00 0. -1.
         22    1    3    3    0    0 -0.25187467882E+02  0.27307443281E+02  0.41857471755E+02  0.55965640697E+02  0.00000000000E+00 0. -1.
         22    1    3    3    0    0  0.15139098098E+02 -0.62364714573E+02  0.38494679550E+03  0.39025963829E+03  0.00000000000E+00 0. -1.
</event>
<event>
 7    1  0.6067783E-006  0.1862216E+03  0.7818608E-02  0.1276110E+00
          2   -1    0    0  502    0  0.00000000000E+00  0.00000000000E+00  0.36456455451E+03  0.36456455451E+03  0.00000000000E+00 0. -1.
          1   -1    0    0  501    0 -0.00000000000E+00 -0.00000000000E+00 -0.19822278275E+03  0.19822278275E+03  0.00000000000E+00 0. -1.
         25    2    1    2    0    0  0.15681879052E+03 -0.18473657114E+02  0.71825942171E+02  0.21381676806E+03  0.12500094108E+03 0.  0.
          2    1    1    2  501    0  0.50338456565E+02  0.24279269519E+02 -0.66257798801E+02  0.86680672815E+02  0.00000000000E+00 0. -1.
          1    1    1    2  502    0 -0.20715724708E+03 -0.58056124047E+01  0.16077362839E+03  0.26228989637E+03  0.00000000000E+00 0. -1.
         22    1    3    3    0    0  0.14450302222E+03 -0.49193510708E+02  0.22325344050E+02  0.15427101450E+03  0.00000000000E+00 0. -1.
         22    1    3    3    0    0  0.12315768293E+02  0.30719853594E+02  0.49500598120E+02  0.59545753566E+02  0.00000000000E+00 0. -1.
</event>
<event>
 7    1  0.6067783E-006  0.1805977E+03  0.7818608E-02  0.1277806E+00
          2   -1    0    0  502    0  0.00000000000E+00  0.00000000000E+00  0.18155280216E+04  0.18155280216E+04  0.00000000000E+00 0. -1.
          1   -1    0    0  501    0 -0.00000000000E+00 -0.00000000000E+00 -0.29701468002E+04  0.29701468002E+04  0.00000000000E+00 0. -1.
         25    2    1    2    0    0 -0.13641580294E+03  0.17402730029E+03 -0.16692776620E+03  0.30394700375E+03  0.12499651764E+03 0.  0.
          2    1    1    2  501    0  0.81654573674E+02 -0.15932234815E+03 -0.27313180487E+04  0.27371790886E+04  0.00000000000E+00 0. -1.
          1    1    1    2  502    0  0.54761229265E+02 -0.14704952144E+02  0.17436270362E+04  0.17445487294E+04  0.00000000000E+00 0. -1.
         22    1    3    3    0    0 -0.60334876578E+01  0.10676381000E+03 -0.62410451084E+02  0.12381429039E+03  0.00000000000E+00 0. -1.
         22    1    3    3    0    0 -0.13038231528E+03  0.67263490286E+02 -0.10451731512E+03  0.18013271336E+03  0.00000000000E+00 0. -1.
</event>
<event>
 7    1  0.6067783E-006  0.1253495E+03  0.7818608E-02  0.1249042E+00
          2   -1    0    0  502    0  0.00000000000E+00  0.00000000000E+00  0.75372503960E+03  0.75372503960E+03  0.00000000000E+00 0. -1.
          1   -1    0    0  501    0 -0.00000000000E+00 -0.00000000000E+00 -0.54220971124E+03  0.54220971124E+03  0.00000000000E+00 0. -1.
         25    2    1    2    0    0 -0.55712679556E+00 -0.35839226760E+02  0.56200053939E+02  0.14166403761E+03  0.12500197168E+03 0.  0.
          2    1    1    2  501    0 -0.44004549500E+02 -0.98862278006E+02 -0.48576782015E+03  0.49767512041E+03  0.00000000000E+00 0. -1.
          1    1    1    2  502    0  0.44561676296E+02  0.13470150477E+03  0.64108309456E+03  0.65659559282E+03  0.00000000000E+00 0. -1.
         22    1    3    3    0    0 -0.20277969078E+02 -0.67701754206E+02  0.72097694579E+02  0.10095940331E+03  0.00000000000E+00 0. -1.
         22    1    3    3    0    0  0.19720842282E+02  0.31862527446E+02 -0.15897640640E+02  0.40704634300E+02  0.00000000000E+00 0. -1.
</event>
<event>
 7    1  0.8630819E-006  0.8468244E+02  0.7818608E-02  0.1352511E+00
          2   -1    0    0  502    0  0.00000000000E+00  0.00000000000E+00  0.25468943797E+04  0.25468943797E+04  0.00000000000E+00 0. -1.
          1   -1    0    0  501    0 -0.00000000000E+00 -0.00000000000E+00 -0.58658544670E+03  0.58658544670E+03  0.00000000000E+00 0. -1.
         25    2    1    2    0    0  0.12336371490E+02 -0.77522457614E+02 -0.17710377905E+03  0.23054909490E+03  0.12500087644E+03 0.  0.
          2    1    1    2  501    0  0.55579359964E+02  0.26774225313E+02 -0.37955477160E+03  0.38453575782E+03  0.00000000000E+00 0. -1.
          1    1    1    2  502    0 -0.67915731454E+02  0.50748232301E+02  0.25169674837E+04  0.25183949737E+04  0.00000000000E+00 0. -1.
         22    1    3    3    0    0  0.32023254111E+02  0.15558754771E+02 -0.79568741542E+01  0.36481166376E+02  0.00000000000E+00 0.  1.
         22    1    3    3    0    0 -0.19686882621E+02 -0.93081212386E+02 -0.16914690490E+03  0.19406792853E+03  0.00000000000E+00 0.  1.
</event>
<event>
 7    1  0.6067783E-006  0.9401932E+02  0.7818608E-02  0.1329203E+00
          2   -1    0    0  502    0  0.00000000000E+00  0.00000000000E+00  0.46182792837E+03  0.46182792837E+03  0.00000000000E+00 0. -1.
          1   -1    0    0  501    0 -0.00000000000E+00 -0.00000000000E+00 -0.36988361727E+03  0.36988361727E+03  0.00000000000E+00 0. -1.
         25    2    1    2    0    0 -0.11457625600E+02  0.79919077024E+02  0.90736399955E+00  0.14880922973E+03  0.12500010995E+03 0.  0.
          2    1    1    2  501    0 -0.64885764743E+02 -0.20276823368E+02 -0.28581954542E+03  0.29379265575E+03  0.00000000000E+00 0. -1.
          1    1    1    2  502    0  0.76343390342E+02 -0.59642253656E+02  0.37685649252E+03  0.38910966015E+03  0.00000000000E+00 0. -1.
         22    1    3    3    0    0 -0.19808711214E+02 -0.31426277174E+02  0.16006682152E+00  0.37148641407E+02  0.00000000000E+00 0.  1.
         22    1    3    3    0    0  0.83510856140E+01  0.11134535420E+03  0.74729717804E+00  0.11166058833E+03  0.00000000000E+00 0.  1.
</event>
<event>
 7    1  0.6067783E-006  0.1092949E+03  0.7818608E-02  0.1304588E+00
          2   -1    0    0  502    0  0.00000000000E+00  0.00000000000E+00  0.73446685962E+03  0.73446685962E+03  0.00000000000E+00 0. -1.
          1   -1    0    0  501    0 -0.00000000000E+00 -0.00000000000E+00 -0.13149186495E+04  0.13149186495E+04  0.00000000000E+00 0. -1.
         25    2    1    2    0    0 -0.17193156149E+02 -0.45403207856E+02 -0.23499835695E+03  0.27056570190E+03  0.12499806147E+03 0.  0.
          2    1    1    2  501    0  0.53072900096E+02  0.10891018417E+03 -0.10568107278E+04  0.10637326146E+04  0.00000000000E+00 0. -1.
          1    1    1    2  502    0 -0.35879743947E+02 -0.63506976311E+02  0.71135729489E+03  0.71508719262E+03  0.00000000000E+00 0. -1.
         22    1    3    3    0    0 -0.35081753194E+02  0.35375719579E+02 -0.10879487484E+03  0.11965991699E+03  0.00000000000E+00 0.  1.
         22    1    3    3    0    0  0.17888597044E+02 -0.80778927435E+02 -0.12620348211E+03  0.15090578491E+03  0.00000000000E+00 0.  1.
</event>
<event>
 7    1  0.6067783E-006  0.1258747E+03  0.7818608E-02  0.1358153E+00
          2   -1    0    0  502    0  0.00000000000E+00  0.00000000000E+00  0.20769282113E+04  0.20769282113E+04  0.00000000000E+00 0. -1.
          1   -1    0    0  501    0 -0.00000000000E+00 -0.00000000000E+00 -0.61332082916E+03  0.61332082916E+03  0.00000000000E+00 0. -1.
         25    2    1    2    0    0 -0.97173000586E+02  0.37246490552E+02  0.61565353772E+01  0.16276686930E+03  0.12500103085E+03 0.  0.
          2    1    1    2  501    0 -0.28949153067E+02 -0.26973912920E+02 -0.53227146595E+03  0.53374016047E+03  0.00000000000E+00 0. -1.
          1    1    1    2  502    0  0.12612215365E+03 -0.10272577632E+02  0.19897223127E+04  0.19937420107E+04  0.00000000000E+00 0. -1.
         22    1    3    3    0    0  0.47108172181E+01 -0.18012737519E+02 -0.35104981371E+02  0.39736761681E+02  0.00000000000E+00 0. -1.
         22    1    3    3    0    0 -0.10188381780E+03  0.55259228071E+02  0.41261516748E+02  0.12303010762E+03  0.00000000000E+00 0. -1.
</event>
<event>
 7    1  0.6067783E-006  0.6671557E+02  0.7818608E-02  0.1413938E+00
          2   -1    0    0  502    0  0.00000000000E+00  0.00000000000E+00  0.11519506697E+04  0.11519506697E+04  0.00000000000E+00 0. -1.
          1   -1    0    0  501    0 -0.00000000000E+00 -0.00000000000E+00 -0.41231839135E+03  0.41231839135E+03  0.00000000000E+00 0. -1.
         25    2    1    2    0    0  0.25076153791E+02 -0.55512972360E+02  0.10197602612E+03  0.17243296234E+03  0.12499405190E+03 0.  0.
          2    1    1    2  501    0  0.21788179715E+02  0.63567086886E+02 -0.37353311246E+03  0.37952929454E+03  0.00000000000E+00 0. -1.
          1    1    1    2  502    0 -0.46864333506E+02 -0.80541145257E+01  0.10111893647E+04  0.10123068042E+04  0.00000000000E+00 0. -1.
         22    1    3    3    0    0 -0.36738434209E+02  0.46928302623E+01 -0.22711150504E+01  0.37106511121E+02  0.00000000000E+00 0. -1.
         22    1    3    3    0    0  0.61814588000E+02 -0.60205802623E+02  0.10424714117E+03  0.13532645122E+03  0.00000000000E+00 0. -1.
</event>
<event>
 7    1  0.6067783E-006  0.7303329E+02  0.7818608E-02  0.1442151E+00
          2   -1    0    0  502    0  0.00000000000E+00  0.00000000000E+00  0.22348562239E+04  0.22348562239E+04  0.00000000000E+00 0. -1.
          1   -1    0    0  501    0 -0.00000000000E+00 -0.00000000000E+00 -0.42644004088E+03  0.42644004088E+03  0.00000000000E+00 0. -1.
         25    2    1    2    0    0 -0.49151936456E+02  0.92415809679E+02  0.28047213290E+02  0.16543728595E+03  0.12500501859E+03 0.  0.
          2    1    1    2  501    0  0.48203178064E+01 -0.34719546693E+02 -0.35626561536E+03  0.35798585318E+03  0.00000000000E+00 0. -1.
          1    1    1    2  502    0  0.44331618649E+02 -0.57696262986E+02  0.21366345851E+04  0.21378731256E+04  0.00000000000E+00 0. -1.
         22    1    3    3    0    0 -0.58481154050E+02  0.39443178548E+02 -0.38108058759E+02  0.80175020146E+02  0.00000000000E+00 0.  1.
         22    1    3    3    0    0  0.93292175947E+01  0.52972631131E+02  0.66155272049E+02  0.85262265803E+02  0.00000000000E+00 0.  1.
</event>
<event>
 7    1  0.6067783E-006  0.4727839E+02  0.7818608E-02  0.1468380E+00
          2   -1    0    0  502    0  0.00000000000E+00  0.00000000000E+00  0.10277853421E+03  0.10277853421E+03  0.00000000000E+00 0. -1.
          1   -1    0    0  501    0 -0.00000000000E+00 -0.00000000000E+00 -0.93903628810E+03  0.93903628810E+03  0.00000000000E+00 0. -1.
         25    2    1    2    0    0 -0.45967527096E+02 -0.31467407560E+02 -0.16104961839E+03  0.21134161519E+03  0.12500034977E+03 0.  0.
          2    1    1    2  501    0  0.45745114454E+02 -0.13228302599E+02 -0.74558416118E+03  0.74710330269E+03  0.00000000000E+00 0. -1.
          1    1    1    2  502    0  0.22241264149E+00  0.44695710159E+02  0.70376025677E+02  0.83369904426E+02  0.00000000000E+00 0. -1.
         22    1    3    3    0    0  0.29649519518E+02  0.27141614881E+02 -0.36555748928E+02  0.54333084264E+02  0.00000000000E+00 0.  1.
         22    1    3    3    0    0 -0.75617046613E+02 -0.58609022440E+02 -0.12449386946E+03  0.15700853092E+03  0.00000000000E+00 0.  1.
</event>
<event>
 7    1  0.6067783E-006  0.1121656E+03  0.7818608E-02  0.1313011E+00
          2   -1    0    0  502    0  0.00000000000E+00  0.00000000000E+00  0.22947558164E+04  0.22947558164E+04  0.00000000000E+00 0. -1.
          1   -1    0    0  501    0 -0.00000000000E+00 -0.00000000000E+00 -0.82796482358E+03  0.82796482358E+03  0.00000000000E+00 0. -1.
         25    2    1    2    0    0  0.78419816289E+02  0.14952673790E+03 -0.70056657700E+01  0.21019425643E+03  0.12499853259E+03 0.  0.
          2    1    1    2  501    0 -0.51170957879E+02 -0.41422380911E+02 -0.71643782871E+03  0.71945635237E+03  0.00000000000E+00 0. -1.
          1    1    1    2  502    0 -0.27248858410E+02 -0.10810435699E+03  0.21902344873E+04  0.21930700312E+04  0.00000000000E+00 0. -1.
         22    1    3    3    0    0 -0.24035364092E+01  0.11030446707E+03 -0.35573480829E+02  0.11592378954E+03  0.00000000000E+00 0. -1.
         22    1    3    3    0    0  0.80823352698E+02  0.39222270828E+02  0.28567815059E+02  0.94270466889E+02  0.00000000000E+00 0. -1.
</event>
<event>
 7    1  0.6067783E-006  0.1088100E+03  0.7818608E-02  0.1384373E+00
          2   -1    0    0  502    0  0.00000000000E+00  0.00000000000E+00  0.19308177020E+04  0.19308177020E+04  0.00000000000E+00 0. -1.
          1   -1    0    0  501    0 -0.00000000000E+00 -0.00000000000E+00 -0.21844102456E+03  0.21844102456E+03  0.00000000000E+00 0. -1.
         25    2    1    2    0    0  0.45884324339E+02 -0.74898324621E+02  0.36595916062E+03  0.39656799742E+03  0.12499975632E+03 0.  0.
          2    1    1    2  501    0 -0.82646726635E+02  0.72254161634E+02 -0.18806780955E+03  0.21776282118E+03  0.00000000000E+00 0. -1.
          1    1    1    2  502    0  0.36762402295E+02  0.26441629876E+01  0.15344853264E+04  0.15349279080E+04  0.00000000000E+00 0. -1.
         22    1    3    3    0    0 -0.14945154896E+02 -0.57327452328E+02  0.29740353723E+03  0.30324686049E+03  0.00000000000E+00 0.  1.
         22    1    3    3    0    0  0.60829479235E+02 -0.17570872294E+02  0.68555623395E+02  0.93321136921E+02  0.00000000000E+00 0.  1.
</event>
<event>
 7    1  0.7241300E-006  0.4680798E+02  0.7818608E-02  0.1554507E+00
          2   -1    0    0  502    0  0.00000000000E+00  0.00000000000E+00  0.81263287735E+03  0.81263287735E+03  0.00000000000E+00 0. -1.
          1   -1    0    0  501    0 -0.00000000000E+00 -0.00000000000E+00 -0.19450945094E+04  0.19450945094E+04  0.00000000000E+00 0. -1.
         25    2    1    2    0    0  0.10364622387E+01 -0.29984293196E+02 -0.35573803632E+03  0.37825280399E+03  0.12500200459E+03 0.  0.
          2    1    1    2  501    0 -0.22282260086E+02 -0.11767276277E+02 -0.15773137407E+04  0.15775150092E+04  0.00000000000E+00 0. -1.
          1    1    1    2  502    0  0.21245797847E+02  0.41751569473E+02  0.80059014490E+03  0.80195957354E+03  0.00000000000E+00 0. -1.
         22    1    3    3    0    0  0.60995971496E+02 -0.36596420186E+01 -0.20480605766E+03  0.21372744974E+03  0.00000000000E+00 0.  1.
         22    1    3    3    0    0 -0.59959509257E+02 -0.26324651177E+02 -0.15093197866E+03  0.16452535425E+03  0.00000000000E+00 0.  1.
</event>
<event>
 7    1  0.6067783E-006  0.4874336E+02  0.7818608E-02  0.1564232E+00
          2   -1    0    0  502    0  0.00000000000E+00  0.00000000000E+00  0.19122606457E+02  0.19122606457E+02  0.00000000000E+00 0. -1.
          1   -1    0    0  501    0 -0.00000000000E+00 -0.00000000000E+00 -0.14193539184E+04  0.14193539184E+04  0.00000000000E+00 0. -1.
         25    2    1    2    0    0  0.56943435068E+02 -0.16783482737E+02 -0.30072895948E+03  0.33104138382E+03  0.12500500247E+03 0.  0.
          2    1    1    2  501    0 -0.38275663818E+02  0.29786891008E+02 -0.10650216737E+04  0.10661254386E+04  0.00000000000E+00 0. -1.
          1    1    1    2  502    0 -0.18667771249E+02 -0.13003408270E+02 -0.34480678793E+02  0.41309702493E+02  0.00000000000E+00 0. -1.
         22    1    3    3    0    0  0.44083055941E+02  0.51024371426E+02 -0.12105747198E+03  0.13857024869E+03  0.00000000000E+00 0.  1.
         22    1    3    3    0    0  0.12860379127E+02 -0.67807854163E+02 -0.17967148750E+03  0.19247113513E+03  0.00000000000E+00 0.  1.
</event>
<event>
 7    1  0.6067783E-006  0.4635156E+02  0.7818608E-02  0.1484200E+00
          2   -1    0    0  502    0  0.00000000000E+00  0.00000000000E+00  0.11459081506E+04  0.11459081506E+04  0.00000000000E+00 0. -1.
          1   -1    0    0  501    0 -0.00000000000E+00 -0.00000000000E+00 -0.34663202986E+03  0.34663202986E+03  0.00000000000E+00 0. -1.
         25    2    1    2    0    0 -0.48186457321E+02 -0.69296043615E+02  0.52008384119E+02  0.15954386638E+03  0.12500198779E+03 0.  0.
          2    1    1    2  501    0  0.14326683996E+02  0.38144469509E+02 -0.29093506082E+03  0.29377451224E+03  0.00000000000E+00 0. -1.
          1    1    1    2  502    0  0.33859773325E+02  0.31151574106E+02  0.10382027974E+04  0.10392218018E+04  0.00000000000E+00 0. -1.
         22    1    3    3    0    0 -0.86312056336E+02 -0.61677637088E+02  0.17418667064E+02  0.10750493918E+03  0.00000000000E+00 0.  1.
         22    1    3    3    0    0  0.38125599015E+02 -0.76184065266E+01  0.34589717055E+02  0.52038927201E+02  0.00000000000E+00 0.  1.
</event>
<event>
 7    1  0.6067783E-006  0.9928167E+02  0.7818608E-02  0.1438692E+00
          2   -1    0    0  502    0  0.00000000000E+00  0.00000000000E+00  0.99985038290E+02  0.99985038290E+02  0.00000000000E+00 0. -1.
          1   -1    0    0  501    0 -0.00000000000E+00 -0.00000000000E+00 -0.30145914881E+04  0.30145914881E+04  0.00000000000E+00 0. -1.
         25    2    1    2    0    0 -0.73050413623E+02  0.95692320175E+02 -0.51691365455E+03  0.54526921759E+03  0.12500164127E+03 0.  0.
          2    1    1    2  501    0  0.68898932681E+02 -0.69560134604E+02 -0.24804712733E+04  0.24824027499E+04  0.00000000000E+00 0. -1.
          1    1    1    2  502    0  0.41514809421E+01 -0.26132185571E+02  0.82778478061E+02  0.86904558838E+02  0.00000000000E+00 0. -1.
         22    1    3    3    0    0 -0.67518375640E+02  0.59406056871E+02 -0.49373333030E+03  0.50185696377E+03  0.00000000000E+00 0.  1.
         22    1    3    3    0    0 -0.55320379828E+01  0.36286263304E+02 -0.23180324249E+02  0.43412253813E+02  0.00000000000E+00 0.  1.
</event>
<event>
 7    1  0.1083963E-005  0.5147922E+02  0.7818608E-02  0.1477174E+00
          2   -1    0    0  502    0  0.00000000000E+00  0.00000000000E+00  0.15831148869E+04  0.15831148869E+04  0.00000000000E+00 0. -1.
          1   -1    0    0  501    0 -0.00000000000E+00 -0.00000000000E+00 -0.14350505342E+04  0.14350505342E+04  0.00000000000E+00 0. -1.
         25    2    1    2    0    0  0.48813691269E+02  0.32897494543E+01 -0.65109655769E+03  0.66478938449E+03  0.12499839757E+03 0.  0.
          2    1    1    2  501    0 -0.40917914563E+02  0.34445508499E+02 -0.77595109034E+03  0.77779230093E+03  0.00000000000E+00 0. -1.
          1    1    1    2  502    0 -0.78957767058E+01 -0.37735257954E+02  0.15751120008E+04  0.15755837356E+04  0.00000000000E+00 0. -1.
         22    1    3    3    0    0  0.65080648911E+02 -0.10746774860E+02 -0.15788521854E+03  0.17111027516E+03  0.00000000000E+00 0. -1.
         22    1    3    3    0    0 -0.16266957642E+02  0.14036524314E+02 -0.49321133914E+03  0.49367910933E+03  0.00000000000E+00 0. -1.
</event>
<event>
 7    1  0.6067783E-006  0.1403083E+03  0.7818608E-02  0.1289542E+00
          2   -1    0    0  502    0  0.00000000000E+00  0.00000000000E+00  0.86378512323E+03  0.86378512323E+03  0.00000000000E+00 0. -1.
          1   -1    0    0  501    0 -0.00000000000E+00 -0.00000000000E+00 -0.18622777878E+04  0.18622777878E+04  0.00000000000E+00 0. -1.
         25    2    1    2    0    0  0.58585436460E+02 -0.96597203998E+02  0.34386271832E+03  0.38292248153E+03  0.12499913850E+03 0.  0.
          2    1    1    2  501    0  0.64930366414E+02 -0.70658936338E+01 -0.18291590071E+04  0.18303247123E+04  0.00000000000E+00 0. -1.
          1    1    1    2  502    0 -0.12351580287E+03  0.10366309763E+03  0.48680362413E+03  0.51281571723E+03  0.00000000000E+00 0. -1.
         22    1    3    3    0    0 -0.21264052524E+01  0.23570235831E+02  0.11488236914E+03  0.11729465613E+03  0.00000000000E+00 0.  1.
         22    1    3    3    0    0  0.60711841713E+02 -0.12016743983E+03  0.22898034918E+03  0.26562782541E+03  0.00000000000E+00 0.  1.
</event>
<event>
 7    1  0.6067783E-006  0.7357516E+02  0.7818608E-02  0.1399687E+00
          2   -1    0    0  502    0  0.00000000000E+00  0.00000000000E+00  0.18613016090E+03  0.18613016090E+03  0.00000000000E+00 0. -1.
          1   -1    0    0  501    0 -0.00000000000E+00 -0.00000000000E+00 -0.23759136269E+03  0.23759136269E+03  0.00000000000E+00 0. -1.
         25    2    1    2    0    0  0.89609876712E+01  0.33893072249E+02 -0.27065033459E+02  0.13262088988E+03  0.12500697880E+03 0.  0.
          2    1    1    2  501    0 -0.24859851147E+01 -0.81671220766E+02 -0.14209300535E+03  0.16391092274E+03  0.00000000000E+00 0. -1.
          1    1    1    2  502    0 -0.64750025565E+01  0.47778148517E+02  0.11769683702E+03  0.12718971098E+03  0.00000000000E+00 0. -1.
         22    1    3    3    0    0 -0.55942532370E+02  0.16043116625E+01 -0.21367110664E+02  0.59905710597E+02  0.00000000000E+00 0. -1.
         22    1    3    3    0    0  0.64903520042E+02  0.32288760586E+02 -0.56979227943E+01  0.72715179283E+02  0.00000000000E+00 0. -1.
</event>
<event>
 7    1  0.6067783E-006  0.6508478E+02  0.7818608E-02  0.1400144E+00
          2   -1    0    0  502    0  0.00000000000E+00  0.00000000000E+00  0.16641450474E+04  0.16641450474E+04  0.00000000000E+00 0. -1.
          1   -1    0    0  501    0 -0.00000000000E+00 -0.00000000000E+00 -0.11374207510E+04  0.11374207510E+04  0.00000000000E+00 0. -1.
         25    2    1    2    0    0 -0.67623797139E+02  0.47858263608E+02  0.31784640493E+03  0.35144566255E+03  0.12499730102E+03 0.  0.
          2    1    1    2  501    0  0.64778674199E+02  0.63748448372E+01 -0.11191204500E+04  0.11210118184E+04  0.00000000000E+00 0. -1.
          1    1    1    2  502    0  0.28451229394E+01 -0.54233108445E+02  0.13279983414E+04  0.13291083175E+04  0.00000000000E+00 0. -1.
         22    1    3    3    0    0 -0.68618248714E+02  0.75515103446E+02  0.15050728578E+03  0.18183354470E+03  0.00000000000E+00 0.  1.
         22    1    3    3    0    0  0.99445157563E+00 -0.27656839838E+02  0.16733911914E+03  0.16961211784E+03  0.00000000000E+00 0.  1.
</event>
<event>
 7    1  0.6067783E-006  0.8052572E+02  0.7818608E-02  0.1383407E+00
          2   -1    0    0  502    0  0.00000000000E+00  0.00000000000E+00  0.39318466212E+03  0.39318466212E+03  0.00000000000E+00 0. -1.
          1   -1    0    0  501    0 -0.00000000000E+00 -0.00000000000E+00 -0.49818929489E+03  0.49818929489E+03  0.00000000000E+00 0. -1.
         25    2    1    2    0    0 -0.21148871573E+02  0.81613772027E+02  0.52021949162E+02  0.15950215616E+03  0.12500628813E+03 0.  0.
          2    1    1    2  501    0 -0.28691754292E+02 -0.75660724366E+02 -0.43852755094E+03  0.44593068398E+03  0.00000000000E+00 0. -1.
          1    1    1    2  502    0  0.49840625865E+02 -0.59530476611E+01  0.28150096901E+03  0.28594111687E+03  0.00000000000E+00 0. -1.
         22    1    3    3    0    0 -0.42153757695E+02 -0.47723595422E+01  0.56302523261E+02  0.70496019951E+02  0.00000000000E+00 0. -1.
         22    1    3    3    0    0  0.21004886121E+02  0.86386131569E+02 -0.42805740998E+01  0.89006136210E+02  0.00000000000E+00 0. -1.
</event>
<event>
 7    1  0.6067783E-006  0.5260504E+02  0.7818608E-02  0.1554469E+00
          2   -1    0    0  502    0  0.00000000000E+00  0.00000000000E+00  0.31178958992E+03  0.31178958992E+03  0.00000000000E+00 0. -1.
          1   -1    0    0  501    0 -0.00000000000E+00 -0.00000000000E+00 -0.28827734911E+04  0.28827734911E+04  0.00000000000E+00 0. -1.
         25    2    1    2    0    0  0.57438854317E+02 -0.10957318523E+02 -0.42301753128E+03  0.44496759267E+03  0.12503216360E+03 0.  0.
          2    1    1    2  501    0 -0.51472932702E+02 -0.10661747591E+02 -0.24480803836E+04  0.24486446660E+04  0.00000000000E+00 0. -1.
          1    1    1    2  502    0 -0.59659216149E+01  0.21619066114E+02  0.30011401373E+03  0.30095082235E+03  0.00000000000E+00 0. -1.
         22    1    3    3    0    0  0.49432233180E+02 -0.58365915387E+02 -0.34458149734E+03  0.35296817713E+03  0.00000000000E+00 0. -1.
         22    1    3    3    0    0  0.80066211371E+01  0.47408596863E+02 -0.78436033942E+02  0.91999415537E+02  0.00000000000E+00 0. -1.
</event>
<event>
 7    1  0.6067783E-006  0.4826979E+02  0.7818608E-02  0.1455226E+00
          2   -1    0    0  502    0  0.00000000000E+00  0.00000000000E+00  0.12008226399E+04  0.12008226399E+04  0.00000000000E+00 0. -1.
          1   -1    0    0  501    0 -0.00000000000E+00 -0.00000000000E+00 -0.17192273213E+03  0.17192273213E+03  0.00000000000E+00 0. -1.
         25    2    1    2    0    0  0.41797418297E+01  0.33636747783E+02  0.16506753991E+03  0.20981039030E+03  0.12499682437E+03 0.  0.
          2    1    1    2  501    0 -0.47391284457E+02 -0.12125465113E+02 -0.14495849026E+03  0.15298994949E+03  0.00000000000E+00 0. -1.
          1    1    1    2  502    0  0.43211542627E+02 -0.21511282670E+02  0.10087908581E+04  0.10099450322E+04  0.00000000000E+00 0. -1.
         22    1    3    3    0    0  0.62958034762E+02  0.14197035620E+02  0.10684393016E+03  0.12482345683E+03  0.00000000000E+00 0.  1.
         22    1    3    3    0    0 -0.58778292932E+02  0.19439712162E+02  0.58223609749E+02  0.84986933473E+02  0.00000000000E+00 0.  1.
</event>
<event>
 7    1  0.6067783E-006  0.5359003E+02  0.7818608E-02  0.1463719E+00
          2   -1    0    0  502    0  0.00000000000E+00  0.00000000000E+00  0.75045749425E+02  0.75045749425E+02  0.00000000000E+00 0. -1.
          1   -1    0    0  501    0 -0.00000000000E+00 -0.00000000000E+00 -0.15323369101E+04  0.15323369101E+04  0.00000000000E+00 0. -1.
         25    2    1    2    0    0  0.88642551975E+01  0.84357045890E+02 -0.20781716900E+03  0.25691766709E+03  0.12499610282E+03 0.  0.
          2    1    1    2  501    0  0.14574105114E+02 -0.50987407748E+02 -0.12911026339E+04  0.12921912132E+04  0.00000000000E+00 0. -1.
          1    1    1    2  502    0 -0.23438360311E+02 -0.33369638142E+02  0.41628642252E+02  0.58273779176E+02  0.00000000000E+00 0. -1.
         22    1    3    3    0    0 -0.32428700319E+02  0.79451212494E+02 -0.19556879341E+03  0.21356794874E+03  0.00000000000E+00 0.  1.
         22    1    3    3    0    0  0.41292955517E+02  0.49058333954E+01 -0.12248375585E+02  0.43349718351E+02  0.00000000000E+00 0.  1.
</event>
<event>
 7    1  0.6067783E-006  0.7911547E+02  0.7818608E-02  0.1480504E+00
          2   -1    0    0  502    0  0.00000000000E+00  0.00000000000E+00  0.83582861270E+02  0.83582861270E+02  0.00000000000E+00 0. -1.
          1   -1    0    0  501    0 -0.00000000000E+00 -0.00000000000E+00 -0.77207372086E+03  0.77207372086E+03  0.00000000000E+00 0. -1.
         25    2    1    2    0    0  0.62010593068E+02 -0.94959451335E+01 -0.64476248475E+03  0.65975661813E+03  0.12499858720E+03 0.  0.
          2    1    1    2  501    0  0.17315988560E+02  0.17334357040E+02 -0.96985817603E+02  0.10003285565E+03  0.00000000000E+00 0. -1.
          1    1    1    2  502    0 -0.79326581629E+02 -0.78384119070E+01  0.53257442760E+02  0.95867108350E+02  0.00000000000E+00 0. -1.
         22    1    3    3    0    0  0.51791699659E+02  0.54406172664E+02 -0.33982782437E+03  0.34803069116E+03  0.00000000000E+00 0. -1.
         22    1    3    3    0    0  0.10218893410E+02 -0.63902117798E+02 -0.30493466038E+03  0.31172592697E+03  0.00000000000E+00 0. -1.
</event>
<event>
 7    1  0.6067783E-006  0.4922312E+03  0.7818608E-02  0.1225612E+00
          2   -1    0    0  502    0  0.00000000000E+00  0.00000000000E+00  0.17205444463E+04  0.17205444463E+04  0.00000000000E+00 0. -1.
          1   -1    0    0  501    0 -0.00000000000E+00 -0.00000000000E+00 -0.17078329863E+04  0.17078329863E+04  0.00000000000E+00 0. -1.
         25    2    1    2    0    0 -0.22348262038E+03 -0.41457566337E+03 -0.52034367061E+03  0.71288075342E+03  0.12499588304E+03 0.  0.
          2    1    1    2  501    0  0.23286011271E+03  0.44829323037E+03 -0.10325502510E+04  0.11495001842E+04  0.00000000000E+00 0. -1.
          1    1    1    2  502    0 -0.93774923296E+01 -0.33717566995E+02  0.15656053816E+04  0.15659964951E+04  0.00000000000E+00 0. -1.
         22    1    3    3    0    0 -0.14300378715E+03 -0.33872190942E+03 -0.33691702202E+03  0.49869398913E+03  0.00000000000E+00 0. -1.
         22    1    3    3    0    0 -0.80478833222E+02 -0.75853753951E+02 -0.18342664859E+03  0.21418676429E+03  0.00000000000E+00 0. -1.
</event>
<event>
 7    1  0.6067783E-006  0.1328018E+03  0.7818608E-02  0.1254805E+00
          2   -1    0    0  502    0  0.00000000000E+00  0.00000000000E+00  0.24771359551E+03  0.24771359551E+03  0.00000000000E+00 0. -1.
          1   -1    0    0  501    0 -0.00000000000E+00 -0.00000000000E+00 -0.38500791358E+04  0.38500791358E+04  0.00000000000E+00 0. -1.
         25    2    1    2    0    0  0.13940260545E+03 -0.69664329173E+02 -0.37008352770E+03  0.42056227807E+03  0.12499842836E+03 0.  0.
          2    1    1    2  501    0 -0.88188717342E+01  0.96041134152E+02 -0.34340746168E+04  0.34354286699E+04  0.00000000000E+00 0. -1.
          1    1    1    2  502    0 -0.13058373372E+03 -0.26376804979E+02  0.20179260419E+03  0.24180178341E+03  0.00000000000E+00 0. -1.
         22    1    3    3    0    0  0.12512465975E+03  0.28163585207E+00 -0.19754318954E+03  0.23383663428E+03  0.00000000000E+00 0. -1.
         22    1    3    3    0    0  0.14277945704E+02 -0.69945965025E+02 -0.17254033816E+03  0.18672564379E+03  0.00000000000E+00 0. -1.
</event>
<event>
 7    1  0.6067783E-006  0.4059090E+02  0.7818608E-02  0.1568028E+00
          2   -1    0    0  502    0  0.00000000000E+00  0.00000000000E+00  0.75995480318E+03  0.75995480318E+03  0.00000000000E+00 0. -1.
          1   -1    0    0  501    0 -0.00000000000E+00 -0.00000000000E+00 -0.41061474005E+02  0.41061474005E+02  0.00000000000E+00 0. -1.
         25    2    1    2    0    0  0.65565879776E+00  0.20097372829E+02  0.48365815858E+03  0.49995426850E+03  0.12499888780E+03 0.  0.
          2    1    1    2  501    0  0.21241057318E+02 -0.35332192017E+02 -0.19026888742E+02  0.45404502023E+02  0.00000000000E+00 0. -1.
          1    1    1    2  502    0 -0.21896716116E+02  0.15234819188E+02  0.25426205934E+03  0.25565750666E+03  0.00000000000E+00 0. -1.
         22    1    3    3    0    0  0.14611558198E+02 -0.51256707571E+02  0.18089094722E+03  0.18857964495E+03  0.00000000000E+00 0.  1.
         22    1    3    3    0    0 -0.13955899401E+02  0.71354080400E+02  0.30276721136E+03  0.31137462355E+03  0.00000000000E+00 0.  1.
</event>
<event>
 7    1  0.6067783E-006  0.1333268E+03  0.7818608E-02  0.1375331E+00
          2   -1    0    0  502    0  0.00000000000E+00  0.00000000000E+00  0.16587903318E+04  0.16587903318E+04  0.00000000000E+00 0. -1.
          1   -1    0    0  501    0 -0.00000000000E+00 -0.00000000000E+00 -0.64717252016E+03  0.64717252016E+03  0.00000000000E+00 0. -1.
         25    2    1    2    0    0  0.65655656824E+02 -0.12847822631E+03 -0.95108014560E+02  0.21328043760E+03  0.12500276286E+03 0.  0.
          2    1    1    2  501    0 -0.32378567323E+02 -0.48878900914E+00 -0.48967022020E+03  0.49073978347E+03  0.00000000000E+00 0. -1.
          1    1    1    2  502    0 -0.33277089502E+02  0.12896701532E+03  0.15963960464E+04  0.16019426309E+04  0.00000000000E+00 0. -1.
         22    1    3    3    0    0 -0.26981598166E+02  0.29953763035E+00 -0.33704914055E+02  0.43175428126E+02  0.00000000000E+00 0. -1.
         22    1    3    3    0    0  0.92637254991E+02 -0.12877776394E+03 -0.61403100504E+02  0.17010500948E+03  0.00000000000E+00 0. -1.
</event>
<event>
 7    1  0.6067783E-006  0.8872709E+02  0.7818608E-02  0.1373822E+00
          2   -1    0    0  502    0  0.00000000000E+00  0.00000000000E+00  0.29425636248E+04  0.29425636248E+04  0.00000000000E+00 0. -1.
          1   -1    0    0  501    0 -0.00000000000E+00 -0.00000000000E+00 -0.64084325735E+03  0.64084325735E+03  0.00000000000E+00 0. -1.
         25    2    1    2    0    0  0.15720193356E+02  0.60605577007E+02  0.27255410608E+03  0.30631722460E+03  0.12499736358E+03 0.  0.
          2    1    1    2  501    0 -0.64985955369E+02 -0.60985226573E+02 -0.62054930277E+03  0.62691611035E+03  0.00000000000E+00 0. -1.
          1    1    1    2  502    0  0.49265762013E+02  0.37964956659E+00  0.26497155642E+04  0.26501735472E+04  0.00000000000E+00 0. -1.
         22    1    3    3    0    0  0.67540353806E+02  0.16939320889E+02  0.10978389002E+03  0.13000439412E+03  0.00000000000E+00 0.  1.
         22    1    3    3    0    0 -0.51820160451E+02  0.43666256118E+02  0.16277021606E+03  0.17631283047E+03  0.00000000000E+00 0.  1.
</event>
<event>
 7    1  0.6067783E-006  0.7791473E+02  0.7818608E-02  0.1383930E+00
          2   -1    0    0  502    0  0.00000000000E+00  0.00000000000E+00  0.50520550657E+02  0.50520550657E+02  0.00000000000E+00 0. -1.
          1   -1    0    0  501    0 -0.00000000000E+00 -0.00000000000E+00 -0.63436354514E+03  0.63436354514E+03  0.00000000000E+00 0. -1.
         25    2    1    2    0    0  0.60864872196E+02 -0.18376151030E+02 -0.27285556427E+03  0.30678637550E+03  0.12500202256E+03 0.  0.
          2    1    1    2  501    0  0.16215425599E+02  0.49046334813E+02 -0.28718298168E+03  0.29179196006E+03  0.00000000000E+00 0. -1.
          1    1    1    2  502    0 -0.77080297795E+02 -0.30670183783E+02 -0.23804448536E+02  0.86305760245E+02  0.00000000000E+00 0. -1.
         22    1    3    3    0    0 -0.32560457899E+02  0.73861483195E+01 -0.12958364451E+03  0.13381576712E+03  0.00000000000E+00 0. -1.
         22    1    3    3    0    0  0.93425330095E+02 -0.25762299349E+02 -0.14327191976E+03  0.17297060838E+03  0.00000000000E+00 0. -1.
</event>
<event>
 7    1  0.6067783E-006  0.5877869E+02  0.7818608E-02  0.1482006E+00
          2   -1    0    0  502    0  0.00000000000E+00  0.00000000000E+00  0.19013523075E+03  0.19013523075E+03  0.00000000000E+00 0. -1.
          1   -1    0    0  501    0 -0.00000000000E+00 -0.00000000000E+00 -0.81734276920E+03  0.81734276920E+03  0.00000000000E+00 0. -1.
         25    2    1    2    0    0 -0.32668844103E+02 -0.11096623835E+02  0.27766591969E+02  0.13261599836E+03  0.12500252380E+03 0.  0.
          2    1    1    2  501    0  0.58520892198E+02 -0.88148837653E+01 -0.76132291294E+03  0.76361965321E+03  0.00000000000E+00 0. -1.
          1    1    1    2  502    0 -0.25852048095E+02  0.19911507601E+02  0.10634878253E+03  0.11124234837E+03  0.00000000000E+00 0. -1.
         22    1    3    3    0    0 -0.64898354147E+02  0.42446223757E+01  0.56998582268E+02  0.86479197329E+02  0.00000000000E+00 0.  1.
         22    1    3    3    0    0  0.32229510044E+02 -0.15341246211E+02 -0.29231990299E+02  0.46136801036E+02  0.00000000000E+00 0.  1.
</event>
<event>
 7    1  0.6067783E-006  0.9272377E+02  0.7818608E-02  0.1426202E+00
          2   -1    0    0  502    0  0.00000000000E+00  0.00000000000E+00  0.94814139473E+03  0.94814139473E+03  0.00000000000E+00 0. -1.
          1   -1    0    0  501    0 -0.00000000000E+00 -0.00000000000E+00 -0.13641933250E+03  0.13641933250E+03  0.00000000000E+00 0. -1.
         25    2    1    2    0    0 -0.35187209944E+02 -0.78315557899E+02  0.14346311756E+03  0.20874987832E+03  0.12499351683E+03 0.  0.
          2    1    1    2  501    0  0.64676120352E+02  0.68327355941E+02 -0.82062674391E+02  0.12484354465E+03  0.00000000000E+00 0. -1.
          1    1    1    2  502    0 -0.29488910408E+02  0.99882019577E+01  0.75032161907E+03  0.75096730425E+03  0.00000000000E+00 0. -1.
         22    1    3    3    0    0  0.27400271574E+02 -0.63300953221E+02  0.23966186608E+02  0.73021665699E+02  0.00000000000E+00 0.  1.
         22    1    3    3    0    0 -0.62587481518E+02 -0.15014604678E+02  0.11949693095E+03  0.13572821262E+03  0.00000000000E+00 0.  1.
</event>
<event>
 7    1  0.6067783E-006  0.1360997E+03  0.7818608E-02  0.1350070E+00
          2   -1    0    0  502    0  0.00000000000E+00  0.00000000000E+00  0.11022046564E+03  0.11022046564E+03  0.00000000000E+00 0. -1.
          1   -1    0    0  501    0 -0.00000000000E+00 -0.00000000000E+00 -0.78163172265E+03  0.78163172265E+03  0.00000000000E+00 0. -1.
         25    2    1    2    0    0 -0.53512972649E+02  0.12126280811E+03 -0.43495883950E+03  0.47157141289E+03  0.12498839357E+03 0.  0.
          2    1    1    2  501    0  0.90641727556E+02 -0.10871604895E+03 -0.30785143980E+03  0.33883271840E+03  0.00000000000E+00 0. -1.
          1    1    1    2  502    0 -0.37128754907E+02 -0.12546759155E+02  0.71399022281E+02  0.81448057000E+02  0.00000000000E+00 0. -1.
         22    1    3    3    0    0  0.10783925699E+02 -0.17142912859E+02 -0.16405320648E+02  0.26063519723E+02  0.00000000000E+00 0.  1.
         22    1    3    3    0    0 -0.64296898348E+02  0.13840572097E+03 -0.41855351885E+03  0.44550789317E+03  0.00000000000E+00 0.  1.
</event>
<event>
 7    1  0.6067783E-006  0.9405388E+02  0.7818608E-02  0.1319642E+00
          2   -1    0    0  502    0  0.00000000000E+00  0.00000000000E+00  0.50272415065E+02  0.50272415065E+02  0.00000000000E+00 0. -1.
          1   -1    0    0  501    0 -0.00000000000E+00 -0.00000000000E+00 -0.27998785603E+04  0.27998785603E+04  0.00000000000E+00 0. -1.
         25    2    1    2    0    0  0.11028176132E+03 -0.89753997081E+02 -0.14375825567E+04  0.14499952398E+04  0.12499896462E+03 0.  0.
          2    1    1    2  501    0 -0.82881103324E+02  0.21044398063E+02 -0.13226617469E+04  0.13254230422E+04  0.00000000000E+00 0. -1.
          1    1    1    2  502    0 -0.27400658000E+02  0.68709599018E+02  0.10638158356E+02  0.74732693443E+02  0.00000000000E+00 0. -1.
         22    1    3    3    0    0  0.12818669496E+03 -0.93991042758E+02 -0.10487346489E+04  0.10607122648E+04  0.00000000000E+00 0. -1.
         22    1    3    3    0    0 -0.17904933640E+02  0.42370456766E+01 -0.38884790780E+03  0.38928297497E+03  0.00000000000E+00 0. -1.
</event>
<event>
 7    1  0.6067783E-006  0.8688533E+02  0.7818608E-02  0.1435665E+00
          2   -1    0    0  502    0  0.00000000000E+00  0.00000000000E+00  0.19124993799E+04  0.19124993799E+04  0.00000000000E+00 0. -1.
          1   -1    0    0  501    0 -0.00000000000E+00 -0.00000000000E+00 -0.13155575658E+02  0.13155575658E+02  0.00000000000E+00 0. -1.
         25    2    1    2    0    0  0.41699468824E+02 -0.50757585746E+02  0.88141032035E+03  0.89265048024E+03  0.12500219534E+03 0.  0.
          2    1    1    2  501    0  0.12304566770E+02 -0.28376700215E+02  0.40865325046E+02  0.51250505067E+02  0.00000000000E+00 0. -1.
          1    1    1    2  502    0 -0.54004035594E+02  0.79134285962E+02  0.97706815883E+03  0.98175397023E+03  0.00000000000E+00 0. -1.
         22    1    3    3    0    0  0.25604392002E+02  0.35236800043E+02  0.15543592870E+03  0.16142349550E+03  0.00000000000E+00 0.  1.
         22    1    3    3    0    0  0.16095076823E+02 -0.85994385789E+02  0.72597439165E+03  0.73122698474E+03  0.00000000000E+00 0.  1.
</event>
<event>
 7    1  0.6067783E-006  0.3725637E+02  0.7818608E-02  0.1546868E+00
          2   -1    0    0  502    0  0.00000000000E+00  0.00000000000E+00  0.16298151534E+04  0.16298151534E+04  0.00000000000E+00 0. -1.
          1   -1    0    0  501    0 -0.00000000000E+00 -0.00000000000E+00 -0.49772476640E+03  0.49772476640E+03  0.00000000000E+00 0. -1.
         25    2    1    2    0    0 -0.23746687591E+02 -0.53375595159E+02  0.19173965791E+03  0.23620360929E+03  0.12496075103E+03 0.  0.
          2    1    1    2  501    0 -0.51115881717E+01  0.36861447794E+02 -0.47456904982E+03  0.47602592126E+03  0.00000000000E+00 0. -1.
          1    1    1    2  502    0  0.28858275763E+02  0.16514147365E+02  0.14149197789E+04  0.14153103892E+04  0.00000000000E+00 0. -1.
         22    1    3    3    0    0  0.49513030852E+02 -0.48190256488E+01  0.61878203799E+02  0.79395688408E+02  0.00000000000E+00 0. -1.
         22    1    3    3    0    0 -0.73259718443E+02 -0.48556569510E+02  0.12986145411E+03  0.15680792088E+03  0.00000000000E+00 0. -1.
</event>
<event>
 7    1  0.6067783E-006  0.2663842E+03  0.7818608E-02  0.1276315E+00
          2   -1    0    0  502    0  0.00000000000E+00  0.00000000000E+00  0.58680757476E+03  0.58680757476E+03  0.00000000000E+00 0. -1.
          1   -1    0    0  501    0 -0.00000000000E+00 -0.00000000000E+00 -0.49051624016E+03  0.49051624016E+03  0.00000000000E+00 0. -1.
         25    2    1    2    0    0 -0.24338664626E+03 -0.27668417997E+02  0.90964950652E+02  0.28966003687E+03  0.12500285508E+03 0.  0.
          2    1    1    2  501    0 -0.28379400944E+02 -0.26740987268E+02 -0.34148813088E+03  0.34370716363E+03  0.00000000000E+00 0. -1.
          1    1    1    2  502    0  0.27176604721E+03  0.54409405265E+02  0.34681451483E+03  0.44395661443E+03  0.00000000000E+00 0. -1.
         22    1    3    3    0    0 -0.24422216351E+03 -0.52206041709E+02  0.76640309901E+02  0.26123490012E+03  0.00000000000E+00 0. -1.
         22    1    3    3    0    0  0.83551724423E+00  0.24537623712E+02  0.14324640750E+02  0.28425136748E+02  0.00000000000E+00 0. -1.
</event>
<event>
 7    1  0.6067783E-006  0.5802874E+02  0.7818608E-02  0.1516930E+00
          2   -1    0    0  502    0  0.00000000000E+00  0.00000000000E+00  0.42016087596E+03  0.42016087596E+03  0.00000000000E+00 0. -1.
          1   -1    0    0  501    0 -0.00000000000E+00 -0.00000000000E+00 -0.39093573511E+03  0.39093573511E+03  0.00000000000E+00 0. -1.
         25    2    1    2    0    0 -0.22510230462E+02  0.56916742966E+02 -0.88438645909E+02  0.16490409754E+03  0.12500296473E+03 0.  0.
          2    1    1    2  501    0  0.42264975432E+02 -0.40019249838E+02 -0.26060785035E+03  0.26702868791E+03  0.00000000000E+00 0. -1.
          1    1    1    2  502    0 -0.19754744970E+02 -0.16897493128E+02  0.37827163710E+03  0.37916382562E+03  0.00000000000E+00 0. -1.
         22    1    3    3    0    0  0.24878632771E+02  0.88509307871E+01 -0.93556848417E+02  0.97211980898E+02  0.00000000000E+00 0.  1.
         22    1    3    3    0    0 -0.47388863233E+02  0.48065812179E+02  0.51182025082E+01  0.67692116645E+02  0.00000000000E+00 0.  1.
</event>
<event>
 7    1  0.6067783E-006  0.7224732E+02  0.7818608E-02  0.1376415E+00
          2   -1    0    0  502    0  0.00000000000E+00  0.00000000000E+00  0.25669341223E+04  0.25669341223E+04  0.00000000000E+00 0. -1.
          1   -1    0    0  501    0 -0.00000000000E+00 -0.00000000000E+00 -0.74137661202E+03  0.74137661202E+03  0.00000000000E+00 0. -1.
         25    2    1    2    0    0  0.10032283985E+03 -0.24844942021E+01  0.29141038732E+03  0.33259126329E+03  0.12500435861E+03 0.  0.
          2    1    1    2  501    0 -0.57605272234E+02  0.43513271829E+02 -0.71858827396E+03  0.72220556609E+03  0.00000000000E+00 0. -1.
          1    1    1    2  502    0 -0.42717567616E+02 -0.41028777627E+02  0.22527353969E+04  0.22535139049E+04  0.00000000000E+00 0. -1.
         22    1    3    3    0    0  0.83730122942E+02 -0.33252523346E+02  0.28249844964E+03  0.29651616794E+03  0.00000000000E+00 0. -1.
         22    1    3    3    0    0  0.16592716907E+02  0.30768029144E+02  0.89119376806E+01  0.36075095356E+02  0.00000000000E+00 0. -1.
</event>
<event>
 7    1  0.6067783E-006  0.3858735E+02  0.7818608E-02  0.1554491E+00
          2   -1    0    0  502    0  0.00000000000E+00  0.00000000000E+00  0.34628954189E+03  0.34628954189E+03  0.00000000000E+00 0. -1.
          1   -1    0    0  501    0 -0.00000000000E+00 -0.00000000000E+00 -0.15126154505E+04  0.15126154505E+04  0.00000000000E+00 0. -1.
         25    2    1    2    0    0  0.50813406950E+02 -0.40169965861E+01  0.11140823266E+03  0.17502685576E+03  0.12499786936E+03 0.  0.
          2    1    1    2  501    0 -0.29007140869E+02  0.25441295510E+02 -0.14794027172E+04  0.14799057651E+04  0.00000000000E+00 0. -1.
          1    1    1    2  502    0 -0.21806266081E+02 -0.21424298924E+02  0.20166857597E+03  0.20397237156E+03  0.00000000000E+00 0. -1.
         22    1    3    3    0    0 -0.15371964845E+02 -0.50714707699E+02  0.33847411581E+02  0.62880252472E+02  0.00000000000E+00 0. -1.
         22    1    3    3    0    0  0.66185371794E+02  0.46697711113E+02  0.77560821080E+02  0.11214660329E+03  0.00000000000E+00 0. -1.
</event>
<event>
 7    1  0.8163897E-006  0.1075989E+03  0.7818608E-02  0.1268832E+00
          2   -1    0    0  502    0  0.00000000000E+00  0.00000000000E+00  0.12929207732E+04  0.12929207732E+04  0.00000000000E+00 0. -1.
          1   -1    0    0  501    0 -0.00000000000E+00 -0.00000000000E+00 -0.13782522412E+04  0.13782522412E+04  0.00000000000E+00 0. -1.
         25    2    1    2    0    0 -0.94349146531E+00  0.55850628831E+01 -0.10637114596E+03  0.16423374794E+03  0.12500328062E+03 0.  0.
          2    1    1    2  501    0 -0.68894966664E+01  0.10351944161E+03 -0.12384100860E+04  0.12427482775E+04  0.00000000000E+00 0. -1.
          1    1    1    2  502    0  0.78329881317E+01 -0.10910450449E+03  0.12594497640E+04  0.12641909890E+04  0.00000000000E+00 0. -1.
         22    1    3    3    0    0 -0.53632311135E+02  0.31518755383E+02 -0.33532670979E+02  0.70670338627E+02  0.00000000000E+00 0. -1.
         22    1    3    3    0    0  0.52688819670E+02 -0.25933692500E+02 -0.72838474982E+02  0.93563409315E+02  0.00000000000E+00 0. -1.
</event>
<event>
 7    1  0.6067783E-006  0.5422869E+02  0.7818608E-02  0.1522503E+00
          2   -1    0    0  502    0  0.00000000000E+00  0.00000000000E+00  0.17544061160E+04  0.17544061160E+04  0.00000000000E+00 0. -1.
          1   -1    0    0  501    0 -0.00000000000E+00 -0.00000000000E+00 -0.10990084208E+03  0.10990084208E+03  0.00000000000E+00 0. -1.
         25    2    1    2    0    0 -0.50606126866E+01  0.72892023589E+02  0.23310364178E+03  0.27440968479E+03  0.12499804154E+03 0.  0.
          2    1    1    2  501    0 -0.14333920837E+02 -0.22644094930E+02 -0.86741048837E+02  0.90786705387E+02  0.00000000000E+00 0. -1.
          1    1    1    2  502    0  0.19394533524E+02 -0.50247928659E+02  0.14981426809E+04  0.14991105679E+04  0.00000000000E+00 0. -1.
         22    1    3    3    0    0 -0.34361752564E+02  0.38461842602E+02  0.18031125457E+02  0.54636662241E+02  0.00000000000E+00 0. -1.
         22    1    3    3    0    0  0.29301139877E+02  0.34430180987E+02  0.21507251632E+03  0.21977302255E+03  0.00000000000E+00 0. -1.
</event>
<event>
 7    1  0.6067783E-006  0.6670640E+02  0.7818608E-02  0.1475350E+00
          2   -1    0    0  502    0  0.00000000000E+00  0.00000000000E+00  0.24982266696E+03  0.24982266696E+03  0.00000000000E+00 0. -1.
          1   -1    0    0  501    0 -0.00000000000E+00 -0.00000000000E+00 -0.28271716210E+03  0.28271716210E+03  0.00000000000E+00 0. -1.
         25    2    1    2    0    0  0.35110553885E+01 -0.67092113032E+02  0.14479246509E+03  0.20272540088E+03  0.12497620202E+03 0.  0.
          2    1    1    2  501    0 -0.29929698961E+02  0.35538316511E+01 -0.23703591446E+03  0.23894443150E+03  0.00000000000E+00 0. -1.
          1    1    1    2  502    0  0.26418643572E+02  0.63538281381E+02  0.59348954229E+02  0.90869996682E+02  0.00000000000E+00 0. -1.
         22    1    3    3    0    0  0.39897224109E+02 -0.10302680845E+02  0.12620969743E+03  0.13276604027E+03  0.00000000000E+00 0.  1.
         22    1    3    3    0    0 -0.36386168721E+02 -0.56789432186E+02  0.18582767662E+02  0.69959360605E+02  0.00000000000E+00 0.  1.
</event>
<event>
 7    1  0.6067783E-006  0.1038895E+03  0.7818608E-02  0.1379454E+00
          2   -1    0    0  502    0  0.00000000000E+00  0.00000000000E+00  0.31116542038E+03  0.31116542038E+03  0.00000000000E+00 0. -1.
          1   -1    0    0  501    0 -0.00000000000E+00 -0.00000000000E+00 -0.40393534898E+03  0.40393534898E+03  0.00000000000E+00 0. -1.
         25    2    1    2    0    0 -0.77493774247E+02  0.20379957960E+02  0.11566634996E+03  0.18821379460E+03  0.12500040093E+03 0.  0.
          2    1    1    2  501    0 -0.33115533045E+02  0.22752390980E+02 -0.34419916965E+03  0.34653625815E+03  0.00000000000E+00 0. -1.
          1    1    1    2  502    0  0.11060930729E+03 -0.43132348939E+02  0.13576289109E+03  0.18035071661E+03  0.00000000000E+00 0. -1.
         22    1    3    3    0    0 -0.50425038348E+02  0.66825815036E+02  0.10345923620E+03  0.13308714289E+03  0.00000000000E+00 0.  1.
         22    1    3    3    0    0 -0.27068735898E+02 -0.46445857076E+02  0.12207113759E+02  0.55126651712E+02  0.00000000000E+00 0.  1.
</event>
<event>
 7    1  0.6067783E-006  0.7163660E+02  0.7818608E-02  0.1515889E+00
          2   -1    0    0  502    0  0.00000000000E+00  0.00000000000E+00  0.68754950773E+03  0.68754950773E+03  0.00000000000E+00 0. -1.
          1   -1    0    0  501    0 -0.00000000000E+00 -0.00000000000E+00 -0.22728390629E+03  0.22728390629E+03  0.00000000000E+00 0. -1.
         25    2    1    2    0    0  0.44375907430E+02  0.48266906321E+02 -0.38061770281E+01  0.14120530878E+03  0.12500214734E+03 0.  0.
          2    1    1    2  501    0 -0.13264693397E+02  0.16544427975E+02 -0.15195150674E+03  0.15342402220E+03  0.00000000000E+00 0. -1.
          1    1    1    2  502    0 -0.31111214034E+02 -0.64811334296E+02  0.61602328521E+03  0.62020408304E+03  0.00000000000E+00 0. -1.
         22    1    3    3    0    0 -0.10564109995E+02  0.49786379275E+02  0.44823376693E+02  0.67819017093E+02  0.00000000000E+00 0.  1.
         22    1    3    3    0    0  0.54940017426E+02 -0.15194729536E+01 -0.48629553721E+02  0.73386291689E+02  0.00000000000E+00 0.  1.
</event>
<event>
 7    1  0.6067783E-006  0.1571298E+03  0.7818608E-02  0.1357032E+00
          2   -1    0    0  502    0  0.00000000000E+00  0.00000000000E+00  0.31516437442E+03  0.31516437442E+03  0.00000000000E+00 0. -1.
          1   -1    0    0  501    0 -0.00000000000E+00 -0.00000000000E+00 -0.74624506905E+03  0.74624506905E+03  0.00000000000E+00 0. -1.
         25    2    1    2    0    0 -0.54756896630E+01 -0.18478306492E+03 -0.20571962142E+03  0.30351370320E+03  0.12500096454E+03 0.  0.
          2    1    1    2  501    0  0.10679469010E+02  0.30164064588E+02 -0.46856470346E+03  0.46965604774E+03  0.00000000000E+00 0. -1.
          1    1    1    2  502    0 -0.52037793473E+01  0.15461900033E+03  0.24320363024E+03  0.28823969253E+03  0.00000000000E+00 0. -1.
         22    1    3    3    0    0  0.64419377692E+01 -0.85474064605E+02 -0.13424933249E+02  0.86761414898E+02  0.00000000000E+00 0.  1.
         22    1    3    3    0    0 -0.11917627432E+02 -0.99309000316E+02 -0.19229468817E+03  0.21675228831E+03  0.00000000000E+00 0.  1.
</event>
<event>
 7    1  0.6067783E-006  0.6411157E+02  0.7818608E-02  0.1507823E+00
          2   -1    0    0  502    0  0.00000000000E+00  0.00000000000E+00  0.73902780720E+03  0.73902780720E+03  0.00000000000E+00 0. -1.
          1   -1    0    0  501    0 -0.00000000000E+00 -0.00000000000E+00 -0.25116206868E+03  0.25116206868E+03  0.00000000000E+00 0. -1.
         25    2    1    2    0    0 -0.25891323935E+02 -0.60027787101E+02  0.19527324010E+03  0.24088914820E+03  0.12498898969E+03 0.  0.
          2    1    1    2  501    0  0.24641023133E+02 -0.43520041462E+01 -0.22567016470E+03  0.22705317262E+03  0.00000000000E+00 0. -1.
          1    1    1    2  502    0  0.12503008025E+01  0.64379791247E+02  0.51826266312E+03  0.52224755505E+03  0.00000000000E+00 0. -1.
         22    1    3    3    0    0 -0.65344238176E+02 -0.45872761331E+01  0.57220075136E+02  0.86977293380E+02  0.00000000000E+00 0. -1.
         22    1    3    3    0    0  0.39452914240E+02 -0.55440510968E+02  0.13805316497E+03  0.15391185482E+03  0.00000000000E+00 0. -1.
</event>
<event>
 7    1  0.6067783E-006  0.9721424E+02  0.7818608E-02  0.1445703E+00
          2   -1    0    0  502    0  0.00000000000E+00  0.00000000000E+00  0.46053215011E+03  0.46053215011E+03  0.00000000000E+00 0. -1.
          1   -1    0    0  501    0 -0.00000000000E+00 -0.00000000000E+00 -0.30432453066E+03  0.30432453066E+03  0.00000000000E+00 0. -1.
         25    2    1    2    0    0 -0.11657792211E+02  0.74280928449E+02  0.90395229693E+02  0.17160804739E+03  0.12499785569E+03 0.  0.
          2    1    1    2  501    0  0.39089531333E+01 -0.98729889565E+02 -0.25393155106E+03  0.27247771217E+03  0.00000000000E+00 0. -1.
          1    1    1    2  502    0  0.77488390782E+01  0.24448961116E+02  0.31974394081E+03  0.32077092121E+03  0.00000000000E+00 0. -1.
         22    1    3    3    0    0 -0.34194792167E+02 -0.21251006231E+02  0.33200240076E+01  0.40396926078E+02  0.00000000000E+00 0. -1.
         22    1    3    3    0    0  0.22536999955E+02  0.95531934681E+02  0.87075205685E+02  0.13121112131E+03  0.00000000000E+00 0. -1.
</event>
<event>
 7    1  0.6067783E-006  0.2869281E+02  0.7818608E-02  0.1649056E+00
          2   -1    0    0  502    0  0.00000000000E+00  0.00000000000E+00  0.17690507674E+04  0.17690507674E+04  0.00000000000E+00 0. -1.
          1   -1    0    0  501    0 -0.00000000000E+00 -0.00000000000E+00 -0.20771486053E+03  0.20771486053E+03  0.00000000000E+00 0. -1.
         25    2    1    2    0    0  0.34429527393E+01 -0.57846490767E+01  0.48156339289E+02  0.13412413031E+03  0.12499973292E+03 0.  0.
          2    1    1    2  501    0 -0.13308654982E+01  0.28981332549E+02 -0.16337207020E+03  0.16592806321E+03  0.00000000000E+00 0. -1.
          1    1    1    2  502    0 -0.21120872411E+01 -0.23196683472E+02  0.16765516377E+04  0.16767134344E+04  0.00000000000E+00 0. -1.
         22    1    3    3    0    0 -0.34733978775E+02  0.33584895516E+02  0.60983853417E+02  0.77803758688E+02  0.00000000000E+00 0.  1.
         22    1    3    3    0    0  0.38176931514E+02 -0.39369544593E+02 -0.12827514128E+02  0.56320371625E+02  0.00000000000E+00 0.  1.
</event>
<event>
 7    1  0.6067783E-006  0.1763430E+03  0.7818608E-02  0.1185330E+00
          2   -1    0    0  502    0  0.00000000000E+00  0.00000000000E+00  0.62672808500E+03  0.62672808500E+03  0.00000000000E+00 0. -1.
          1   -1    0    0  501    0 -0.00000000000E+00 -0.00000000000E+00 -0.52210142143E+03  0.52210142143E+03  0.00000000000E+00 0. -1.
         25    2    1    2    0    0  0.15211442217E+03  0.99306704139E+01  0.70453231045E+02  0.20935045838E+03  0.12500616390E+03 0.  0.
          2    1    1    2  501    0 -0.14544982157E+02 -0.14999793746E+03 -0.41917694159E+03  0.44544387538E+03  0.00000000000E+00 0. -1.
          1    1    1    2  502    0 -0.13756944001E+03  0.14006726704E+03  0.45335037412E+03  0.49403517267E+03  0.00000000000E+00 0. -1.
         22    1    3    3    0    0 -0.21271637106E+02  0.10368094005E+02  0.64398052760E+01  0.24524498169E+02  0.00000000000E+00 0. -1.
         22    1    3    3    0    0  0.17338605928E+03 -0.43742359089E+00  0.64013425769E+02  0.18482596021E+03  0.00000000000E+00 0. -1.
</event>
<event>
 7    1  0.6067783E-006  0.1241206E+03  0.7818608E-02  0.1244820E+00
          2   -1    0    0  502    0  0.00000000000E+00  0.00000000000E+00  0.20679439101E+04  0.20679439101E+04  0.00000000000E+00 0. -1.
          1   -1    0    0  501    0 -0.00000000000E+00 -0.00000000000E+00 -0.64309893350E+02  0.64309893350E+02  0.00000000000E+00 0. -1.
         25    2    1    2    0    0 -0.10459971727E+03 -0.57622636964E+01  0.91780177522E+03  0.93217973176E+03  0.12499859662E+03 0.  0.
          2    1    1    2  501    0  0.28676382321E+01 -0.11398056139E+03  0.11818013329E+02  0.11462747124E+03  0.00000000000E+00 0. -1.
          1    1    1    2  502    0  0.10173207904E+03  0.11974282509E+03  0.10740142282E+04  0.10854466004E+04  0.00000000000E+00 0. -1.
         22    1    3    3    0    0 -0.69362951238E+02 -0.26590241959E+02  0.84810664926E+03  0.85135371526E+03  0.00000000000E+00 0.  1.
         22    1    3    3    0    0 -0.35236766036E+02  0.20827978262E+02  0.69695125963E+02  0.80826016494E+02  0.00000000000E+00 0.  1.
</event>
<event>
 7    1  0.6067783E-006  0.1266744E+03  0.7818608E-02  0.1251994E+00
          2   -1    0    0  502    0  0.00000000000E+00  0.00000000000E+00  0.59754483493E+03  0.59754483493E+03  0.00000000000E+00 0. -1.
          1   -1    0    0  501    0 -0.00000000000E+00 -0.00000000000E+00 -0.73992116810E+03  0.73992116810E+03  0.00000000000E+00 0. -1.
         25    2    1    2    0    0 -0.12387848927E+03 -0.10151391231E+03 -0.10347336733E+03  0.22799284419E+03  0.12499217880E+03 0.  0.
          2    1    1    2  501    0  0.12669844057E+03 -0.24206819201E+01 -0.56201713133E+03  0.57612638409E+03  0.00000000000E+00 0. -1.
          1    1    1    2  502    0 -0.28199513063E+01  0.10393459423E+03  0.52311416548E+03  0.53334677474E+03  0.00000000000E+00 0. -1.
         22    1    3    3    0    0  0.18017648467E+02  0.11639743824E+02 -0.77538294205E+01  0.22808795743E+02  0.00000000000E+00 0. -1.
         22    1    3    3    0    0 -0.14189613773E+03 -0.11315365613E+03 -0.95719537907E+02  0.20518404845E+03  0.00000000000E+00 0. -1.
</event>
<event>
 7    1  0.6067783E-006  0.1068785E+03  0.7818608E-02  0.1408395E+00
          2   -1    0    0  502    0  0.00000000000E+00  0.00000000000E+00  0.57737306603E+03  0.57737306603E+03  0.00000000000E+00 0. -1.
          1   -1    0    0  501    0 -0.00000000000E+00 -0.00000000000E+00 -0.45990353708E+03  0.45990353708E+03  0.00000000000E+00 0. -1.
         25    2    1    2    0    0  0.86649272487E+02  0.42982960671E+02 -0.30146304026E+03  0.34038589178E+03  0.12500783715E+03 0.  0.
          2    1    1    2  501    0  0.18864334741E+02 -0.24589921089E+02 -0.13202773311E+03  0.13561655376E+03  0.00000000000E+00 0. -1.
          1    1    1    2  502    0 -0.10551360723E+03 -0.18393039583E+02  0.55096030232E+03  0.56127415756E+03  0.00000000000E+00 0. -1.
         22    1    3    3    0    0  0.26185457662E+02  0.33424461071E+02 -0.26655860965E+03  0.26991918266E+03  0.00000000000E+00 0. -1.
         22    1    3    3    0    0  0.60463814825E+02  0.95584996003E+01 -0.34904430614E+02  0.70466709121E+02  0.00000000000E+00 0. -1.
</event>
<event>
 7    1  0.6067783E-006  0.6289223E+02  0.7818608E-02  0.1476479E+00
          2   -1    0    0  502    0  0.00000000000E+00  0.00000000000E+00  0.73477819373E+03  0.73477819373E+03  0.00000000000E+00 0. -1.
          1   -1    0    0  501    0 -0.00000000000E+00 -0.00000000000E+00 -0.19953271475E+03  0.19953271475E+03  0.00000000000E+00 0. -1.
         25    2    1    2    0    0  0.36583392950E+02 -0.85719405489E+02  0.26211862002E+03  0.30498704609E+03  0.12499906482E+03 0.  0.
          2    1    1    2  501    0 -0.18941659558E+02  0.59367010898E+02 -0.17206619901E+03  0.18300274668E+03  0.00000000000E+00 0. -1.
          1    1    1    2  502    0 -0.17641733392E+02  0.26352394591E+02  0.44519305797E+03  0.44632111570E+03  0.00000000000E+00 0. -1.
         22    1    3    3    0    0 -0.48818780627E+00  0.81221574523E+01 -0.11082816371E+02  0.13749057703E+02  0.00000000000E+00 0.  1.
         22    1    3    3    0    0  0.37071580756E+02 -0.93841562942E+02  0.27320143639E+03  0.29123798839E+03  0.00000000000E+00 0.  1.
</event>
<event>
 7    1  0.6067783E-006  0.7988614E+02  0.7818608E-02  0.1425257E+00
          2   -1    0    0  502    0  0.00000000000E+00  0.00000000000E+00  0.32001869587E+03  0.32001869587E+03  0.00000000000E+00 0. -1.
          1   -1    0    0  501    0 -0.00000000000E+00 -0.00000000000E+00 -0.67507463617E+03  0.67507463617E+03  0.00000000000E+00 0. -1.
         25    2    1    2    0    0 -0.52248848544E+02  0.92029808586E+02  0.36413571271E+02  0.16778140720E+03  0.12500089834E+03 0.  0.
          2    1    1    2  501    0  0.56322059923E+02 -0.55859255565E+02 -0.60526454496E+03  0.61044049690E+03  0.00000000000E+00 0. -1.
          1    1    1    2  502    0 -0.40732113788E+01 -0.36170553021E+02  0.21379503339E+03  0.21687142795E+03  0.00000000000E+00 0. -1.
         22    1    3    3    0    0  0.23373634397E+02  0.32432618580E+01  0.45028240560E+02  0.50836876186E+02  0.00000000000E+00 0. -1.
         22    1    3    3    0    0 -0.75622482941E+02  0.88786546728E+02 -0.86146692886E+01  0.11694453101E+03  0.00000000000E+00 0. -1.
</event>
<event>
 7    1  0.6067783E-006  0.2278947E+02  0.7818608E-02  0.1711039E+00
          2   -1    0    0  502    0  0.00000000000E+00  0.00000000000E+00  0.23490801293E+03  0.23490801293E+03  0.00000000000E+00 0. -1.
          1   -1    0    0  501    0 -0.00000000000E+00 -0.00000000000E+00 -0.10843921194E+03  0.10843921194E+03  0.00000000000E+00 0. -1.
         25    2    1    2    0    0  0.20452718007E+02 -0.34258591954E+02  0.37795577780E+02  0.13654801092E+03  0.12499955516E+03 0.  0.
          2    1    1    2  501    0 -0.17934569725E+02  0.13481055143E+02 -0.56152528937E+02  0.60468951909E+02  0.00000000000E+00 0. -1.
          1    1    1    2  502    0 -0.25181482825E+01  0.20777536811E+02  0.14482575215E+03  0.14633026205E+03  0.00000000000E+00 0. -1.
         22    1    3    3    0    0  0.41941581930E+01 -0.63652933590E+02 -0.22403854443E+02  0.67610795081E+02  0.00000000000E+00 0.  1.
         22    1    3    3    0    0  0.16258559814E+02  0.29394341636E+02  0.60199432224E+02  0.68937215838E+02  0.00000000000E+00 0.  1.
</event>
<event>
 7    1  0.6067783E-006  0.4551545E+02  0.7818608E-02  0.1508388E+00
          2   -1    0    0  502    0  0.00000000000E+00  0.00000000000E+00  0.56566434943E+03  0.56566434943E+03  0.00000000000E+00 0. -1.
          1   -1    0    0  501    0 -0.00000000000E+00 -0.00000000000E+00 -0.41823974143E+03  0.41823974143E+03  0.00000000000E+00 0. -1.
         25    2    1    2    0    0 -0.32864564063E+01  0.15786722584E+02  0.28974797156E+03  0.31597326868E+03  0.12500079238E+03 0.  0.
          2    1    1    2  501    0 -0.12090980914E+02  0.32963146864E+02 -0.40186868706E+03  0.40339955691E+03  0.00000000000E+00 0. -1.
          1    1    1    2  502    0  0.15377437320E+02 -0.48749869448E+02  0.25954532351E+03  0.26453126527E+03  0.00000000000E+00 0. -1.
         22    1    3    3    0    0 -0.57744212328E+02 -0.73752873103E+01  0.86340446614E+02  0.10413194343E+03  0.00000000000E+00 0.  1.
         22    1    3    3    0    0  0.54457755922E+02  0.23162009894E+02  0.20340752494E+03  0.21184132525E+03  0.00000000000E+00 0.  1.
</event>
<event>
 7    1  0.6067783E-006  0.3274376E+03  0.7818608E-02  0.1268670E+00
          2   -1    0    0  502    0  0.00000000000E+00  0.00000000000E+00  0.28614742267E+04  0.28614742267E+04  0.00000000000E+00 0. -1.
          1   -1    0    0  501    0 -0.00000000000E+00 -0.00000000000E+00 -0.84437708482E+03  0.84437708482E+03  0.00000000000E+00 0. -1.
         25    2    1    2    0    0 -0.28791743801E+03  0.11855742772E+03  0.24276048127E+04  0.24506818609E+04  0.12499656664E+03 0.  0.
          2    1    1    2  501    0  0.31335689086E+03 -0.95780001370E+02 -0.79983329504E+03  0.86434926365E+03  0.00000000000E+00 0. -1.
          1    1    1    2  502    0 -0.25439452852E+02 -0.22777426351E+02  0.38932562415E+03  0.39082018696E+03  0.00000000000E+00 0. -1.
         22    1    3    3    0    0 -0.24480319528E+03  0.12070195420E+03  0.22962744679E+04  0.23124389718E+04  0.00000000000E+00 0.  1.
         22    1    3    3    0    0 -0.43114242727E+02 -0.21445264802E+01  0.13133034483E+03  0.13824288912E+03  0.00000000000E+00 0.  1.
</event>
<event>
 7    1  0.6067783E-006  0.7288608E+02  0.7818608E-02  0.1448549E+00
          2   -1    0    0  502    0  0.00000000000E+00  0.00000000000E+00  0.44205485203E+03  0.44205485203E+03  0.00000000000E+00 0. -1.
          1   -1    0    0  501    0 -0.00000000000E+00 -0.00000000000E+00 -0.21453241943E+03  0.21453241943E+03  0.00000000000E+00 0. -1.
         25    2    1    2    0    0 -0.46994317637E+02  0.23623163218E+02  0.25723467691E+02  0.13803758125E+03  0.12500462918E+03 0.  0.
          2    1    1    2  501    0 -0.27444926812E+02 -0.19202386755E+02 -0.15268054079E+03  0.15631155812E+03  0.00000000000E+00 0. -1.
          1    1    1    2  502    0  0.74439244449E+02 -0.44207764634E+01  0.35447950571E+03  0.36223813210E+03  0.00000000000E+00 0. -1.
         22    1    3    3    0    0 -0.47086609436E+02 -0.40693443378E+02 -0.12134279885E+02  0.63406197414E+02  0.00000000000E+00 0.  1.
         22    1    3    3    0    0  0.92291799505E-01  0.64316606596E+02  0.37857747576E+02  0.74631383836E+02  0.00000000000E+00 0.  1.
</event>
<event>
 7    1  0.6067783E-006  0.1241987E+03  0.7818608E-02  0.1237289E+00
          2   -1    0    0  502    0  0.00000000000E+00  0.00000000000E+00  0.62568101917E+03  0.62568101917E+03  0.00000000000E+00 0. -1.
          1   -1    0    0  501    0 -0.00000000000E+00 -0.00000000000E+00 -0.15755827607E+04  0.15755827607E+04  0.00000000000E+00 0. -1.
         25    2    1    2    0    0  0.29562098472E+02  0.20881262595E+02 -0.10555086133E+03  0.16755790896E+03  0.12499889492E+03 0.  0.
          2    1    1    2  501    0 -0.73324538167E+02  0.10024381731E+03 -0.14293308644E+04  0.14347167074E+04  0.00000000000E+00 0. -1.
          1    1    1    2  502    0  0.43762439694E+02 -0.12112507991E+03  0.58497998415E+03  0.59898916348E+03  0.00000000000E+00 0. -1.
         22    1    3    3    0    0 -0.24932670847E+01 -0.32456891196E+02  0.11884039708E+02  0.34653954560E+02  0.00000000000E+00 0.  1.
         22    1    3    3    0    0  0.32055365557E+02  0.53338153792E+02 -0.11743490104E+03  0.13290395439E+03  0.00000000000E+00 0.  1.
</event>
<event>
 7    1  0.6067783E-006  0.1385598E+03  0.7818608E-02  0.1298703E+00
          2   -1    0    0  502    0  0.00000000000E+00  0.00000000000E+00  0.35712448181E+04  0.35712448181E+04  0.00000000000E+00 0. -1.
          1   -1    0    0  501    0 -0.00000000000E+00 -0.00000000000E+00 -0.81360061598E+02  0.81360061598E+02  0.00000000000E+00 0. -1.
         25    2    1    2    0    0 -0.86922628730E+02 -0.57879346936E+02  0.16618963889E+03  0.23269959799E+03  0.12499817856E+03 0.  0.
          2    1    1    2  501    0  0.14610503850E+03  0.71521550271E+02  0.90522214099E+02  0.18616198773E+03  0.00000000000E+00 0. -1.
          1    1    1    2  502    0 -0.59182409774E+02 -0.13642203334E+02  0.32331729035E+04  0.32337432940E+04  0.00000000000E+00 0. -1.
         22    1    3    3    0    0 -0.10592360042E+03 -0.57260854034E+02  0.17445098528E+03  0.21197113199E+03  0.00000000000E+00 0. -1.
         22    1    3    3    0    0  0.19000971694E+02 -0.61849290258E+00 -0.82613463879E+01  0.20728466005E+02  0.00000000000E+00 0. -1.
</event>
<event>
 7    1  0.6067783E-006  0.1776632E+03  0.7818608E-02  0.1200971E+00
          2   -1    0    0  502    0  0.00000000000E+00  0.00000000000E+00  0.16389870817E+04  0.16389870817E+04  0.00000000000E+00 0. -1.
          1   -1    0    0  501    0 -0.00000000000E+00 -0.00000000000E+00 -0.49252056136E+03  0.49252056136E+03  0.00000000000E+00 0. -1.
         25    2    1    2    0    0 -0.18000439021E+03  0.11867616644E+02  0.22671404432E+03  0.31554435675E+03  0.12500624931E+03 0.  0.
          2    1    1    2  501    0  0.14376524243E+03  0.10876867197E+03 -0.42691524660E+03  0.46341741088E+03  0.00000000000E+00 0. -1.
          1    1    1    2  502    0  0.36239147780E+02 -0.12063628861E+03  0.13466677226E+04  0.13525458754E+04  0.00000000000E+00 0. -1.
         22    1    3    3    0    0 -0.11050933222E+03  0.24931983624E+02  0.21616196273E+03  0.24404899190E+03  0.00000000000E+00 0.  1.
         22    1    3    3    0    0 -0.69495057985E+02 -0.13064366980E+02  0.10552081585E+02  0.71495364848E+02  0.00000000000E+00 0.  1.
</event>
<event>
 7    1  0.6067783E-006  0.4488958E+02  0.7818608E-02  0.1524117E+00
          2   -1    0    0  502    0  0.00000000000E+00  0.00000000000E+00  0.16046931536E+03  0.16046931536E+03  0.00000000000E+00 0. -1.
          1   -1    0    0  501    0 -0.00000000000E+00 -0.00000000000E+00 -0.15063042363E+04  0.15063042363E+04  0.00000000000E+00 0. -1.
         25    2    1    2    0    0  0.91646753757E+01  0.62792395753E+02 -0.16927852008E+03  0.21979134015E+03  0.12500455835E+03 0.  0.
          2    1    1    2  501    0  0.17413660129E+02 -0.26881779809E+02 -0.13078774433E+04  0.13082695717E+04  0.00000000000E+00 0. -1.
          1    1    1    2  502    0 -0.26578335505E+02 -0.35910615944E+02  0.13132104241E+03  0.13871263978E+03  0.00000000000E+00 0. -1.
         22    1    3    3    0    0  0.65996047761E+01 -0.31570216966E+02 -0.92978274845E+02  0.98413378032E+02  0.00000000000E+00 0.  1.
         22    1    3    3    0    0  0.25650705997E+01  0.94362612720E+02 -0.76300245232E+02  0.12137796212E+03  0.00000000000E+00 0.  1.
</event>
<event>
 7    1  0.6067783E-006  0.1260152E+03  0.7818608E-02  0.1285259E+00
          2   -1    0    0  502    0  0.00000000000E+00  0.00000000000E+00  0.27561288686E+03  0.27561288686E+03  0.00000000000E+00 0. -1.
          1   -1    0    0  501    0 -0.00000000000E+00 -0.00000000000E+00 -0.39214949771E+03  0.39214949771E+03  0.00000000000E+00 0. -1.
         25    2    1    2    0    0 -0.13302495034E+02  0.67816041032E+02 -0.44573245066E+02  0.14962536362E+03  0.12500001387E+03 0.  0.
          2    1    1    2  501    0  0.25272064634E+02  0.71368105829E+02 -0.26739682275E+03  0.27790851840E+03  0.00000000000E+00 0. -1.
          1    1    1    2  502    0 -0.11969569600E+02 -0.13918414686E+03  0.19543345698E+03  0.24022850255E+03  0.00000000000E+00 0. -1.
         22    1    3    3    0    0  0.53984720116E+02  0.28587405311E+02 -0.36886138796E+02  0.71359491195E+02  0.00000000000E+00 0.  1.
         22    1    3    3    0    0 -0.67287215150E+02  0.39228635720E+02 -0.76871062695E+01  0.78265872422E+02  0.00000000000E+00 0.  1.
</event>
<event>
 7    1  0.6067783E-006  0.4034506E+02  0.7818608E-02  0.1546151E+00
          2   -1    0    0  502    0  0.00000000000E+00  0.00000000000E+00  0.18414977176E+02  0.18414977176E+02  0.00000000000E+00 0. -1.
          1   -1    0    0  501    0 -0.00000000000E+00 -0.00000000000E+00 -0.29685175408E+04  0.29685175408E+04  0.00000000000E+00 0. -1.
         25    2    1    2    0    0 -0.34704197136E+02 -0.26423499150E+01 -0.15103345373E+04  0.15158982891E+04  0.12500338003E+03 0.  0.
          2    1    1    2  501    0  0.50495470663E+01  0.30430245725E+02 -0.14285389625E+04  0.14288719555E+04  0.00000000000E+00 0. -1.
          1    1    1    2  502    0  0.29654650070E+02 -0.27787895810E+02 -0.11229063837E+02  0.42162273408E+02  0.00000000000E+00 0. -1.
         22    1    3    3    0    0 -0.37587559909E+02  0.26396420979E+02 -0.19870959683E+03  0.20394876703E+03  0.00000000000E+00 0. -1.
         22    1    3    3    0    0  0.28833627727E+01 -0.29038770894E+02 -0.13116249405E+04  0.13119495221E+04  0.00000000000E+00 0. -1.
</event>
<event>
 7    1  0.6067783E-006  0.1006518E+03  0.7818608E-02  0.1419089E+00
          2   -1    0    0  502    0  0.00000000000E+00  0.00000000000E+00  0.29159266546E+04  0.29159266546E+04  0.00000000000E+00 0. -1.
          1   -1    0    0  501    0 -0.00000000000E+00 -0.00000000000E+00 -0.84899429187E+02  0.84899429187E+02  0.00000000000E+00 0. -1.
         25    2    1    2    0    0 -0.51928916041E+02 -0.64927658717E+02  0.13025231072E+03  0.19875276521E+03  0.12499913617E+03 0.  0.
          2    1    1    2  501    0  0.11697524431E+02 -0.27938500549E+02 -0.45103894963E+02  0.54330039863E+02  0.00000000000E+00 0. -1.
          1    1    1    2  502    0  0.40231391610E+02  0.92866159266E+02  0.27458788097E+04  0.27477432787E+04  0.00000000000E+00 0. -1.
         22    1    3    3    0    0 -0.84225168664E+02 -0.50420117929E+02  0.48138927079E+02  0.10933171374E+03  0.00000000000E+00 0.  1.
         22    1    3    3    0    0  0.32296252623E+02 -0.14507540788E+02  0.82113383645E+02  0.89421051475E+02  0.00000000000E+00 0.  1.
</event>
<event>
 7    1  0.6067783E-006  0.1478622E+03  0.7818608E-02  0.1248644E+00
          2   -1    0    0  502    0  0.00000000000E+00  0.00000000000E+00  0.23910369874E+04  0.23910369874E+04  0.00000000000E+00 0. -1.
          1   -1    0    0  501    0 -0.00000000000E+00 -0.00000000000E+00 -0.82836275031E+02  0.82836275031E+02  0.00000000000E+00 0. -1.
         25    2    1    2    0    0  0.35251439868E+01 -0.13775241971E+03  0.12280245892E+04  0.12420378569E+04  0.12500196178E+03 0.  0.
          2    1    1    2  501    0 -0.93381867492E+02  0.11753289912E+03  0.24020376968E+01  0.15013302547E+03  0.00000000000E+00 0. -1.
          1    1    1    2  502    0  0.89856723505E+02  0.20219520585E+02  0.10777740855E+04  0.10817023801E+04  0.00000000000E+00 0. -1.
         22    1    3    3    0    0 -0.47241978310E+02 -0.64449135956E+02  0.32743003070E+03  0.33703993924E+03  0.00000000000E+00 0. -1.
         22    1    3    3    0    0  0.50767122297E+02 -0.73303283749E+02  0.90059455854E+03  0.90499791767E+03  0.00000000000E+00 0. -1.
</event>
<event>
 7    1  0.6067783E-006  0.9819053E+02  0.7818608E-02  0.1409957E+00
          2   -1    0    0  502    0  0.00000000000E+00  0.00000000000E+00  0.26318040029E+03  0.26318040029E+03  0.00000000000E+00 0. -1.
          1   -1    0    0  501    0 -0.00000000000E+00 -0.00000000000E+00 -0.26520766777E+03  0.26520766777E+03  0.00000000000E+00 0. -1.
         25    2    1    2    0    0 -0.95981826857E+02 -0.13977158757E+02  0.12505282319E+03  0.20167063277E+03  0.12499985392E+03 0.  0.
          2    1    1    2  501    0 -0.34254681230E+01  0.33148836778E+02 -0.19948613290E+03  0.20225057832E+03  0.00000000000E+00 0. -1.
          1    1    1    2  502    0  0.99407294980E+02 -0.19171678021E+02  0.72406042228E+02  0.12446685697E+03  0.00000000000E+00 0. -1.
         22    1    3    3    0    0  0.16953969182E+02  0.31465855618E+02  0.20528023486E+02  0.41218162126E+02  0.00000000000E+00 0.  1.
         22    1    3    3    0    0 -0.11293579604E+03 -0.45443014375E+02  0.10452479970E+03  0.16045247064E+03  0.00000000000E+00 0.  1.
</event>
<event>
 7    1  0.6067783E-006  0.3792350E+02  0.7818608E-02  0.1568855E+00
          2   -1    0    0  502    0  0.00000000000E+00  0.00000000000E+00  0.14105631628E+04  0.14105631628E+04  0.00000000000E+00 0. -1.
          1   -1    0    0  501    0 -0.00000000000E+00 -0.00000000000E+00 -0.14579477314E+03  0.14579477314E+03  0.00000000000E+00 0. -1.
         25    2    1    2    0    0 -0.27516950913E+01  0.51446633211E+02 -0.37957437113E+02  0.14041802647E+03  0.12498850840E+03 0.  0.
          2    1    1    2  501    0 -0.19436987924E+02 -0.20711789002E+02 -0.52762259086E+02  0.59921871525E+02  0.00000000000E+00 0. -1.
          1    1    1    2  502    0  0.22188683015E+02 -0.30734844209E+02  0.13554880859E+04  0.13560180380E+04  0.00000000000E+00 0. -1.
         22    1    3    3    0    0  0.93655489924E+01  0.49938146044E+02  0.38024129713E+02  0.63461534638E+02  0.00000000000E+00 0.  1.
         22    1    3    3    0    0 -0.12117244084E+02  0.15084871674E+01 -0.75981566826E+02  0.76956491832E+02  0.00000000000E+00 0.  1.
</event>
<event>
 7    1  0.6067783E-006  0.1222691E+03  0.7818608E-02  0.1299669E+00
          2   -1    0    0  502    0  0.00000000000E+00  0.00000000000E+00  0.12470020815E+04  0.12470020815E+04  0.00000000000E+00 0. -1.
          1   -1    0    0  501    0 -0.00000000000E+00 -0.00000000000E+00 -0.35898577108E+03  0.35898577108E+03  0.00000000000E+00 0. -1.
         25    2    1    2    0    0 -0.43333401831E+02  0.17557390905E+03  0.14605934686E+03  0.26393555816E+03  0.12499865920E+03 0.  0.
          2    1    1    2  501    0  0.38033980882E+02 -0.56628497834E+02 -0.29271184081E+03  0.30055547279E+03  0.00000000000E+00 0. -1.
          1    1    1    2  502    0  0.52994209484E+01 -0.11894541122E+03  0.10346688044E+04  0.10414968216E+04  0.00000000000E+00 0. -1.
         22    1    3    3    0    0  0.30012601079E+02  0.52040551144E+02  0.14496162412E+01  0.60092233892E+02  0.00000000000E+00 0. -1.
         22    1    3    3    0    0 -0.73346002910E+02  0.12353335791E+03  0.14460973062E+03  0.20384332427E+03  0.00000000000E+00 0. -1.
</event>
<event>
 7    1  0.6067783E-006  0.9061938E+02  0.7818608E-02  0.1309052E+00
          2   -1    0    0  502    0  0.00000000000E+00  0.00000000000E+00  0.19620639176E+03  0.19620639176E+03  0.00000000000E+00 0. -1.
          1   -1    0    0  501    0 -0.00000000000E+00 -0.00000000000E+00 -0.67898531748E+03  0.67898531748E+03  0.00000000000E+00 0. -1.
         25    2    1    2    0    0 -0.30285353433E+02 -0.81481744183E+02 -0.60884449534E+01  0.15237583860E+03  0.12499939904E+03 0.  0.
          2    1    1    2  501    0  0.90057113862E+02  0.21802685884E+02 -0.58114427419E+03  0.58848475621E+03  0.00000000000E+00 0. -1.
          1    1    1    2  502    0 -0.59771760429E+02  0.59679058299E+02  0.10445379342E+03  0.13433111443E+03  0.00000000000E+00 0. -1.
         22    1    3    3    0    0  0.38697841799E+02 -0.54671496570E+02  0.25813201695E+02  0.71783123914E+02  0.00000000000E+00 0. -1.
         22    1    3    3    0    0 -0.68983195232E+02 -0.26810247613E+02 -0.31901646649E+02  0.80592714685E+02  0.00000000000E+00 0. -1.
</event>
<event>
 7    1  0.6067783E-006  0.5912872E+02  0.7818608E-02  0.1482343E+00
          2   -1    0    0  502    0  0.00000000000E+00  0.00000000000E+00  0.21040849132E+03  0.21040849132E+03  0.00000000000E+00 0. -1.
          1   -1    0    0  501    0 -0.00000000000E+00 -0.00000000000E+00 -0.50505456882E+03  0.50505456882E+03  0.00000000000E+00 0. -1.
         25    2    1    2    0    0  0.83007876886E+02 -0.36025084654E+02 -0.20670308221E+03  0.25795294982E+03  0.12500178310E+03 0.  0.
          2    1    1    2  501    0 -0.27886399758E+02  0.16419370332E+02 -0.26709452637E+03  0.26904782666E+03  0.00000000000E+00 0. -1.
          1    1    1    2  502    0 -0.55121477129E+02  0.19605714322E+02  0.17915153107E+03  0.18846228366E+03  0.00000000000E+00 0. -1.
         22    1    3    3    0    0  0.61583124658E+02  0.17664576826E+01 -0.20545458196E+03  0.21449285971E+03  0.00000000000E+00 0.  1.
         22    1    3    3    0    0  0.21424752228E+02 -0.37791542336E+02 -0.12485002453E+01  0.43460090118E+02  0.00000000000E+00 0.  1.
</event>
<event>
 7    1  0.6067783E-006  0.7966133E+02  0.7818608E-02  0.1349748E+00
          2   -1    0    0  502    0  0.00000000000E+00  0.00000000000E+00  0.92326688682E+03  0.92326688682E+03  0.00000000000E+00 0. -1.
          1   -1    0    0  501    0 -0.00000000000E+00 -0.00000000000E+00 -0.11310096194E+04  0.11310096194E+04  0.00000000000E+00 0. -1.
         25    2    1    2    0    0  0.12430205610E+02 -0.10036780819E+03  0.27265774313E+02  0.16309148829E+03  0.12500881637E+03 0.  0.
          2    1    1    2  501    0 -0.57539786323E+02  0.34601130468E+02 -0.10601121256E+04  0.10622362186E+04  0.00000000000E+00 0. -1.
          1    1    1    2  502    0  0.45109580712E+02  0.65766677722E+02  0.82510361875E+03  0.82894879929E+03  0.00000000000E+00 0. -1.
         22    1    3    3    0    0 -0.80242203856E+01 -0.97268864411E+02  0.66938630888E+02  0.11834863921E+03  0.00000000000E+00 0. -1.
         22    1    3    3    0    0  0.20454425996E+02 -0.30989437786E+01 -0.39672856575E+02  0.44742849084E+02  0.00000000000E+00 0. -1.
</event>
<event>
 7    1  0.6067783E-006  0.1572152E+03  0.7818608E-02  0.1407623E+00
          2   -1    0    0  502    0  0.00000000000E+00  0.00000000000E+00  0.68144509941E+03  0.68144509941E+03  0.00000000000E+00 0. -1.
          1   -1    0    0  501    0 -0.00000000000E+00 -0.00000000000E+00 -0.19946865696E+04  0.19946865696E+04  0.00000000000E+00 0. -1.
         25    2    1    2    0    0 -0.12988939203E+03 -0.11292375810E+03 -0.14245442935E+04  0.14403384199E+04  0.12500116191E+03 0.  0.
          2    1    1    2  501    0  0.24183508947E+01  0.21058573219E+02 -0.55287590936E+03  0.55328210081E+03  0.00000000000E+00 0. -1.
          1    1    1    2  502    0  0.12747104114E+03  0.91865184878E+02  0.66417873269E+03  0.68251114825E+03  0.00000000000E+00 0. -1.
         22    1    3    3    0    0 -0.63653194311E+01 -0.52279127375E+02 -0.75304499221E+03  0.75488435190E+03  0.00000000000E+00 0.  1.
         22    1    3    3    0    0 -0.12352407260E+03 -0.60644630722E+02 -0.67149930131E+03  0.68545406805E+03  0.00000000000E+00 0.  1.
</event>
<event>
 7    1  0.6067783E-006  0.3242543E+02  0.7818608E-02  0.1617810E+00
          2   -1    0    0  502    0  0.00000000000E+00  0.00000000000E+00  0.61225902658E+03  0.61225902658E+03  0.00000000000E+00 0. -1.
          1   -1    0    0  501    0 -0.00000000000E+00 -0.00000000000E+00 -0.92637724214E+03  0.92637724214E+03  0.00000000000E+00 0. -1.
         25    2    1    2    0    0  0.28362853876E+02 -0.24273349244E+02  0.81418613943E+02  0.15377762805E+03  0.12499968491E+03 0.  0.
          2    1    1    2  501    0 -0.32435636675E+02 -0.68431254399E-01 -0.88959414555E+03  0.89018527229E+03  0.00000000000E+00 0. -1.
          1    1    1    2  502    0  0.40727827990E+01  0.24341780498E+02  0.49405731605E+03  0.49467336838E+03  0.00000000000E+00 0. -1.
         22    1    3    3    0    0  0.63734497329E+02 -0.36203480578E+02  0.89396805088E+02  0.11560522011E+03  0.00000000000E+00 0. -1.
         22    1    3    3    0    0 -0.35371643453E+02  0.11930131334E+02 -0.79781911449E+01  0.38172407942E+02  0.00000000000E+00 0. -1.
</event>
<event>
 7    1  0.6067783E-006  0.4458971E+02  0.7818608E-02  0.1546832E+00
          2   -1    0    0  502    0  0.00000000000E+00  0.00000000000E+00  0.68511823578E+02  0.68511823578E+02  0.00000000000E+00 0. -1.
          1   -1    0    0  501    0 -0.00000000000E+00 -0.00000000000E+00 -0.40338299599E+04  0.40338299599E+04  0.00000000000E+00 0. -1.
         25    2    1    2    0    0 -0.35149772322E+02 -0.60995472639E+02 -0.20780552543E+04  0.20830014487E+04  0.12500176530E+03 0.  0.
          2    1    1    2  501    0  0.20200615438E+02  0.19080893202E+02 -0.19456943498E+04  0.19458927638E+04  0.00000000000E+00 0. -1.
          1    1    1    2  502    0  0.14949156884E+02  0.41914579436E+02  0.58431467742E+02  0.73447570983E+02  0.00000000000E+00 0. -1.
         22    1    3    3    0    0 -0.49823700210E+02 -0.91188234171E+02 -0.12678934402E+04  0.12721444379E+04  0.00000000000E+00 0.  1.
         22    1    3    3    0    0  0.14673927888E+02  0.30192761532E+02 -0.81016181407E+03  0.81085701082E+03  0.00000000000E+00 0.  1.
</event>
<event>
 7    1  0.6067783E-006  0.5119213E+02  0.7818608E-02  0.1451303E+00
          2   -1    0    0  502    0  0.00000000000E+00  0.00000000000E+00  0.41520252548E+03  0.41520252548E+03  0.00000000000E+00 0. -1.
          1   -1    0    0  501    0 -0.00000000000E+00 -0.00000000000E+00 -0.14159057912E+04  0.14159057912E+04  0.00000000000E+00 0. -1.
         25    2    1    2    0    0  0.74075041503E+02 -0.23405701065E+02  0.11179467965E+03  0.18482511561E+03  0.12500933703E+03 0.  0.
          2    1    1    2  501    0 -0.48650478399E+02 -0.15805131678E+02 -0.13768663059E+04  0.13778162053E+04  0.00000000000E+00 0. -1.
          1    1    1    2  502    0 -0.25424563104E+02  0.39210832743E+02  0.26436836049E+03  0.26846699582E+03  0.00000000000E+00 0. -1.
         22    1    3    3    0    0  0.89932751768E+00 -0.46256330071E+02 -0.34704338013E+01  0.46395051163E+02  0.00000000000E+00 0. -1.
         22    1    3    3    0    0  0.73175713985E+02  0.22850629006E+02  0.11526511345E+03  0.13843006445E+03  0.00000000000E+00 0. -1.
</event>
<event>
 7    1  0.6067783E-006  0.1539469E+03  0.7818608E-02  0.1260965E+00
          2   -1    0    0  502    0  0.00000000000E+00  0.00000000000E+00  0.50497823150E+03  0.50497823150E+03  0.00000000000E+00 0. -1.
          1   -1    0    0  501    0 -0.00000000000E+00 -0.00000000000E+00 -0.21275336130E+03  0.21275336130E+03  0.00000000000E+00 0. -1.
         25    2    1    2    0    0 -0.86993121580E+02 -0.11995628290E+03  0.26554068022E+03  0.32877364065E+03  0.12499176342E+03 0.  0.
          2    1    1    2  501    0  0.17368898905E+02  0.15576843690E+03 -0.13657859576E+03  0.20789227356E+03  0.00000000000E+00 0. -1.
          1    1    1    2  502    0  0.69624222674E+02 -0.35812154002E+02  0.16326278574E+03  0.18106567859E+03  0.00000000000E+00 0. -1.
         22    1    3    3    0    0  0.81913664938E+01 -0.30698500413E+02 -0.12333480897E+01  0.31796502326E+02  0.00000000000E+00 0.  1.
         22    1    3    3    0    0 -0.95184488073E+02 -0.89257782484E+02  0.26677402831E+03  0.29697713832E+03  0.00000000000E+00 0.  1.
</event>
<event>
 7    1  0.6067783E-006  0.5561979E+03  0.7818608E-02  0.1111812E+00
          2   -1    0    0  502    0  0.00000000000E+00  0.00000000000E+00  0.17521901627E+04  0.17521901627E+04  0.00000000000E+00 0. -1.
          1   -1    0    0  501    0 -0.00000000000E+00 -0.00000000000E+00 -0.12428992294E+04  0.12428992294E+04  0.00000000000E+00 0. -1.
         25    2    1    2    0    0 -0.28100015295E+03 -0.58668407211E+03 -0.31577018728E+03  0.73382177614E+03  0.12499720614E+03 0.  0.
          2    1    1    2  501    0  0.36862706680E+01  0.11445724087E+03 -0.66446516834E+03  0.67426108335E+03  0.00000000000E+00 0. -1.
          1    1    1    2  502    0  0.27731388228E+03  0.47222683125E+03  0.14895262889E+04  0.15870065327E+04  0.00000000000E+00 0. -1.
         22    1    3    3    0    0 -0.23841383965E+03 -0.43300443566E+03 -0.18570102360E+03  0.52803302019E+03  0.00000000000E+00 0.  1.
         22    1    3    3    0    0 -0.42586313296E+02 -0.15367963645E+03 -0.13006916367E+03  0.20578875596E+03  0.00000000000E+00 0.  1.
</event>
<event>
 7    1  0.6067783E-006  0.2486755E+03  0.7818608E-02  0.1331081E+00
          2   -1    0    0  502    0  0.00000000000E+00  0.00000000000E+00  0.90920331626E+03  0.90920331626E+03  0.00000000000E+00 0. -1.
          1   -1    0    0  501    0 -0.00000000000E+00 -0.00000000000E+00 -0.38255627314E+03  0.38255627314E+03  0.00000000000E+00 0. -1.
         25    2    1    2    0    0 -0.24683434976E+03  0.38720578858E+02  0.11702214281E+03  0.30289478674E+03  0.12499836190E+03 0.  0.
          2    1    1    2  501    0 -0.14416051561E+01 -0.25239759493E+02 -0.26690036245E+03  0.26809499652E+03  0.00000000000E+00 0. -1.
          1    1    1    2  502    0  0.24827595492E+03 -0.13480819365E+02  0.67652526276E+03  0.72076980613E+03  0.00000000000E+00 0. -1.
         22    1    3    3    0    0 -0.20673158987E+03 -0.13460731767E+02  0.59647516634E+02  0.21558517525E+03  0.00000000000E+00 0. -1.
         22    1    3    3    0    0 -0.40102759898E+02  0.52181310625E+02  0.57374626174E+02  0.87309611491E+02  0.00000000000E+00 0. -1.
</event>
<event>
 7    1  0.6067783E-006  0.9788292E+02  0.7818608E-02  0.1373413E+00
          2   -1    0    0  502    0  0.00000000000E+00  0.00000000000E+00  0.83057217632E+02  0.83057217632E+02  0.00000000000E+00 0. -1.
          1   -1    0    0  501    0 -0.00000000000E+00 -0.00000000000E+00 -0.30536424259E+04  0.30536424259E+04  0.00000000000E+00 0. -1.
         25    2    1    2    0    0  0.74887540366E+02  0.10506116993E+03 -0.88117879056E+03  0.89930338783E+03  0.12499811720E+03 0.  0.
          2    1    1    2  501    0 -0.42688343645E+02 -0.13623445614E+02 -0.21313134831E+04  0.21317844769E+04  0.00000000000E+00 0. -1.
          1    1    1    2  502    0 -0.32199196722E+02 -0.91437724315E+02  0.41907065331E+02  0.10561177880E+03  0.00000000000E+00 0. -1.
         22    1    3    3    0    0 -0.34012039890E+02  0.14813498931E+02 -0.22684802456E+03  0.22986144708E+03  0.00000000000E+00 0. -1.
         22    1    3    3    0    0  0.10889958026E+03  0.90247670997E+02 -0.65433076600E+03  0.66944194075E+03  0.00000000000E+00 0. -1.
</event>
<event>
 7    1  0.6067783E-006  0.9831758E+02  0.7818608E-02  0.1430754E+00
          2   -1    0    0  502    0  0.00000000000E+00  0.00000000000E+00  0.73433650053E+03  0.73433650053E+03  0.00000000000E+00 0. -1.
          1   -1    0    0  501    0 -0.00000000000E+00 -0.00000000000E+00 -0.11735996608E+03  0.11735996608E+03  0.00000000000E+00 0. -1.
         25    2    1    2    0    0 -0.93021445845E+02  0.41466334786E+02  0.10915858925E+03  0.19471225711E+03  0.12499927661E+03 0.  0.
          2    1    1    2  501    0  0.17910704249E+02  0.21995110481E+02 -0.67555520492E+02  0.73268864879E+02  0.00000000000E+00 0. -1.
          1    1    1    2  502    0  0.75110741596E+02 -0.63461445267E+02  0.57537346569E+03  0.58371534463E+03  0.00000000000E+00 0. -1.
         22    1    3    3    0    0 -0.53163188523E+02  0.15549062100E+02 -0.18571440419E+02  0.58420855397E+02  0.00000000000E+00 0. -1.
         22    1    3    3    0    0 -0.39858257323E+02  0.25917272686E+02  0.12773002967E+03  0.13629140171E+03  0.00000000000E+00 0. -1.
</event>
<event>
 7    1  0.6067783E-006  0.1385267E+03  0.7818608E-02  0.1321471E+00
          2   -1    0    0  502    0  0.00000000000E+00  0.00000000000E+00  0.17137658392E+04  0.17137658392E+04  0.00000000000E+00 0. -1.
          1   -1    0    0  501    0 -0.00000000000E+00 -0.00000000000E+00 -0.37322504905E+03  0.37322504905E+03  0.00000000000E+00 0. -1.
         25    2    1    2    0    0  0.74557087206E+02  0.13075642759E+03  0.15955578598E+03  0.25246606635E+03  0.12500025283E+03 0.  0.
          2    1    1    2  501    0 -0.49144156340E+02  0.51228167583E+01 -0.32171135721E+03  0.32548362280E+03  0.00000000000E+00 0. -1.
          1    1    1    2  502    0 -0.25412930866E+02 -0.13587924435E+03  0.15026963614E+04  0.15090411991E+04  0.00000000000E+00 0. -1.
         22    1    3    3    0    0  0.69549287545E+02  0.13567947488E+03  0.17702873631E+03  0.23363475080E+03  0.00000000000E+00 0. -1.
         22    1    3    3    0    0  0.50077996608E+01 -0.49230472912E+01 -0.17472950329E+02  0.18831315548E+02  0.00000000000E+00 0. -1.
</event>
<event>
 7    1  0.6067783E-006  0.1095109E+03  0.7818608E-02  0.1320692E+00
          2   -1    0    0  502    0  0.00000000000E+00  0.00000000000E+00  0.28252970330E+04  0.28252970330E+04  0.00000000000E+00 0. -1.
          1   -1    0    0  501    0 -0.00000000000E+00 -0.00000000000E+00 -0.14500898323E+02  0.14500898323E+02  0.00000000000E+00 0. -1.
         25    2    1    2    0    0  0.68278047667E+02  0.17453015388E+01  0.10715428764E+04  0.10809689784E+04  0.12499943422E+03 0.  0.
          2    1    1    2  501    0 -0.12307736777E+03 -0.32700177506E+02  0.44015802014E+03  0.45821002036E+03  0.00000000000E+00 0. -1.
          1    1    1    2  502    0  0.54799320105E+02  0.30954875968E+02  0.12990952382E+04  0.13006189326E+04  0.00000000000E+00 0. -1.
         22    1    3    3    0    0  0.56143398643E+01  0.57114224315E+02  0.51323280257E+03  0.51643147180E+03  0.00000000000E+00 0.  1.
         22    1    3    3    0    0  0.62663707802E+02 -0.55368922776E+02  0.55831007380E+03  0.56453750663E+03  0.00000000000E+00 0.  1.
</event>
<event>
 7    1  0.6067783E-006  0.4106157E+02  0.7818608E-02  0.1572308E+00
          2   -1    0    0  502    0  0.00000000000E+00  0.00000000000E+00  0.38769438677E+02  0.38769438677E+02  0.00000000000E+00 0. -1.
          1   -1    0    0  501    0 -0.00000000000E+00 -0.00000000000E+00 -0.66966099175E+03  0.66966099175E+03  0.00000000000E+00 0. -1.
         25    2    1    2    0    0  0.30835281720E+02 -0.11217232565E+02 -0.53521951563E+03  0.55060160771E+03  0.12500223836E+03 0.  0.
          2    1    1    2  501    0  0.85438035255E+01  0.24209621069E+02 -0.11076435847E+03  0.11370068354E+03  0.00000000000E+00 0. -1.
          1    1    1    2  502    0 -0.39379085246E+02 -0.12992388504E+02  0.15092321020E+02  0.44128139181E+02  0.00000000000E+00 0. -1.
         22    1    3    3    0    0 -0.45700111750E+02 -0.91140096985E+01 -0.28960402396E+03  0.29332926223E+03  0.00000000000E+00 0. -1.
         22    1    3    3    0    0  0.76535393470E+02 -0.21032228664E+01 -0.24561549167E+03  0.25727234548E+03  0.00000000000E+00 0. -1.
</event>
<event>
 7    1  0.6067783E-006  0.1861070E+03  0.7818608E-02  0.1341320E+00
          2   -1    0    0  502    0  0.00000000000E+00  0.00000000000E+00  0.30432667960E+04  0.30432667960E+04  0.00000000000E+00 0. -1.
          1   -1    0    0  501    0 -0.00000000000E+00 -0.00000000000E+00 -0.82104219290E+03  0.82104219290E+03  0.00000000000E+00 0. -1.
         25    2    1    2    0    0 -0.13170477165E+03 -0.15532570344E+03  0.15066745581E+04  0.15255046328E+04  0.12499575766E+03 0.  0.
          2    1    1    2  501    0  0.13771294340E+03  0.12501824821E+03 -0.80081183214E+03  0.82212773196E+03  0.00000000000E+00 0. -1.
          1    1    1    2  502    0 -0.60081717554E+01  0.30307455227E+02  0.15163618771E+04  0.15166766242E+04  0.00000000000E+00 0. -1.
         22    1    3    3    0    0  0.13996646576E+02 -0.10291924482E+02  0.30644211792E+02  0.35226375648E+02  0.00000000000E+00 0.  1.
         22    1    3    3    0    0 -0.14570141822E+03 -0.14503377896E+03  0.14760303463E+04  0.14902782571E+04  0.00000000000E+00 0.  1.
</event>
<event>
 7    1  0.6067783E-006  0.1433604E+03  0.7818608E-02  0.1300696E+00
          2   -1    0    0  502    0  0.00000000000E+00  0.00000000000E+00  0.43965191716E+03  0.43965191716E+03  0.00000000000E+00 0. -1.
          1   -1    0    0  501    0 -0.00000000000E+00 -0.00000000000E+00 -0.12442522740E+04  0.12442522740E+04  0.00000000000E+00 0. -1.
         25    2    1    2    0    0  0.17964633902E+03  0.45137348789E+02 -0.34501004217E+02  0.22610820121E+03  0.12499764791E+03 0.  0.
          2    1    1    2  501    0 -0.40474742711E+02 -0.41027028728E+02 -0.10990670576E+04  0.11005770391E+04  0.00000000000E+00 0. -1.
          1    1    1    2  502    0 -0.13917159631E+03 -0.41103200610E+01  0.32896770496E+03  0.35721895086E+03  0.00000000000E+00 0. -1.
         22    1    3    3    0    0  0.11328891776E+03  0.49772746855E+02  0.36305937777E+02  0.12895668395E+03  0.00000000000E+00 0. -1.
         22    1    3    3    0    0  0.66357421258E+02 -0.46353980662E+01 -0.70806941994E+02  0.97151517259E+02  0.00000000000E+00 0. -1.
</event>
<event>
 7    1  0.6067783E-006  0.6045084E+02  0.7818608E-02  0.1537588E+00
          2   -1    0    0  502    0  0.00000000000E+00  0.00000000000E+00  0.97278352481E+02  0.97278352481E+02  0.00000000000E+00 0. -1.
          1   -1    0    0  501    0 -0.00000000000E+00 -0.00000000000E+00 -0.24684824457E+04  0.24684824457E+04  0.00000000000E+00 0. -1.
         25    2    1    2    0    0 -0.35662445202E+02  0.51045374823E+02 -0.10515742039E+03  0.17481727991E+03  0.12500223200E+03 0.  0.
          2    1    1    2  501    0  0.15224588901E+02 -0.58525916171E+02 -0.23261938998E+04  0.23269798303E+04  0.00000000000E+00 0. -1.
          1    1    1    2  502    0  0.20437856301E+02  0.74805413480E+01  0.60147226979E+02  0.63963687998E+02  0.00000000000E+00 0. -1.
         22    1    3    3    0    0 -0.56021434709E+02  0.83378026779E+02 -0.66525693327E+02  0.12048221599E+03  0.00000000000E+00 0.  1.
         22    1    3    3    0    0  0.20358989507E+02 -0.32332651956E+02 -0.38631727060E+02  0.54335063926E+02  0.00000000000E+00 0.  1.
</event>
<event>
 7    1  0.6067783E-006  0.2871703E+02  0.7818608E-02  0.1637122E+00
          2   -1    0    0  502    0  0.00000000000E+00  0.00000000000E+00  0.19250557516E+04  0.19250557516E+04  0.00000000000E+00 0. -1.
          1   -1    0    0  501    0 -0.00000000000E+00 -0.00000000000E+00 -0.71984959278E+03  0.71984959278E+03  0.00000000000E+00 0. -1.
         25    2    1    2    0    0 -0.97770161945E+01  0.12735483701E+01 -0.13533703283E+03  0.18449344841E+03  0.12499803231E+03 0.  0.
          2    1    1    2  501    0 -0.22851817547E+01  0.24804914903E+02 -0.55954863652E+03  0.56010283207E+03  0.00000000000E+00 0. -1.
          1    1    1    2  502    0  0.12062197949E+02 -0.26078463274E+02  0.19000918282E+04  0.19003090639E+04  0.00000000000E+00 0. -1.
         22    1    3    3    0    0 -0.27812528139E+02  0.44575735383E+02 -0.12620486295E+03  0.13670479266E+03  0.00000000000E+00 0. -1.
         22    1    3    3    0    0  0.18035511945E+02 -0.43302187013E+02 -0.91321698833E+01  0.47788655745E+02  0.00000000000E+00 0. -1.
</event>
<event>
 7    1  0.7407463E-006  0.9425871E+02  0.7818608E-02  0.1317393E+00
          2   -1    0    0  502    0  0.00000000000E+00  0.00000000000E+00  0.27372946685E+04  0.27372946685E+04  0.00000000000E+00 0. -1.
          1   -1    0    0  501    0 -0.00000000000E+00 -0.00000000000E+00 -0.53896395038E+03  0.53896395038E+03  0.00000000000E+00 0. -1.
         25    2    1    2    0    0  0.11376319105E+03 -0.10150717644E+03 -0.17062156135E+03  0.26073502988E+03  0.12500107239E+03 0.  0.
          2    1    1    2  501    0 -0.73486714684E+02  0.16482126532E+02 -0.31806498847E+03  0.32685974763E+03  0.00000000000E+00 0. -1.
          1    1    1    2  502    0 -0.40276476368E+02  0.85025049904E+02  0.26870172680E+04  0.26886638414E+04  0.00000000000E+00 0. -1.
         22    1    3    3    0    0  0.43702707805E+02 -0.57200276266E+02 -0.10568762379E+01  0.71992466702E+02  0.00000000000E+00 0. -1.
         22    1    3    3    0    0  0.70060483247E+02 -0.44306900170E+02 -0.16956468512E+03  0.18874256318E+03  0.00000000000E+00 0. -1.
</event>
<event>
 7    1  0.6067783E-006  0.9185319E+02  0.7818608E-02  0.1338836E+00
          2   -1    0    0  502    0  0.00000000000E+00  0.00000000000E+00  0.10054112086E+04  0.10054112086E+04  0.00000000000E+00 0. -1.
          1   -1    0    0  501    0 -0.00000000000E+00 -0.00000000000E+00 -0.10497291361E+04  0.10497291361E+04  0.00000000000E+00 0. -1.
         25    2    1    2    0    0  0.47378087553E+02  0.29420201081E+02  0.53933852866E+02  0.14712120407E+03  0.12500222715E+03 0.  0.
          2    1    1    2  501    0 -0.91364348639E+02  0.17018064736E+02 -0.99984747298E+03  0.10041573721E+04  0.00000000000E+00 0. -1.
          1    1    1    2  502    0  0.43986261087E+02 -0.46438265816E+02  0.90159569255E+03  0.90386176848E+03  0.00000000000E+00 0. -1.
         22    1    3    3    0    0  0.80617908730E+02  0.26934662037E+02  0.70005969467E+02  0.11011611593E+03  0.00000000000E+00 0. -1.
         22    1    3    3    0    0 -0.33239821178E+02  0.24855390438E+01 -0.16072116602E+02  0.37005088141E+02  0.00000000000E+00 0. -1.
</event>
<event>
 7    1  0.6067783E-006  0.7741627E+02  0.7818608E-02  0.1363184E+00
          2   -1    0    0  502    0  0.00000000000E+00  0.00000000000E+00  0.62727974114E+03  0.62727974114E+03  0.00000000000E+00 0. -1.
          1   -1    0    0  501    0 -0.00000000000E+00 -0.00000000000E+00 -0.95910552634E+03  0.95910552634E+03  0.00000000000E+00 0. -1.
         25    2    1    2    0    0 -0.79547343001E+02 -0.36225850223E+02 -0.90679853858E+02  0.17745729329E+03  0.12501265154E+03 0.  0.
          2    1    1    2  501    0  0.29443469031E+02  0.72190783285E+02 -0.82155759393E+03  0.82524863357E+03  0.00000000000E+00 0. -1.
          1    1    1    2  502    0  0.50103873969E+02 -0.35964933062E+02  0.58041166259E+03  0.58367934062E+03  0.00000000000E+00 0. -1.
         22    1    3    3    0    0 -0.11242177975E+03 -0.18978135359E+02 -0.57615073762E+02  0.12774319124E+03  0.00000000000E+00 0.  1.
         22    1    3    3    0    0  0.32874436753E+02 -0.17247714864E+02 -0.33064780096E+02  0.49714102050E+02  0.00000000000E+00 0.  1.
</event>
<event>
 7    1  0.6067783E-006  0.7119070E+02  0.7818608E-02  0.1398402E+00
          2   -1    0    0  502    0  0.00000000000E+00  0.00000000000E+00  0.10726300343E+04  0.10726300343E+04  0.00000000000E+00 0. -1.
          1   -1    0    0  501    0 -0.00000000000E+00 -0.00000000000E+00 -0.15965456221E+03  0.15965456221E+03  0.00000000000E+00 0. -1.
         25    2    1    2    0    0 -0.20156209119E+02 -0.30074902586E+02  0.29073146887E+03  0.31852887559E+03  0.12500034026E+03 0.  0.
          2    1    1    2  501    0 -0.75868490529E+01  0.72080040970E+02 -0.13585911687E+03  0.15398309070E+03  0.00000000000E+00 0. -1.
          1    1    1    2  502    0  0.27743058171E+02 -0.42005138384E+02  0.75810312012E+03  0.75977263025E+03  0.00000000000E+00 0. -1.
         22    1    3    3    0    0  0.10496596143E+02  0.14959156997E+02 -0.40817908851E+01  0.18724740999E+02  0.00000000000E+00 0.  1.
         22    1    3    3    0    0 -0.30652805262E+02 -0.45034059583E+02  0.29481325975E+03  0.29980413459E+03  0.00000000000E+00 0.  1.
</event>
<event>
 7    1  0.6067783E-006  0.1192858E+03  0.7818608E-02  0.1450504E+00
          2   -1    0    0  502    0  0.00000000000E+00  0.00000000000E+00  0.29891935380E+03  0.29891935380E+03  0.00000000000E+00 0. -1.
          1   -1    0    0  501    0 -0.00000000000E+00 -0.00000000000E+00 -0.58907927443E+03  0.58907927443E+03  0.00000000000E+00 0. -1.
         25    2    1    2    0    0  0.11747409977E+03 -0.59140705170E+02 -0.34994560247E+03  0.39418201564E+03  0.12497899679E+03 0.  0.
          2    1    1    2  501    0 -0.99860002007E+02  0.49306109513E+02 -0.20231400279E+03  0.23094169862E+03  0.00000000000E+00 0. -1.
          1    1    1    2  502    0 -0.17614097764E+02  0.98345956572E+01  0.26209968463E+03  0.26287491397E+03  0.00000000000E+00 0. -1.
         22    1    3    3    0    0  0.37316715220E+02  0.33170206702E+02 -0.51803201080E+02  0.71947004730E+02  0.00000000000E+00 0. -1.
         22    1    3    3    0    0  0.80157384552E+02 -0.92310911872E+02 -0.29814240139E+03  0.32223501091E+03  0.00000000000E+00 0. -1.
</event>
<event>
 7    1  0.6067783E-006  0.3747262E+02  0.7818608E-02  0.1610158E+00
          2   -1    0    0  502    0  0.00000000000E+00  0.00000000000E+00  0.16983453614E+04  0.16983453614E+04  0.00000000000E+00 0. -1.
          1   -1    0    0  501    0 -0.00000000000E+00 -0.00000000000E+00 -0.29292853866E+03  0.29292853866E+03  0.00000000000E+00 0. -1.
         25    2    1    2    0    0 -0.17508185024E+02 -0.18877620075E+02 -0.51872726536E+02  0.13776415443E+03  0.12500112562E+03 0.  0.
          2    1    1    2  501    0  0.55566473603E+01  0.37756513213E+02 -0.19619601075E+03  0.19987322296E+03  0.00000000000E+00 0. -1.
          1    1    1    2  502    0  0.11951537664E+02 -0.18878893139E+02  0.16534855601E+04  0.16536365227E+04  0.00000000000E+00 0. -1.
         22    1    3    3    0    0  0.29891767860E+02 -0.35858179655E+02  0.19355817390E+02  0.50536862791E+02  0.00000000000E+00 0.  1.
         22    1    3    3    0    0 -0.47399952884E+02  0.16980559580E+02 -0.71228543926E+02  0.87227291640E+02  0.00000000000E+00 0.  1.
</event>
<event>
 7    1  0.6067783E-006  0.7569805E+02  0.7818608E-02  0.1431658E+00
          2   -1    0    0  502    0  0.00000000000E+00  0.00000000000E+00  0.54083181625E+03  0.54083181625E+03  0.00000000000E+00 0. -1.
          1   -1    0    0  501    0 -0.00000000000E+00 -0.00000000000E+00 -0.46578045186E+02  0.46578045186E+02  0.00000000000E+00 0. -1.
         25    2    1    2    0    0 -0.15244848717E+02  0.41766123899E+02  0.86235616750E+02  0.15824480273E+03  0.12501208533E+03 0.  0.
          2    1    1    2  501    0  0.14406461345E+01  0.36561292744E+02  0.47395794284E+02  0.59876246578E+02  0.00000000000E+00 0. -1.
          1    1    1    2  502    0  0.13804202582E+02 -0.78327416643E+02  0.36062236003E+03  0.36928881213E+03  0.00000000000E+00 0. -1.
         22    1    3    3    0    0 -0.70156413389E+02  0.24857953197E+02  0.57190731829E+02  0.93864902833E+02  0.00000000000E+00 0. -1.
         22    1    3    3    0    0  0.54911564672E+02  0.16908170701E+02  0.29044884922E+02  0.64379899901E+02  0.00000000000E+00 0. -1.
</event>
<event>
 7    1  0.6067783E-006  0.9843206E+02  0.7818608E-02  0.1446321E+00
          2   -1    0    0  502    0  0.00000000000E+00  0.00000000000E+00  0.73160808771E+02  0.73160808771E+02  0.00000000000E+00 0. -1.
          1   -1    0    0  501    0 -0.00000000000E+00 -0.00000000000E+00 -0.11793556418E+04  0.11793556418E+04  0.00000000000E+00 0. -1.
         25    2    1    2    0    0 -0.11988440891E+03 -0.31363185777E+00 -0.49709387444E+03  0.52640264455E+03  0.12500021727E+03 0.  0.
          2    1    1    2  501    0  0.23502439380E+02  0.91327685208E+01 -0.62715334385E+03  0.62766001054E+03  0.00000000000E+00 0. -1.
          1    1    1    2  502    0  0.96381969526E+02 -0.88191366631E+01  0.18052385312E+02  0.98453795441E+02  0.00000000000E+00 0. -1.
         22    1    3    3    0    0 -0.50807843676E+02 -0.38579900189E+02 -0.37904804419E+03  0.38437906483E+03  0.00000000000E+00 0.  1.
         22    1    3    3    0    0 -0.69076565230E+02  0.38266268331E+02 -0.11804583025E+03  0.14202357972E+03  0.00000000000E+00 0.  1.
</event>
<event>
 7    1  0.6067783E-006  0.1670141E+03  0.7818608E-02  0.1254384E+00
          2   -1    0    0  502    0  0.00000000000E+00  0.00000000000E+00  0.17962951191E+03  0.17962951191E+03  0.00000000000E+00 0. -1.
          1   -1    0    0  501    0 -0.00000000000E+00 -0.00000000000E+00 -0.18863924054E+04  0.18863924054E+04  0.00000000000E+00 0. -1.
         25    2    1    2    0    0 -0.14550109673E+03  0.17761970730E+03 -0.36744176529E+03  0.45095238938E+03  0.12500110815E+03 0.  0.
          2    1    1    2  501    0  0.12245295342E+03 -0.10414072779E+03 -0.14616807928E+04  0.14704933720E+04  0.00000000000E+00 0. -1.
          1    1    1    2  502    0  0.23048143311E+02 -0.73478979501E+02  0.12235966462E+03  0.14457615593E+03  0.00000000000E+00 0. -1.
         22    1    3    3    0    0 -0.13079453734E+03  0.11998094965E+03 -0.34385558789E+03  0.38696163195E+03  0.00000000000E+00 0. -1.
         22    1    3    3    0    0 -0.14706559388E+02  0.57638757649E+02 -0.23586177397E+02  0.63990757431E+02  0.00000000000E+00 0. -1.
</event>
<event>
 7    1  0.7455762E-006  0.6479516E+02  0.7818608E-02  0.1486927E+00
          2   -1    0    0  502    0  0.00000000000E+00  0.00000000000E+00  0.87158226768E+03  0.87158226768E+03  0.00000000000E+00 0. -1.
          1   -1    0    0  501    0 -0.00000000000E+00 -0.00000000000E+00 -0.19681112014E+04  0.19681112014E+04  0.00000000000E+00 0. -1.
         25    2    1    2    0    0  0.14312895615E+02  0.42261578913E+02 -0.21702600382E+03  0.25439361726E+03  0.12499970454E+03 0.  0.
          2    1    1    2  501    0  0.27658703357E+02  0.72624703734E+01 -0.17310478558E+04  0.17312840398E+04  0.00000000000E+00 0. -1.
          1    1    1    2  502    0 -0.41971598972E+02 -0.49524049287E+02  0.85154492584E+03  0.85401581209E+03  0.00000000000E+00 0. -1.
         22    1    3    3    0    0 -0.38022200790E+02  0.36035655142E+02 -0.18599791172E+03  0.19323426032E+03  0.00000000000E+00 0. -1.
         22    1    3    3    0    0  0.52335096406E+02  0.62259237710E+01 -0.31028092098E+02  0.61159356944E+02  0.00000000000E+00 0. -1.
</event>
<event>
 7    1  0.6067783E-006  0.4783216E+02  0.7818608E-02  0.1461216E+00
          2   -1    0    0  502    0  0.00000000000E+00  0.00000000000E+00  0.97264105052E+03  0.97264105052E+03  0.00000000000E+00 0. -1.
          1   -1    0    0  501    0 -0.00000000000E+00 -0.00000000000E+00 -0.26361364696E+03  0.26361364696E+03  0.00000000000E+00 0. -1.
         25    2    1    2    0    0 -0.20844597565E+02  0.17853973554E+02 -0.61158248337E+02  0.14184622351E+03  0.12500703246E+03 0.  0.
          2    1    1    2  501    0  0.37796127429E+02  0.27125362280E+02 -0.15813903025E+03  0.16484018143E+03  0.00000000000E+00 0. -1.
          1    1    1    2  502    0 -0.16951529864E+02 -0.44979335834E+02  0.92832468214E+03  0.92956829254E+03  0.00000000000E+00 0. -1.
         22    1    3    3    0    0 -0.73299205851E+02  0.51582517876E+01 -0.41622851472E+02  0.84450239222E+02  0.00000000000E+00 0. -1.
         22    1    3    3    0    0  0.52454608286E+02  0.12695721767E+02 -0.19535396865E+02  0.57395984287E+02  0.00000000000E+00 0. -1.
</event>
<event>
 7    1  0.6067783E-006  0.5286128E+02  0.7818608E-02  0.1487692E+00
          2   -1    0    0  502    0  0.00000000000E+00  0.00000000000E+00  0.23346875348E+04  0.23346875348E+04  0.00000000000E+00 0. -1.
          1   -1    0    0  501    0 -0.00000000000E+00 -0.00000000000E+00 -0.10745811943E+03  0.10745811943E+03  0.00000000000E+00 0. -1.
         25    2    1    2    0    0 -0.65202471817E+02  0.35633293943E+02  0.24674923125E+03  0.28641365103E+03  0.12500600948E+03 0.  0.
          2    1    1    2  501    0  0.52328890027E+02 -0.32318983198E+01 -0.79622873011E+02  0.95333938368E+02  0.00000000000E+00 0. -1.
          1    1    1    2  502    0  0.12873581790E+02 -0.32401395623E+02  0.20601030571E+04  0.20603980648E+04  0.00000000000E+00 0. -1.
         22    1    3    3    0    0 -0.64875991149E+02  0.56452988132E+02  0.25085817364E+03  0.26518985158E+03  0.00000000000E+00 0.  1.
         22    1    3    3    0    0 -0.32648066828E+00 -0.20819694189E+02 -0.41089423882E+01  0.21223799455E+02  0.00000000000E+00 0.  1.
</event>
<event>
 7    1  0.6067783E-006  0.8649749E+02  0.7818608E-02  0.1326180E+00
          2   -1    0    0  502    0  0.00000000000E+00  0.00000000000E+00  0.44999028390E+03  0.44999028390E+03  0.00000000000E+00 0. -1.
          1   -1    0    0  501    0 -0.00000000000E+00 -0.00000000000E+00 -0.12697460781E+04  0.12697460781E+04  0.00000000000E+00 0. -1.
         25    2    1    2    0    0 -0.14947648067E+03  0.39496010807E+02 -0.17726949933E+03  0.26636893324E+03  0.12499912024E+03 0.  0.
          2    1    1    2  501    0  0.64254981670E+02 -0.40380716647E+02 -0.10420529114E+04  0.10448126985E+04  0.00000000000E+00 0. -1.
          1    1    1    2  502    0  0.85221498997E+02  0.88470584052E+00  0.39956661647E+03  0.40855473023E+03  0.00000000000E+00 0. -1.
         22    1    3    3    0    0 -0.11308299602E+03  0.69414522884E+02 -0.17444198275E+03  0.21917149751E+03  0.00000000000E+00 0. -1.
         22    1    3    3    0    0 -0.36393484643E+02 -0.29918512078E+02 -0.28275165821E+01  0.47197435729E+02  0.00000000000E+00 0. -1.
</event>
<event>
 7    1  0.6067783E-006  0.5306151E+02  0.7818608E-02  0.1500782E+00
          2   -1    0    0  502    0  0.00000000000E+00  0.00000000000E+00  0.56508140002E+03  0.56508140002E+03  0.00000000000E+00 0. -1.
          1   -1    0    0  501    0 -0.00000000000E+00 -0.00000000000E+00 -0.63636472694E+03  0.63636472694E+03  0.00000000000E+00 0. -1.
         25    2    1    2    0    0 -0.65971042677E+02  0.48292689354E+02 -0.10228539716E+03  0.18103106274E+03  0.12500232353E+03 0.  0.
          2    1    1    2  501    0  0.18063753024E+02 -0.26077715361E+02 -0.49286916251E+03  0.49388901361E+03  0.00000000000E+00 0. -1.
          1    1    1    2  502    0  0.47907289653E+02 -0.22214973993E+02  0.52387123275E+03  0.52652605061E+03  0.00000000000E+00 0. -1.
         22    1    3    3    0    0 -0.78955113779E+02  0.25993455296E+02 -0.82646582619E+01  0.83533671572E+02  0.00000000000E+00 0.  1.
         22    1    3    3    0    0  0.12984071102E+02  0.22299234057E+02 -0.94020738895E+02  0.97497391167E+02  0.00000000000E+00 0.  1.
</event>
<event>
 7    1  0.6067783E-006  0.2329945E+03  0.7818608E-02  0.1161817E+00
          2   -1    0    0  502    0  0.00000000000E+00  0.00000000000E+00  0.90256914607E+03  0.90256914607E+03  0.00000000000E+00 0. -1.
          1   -1    0    0  501    0 -0.00000000000E+00 -0.00000000000E+00 -0.27013533062E+03  0.27013533062E+03  0.00000000000E+00 0. -1.
         25    2    1    2    0    0  0.28538834318E+02  0.46046420222E+02  0.54725208358E+02  0.14681173638E+03  0.12499639847E+03 0.  0.
          2    1    1    2  501    0 -0.23068197802E+03  0.69818069360E+02 -0.13487261224E+03  0.27618718168E+03  0.00000000000E+00 0. -1.
          1    1    1    2  502    0  0.20214314370E+03 -0.11586448958E+03  0.71258121934E+03  0.74970555863E+03  0.00000000000E+00 0. -1.
         22    1    3    3    0    0 -0.17287426112E+02  0.54145998541E+01  0.78911123766E+02  0.80963809491E+02  0.00000000000E+00 0.  1.
         22    1    3    3    0    0  0.45826260429E+02  0.40631820368E+02 -0.24185915408E+02  0.65847926888E+02  0.00000000000E+00 0.  1.
</event>
<event>
 7    1  0.6067783E-006  0.1308226E+03  0.7818608E-02  0.1296046E+00
          2   -1    0    0  502    0  0.00000000000E+00  0.00000000000E+00  0.32252660963E+04  0.32252660963E+04  0.00000000000E+00 0. -1.
          1   -1    0    0  501    0 -0.00000000000E+00 -0.00000000000E+00 -0.60904906235E+02  0.60904906235E+02  0.00000000000E+00 0. -1.
         25    2    1    2    0    0  0.15896072023E+03  0.50872163913E+02  0.24776222240E+04  0.24863814358E+04  0.12499708757E+03 0.  0.
          2    1    1    2  501    0 -0.64537671014E+02 -0.13468236270E+02 -0.32438513033E+02  0.73476264847E+02  0.00000000000E+00 0. -1.
          1    1    1    2  502    0 -0.94423049212E+02 -0.37403927642E+02  0.71917747911E+03  0.72631330187E+03  0.00000000000E+00 0. -1.
         22    1    3    3    0    0  0.20627572135E+02 -0.37354641144E+02  0.39208725484E+03  0.39440243578E+03  0.00000000000E+00 0.  1.
         22    1    3    3    0    0  0.13833314809E+03  0.88226805057E+02  0.20855349691E+04  0.20919790000E+04  0.00000000000E+00 0.  1.
</event>
<event>
 7    1  0.6067783E-006  0.1071977E+03  0.7818608E-02  0.1390144E+00
          2   -1    0    0  502    0  0.00000000000E+00  0.00000000000E+00  0.66172098635E+03  0.66172098635E+03  0.00000000000E+00 0. -1.
          1   -1    0    0  501    0 -0.00000000000E+00 -0.00000000000E+00 -0.83043342115E+02  0.83043342115E+02  0.00000000000E+00 0. -1.
         25    2    1    2    0    0  0.73638292951E+02  0.21797938459E+02  0.81057078311E+02  0.16760820663E+03  0.12499805069E+03 0.  0.
          2    1    1    2  501    0  0.29595677327E+02  0.19981949676E+02 -0.24489670197E+02  0.43300420040E+02  0.00000000000E+00 0. -1.
          1    1    1    2  502    0 -0.10323397028E+03 -0.41779888135E+02  0.52211023612E+03  0.53385570179E+03  0.00000000000E+00 0. -1.
         22    1    3    3    0    0  0.38122214528E+02 -0.30321469861E+02  0.91520719291E+02  0.10367611506E+03  0.00000000000E+00 0. -1.
         22    1    3    3    0    0  0.35516078423E+02  0.52119408320E+02 -0.10463640980E+02  0.63932091572E+02  0.00000000000E+00 0. -1.
</event>
<event>
 7    1  0.6067783E-006  0.2869822E+02  0.7818608E-02  0.1649610E+00
          2   -1    0    0  502    0  0.00000000000E+00  0.00000000000E+00  0.95614655126E+03  0.95614655126E+03  0.00000000000E+00 0. -1.
          1   -1    0    0  501    0 -0.00000000000E+00 -0.00000000000E+00 -0.11910898016E+04  0.11910898016E+04  0.00000000000E+00 0. -1.
         25    2    1    2    0    0  0.96113461967E+00  0.89026176491E+01  0.24615031581E+03  0.27621409734E+03  0.12499627680E+03 0.  0.
          2    1    1    2  501    0 -0.22262383422E+02 -0.18133795216E+02 -0.11756886967E+04  0.11760392679E+04  0.00000000000E+00 0. -1.
          1    1    1    2  502    0  0.21301248802E+02  0.92311775664E+01  0.69459513047E+03  0.69498298764E+03  0.00000000000E+00 0. -1.
         22    1    3    3    0    0 -0.30916812966E+02  0.50299476415E+02  0.65604163664E+02  0.88259803657E+02  0.00000000000E+00 0.  1.
         22    1    3    3    0    0  0.31877947585E+02 -0.41396858765E+02  0.18054615215E+03  0.18795429368E+03  0.00000000000E+00 0.  1.
</event>
<event>
 7    1  0.6067783E-006  0.8017347E+02  0.7818608E-02  0.1344018E+00
          2   -1    0    0  502    0  0.00000000000E+00  0.00000000000E+00  0.20401838368E+04  0.20401838368E+04  0.00000000000E+00 0. -1.
          1   -1    0    0  501    0 -0.00000000000E+00 -0.00000000000E+00 -0.18264863142E+02  0.18264863142E+02  0.00000000000E+00 0. -1.
         25    2    1    2    0    0 -0.40314309225E+02  0.50312790413E+01  0.60622341480E+03  0.62030935514E+03  0.12500524038E+03 0.  0.
          2    1    1    2  501    0 -0.14920210550E+02  0.68464606103E+02  0.11833451013E+03  0.13752480235E+03  0.00000000000E+00 0. -1.
          1    1    1    2  502    0  0.55234519775E+02 -0.73495885144E+02  0.12973610487E+04  0.13006145425E+04  0.00000000000E+00 0. -1.
         22    1    3    3    0    0 -0.82326861928E+02  0.96696792945E+01  0.48241017665E+03  0.48948012567E+03  0.00000000000E+00 0. -1.
         22    1    3    3    0    0  0.42012552703E+02 -0.46384002532E+01  0.12381323816E+03  0.13082922947E+03  0.00000000000E+00 0. -1.
</event>
<event>
 7    1  0.6067783E-006  0.1256132E+03  0.7818608E-02  0.1272083E+00
          2   -1    0    0  502    0  0.00000000000E+00  0.00000000000E+00  0.42256172825E+03  0.42256172825E+03  0.00000000000E+00 0. -1.
          1   -1    0    0  501    0 -0.00000000000E+00 -0.00000000000E+00 -0.73219586776E+03  0.73219586776E+03  0.00000000000E+00 0. -1.
         25    2    1    2    0    0  0.41767411218E+02 -0.90797080111E+02 -0.19157071872E+03  0.24962113792E+03  0.12499098300E+03 0.  0.
          2    1    1    2  501    0 -0.12388619611E+03  0.64846726470E+02 -0.49712400109E+03  0.51641568526E+03  0.00000000000E+00 0. -1.
          1    1    1    2  502    0  0.82118784897E+02  0.25950353641E+02  0.37906058030E+03  0.38872077283E+03  0.00000000000E+00 0. -1.
         22    1    3    3    0    0 -0.43209657714E+02 -0.38415982072E+02 -0.91771775137E+02  0.10846622013E+03  0.00000000000E+00 0. -1.
         22    1    3    3    0    0  0.84977068932E+02 -0.52381098038E+02 -0.99798943581E+02  0.14115491779E+03  0.00000000000E+00 0. -1.
</event>
<event>
 7    1  0.6067783E-006  0.2006297E+03  0.7818608E-02  0.1224084E+00
          2   -1    0    0  502    0  0.00000000000E+00  0.00000000000E+00  0.10346146473E+04  0.10346146473E+04  0.00000000000E+00 0. -1.
          1   -1    0    0  501    0 -0.00000000000E+00 -0.00000000000E+00 -0.57808028000E+03  0.57808028000E+03  0.00000000000E+00 0. -1.
         25    2    1    2    0    0 -0.37838553259E+01 -0.14785823227E+03  0.78295017874E+02  0.20887782076E+03  0.12499383892E+03 0.  0.
          2    1    1    2  501    0  0.68182085231E+02 -0.54424362414E+02 -0.49628573356E+03  0.50389516499E+03  0.00000000000E+00 0. -1.
          1    1    1    2  502    0 -0.64398229905E+02  0.20228259468E+03  0.87452508302E+03  0.89992194159E+03  0.00000000000E+00 0. -1.
         22    1    3    3    0    0 -0.20349521158E+02 -0.86165722616E+02 -0.20830036936E+02  0.90953423268E+02  0.00000000000E+00 0.  1.
         22    1    3    3    0    0  0.16565665832E+02 -0.61692509654E+02  0.99125054810E+02  0.11792439749E+03  0.00000000000E+00 0.  1.
</event>
<event>
 7    1  0.6067783E-006  0.5258252E+02  0.7818608E-02  0.1449735E+00
          2   -1    0    0  502    0  0.00000000000E+00  0.00000000000E+00  0.29429833152E+04  0.29429833152E+04  0.00000000000E+00 0. -1.
          1   -1    0    0  501    0 -0.00000000000E+00 -0.00000000000E+00 -0.67572307110E+03  0.67572307110E+03  0.00000000000E+00 0. -1.
         25    2    1    2    0    0  0.99203892335E+01 -0.73292482605E+01  0.17520440536E+04  0.17565407563E+04  0.12499972374E+03 0.  0.
          2    1    1    2  501    0  0.45146571852E+02  0.26957523355E+02 -0.67172785412E+03  0.67378277732E+03  0.00000000000E+00 0. -1.
          1    1    1    2  502    0 -0.55066961085E+02 -0.19628275094E+02  0.11869440446E+04  0.11883828526E+04  0.00000000000E+00 0. -1.
         22    1    3    3    0    0  0.61998970019E+02  0.21683943307E+02  0.97984896835E+03  0.98204789418E+03  0.00000000000E+00 0.  1.
         22    1    3    3    0    0 -0.52078580785E+02 -0.29013191568E+02  0.77219508525E+03  0.77449286217E+03  0.00000000000E+00 0.  1.
</event>
<event>
 7    1  0.6067783E-006  0.5186817E+02  0.7818608E-02  0.1517495E+00
          2   -1    0    0  502    0  0.00000000000E+00  0.00000000000E+00  0.96995636053E+03  0.96995636053E+03  0.00000000000E+00 0. -1.
          1   -1    0    0  501    0 -0.00000000000E+00 -0.00000000000E+00 -0.18497168823E+03  0.18497168823E+03  0.00000000000E+00 0. -1.
         25    2    1    2    0    0  0.52048518296E+01  0.34630839192E+02  0.70982688181E+03  0.72159953885E+03  0.12500122728E+03 0.  0.
          2    1    1    2  501    0 -0.38510900783E+01  0.28716119397E+02 -0.17392060204E+03  0.17631739058E+03  0.00000000000E+00 0. -1.
          1    1    1    2  502    0 -0.13537617513E+01 -0.63346958588E+02  0.24907839253E+03  0.25701111933E+03  0.00000000000E+00 0. -1.
         22    1    3    3    0    0  0.53520044438E+02  0.55204453023E+02  0.39313917936E+03  0.40058749498E+03  0.00000000000E+00 0.  1.
         22    1    3    3    0    0 -0.48315192609E+02 -0.20573613832E+02  0.31668770245E+03  0.32101204386E+03  0.00000000000E+00 0.  1.
</event>
<event>
 7    1  0.6067783E-006  0.5507465E+02  0.7818608E-02  0.1536449E+00
          2   -1    0    0  502    0  0.00000000000E+00  0.00000000000E+00  0.35512053698E+03  0.35512053698E+03  0.00000000000E+00 0. -1.
          1   -1    0    0  501    0 -0.00000000000E+00 -0.00000000000E+00 -0.28994939377E+03  0.28994939377E+03  0.00000000000E+00 0. -1.
         25    2    1    2    0    0  0.14542205931E+02  0.31823543641E+02  0.38120474028E+02  0.13528532360E+03  0.12499893822E+03 0.  0.
          2    1    1    2  501    0  0.20824426513E+02  0.12064623299E+02 -0.23779388611E+03  0.23900866961E+03  0.00000000000E+00 0. -1.
          1    1    1    2  502    0 -0.35366632444E+02 -0.43888166940E+02  0.26484455530E+03  0.27077593755E+03  0.00000000000E+00 0. -1.
         22    1    3    3    0    0  0.14700843069E+02  0.78457738005E+02  0.38560033142E+02  0.88648787898E+02  0.00000000000E+00 0.  1.
         22    1    3    3    0    0 -0.15863713873E+00 -0.46634194364E+02 -0.43955911421E+00  0.46636535698E+02  0.00000000000E+00 0.  1.
</event>
<event>
 7    1  0.6067783E-006  0.7306423E+02  0.7818608E-02  0.1408732E+00
          2   -1    0    0  502    0  0.00000000000E+00  0.00000000000E+00  0.43882058821E+02  0.43882058821E+02  0.00000000000E+00 0. -1.
          1   -1    0    0  501    0 -0.00000000000E+00 -0.00000000000E+00 -0.13104001111E+04  0.13104001111E+04  0.00000000000E+00 0. -1.
         25    2    1    2    0    0 -0.60805305502E+02 -0.96449617714E+02 -0.34139688818E+03  0.38101840339E+03  0.12499349795E+03 0.  0.
          2    1    1    2  501    0  0.45014277698E+02  0.54080483631E+02 -0.92537563639E+03  0.92804690201E+03  0.00000000000E+00 0. -1.
          1    1    1    2  502    0  0.15791027805E+02  0.42369134083E+02  0.25447227850E+00  0.45216864533E+02  0.00000000000E+00 0. -1.
         22    1    3    3    0    0 -0.48667476654E+02  0.17259950895E+02 -0.74410817245E+02  0.90572616788E+02  0.00000000000E+00 0.  1.
         22    1    3    3    0    0 -0.12137828848E+02 -0.11370956861E+03 -0.26698607094E+03  0.29044578661E+03  0.00000000000E+00 0.  1.
</event>
<event>
 7    1  0.6067783E-006  0.7600493E+02  0.7818608E-02  0.1369228E+00
          2   -1    0    0  502    0  0.00000000000E+00  0.00000000000E+00  0.87388331837E+03  0.87388331837E+03  0.00000000000E+00 0. -1.
          1   -1    0    0  501    0 -0.00000000000E+00 -0.00000000000E+00 -0.19760819749E+03  0.19760819749E+03  0.00000000000E+00 0. -1.
         25    2    1    2    0    0 -0.67718708913E+02 -0.98330700936E+02  0.28318223921E+03  0.33177132761E+03  0.12500113174E+03 0.  0.
          2    1    1    2  501    0  0.64393616899E+02  0.38685284775E+02 -0.16349958925E+03  0.17993111138E+03  0.00000000000E+00 0. -1.
          1    1    1    2  502    0  0.33250920137E+01  0.59645416161E+02  0.55659247092E+03  0.55978907688E+03  0.00000000000E+00 0. -1.
         22    1    3    3    0    0 -0.91251570030E+02 -0.25214328486E+02  0.13531832788E+03  0.16514739251E+03  0.00000000000E+00 0. -1.
         22    1    3    3    0    0  0.23532861117E+02 -0.73116372450E+02  0.14786391133E+03  0.16662393509E+03  0.00000000000E+00 0. -1.
</event>
<event>
 7    1  0.6067783E-006  0.1959815E+03  0.7818608E-02  0.1378839E+00
          2   -1    0    0  502    0  0.00000000000E+00  0.00000000000E+00  0.14563010578E+04  0.14563010578E+04  0.00000000000E+00 0. -1.
          1   -1    0    0  501    0 -0.00000000000E+00 -0.00000000000E+00 -0.60122021879E+03  0.60122021879E+03  0.00000000000E+00 0. -1.
         25    2    1    2    0    0 -0.66715737318E+02 -0.19495024415E+03  0.13963203804E+03  0.27853097731E+03  0.12500324787E+03 0.  0.
          2    1    1    2  501    0  0.20687069675E+02  0.55002770845E+01 -0.52393193309E+03  0.52436902884E+03  0.00000000000E+00 0. -1.
          1    1    1    2  502    0  0.46028667643E+02  0.18944996706E+03  0.12393807341E+04  0.12546212705E+04  0.00000000000E+00 0. -1.
         22    1    3    3    0    0 -0.76245146079E+02 -0.40741491312E+02  0.52890394334E+02  0.10134389586E+03  0.00000000000E+00 0. -1.
         22    1    3    3    0    0  0.95294087607E+01 -0.15420875283E+03  0.86741643709E+02  0.17718708146E+03  0.00000000000E+00 0. -1.
</event>
<event>
 7    1  0.6067783E-006  0.1648508E+03  0.7818608E-02  0.1190643E+00
          2   -1    0    0  502    0  0.00000000000E+00  0.00000000000E+00  0.32988042737E+02  0.32988042737E+02  0.00000000000E+00 0. -1.
          1   -1    0    0  501    0 -0.00000000000E+00 -0.00000000000E+00 -0.30362237071E+04  0.30362237071E+04  0.00000000000E+00 0. -1.
         25    2    1    2    0    0 -0.74792620810E+02  0.15115955457E+03 -0.86412447011E+03  0.88925759554E+03  0.12499929721E+03 0.  0.
          2    1    1    2  501    0 -0.90048065752E+02 -0.15298669269E+03 -0.46479316670E+03  0.49754021958E+03  0.00000000000E+00 0. -1.
          1    1    1    2  502    0  0.16484068656E+03  0.18271381179E+01 -0.16743180276E+04  0.16824139348E+04  0.00000000000E+00 0. -1.
         22    1    3    3    0    0 -0.19138434258E+02  0.10340337310E+03 -0.25644204812E+03  0.27716612578E+03  0.00000000000E+00 0. -1.
         22    1    3    3    0    0 -0.55654186551E+02  0.47756181466E+02 -0.60768242200E+03  0.61209146976E+03  0.00000000000E+00 0. -1.
</event>
<event>
 7    1  0.6067783E-006  0.5175459E+02  0.7818608E-02  0.1436452E+00
          2   -1    0    0  502    0  0.00000000000E+00  0.00000000000E+00  0.26869552974E+03  0.26869552974E+03  0.00000000000E+00 0. -1.
          1   -1    0    0  501    0 -0.00000000000E+00 -0.00000000000E+00 -0.78560321676E+03  0.78560321676E+03  0.00000000000E+00 0. -1.
         25    2    1    2    0    0  0.11370714639E+02  0.17760221146E+02 -0.68366856212E+02  0.14401814802E+03  0.12498992489E+03 0.  0.
          2    1    1    2  501    0  0.35502191673E+02 -0.39378908857E+02 -0.67547363666E+03  0.67755128064E+03  0.00000000000E+00 0. -1.
          1    1    1    2  502    0 -0.46872906312E+02  0.21618687711E+02  0.22693280585E+03  0.23272931783E+03  0.00000000000E+00 0. -1.
         22    1    3    3    0    0 -0.28364373154E+02  0.21309280391E+02  0.24386024026E+02  0.43049985633E+02  0.00000000000E+00 0.  1.
         22    1    3    3    0    0  0.39735087793E+02 -0.35490592450E+01 -0.92752880238E+02  0.10096816239E+03  0.00000000000E+00 0.  1.
</event>
<event>
 7    1  0.6067783E-006  0.6719652E+02  0.7818608E-02  0.1444535E+00
          2   -1    0    0  502    0  0.00000000000E+00  0.00000000000E+00  0.46362775761E+03  0.46362775761E+03  0.00000000000E+00 0. -1.
          1   -1    0    0  501    0 -0.00000000000E+00 -0.00000000000E+00 -0.24794373486E+03  0.24794373486E+03  0.00000000000E+00 0. -1.
         25    2    1    2    0    0  0.34826577279E+02  0.51166552701E+01 -0.24342290824E+02  0.13211446048E+03  0.12499045123E+03 0.  0.
          2    1    1    2  501    0  0.25316264180E+02  0.27566447549E+02 -0.16474289307E+03  0.16894094554E+03  0.00000000000E+00 0. -1.
          1    1    1    2  502    0 -0.60142841459E+02 -0.32683102819E+02  0.40476920664E+03  0.41051608645E+03  0.00000000000E+00 0. -1.
         22    1    3    3    0    0  0.25517960976E+02  0.49156647066E+02  0.28836526477E+02  0.62442674049E+02  0.00000000000E+00 0. -1.
         22    1    3    3    0    0  0.93086163037E+01 -0.44039991796E+02 -0.53178817301E+02  0.69671786430E+02  0.00000000000E+00 0. -1.
</event>
<event>
 7    1  0.6067783E-006  0.1181013E+03  0.7818608E-02  0.1286813E+00
          2   -1    0    0  502    0  0.00000000000E+00  0.00000000000E+00  0.10866033304E+04  0.10866033304E+04  0.00000000000E+00 0. -1.
          1   -1    0    0  501    0 -0.00000000000E+00 -0.00000000000E+00 -0.17784185432E+03  0.17784185432E+03  0.00000000000E+00 0. -1.
         25    2    1    2    0    0  0.90774598112E+02 -0.13491506038E+03  0.43559289037E+03  0.48146429049E+03  0.12499838275E+03 0.  0.
          2    1    1    2  501    0  0.55445761672E+01  0.79416746903E+02 -0.13933342087E+03  0.16047293910E+03  0.00000000000E+00 0. -1.
          1    1    1    2  502    0 -0.96319174279E+02  0.55498313479E+02  0.61250200657E+03  0.62250795511E+03  0.00000000000E+00 0. -1.
         22    1    3    3    0    0  0.36244047991E+02  0.68464563558E+01  0.27458479116E+02  0.45983399774E+02  0.00000000000E+00 0. -1.
         22    1    3    3    0    0  0.54530550121E+02 -0.14176151674E+03  0.40813441126E+03  0.43548089071E+03  0.00000000000E+00 0. -1.
</event>
<event>
 7    1  0.6067783E-006  0.1172311E+03  0.7818608E-02  0.1355617E+00
          2   -1    0    0  502    0  0.00000000000E+00  0.00000000000E+00  0.14842236134E+04  0.14842236134E+04  0.00000000000E+00 0. -1.
          1   -1    0    0  501    0 -0.00000000000E+00 -0.00000000000E+00 -0.67893979960E+03  0.67893979960E+03  0.00000000000E+00 0. -1.
         25    2    1    2    0    0  0.50036204794E+02  0.70615183346E+02 -0.43847973918E+03  0.46409109117E+03  0.12500373325E+03 0.  0.
          2    1    1    2  501    0 -0.13934131900E+02  0.41107712620E+02 -0.22321839325E+03  0.22739932971E+03  0.00000000000E+00 0. -1.
          1    1    1    2  502    0 -0.36102072894E+02 -0.11172289597E+03  0.14669819462E+04  0.14716729921E+04  0.00000000000E+00 0. -1.
         22    1    3    3    0    0  0.86721016097E+02  0.75106582233E+02 -0.34477298928E+03  0.36335925400E+03  0.00000000000E+00 0. -1.
         22    1    3    3    0    0 -0.36684811303E+02 -0.44913988872E+01 -0.93706749899E+02  0.10073183718E+03  0.00000000000E+00 0. -1.
</event>
<event>
 7    1  0.6067783E-006  0.2907046E+02  0.7818608E-02  0.1622244E+00
          2   -1    0    0  502    0  0.00000000000E+00  0.00000000000E+00  0.19859451190E+04  0.19859451190E+04  0.00000000000E+00 0. -1.
          1   -1    0    0  501    0 -0.00000000000E+00 -0.00000000000E+00 -0.14010189239E+02  0.14010189239E+02  0.00000000000E+00 0. -1.
         25    2    1    2    0    0 -0.35633283106E+02 -0.17910997407E+02  0.48206383608E+03  0.49960139428E+03  0.12500190565E+03 0.  0.
          2    1    1    2  501    0  0.25191812748E+02 -0.92081048602E+01  0.30190927419E+02  0.40384510930E+02  0.00000000000E+00 0. -1.
          1    1    1    2  502    0  0.10441470358E+02  0.27119102267E+02  0.14596801663E+04  0.14599694030E+04  0.00000000000E+00 0. -1.
         22    1    3    3    0    0 -0.38972230057E+02 -0.58492096878E+02  0.41674458297E+03  0.42263010725E+03  0.00000000000E+00 0. -1.
         22    1    3    3    0    0  0.33389469509E+01  0.40581099471E+02  0.65319253108E+02  0.76971287034E+02  0.00000000000E+00 0. -1.
</event>
<event>
 7    1  0.6067783E-006  0.9970635E+02  0.7818608E-02  0.1465095E+00
          2   -1    0    0  502    0  0.00000000000E+00  0.00000000000E+00  0.11190959333E+04  0.11190959333E+04  0.00000000000E+00 0. -1.
          1   -1    0    0  501    0 -0.00000000000E+00 -0.00000000000E+00 -0.27229075941E+04  0.27229075941E+04  0.00000000000E+00 0. -1.
         25    2    1    2    0    0  0.99543360426E+02  0.27896931198E+01 -0.66250560902E+03  0.68150966156E+03  0.12500029534E+03 0.  0.
          2    1    1    2  501    0 -0.98193760794E+02  0.18869223672E+02 -0.20495749340E+04  0.20520125420E+04  0.00000000000E+00 0. -1.
          1    1    1    2  502    0 -0.13495996323E+01 -0.21658916792E+02  0.11082688822E+04  0.11084813239E+04  0.00000000000E+00 0. -1.
         22    1    3    3    0    0 -0.25969403868E+02  0.20267620420E+02 -0.14908084261E+03  0.15267705789E+03  0.00000000000E+00 0.  1.
         22    1    3    3    0    0  0.12551276429E+03 -0.17477927300E+02 -0.51342476641E+03  0.52883260367E+03  0.00000000000E+00 0.  1.
</event>
<event>
 7    1  0.6067783E-006  0.1188142E+03  0.7818608E-02  0.1342068E+00
          2   -1    0    0  502    0  0.00000000000E+00  0.00000000000E+00  0.47405808508E+04  0.47405808508E+04  0.00000000000E+00 0. -1.
          1   -1    0    0  501    0 -0.00000000000E+00 -0.00000000000E+00 -0.81110510960E+03  0.81110510960E+03  0.00000000000E+00 0. -1.
         25    2    1    2    0    0  0.32789568823E+02 -0.89725107206E+02  0.18200733533E+03  0.24057657171E+03  0.12499866422E+03 0.  0.
          2    1    1    2  501    0 -0.37731900306E+02 -0.29806483879E+02 -0.78029029290E+03  0.78177046758E+03  0.00000000000E+00 0. -1.
          1    1    1    2  502    0  0.49423314830E+01  0.11953159109E+03  0.45277586987E+04  0.45293389211E+04  0.00000000000E+00 0. -1.
         22    1    3    3    0    0  0.44260316079E+02  0.10897116199E+02  0.10128026620E+03  0.11106491364E+03  0.00000000000E+00 0.  1.
         22    1    3    3    0    0 -0.11470747256E+02 -0.10062222341E+03  0.80727069127E+02  0.12951165807E+03  0.00000000000E+00 0.  1.
</event>
<event>
 7    1  0.6067783E-006  0.6888873E+02  0.7818608E-02  0.1408044E+00
          2   -1    0    0  502    0  0.00000000000E+00  0.00000000000E+00  0.25475325826E+03  0.25475325826E+03  0.00000000000E+00 0. -1.
          1   -1    0    0  501    0 -0.00000000000E+00 -0.00000000000E+00 -0.12490884363E+04  0.12490884363E+04  0.00000000000E+00 0. -1.
         25    2    1    2    0    0 -0.12876553591E+02  0.67095062897E+02 -0.42855347881E+03  0.45161085500E+03  0.12500690804E+03 0.  0.
          2    1    1    2  501    0 -0.35035219219E+02 -0.61691521459E+02 -0.80504131209E+03  0.80816138523E+03  0.00000000000E+00 0. -1.
          1    1    1    2  502    0  0.47911772810E+02 -0.54035414380E+01  0.23925961281E+03  0.24406945437E+03  0.00000000000E+00 0. -1.
         22    1    3    3    0    0 -0.30931185460E+02  0.76353518246E+01 -0.35001673700E+03  0.35146372930E+03  0.00000000000E+00 0.  1.
         22    1    3    3    0    0  0.18054631869E+02  0.59459711072E+02 -0.78536741808E+02  0.10014712570E+03  0.00000000000E+00 0.  1.
</event>
<event>
 7    1  0.6067783E-006  0.6957963E+02  0.7818608E-02  0.1367933E+00
          2   -1    0    0  502    0  0.00000000000E+00  0.00000000000E+00  0.80783627486E+03  0.80783627486E+03  0.00000000000E+00 0. -1.
          1   -1    0    0  501    0 -0.00000000000E+00 -0.00000000000E+00 -0.34070338941E+03  0.34070338941E+03  0.00000000000E+00 0. -1.
         25    2    1    2    0    0  0.10515283221E+03  0.62595071079E+02  0.58628679403E+03  0.61182580498E+03  0.12499339881E+03 0.  0.
          2    1    1    2  501    0 -0.68914635848E+02 -0.74822423504E+01 -0.31890622633E+03  0.32635317093E+03  0.00000000000E+00 0. -1.
          1    1    1    2  502    0 -0.36238196360E+02 -0.55112828728E+02  0.19975231774E+03  0.21036068836E+03  0.00000000000E+00 0. -1.
         22    1    3    3    0    0  0.13052322551E+03  0.43668552189E+02  0.52631650279E+03  0.54401499607E+03  0.00000000000E+00 0.  1.
         22    1    3    3    0    0 -0.25370393298E+02  0.18926518889E+02  0.59970291243E+02  0.67810808911E+02  0.00000000000E+00 0.  1.
</event>
<event>
 7    1  0.6067783E-006  0.1171898E+03  0.7818608E-02  0.1294694E+00
          2   -1    0    0  502    0  0.00000000000E+00  0.00000000000E+00  0.11547626507E+03  0.11547626507E+03  0.00000000000E+00 0. -1.
          1   -1    0    0  501    0 -0.00000000000E+00 -0.00000000000E+00 -0.11053906733E+04  0.11053906733E+04  0.00000000000E+00 0. -1.
         25    2    1    2    0    0 -0.12068725869E+03 -0.59587090769E+02 -0.22607352045E+03  0.29128811080E+03  0.12499396404E+03 0.  0.
          2    1    1    2  501    0  0.61609496213E+02 -0.41936288433E+02 -0.80247397075E+03  0.80592732678E+03  0.00000000000E+00 0. -1.
          1    1    1    2  502    0  0.59077762476E+02  0.10152337920E+03  0.38633082996E+02  0.12365150078E+03  0.00000000000E+00 0. -1.
         22    1    3    3    0    0 -0.92552459093E+01  0.34744749258E+02 -0.61914604187E+02  0.71598012469E+02  0.00000000000E+00 0.  1.
         22    1    3    3    0    0 -0.11143201278E+03 -0.94331840027E+02 -0.16415891627E+03  0.21969009833E+03  0.00000000000E+00 0.  1.
</event>
<event>
 7    1  0.6067783E-006  0.9294976E+02  0.7818608E-02  0.1420786E+00
          2   -1    0    0  502    0  0.00000000000E+00  0.00000000000E+00  0.36477764748E+04  0.36477764748E+04  0.00000000000E+00 0. -1.
          1   -1    0    0  501    0 -0.00000000000E+00 -0.00000000000E+00 -0.85174690932E+01  0.85174690932E+01  0.00000000000E+00 0. -1.
         25    2    1    2    0    0  0.40322956935E+02  0.52614260339E+02  0.85308439114E+03  0.86473850944E+03  0.12500204017E+03 0.  0.
          2    1    1    2  501    0  0.27812887953E+02  0.16566541844E+02  0.14386777040E+03  0.14746505486E+03  0.00000000000E+00 0. -1.
          1    1    1    2  502    0 -0.68135844888E+02 -0.69180802183E+02  0.26423068441E+04  0.26440903796E+04  0.00000000000E+00 0. -1.
         22    1    3    3    0    0  0.20258984679E+02  0.75360088052E+01  0.17808279779E+02  0.28006297820E+02  0.00000000000E+00 0. -1.
         22    1    3    3    0    0  0.20063972257E+02  0.45078251534E+02  0.83527611136E+03  0.83673221162E+03  0.00000000000E+00 0. -1.
</event>
<event>
 7    1  0.6067783E-006  0.5222614E+02  0.7818608E-02  0.1492683E+00
          2   -1    0    0  502    0  0.00000000000E+00  0.00000000000E+00  0.16881036041E+04  0.16881036041E+04  0.00000000000E+00 0. -1.
          1   -1    0    0  501    0 -0.00000000000E+00 -0.00000000000E+00 -0.15169561166E+03  0.15169561166E+03  0.00000000000E+00 0. -1.
         25    2    1    2    0    0 -0.33154945786E+02  0.19644041875E+02  0.45814137854E+03  0.47644791455E+03  0.12499581488E+03 0.  0.
          2    1    1    2  501    0  0.16972946096E+02 -0.49641136822E+02 -0.13746820074E+03  0.14713881058E+03  0.00000000000E+00 0. -1.
          1    1    1    2  502    0  0.16181999690E+02  0.29997094947E+02  0.12157348146E+04  0.12162124906E+04  0.00000000000E+00 0. -1.
         22    1    3    3    0    0 -0.69549483751E+02 -0.58594447175E+01  0.38168406767E+03  0.38801313289E+03  0.00000000000E+00 0.  1.
         22    1    3    3    0    0  0.36394537965E+02  0.25503486593E+02  0.76457310877E+02  0.88434781667E+02  0.00000000000E+00 0.  1.
</event>
<event>
 7    1  0.6067783E-006  0.3511454E+03  0.7818608E-02  0.1164096E+00
          2   -1    0    0  502    0  0.00000000000E+00  0.00000000000E+00  0.30119999446E+04  0.30119999446E+04  0.00000000000E+00 0. -1.
          1   -1    0    0  501    0 -0.00000000000E+00 -0.00000000000E+00 -0.52064808061E+03  0.52064808061E+03  0.00000000000E+00 0. -1.
         25    2    1    2    0    0  0.38876157258E+03 -0.11131855681E+03  0.13099333432E+02  0.42346713097E+03  0.12500174826E+03 0.  0.
          2    1    1    2  501    0 -0.40838615089E+02  0.87206223663E+02 -0.29693822080E+03  0.31216185689E+03  0.00000000000E+00 0. -1.
          1    1    1    2  502    0 -0.34792295749E+03  0.24112333143E+02  0.27751907513E+04  0.27970190373E+04  0.00000000000E+00 0. -1.
         22    1    3    3    0    0  0.13335919973E+03 -0.80705075956E+02 -0.39743434673E+02  0.16086493103E+03  0.00000000000E+00 0. -1.
         22    1    3    3    0    0  0.25540237285E+03 -0.30613480850E+02  0.52842768105E+02  0.26260219993E+03  0.00000000000E+00 0. -1.
</event>
<event>
 7    1  0.6067783E-006  0.4316869E+02  0.7818608E-02  0.1543232E+00
          2   -1    0    0  502    0  0.00000000000E+00  0.00000000000E+00  0.52068160723E+03  0.52068160723E+03  0.00000000000E+00 0. -1.
          1   -1    0    0  501    0 -0.00000000000E+00 -0.00000000000E+00 -0.14320779906E+04  0.14320779906E+04  0.00000000000E+00 0. -1.
         25    2    1    2    0    0 -0.16769258015E+02 -0.53150715309E+02 -0.70557777950E+03  0.71872885206E+03  0.12499981323E+03 0.  0.
          2    1    1    2  501    0  0.27138058280E+02  0.11251561934E+02 -0.71871809249E+03  0.71931826636E+03  0.00000000000E+00 0. -1.
          1    1    1    2  502    0 -0.10368800264E+02  0.41899153375E+02  0.51289948860E+03  0.51471247943E+03  0.00000000000E+00 0. -1.
         22    1    3    3    0    0 -0.61702138824E+02 -0.20485463760E+02 -0.54393741448E+03  0.54780901694E+03  0.00000000000E+00 0.  1.
         22    1    3    3    0    0  0.44932880809E+02 -0.32665251550E+02 -0.16164036501E+03  0.17091983512E+03  0.00000000000E+00 0.  1.
</event>
<event>
 7    1  0.6067783E-006  0.2656832E+02  0.7818608E-02  0.1641091E+00
          2   -1    0    0  502    0  0.00000000000E+00  0.00000000000E+00  0.82571671878E+03  0.82571671878E+03  0.00000000000E+00 0. -1.
          1   -1    0    0  501    0 -0.00000000000E+00 -0.00000000000E+00 -0.71297646518E+03  0.71297646518E+03  0.00000000000E+00 0. -1.
         25    2    1    2    0    0 -0.16385575478E+01  0.24126319415E+02  0.25042826907E+03  0.28093427870E+03  0.12499994735E+03 0.  0.
          2    1    1    2  501    0 -0.22825110047E+02 -0.13597433276E+02 -0.69715363683E+03  0.69765970873E+03  0.00000000000E+00 0. -1.
          1    1    1    2  502    0  0.24463667595E+02 -0.10528886139E+02  0.55946562136E+03  0.56009919653E+03  0.00000000000E+00 0. -1.
         22    1    3    3    0    0  0.48996553571E+01 -0.51337550074E+02  0.10125449956E+03  0.11363108884E+03  0.00000000000E+00 0. -1.
         22    1    3    3    0    0 -0.65382129049E+01  0.75463869489E+02  0.14917376951E+03  0.16730318986E+03  0.00000000000E+00 0. -1.
</event>
<event>
 7    1  0.6067783E-006  0.4547370E+02  0.7818608E-02  0.1518441E+00
          2   -1    0    0  502    0  0.00000000000E+00  0.00000000000E+00  0.10299858610E+04  0.10299858610E+04  0.00000000000E+00 0. -1.
          1   -1    0    0  501    0 -0.00000000000E+00 -0.00000000000E+00 -0.66813418768E+03  0.66813418768E+03  0.00000000000E+00 0. -1.
         25    2    1    2    0    0 -0.54020530812E+02  0.10737405168E+02 -0.13538221281E+02  0.13726457015E+03  0.12499907665E+03 0.  0.
          2    1    1    2  501    0  0.12910449697E+02 -0.30194108305E+02 -0.59174312435E+03  0.59265359958E+03  0.00000000000E+00 0. -1.
          1    1    1    2  502    0  0.41110081115E+02  0.19456703137E+02  0.96713301890E+03  0.96820187890E+03  0.00000000000E+00 0. -1.
         22    1    3    3    0    0 -0.86671123620E+02  0.11752821847E+02 -0.39080009360E+02  0.95798014711E+02  0.00000000000E+00 0.  1.
         22    1    3    3    0    0  0.32650592808E+02 -0.10154166789E+01  0.25541788079E+02  0.41466555439E+02  0.00000000000E+00 0.  1.
</event>
<event>
 7    1  0.6067783E-006  0.1871473E+03  0.7818608E-02  0.1289052E+00
          2   -1    0    0  502    0  0.00000000000E+00  0.00000000000E+00  0.47708933921E+03  0.47708933921E+03  0.00000000000E+00 0. -1.
          1   -1    0    0  501    0 -0.00000000000E+00 -0.00000000000E+00 -0.40934121768E+03  0.40934121768E+03  0.00000000000E+00 0. -1.
         25    2    1    2    0    0 -0.35697593487E+02 -0.14846537932E+03  0.18672105802E+02  0.19821669167E+03  0.12499968914E+03 0.  0.
          2    1    1    2  501    0  0.11959335669E+02 -0.47716939732E+02 -0.29087168889E+03  0.29500215498E+03  0.00000000000E+00 0. -1.
          1    1    1    2  502    0  0.23738257818E+02  0.19618231905E+03  0.33994770462E+03  0.39321171024E+03  0.00000000000E+00 0. -1.
         22    1    3    3    0    0  0.20948085746E+02 -0.11383057942E+03 -0.25438251407E+02  0.11850454735E+03  0.00000000000E+00 0. -1.
         22    1    3    3    0    0 -0.56645679232E+02 -0.34634799897E+02  0.44110357209E+02  0.79712144324E+02  0.00000000000E+00 0. -1.
</event>
<event>
 7    1  0.6067783E-006  0.7537849E+02  0.7818608E-02  0.1370316E+00
          2   -1    0    0  502    0  0.00000000000E+00  0.00000000000E+00  0.28184270865E+03  0.28184270865E+03  0.00000000000E+00 0. -1.
          1   -1    0    0  501    0 -0.00000000000E+00 -0.00000000000E+00 -0.13021572898E+03  0.13021572898E+03  0.00000000000E+00 0. -1.
         25    2    1    2    0    0  0.91599376506E+02 -0.30168948317E+02  0.20874933457E+03  0.26172479287E+03  0.12499188494E+03 0.  0.
          2    1    1    2  501    0 -0.70647701302E+02 -0.25727505157E+02 -0.49820288398E+02  0.90194586073E+02  0.00000000000E+00 0. -1.
          1    1    1    2  502    0 -0.20951675204E+02  0.55896453473E+02 -0.73020665040E+01  0.60139058689E+02  0.00000000000E+00 0. -1.
         22    1    3    3    0    0 -0.10268940685E+02 -0.49151280898E+02  0.97639907683E+02  0.10979458606E+03  0.00000000000E+00 0. -1.
         22    1    3    3    0    0  0.10186831719E+03  0.18982332582E+02  0.11110942689E+03  0.15193020681E+03  0.00000000000E+00 0. -1.
</event>
<event>
 7    1  0.9037222E-006  0.7581598E+02  0.7818608E-02  0.1394217E+00
          2   -1    0    0  502    0  0.00000000000E+00  0.00000000000E+00  0.11531530823E+04  0.11531530823E+04  0.00000000000E+00 0. -1.
          1   -1    0    0  501    0 -0.00000000000E+00 -0.00000000000E+00 -0.88866667542E+03  0.88866667542E+03  0.00000000000E+00 0. -1.
         25    2    1    2    0    0  0.81590069232E+02 -0.42540743247E+02 -0.33671966773E+03  0.37077281351E+03  0.12500276144E+03 0.  0.
          2    1    1    2  501    0 -0.43208522063E+02 -0.22832860218E+02 -0.53253576802E+03  0.53477346616E+03  0.00000000000E+00 0. -1.
          1    1    1    2  502    0 -0.38381547168E+02  0.65373603465E+02  0.11337418426E+04  0.11362734780E+04  0.00000000000E+00 0. -1.
         22    1    3    3    0    0  0.10427635830E+03  0.30198494455E+01 -0.22682690843E+03  0.24966602648E+03  0.00000000000E+00 0. -1.
         22    1    3    3    0    0 -0.22686289066E+02 -0.45560592692E+02 -0.10989275930E+03  0.12110678703E+03  0.00000000000E+00 0. -1.
</event>
<event>
 7    1  0.6067783E-006  0.1045131E+03  0.7818608E-02  0.1383894E+00
          2   -1    0    0  502    0  0.00000000000E+00  0.00000000000E+00  0.46280201049E+03  0.46280201049E+03  0.00000000000E+00 0. -1.
          1   -1    0    0  501    0 -0.00000000000E+00 -0.00000000000E+00 -0.10610779712E+04  0.10610779712E+04  0.00000000000E+00 0. -1.
         25    2    1    2    0    0 -0.88931030282E+02 -0.10756284603E+03 -0.87753056033E+03  0.89730881747E+03  0.12499894239E+03 0.  0.
          2    1    1    2  501    0  0.12748497822E+02  0.36351394003E+02 -0.16541289693E+03  0.16983926082E+03  0.00000000000E+00 0. -1.
          1    1    1    2  502    0  0.76182532460E+02  0.71211452024E+02  0.44466749652E+03  0.45673190344E+03  0.00000000000E+00 0. -1.
         22    1    3    3    0    0 -0.61644892434E+02 -0.95445332261E+02 -0.84707081104E+03  0.85465716116E+03  0.00000000000E+00 0.  1.
         22    1    3    3    0    0 -0.27286137848E+02 -0.12117513767E+02 -0.30459749292E+02  0.42651656304E+02  0.00000000000E+00 0.  1.
</event>
<event>
 7    1  0.6067783E-006  0.1507513E+03  0.7818608E-02  0.1345016E+00
          2   -1    0    0  502    0  0.00000000000E+00  0.00000000000E+00  0.33904020793E+03  0.33904020793E+03  0.00000000000E+00 0. -1.
          1   -1    0    0  501    0 -0.00000000000E+00 -0.00000000000E+00 -0.40123068867E+03  0.40123068867E+03  0.00000000000E+00 0. -1.
         25    2    1    2    0    0  0.21588640995E+02  0.12470637535E+03 -0.86546457812E+02  0.19782206389E+03  0.12500212050E+03 0.  0.
          2    1    1    2  501    0 -0.39449520702E+02 -0.15704989586E+03 -0.23228833102E+03  0.28315861845E+03  0.00000000000E+00 0. -1.
          1    1    1    2  502    0  0.17860879707E+02  0.32343520509E+02  0.25664430809E+03  0.25929021427E+03  0.00000000000E+00 0. -1.
         22    1    3    3    0    0  0.59979047657E+02  0.16849253322E+02 -0.20161621668E+02  0.65481863776E+02  0.00000000000E+00 0. -1.
         22    1    3    3    0    0 -0.38390406662E+02  0.10785712203E+03 -0.66384836145E+02  0.13234020012E+03  0.00000000000E+00 0. -1.
</event>
<event>
 7    1  0.6067783E-006  0.9294044E+02  0.7818608E-02  0.1444306E+00
          2   -1    0    0  502    0  0.00000000000E+00  0.00000000000E+00  0.79895195418E+03  0.79895195418E+03  0.00000000000E+00 0. -1.
          1   -1    0    0  501    0 -0.00000000000E+00 -0.00000000000E+00 -0.18754086356E+03  0.18754086356E+03  0.00000000000E+00 0. -1.
         25    2    1    2    0    0  0.65118280452E+02 -0.47438379292E+02 -0.15871699230E+02  0.14955004244E+03  0.12499005591E+03 0.  0.
          2    1    1    2  501    0 -0.90316176405E+02  0.37446965491E+02 -0.81717423912E+02  0.12742458285E+03  0.00000000000E+00 0. -1.
          1    1    1    2  502    0  0.25197895953E+02  0.99914138015E+01  0.70900021376E+03  0.70951819245E+03  0.00000000000E+00 0. -1.
         22    1    3    3    0    0  0.92646832968E+02  0.77439104004E+00 -0.16057902835E+02  0.94031332990E+02  0.00000000000E+00 0. -1.
         22    1    3    3    0    0 -0.27528552516E+02 -0.48212770332E+02  0.18620360419E+00  0.55518709446E+02  0.00000000000E+00 0. -1.
</event>
<event>
 7    1  0.6067783E-006  0.9622401E+02  0.7818608E-02  0.1372723E+00
          2   -1    0    0  502    0  0.00000000000E+00  0.00000000000E+00  0.18141165729E+04  0.18141165729E+04  0.00000000000E+00 0. -1.
          1   -1    0    0  501    0 -0.00000000000E+00 -0.00000000000E+00 -0.40667317594E+03  0.40667317594E+03  0.00000000000E+00 0. -1.
         25    2    1    2    0    0  0.92594202673E+02  0.65070367782E+02  0.40031171508E+01  0.16866839415E+03  0.12500065243E+03 0.  0.
          2    1    1    2  501    0 -0.93583752574E+02 -0.19239376719E+02 -0.31699272380E+03  0.33107772396E+03  0.00000000000E+00 0. -1.
          1    1    1    2  502    0  0.98954990021E+00 -0.45830991063E+02  0.17204330036E+04  0.17210436308E+04  0.00000000000E+00 0. -1.
         22    1    3    3    0    0  0.28554603566E+02  0.72008699771E+02 -0.43306393386E+02  0.88747179874E+02  0.00000000000E+00 0.  1.
         22    1    3    3    0    0  0.64039599107E+02 -0.69383319887E+01  0.47309510537E+02  0.79921214279E+02  0.00000000000E+00 0.  1.
</event>
<event>
 7    1  0.6067783E-006  0.4749366E+02  0.7818608E-02  0.1572202E+00
          2   -1    0    0  502    0  0.00000000000E+00  0.00000000000E+00  0.38222427895E+02  0.38222427895E+02  0.00000000000E+00 0. -1.
          1   -1    0    0  501    0 -0.00000000000E+00 -0.00000000000E+00 -0.57268760743E+03  0.57268760743E+03  0.00000000000E+00 0. -1.
         25    2    1    2    0    0 -0.24767210686E+02 -0.22572836607E+02 -0.13285320800E+03  0.18546779930E+03  0.12500152809E+03 0.  0.
          2    1    1    2  501    0  0.45846095725E+02  0.15573032614E+02 -0.40027335803E+03  0.40319120153E+03  0.00000000000E+00 0. -1.
          1    1    1    2  502    0 -0.21078885039E+02  0.69998039929E+01 -0.13386135099E+01  0.22251034505E+02  0.00000000000E+00 0. -1.
         22    1    3    3    0    0 -0.29960351891E+01 -0.10708614568E+01  0.24733738712E+02  0.24937538005E+02  0.00000000000E+00 0. -1.
         22    1    3    3    0    0 -0.21771175497E+02 -0.21501975150E+02 -0.15758694671E+03  0.16053026129E+03  0.00000000000E+00 0. -1.
</event>
<event>
 7    1  0.6067783E-006  0.1315534E+03  0.7818608E-02  0.1285058E+00
          2   -1    0    0  502    0  0.00000000000E+00  0.00000000000E+00  0.24083948991E+04  0.24083948991E+04  0.00000000000E+00 0. -1.
          1   -1    0    0  501    0 -0.00000000000E+00 -0.00000000000E+00 -0.53063326615E+03  0.53063326615E+03  0.00000000000E+00 0. -1.
         25    2    1    2    0    0 -0.91857898538E+02 -0.91189399322E+01  0.13587573102E+04  0.13676132263E+04  0.12499392069E+03 0.  0.
          2    1    1    2  501    0  0.11812892700E+03 -0.58627036124E+02 -0.51664962389E+03  0.53321515979E+03  0.00000000000E+00 0. -1.
          1    1    1    2  502    0 -0.26271028463E+02  0.67745976057E+02  0.10356539466E+04  0.10381997791E+04  0.00000000000E+00 0. -1.
         22    1    3    3    0    0 -0.77321965562E+02  0.48377827928E+02  0.98073480428E+03  0.98496693189E+03  0.00000000000E+00 0. -1.
         22    1    3    3    0    0 -0.14535932976E+02 -0.57496767861E+02  0.37802250590E+03  0.38264629441E+03  0.00000000000E+00 0. -1.
</event>
<event>
 7    1  0.6067783E-006  0.7801791E+02  0.7818608E-02  0.1389859E+00
          2   -1    0    0  502    0  0.00000000000E+00  0.00000000000E+00  0.11037874076E+04  0.11037874076E+04  0.00000000000E+00 0. -1.
          1   -1    0    0  501    0 -0.00000000000E+00 -0.00000000000E+00 -0.16772347428E+04  0.16772347428E+04  0.00000000000E+00 0. -1.
         25    2    1    2    0    0 -0.10915941497E+02  0.61201903877E+02  0.64487557651E+03  0.65981405811E+03  0.12500100514E+03 0.  0.
          2    1    1    2  501    0 -0.48409346795E+02  0.86619347571E+01 -0.16647466428E+04  0.16654728694E+04  0.00000000000E+00 0. -1.
          1    1    1    2  502    0  0.59325288292E+02 -0.69863838634E+02  0.44642373106E+03  0.45573522294E+03  0.00000000000E+00 0. -1.
         22    1    3    3    0    0 -0.52342338296E+02  0.24292617463E+02  0.51969020361E+03  0.52288407833E+03  0.00000000000E+00 0. -1.
         22    1    3    3    0    0  0.41426396799E+02  0.36909286414E+02  0.12518537290E+03  0.13692997979E+03  0.00000000000E+00 0. -1.
</event>
<event>
 7    1  0.6067783E-006  0.4588384E+02  0.7818608E-02  0.1593901E+00
          2   -1    0    0  502    0  0.00000000000E+00  0.00000000000E+00  0.44272890298E+03  0.44272890298E+03  0.00000000000E+00 0. -1.
          1   -1    0    0  501    0 -0.00000000000E+00 -0.00000000000E+00 -0.12904403319E+04  0.12904403319E+04  0.00000000000E+00 0. -1.
         25    2    1    2    0    0  0.56987842161E+02 -0.33112508613E+02  0.51143164833E+02  0.15028005237E+03  0.12499767377E+03 0.  0.
          2    1    1    2  501    0 -0.39838705640E+02  0.22594239537E+02 -0.12401529726E+04  0.12409983954E+04  0.00000000000E+00 0. -1.
          1    1    1    2  502    0 -0.17149136522E+02  0.10518269075E+02  0.34129837884E+03  0.34189078704E+03  0.00000000000E+00 0. -1.
         22    1    3    3    0    0  0.85309978093E+01 -0.10906086945E+02 -0.41306182253E+02  0.43565139141E+02  0.00000000000E+00 0. -1.
         22    1    3    3    0    0  0.48456844352E+02 -0.22206421668E+02  0.92449347086E+02  0.10671491322E+03  0.00000000000E+00 0. -1.
</event>
<event>
 7    1  0.6067783E-006  0.9590470E+02  0.7818608E-02  0.1303422E+00
          2   -1    0    0  502    0  0.00000000000E+00  0.00000000000E+00  0.56415010795E+02  0.56415010795E+02  0.00000000000E+00 0. -1.
          1   -1    0    0  501    0 -0.00000000000E+00 -0.00000000000E+00 -0.76023228460E+03  0.76023228460E+03  0.00000000000E+00 0. -1.
         25    2    1    2    0    0  0.39704743221E+01  0.31689880547E+02 -0.35084602485E+03  0.37381475031E+03  0.12499808480E+03 0.  0.
          2    1    1    2  501    0 -0.95904035546E+02 -0.35651911648E+00 -0.32913636950E+03  0.34282424195E+03  0.00000000000E+00 0. -1.
          1    1    1    2  502    0  0.91933561224E+02 -0.31333361431E+02 -0.23834879463E+02  0.10000830314E+03  0.00000000000E+00 0. -1.
         22    1    3    3    0    0  0.56936390545E+02  0.38425064844E+02 -0.25512018714E+03  0.26420550347E+03  0.00000000000E+00 0.  1.
         22    1    3    3    0    0 -0.52965916223E+02 -0.67351842964E+01 -0.95725837707E+02  0.10960924684E+03  0.00000000000E+00 0.  1.
</event>
<event>
 7    1  0.6067783E-006  0.1760824E+03  0.7818608E-02  0.1325438E+00
          2   -1    0    0  502    0  0.00000000000E+00  0.00000000000E+00  0.33814540148E+03  0.33814540148E+03  0.00000000000E+00 0. -1.
          1   -1    0    0  501    0 -0.00000000000E+00 -0.00000000000E+00 -0.21194612787E+03  0.21194612787E+03  0.00000000000E+00 0. -1.
         25    2    1    2    0    0  0.15023343712E+03  0.75585912236E+02 -0.13292639179E+02  0.20996454919E+03  0.12500040760E+03 0.  0.
          2    1    1    2  501    0 -0.14604653804E+03 -0.11287716775E+03 -0.11113281080E+02  0.18491714709E+03  0.00000000000E+00 0. -1.
          1    1    1    2  502    0 -0.41868990859E+01  0.37291255516E+02  0.15060519386E+03  0.15520983307E+03  0.00000000000E+00 0. -1.
         22    1    3    3    0    0  0.60320705573E+02 -0.32803111372E+02 -0.21551394824E+01  0.68696988745E+02  0.00000000000E+00 0.  1.
         22    1    3    3    0    0  0.89912731551E+02  0.10838902361E+03 -0.11137499697E+02  0.14126756044E+03  0.00000000000E+00 0.  1.
</event>
<event>
 7    1  0.6067783E-006  0.6662480E+02  0.7818608E-02  0.1388301E+00
          2   -1    0    0  502    0  0.00000000000E+00  0.00000000000E+00  0.40151099778E+03  0.40151099778E+03  0.00000000000E+00 0. -1.
          1   -1    0    0  501    0 -0.00000000000E+00 -0.00000000000E+00 -0.10826582613E+03  0.10826582613E+03  0.00000000000E+00 0. -1.
         25    2    1    2    0    0 -0.76157206741E+01  0.28902661046E+02  0.19751394582E+03  0.23564889468E+03  0.12500111899E+03 0.  0.
          2    1    1    2  501    0 -0.10535341604E+02  0.57354958846E+02 -0.67142931636E+02  0.88931198101E+02  0.00000000000E+00 0. -1.
          1    1    1    2  502    0  0.18151062278E+02 -0.86257619892E+02  0.16287415746E+03  0.18519673113E+03  0.00000000000E+00 0. -1.
         22    1    3    3    0    0  0.44728006863E+02  0.73916202934E+01  0.20399080158E+02  0.49712705819E+02  0.00000000000E+00 0.  1.
         22    1    3    3    0    0 -0.52343727537E+02  0.21511040753E+02  0.17711486567E+03  0.18593618886E+03  0.00000000000E+00 0.  1.
</event>
<event>
 7    1  0.6067783E-006  0.9886953E+02  0.7818608E-02  0.1320272E+00
          2   -1    0    0  502    0  0.00000000000E+00  0.00000000000E+00  0.35718793865E+03  0.35718793865E+03  0.00000000000E+00 0. -1.
          1   -1    0    0  501    0 -0.00000000000E+00 -0.00000000000E+00 -0.55794904585E+03  0.55794904585E+03  0.00000000000E+00 0. -1.
         25    2    1    2    0    0 -0.11004684277E+03 -0.79610213081E+02  0.20100588227E+02  0.18567909461E+03  0.12499839557E+03 0.  0.
          2    1    1    2  501    0  0.97262185242E+02  0.10814237978E+02 -0.46515647225E+03  0.47533927263E+03  0.00000000000E+00 0. -1.
          1    1    1    2  502    0  0.12784657529E+02  0.68795975103E+02  0.24429477683E+03  0.25411861727E+03  0.00000000000E+00 0. -1.
         22    1    3    3    0    0 -0.31764773323E+02 -0.34915215497E+02 -0.52014496174E+02  0.70239454082E+02  0.00000000000E+00 0. -1.
         22    1    3    3    0    0 -0.78282069448E+02 -0.44694997583E+02  0.72115084401E+02  0.11543964052E+03  0.00000000000E+00 0. -1.
</event>
<event>
 7    1  0.7346699E-006  0.1686175E+03  0.7818608E-02  0.1311226E+00
          2   -1    0    0  502    0  0.00000000000E+00  0.00000000000E+00  0.22813169323E+04  0.22813169323E+04  0.00000000000E+00 0. -1.
          1   -1    0    0  501    0 -0.00000000000E+00 -0.00000000000E+00 -0.86326731733E+03  0.86326731733E+03  0.00000000000E+00 0. -1.
         25    2    1    2    0    0  0.97059309703E+02  0.16937845036E+03 -0.43734926321E+03  0.49498520250E+03  0.12500561433E+03 0.  0.
          2    1    1    2  501    0  0.13616860996E+02 -0.42372430065E+02 -0.39269147562E+03  0.39520556266E+03  0.00000000000E+00 0. -1.
          1    1    1    2  502    0 -0.11067617070E+03 -0.12700602030E+03  0.22480903538E+04  0.22543934845E+04  0.00000000000E+00 0. -1.
         22    1    3    3    0    0  0.79019246798E+02  0.10974600740E+03 -0.15436389551E+03  0.20522290257E+03  0.00000000000E+00 0. -1.
         22    1    3    3    0    0  0.18040062905E+02  0.59632442967E+02 -0.28298536771E+03  0.28976229993E+03  0.00000000000E+00 0. -1.
</event>
<event>
 7    1  0.6067783E-006  0.7212352E+02  0.7818608E-02  0.1462661E+00
          2   -1    0    0  502    0  0.00000000000E+00  0.00000000000E+00  0.29314716697E+03  0.29314716697E+03  0.00000000000E+00 0. -1.
          1   -1    0    0  501    0 -0.00000000000E+00 -0.00000000000E+00 -0.48950664807E+03  0.48950664807E+03  0.00000000000E+00 0. -1.
         25    2    1    2    0    0 -0.47632602803E+02  0.30965631675E+02  0.19059892008E+03  0.23490037547E+03  0.12499001106E+03 0.  0.
          2    1    1    2  501    0  0.39788983170E+02 -0.60473272491E+02 -0.46153047145E+03  0.46717294008E+03  0.00000000000E+00 0. -1.
          1    1    1    2  502    0  0.78436196330E+01  0.29507640816E+02  0.74572070268E+02  0.80580499499E+02  0.00000000000E+00 0. -1.
         22    1    3    3    0    0 -0.36842372781E+02  0.45991197571E+02  0.20381685954E+03  0.21216470705E+03  0.00000000000E+00 0.  1.
         22    1    3    3    0    0 -0.10790230022E+02 -0.15025565896E+02 -0.13217939463E+02  0.22735668411E+02  0.00000000000E+00 0.  1.
</event>
<event>
 7    1  0.6067783E-006  0.7468029E+02  0.7818608E-02  0.1442561E+00
          2   -1    0    0  502    0  0.00000000000E+00  0.00000000000E+00  0.21739592751E+04  0.21739592751E+04  0.00000000000E+00 0. -1.
          1   -1    0    0  501    0 -0.00000000000E+00 -0.00000000000E+00 -0.23151870550E+03  0.23151870550E+03  0.00000000000E+00 0. -1.
         25    2    1    2    0    0 -0.93607678304E+01  0.40305577603E+02  0.38395446044E+02  0.13715273204E+03  0.12499799226E+03 0.  0.
          2    1    1    2  501    0 -0.14511332090E+02  0.30940942513E+02 -0.17985391857E+03  0.18307198778E+03  0.00000000000E+00 0. -1.
          1    1    1    2  502    0  0.23872099920E+02 -0.71246520116E+02  0.20838990421E+04  0.20852532608E+04  0.00000000000E+00 0. -1.
         22    1    3    3    0    0 -0.17269787295E+02 -0.39661111954E+02 -0.85398328564E+01  0.44092835017E+02  0.00000000000E+00 0.  1.
         22    1    3    3    0    0  0.79090194643E+01  0.79966689558E+02  0.46935278901E+02  0.93059897019E+02  0.00000000000E+00 0.  1.
</event>
<event>
 7    1  0.6067783E-006  0.1609451E+03  0.7818608E-02  0.1340926E+00
          2   -1    0    0  502    0  0.00000000000E+00  0.00000000000E+00  0.58114522722E+03  0.58114522722E+03  0.00000000000E+00 0. -1.
          1   -1    0    0  501    0 -0.00000000000E+00 -0.00000000000E+00 -0.39480642010E+03  0.39480642010E+03  0.00000000000E+00 0. -1.
         25    2    1    2    0    0 -0.48003861602E+02  0.15121959084E+03 -0.81676548236E+02  0.21786798748E+03  0.12499466411E+03 0.  0.
          2    1    1    2  501    0  0.82271700910E+02 -0.14068837107E+03 -0.21719939216E+03  0.27154636156E+03  0.00000000000E+00 0. -1.
          1    1    1    2  502    0 -0.34267839308E+02 -0.10531219768E+02  0.48521474751E+03  0.48653729827E+03  0.00000000000E+00 0. -1.
         22    1    3    3    0    0  0.50321437613E+01  0.70238487131E+02 -0.96994178707E+02  0.11986091210E+03  0.00000000000E+00 0. -1.
         22    1    3    3    0    0 -0.53036005363E+02  0.80981103710E+02  0.15317630471E+02  0.98007075388E+02  0.00000000000E+00 0. -1.
</event>
<event>
 7    1  0.6067783E-006  0.4995744E+02  0.7818608E-02  0.1545097E+00
          2   -1    0    0  502    0  0.00000000000E+00  0.00000000000E+00  0.13529315621E+03  0.13529315621E+03  0.00000000000E+00 0. -1.
          1   -1    0    0  501    0 -0.00000000000E+00 -0.00000000000E+00 -0.60887376646E+03  0.60887376646E+03  0.00000000000E+00 0. -1.
         25    2    1    2    0    0  0.89272204392E+01 -0.70936158122E+02  0.10717685187E+02  0.14440125603E+03  0.12500088069E+03 0.  0.
          2    1    1    2  501    0 -0.16220113158E+02  0.46938570704E+02 -0.53810952694E+03  0.54039632167E+03  0.00000000000E+00 0. -1.
          1    1    1    2  502    0  0.72928927188E+01  0.23997587418E+02  0.53811231505E+02  0.59369344970E+02  0.00000000000E+00 0. -1.
         22    1    3    3    0    0 -0.42087488073E+02 -0.28081886542E+02 -0.36802624673E+02  0.62565023670E+02  0.00000000000E+00 0. -1.
         22    1    3    3    0    0  0.51014708512E+02 -0.42854271580E+02  0.47520309860E+02  0.81836232357E+02  0.00000000000E+00 0. -1.
</event>
<event>
 7    1  0.6067783E-006  0.3747614E+02  0.7818608E-02  0.1548813E+00
          2   -1    0    0  502    0  0.00000000000E+00  0.00000000000E+00  0.15326543607E+04  0.15326543607E+04  0.00000000000E+00 0. -1.
          1   -1    0    0  501    0 -0.00000000000E+00 -0.00000000000E+00 -0.89401546353E+01  0.89401546353E+01  0.00000000000E+00 0. -1.
         25    2    1    2    0    0 -0.27717358101E+02 -0.47631010830E+02  0.70312827565E+03  0.71627327866E+03  0.12498428935E+03 0.  0.
          2    1    1    2  501    0 -0.24148416760E+01  0.35077205837E+02  0.15510724094E+03  0.15904244095E+03  0.00000000000E+00 0. -1.
          1    1    1    2  502    0  0.30132199777E+02  0.12553804993E+02  0.66547868952E+03  0.66627879576E+03  0.00000000000E+00 0. -1.
         22    1    3    3    0    0 -0.12694491080E+02 -0.23789402724E+02  0.67794292652E+03  0.67847895871E+03  0.00000000000E+00 0.  1.
         22    1    3    3    0    0 -0.15022867021E+02 -0.23841608106E+02  0.25185349122E+02  0.37794319957E+02  0.00000000000E+00 0.  1.
</event>
<event>
 7    1  0.6067783E-006  0.5352034E+02  0.7818608E-02  0.1550321E+00
          2   -1    0    0  502    0  0.00000000000E+00  0.00000000000E+00  0.37794805795E+03  0.37794805795E+03  0.00000000000E+00 0. -1.
          1   -1    0    0  501    0 -0.00000000000E+00 -0.00000000000E+00 -0.11515736334E+03  0.11515736334E+03  0.00000000000E+00 0. -1.
         25    2    1    2    0    0 -0.83863179552E+01 -0.72007833369E+02  0.28666914540E+02  0.14731615783E+03  0.12499919990E+03 0.  0.
          2    1    1    2  501    0 -0.14738489033E+00  0.51041200335E+02 -0.43609924600E+02  0.67134576617E+02  0.00000000000E+00 0. -1.
          1    1    1    2  502    0  0.85337028456E+01  0.20966633034E+02  0.27773370468E+03  0.27865468684E+03  0.00000000000E+00 0. -1.
         22    1    3    3    0    0 -0.43785806298E+02 -0.79929408169E+00  0.48512352997E+02  0.65355061759E+02  0.00000000000E+00 0.  1.
         22    1    3    3    0    0  0.35399488343E+02 -0.71208539288E+02 -0.19845438457E+02  0.81961096076E+02  0.00000000000E+00 0.  1.
</event>
<event>
 7    1  0.6067783E-006  0.1440410E+03  0.7818608E-02  0.1367749E+00
          2   -1    0    0  502    0  0.00000000000E+00  0.00000000000E+00  0.42159081768E+03  0.42159081768E+03  0.00000000000E+00 0. -1.
          1   -1    0    0  501    0 -0.00000000000E+00 -0.00000000000E+00 -0.56366504928E+03  0.56366504928E+03  0.00000000000E+00 0. -1.
         25    2    1    2    0    0  0.93364945330E+02  0.90211394744E+02  0.63453675707E+02  0.19105467766E+03  0.12498164720E+03 0.  0.
          2    1    1    2  501    0 -0.82075043533E+02 -0.12005810644E+03 -0.48837032842E+03  0.50956436234E+03  0.00000000000E+00 0. -1.
          1    1    1    2  502    0 -0.11289901797E+02  0.29846711694E+02  0.28284242111E+03  0.28463682696E+03  0.00000000000E+00 0. -1.
         22    1    3    3    0    0 -0.26516671903E+02 -0.38083038627E+01  0.17201862232E+02  0.31836160751E+02  0.00000000000E+00 0. -1.
         22    1    3    3    0    0  0.11988161723E+03  0.94019698607E+02  0.46251813475E+02  0.15921851691E+03  0.00000000000E+00 0. -1.
</event>
<event>
 7    1  0.6067783E-006  0.8663966E+02  0.7818608E-02  0.1320719E+00
          2   -1    0    0  502    0  0.00000000000E+00  0.00000000000E+00  0.18595454581E+03  0.18595454581E+03  0.00000000000E+00 0. -1.
          1   -1    0    0  501    0 -0.00000000000E+00 -0.00000000000E+00 -0.12350490989E+04  0.12350490989E+04  0.00000000000E+00 0. -1.
         25    2    1    2    0    0 -0.17048841615E+02 -0.90263378089E+02 -0.38024403768E+03  0.41066861534E+03  0.12500017205E+03 0.  0.
          2    1    1    2  501    0  0.75462785123E+02  0.25118805388E+02 -0.82634680781E+03  0.83016542514E+03  0.00000000000E+00 0. -1.
          1    1    1    2  502    0 -0.58413943508E+02  0.65144572701E+02  0.15749629242E+03  0.18016960420E+03  0.00000000000E+00 0. -1.
         22    1    3    3    0    0 -0.46664559664E+02 -0.37946892467E+02 -0.60455832255E+02  0.85278692709E+02  0.00000000000E+00 0.  1.
         22    1    3    3    0    0  0.29615718049E+02 -0.52316485621E+02 -0.31978820542E+03  0.32538992263E+03  0.00000000000E+00 0.  1.
</event>
<event>
 7    1  0.6067783E-006  0.2199519E+03  0.7818608E-02  0.1196853E+00
          2   -1    0    0  502    0  0.00000000000E+00  0.00000000000E+00  0.20330554227E+04  0.20330554227E+04  0.00000000000E+00 0. -1.
          1   -1    0    0  501    0 -0.00000000000E+00 -0.00000000000E+00 -0.50458496888E+03  0.50458496888E+03  0.00000000000E+00 0. -1.
         25    2    1    2    0    0  0.13423176882E+03 -0.28681540486E+03  0.44494833982E+03  0.56025485697E+03  0.12500094172E+03 0.  0.
          2    1    1    2  501    0 -0.11403060881E+03  0.18234400690E+03 -0.41906874687E+03  0.47103177303E+03  0.00000000000E+00 0. -1.
          1    1    1    2  502    0 -0.20201160010E+02  0.10447139795E+03  0.15025908608E+04  0.15063537615E+04  0.00000000000E+00 0. -1.
         22    1    3    3    0    0  0.69726741502E+02 -0.30467227126E+02  0.97030358873E+02  0.12330839774E+03  0.00000000000E+00 0. -1.
         22    1    3    3    0    0  0.64505027316E+02 -0.25634817773E+03  0.34791798095E+03  0.43694645924E+03  0.00000000000E+00 0. -1.
</event>
<event>
 7    1  0.6067783E-006  0.6067649E+02  0.7818608E-02  0.1493484E+00
          2   -1    0    0  502    0  0.00000000000E+00  0.00000000000E+00  0.11432602979E+04  0.11432602979E+04  0.00000000000E+00 0. -1.
          1   -1    0    0  501    0 -0.00000000000E+00 -0.00000000000E+00 -0.16939771220E+03  0.16939771220E+03  0.00000000000E+00 0. -1.
         25    2    1    2    0    0 -0.54694450197E+02 -0.62227936212E+02  0.72745333101E+03  0.74275043562E+03  0.12500424749E+03 0.  0.
          2    1    1    2  501    0  0.24528239675E+02  0.15795305339E+02 -0.15853406789E+03  0.16119608213E+03  0.00000000000E+00 0. -1.
          1    1    1    2  502    0  0.30166210523E+02  0.46432630873E+02  0.40494332258E+03  0.40871149234E+03  0.00000000000E+00 0. -1.
         22    1    3    3    0    0 -0.91181794031E+02 -0.52570959908E+02  0.61978084644E+03  0.62865421577E+03  0.00000000000E+00 0.  1.
         22    1    3    3    0    0  0.36487343833E+02 -0.96569763035E+01  0.10767248456E+03  0.11409621985E+03  0.00000000000E+00 0.  1.
</event>
<event>
 7    1  0.6067783E-006  0.8639516E+02  0.7818608E-02  0.1340384E+00
          2   -1    0    0  502    0  0.00000000000E+00  0.00000000000E+00  0.17168935651E+04  0.17168935651E+04  0.00000000000E+00 0. -1.
          1   -1    0    0  501    0 -0.00000000000E+00 -0.00000000000E+00 -0.63195883768E+03  0.63195883768E+03  0.00000000000E+00 0. -1.
         25    2    1    2    0    0  0.12581458588E+03  0.60923908351E+02 -0.32857289370E+03  0.37832015108E+03  0.12499983044E+03 0.  0.
          2    1    1    2  501    0 -0.60510605563E+02 -0.45512086133E+02 -0.27268673481E+03  0.28300342526E+03  0.00000000000E+00 0. -1.
          1    1    1    2  502    0 -0.65303980314E+02 -0.15411822218E+02  0.16861943559E+04  0.16875288264E+04  0.00000000000E+00 0. -1.
         22    1    3    3    0    0 -0.12410924661E+02  0.45570330369E+02 -0.10312980494E+03  0.11343034307E+03  0.00000000000E+00 0. -1.
         22    1    3    3    0    0  0.13822551054E+03  0.15353577982E+02 -0.22544308876E+03  0.26488980801E+03  0.00000000000E+00 0. -1.
</event>
<event>
 7    1  0.6067783E-006  0.1241039E+03  0.7818608E-02  0.1278783E+00
          2   -1    0    0  502    0  0.00000000000E+00  0.00000000000E+00  0.31382232613E+04  0.31382232613E+04  0.00000000000E+00 0. -1.
          1   -1    0    0  501    0 -0.00000000000E+00 -0.00000000000E+00 -0.41201388236E+03  0.41201388236E+03  0.00000000000E+00 0. -1.
         25    2    1    2    0    0 -0.26103174677E+02 -0.10099001471E+03  0.94868419733E+03  0.96255219462E+03  0.12499864919E+03 0.  0.
          2    1    1    2  501    0 -0.79984879887E+02  0.16882998140E+02 -0.39883070023E+03  0.40712227166E+03  0.00000000000E+00 0. -1.
          1    1    1    2  502    0  0.10608805456E+03  0.84107016571E+02  0.21763558819E+04  0.21805626774E+04  0.00000000000E+00 0. -1.
         22    1    3    3    0    0 -0.12604500699E+02 -0.49197518705E+02  0.83869955808E+03  0.84023581095E+03  0.00000000000E+00 0. -1.
         22    1    3    3    0    0 -0.13498673977E+02 -0.51792496006E+02  0.10998463925E+03  0.12231638366E+03  0.00000000000E+00 0. -1.
</event>
<event>
 7    1  0.6067783E-006  0.8366792E+02  0.7818608E-02  0.1459216E+00
          2   -1    0    0  502    0  0.00000000000E+00  0.00000000000E+00  0.21122840708E+04  0.21122840708E+04  0.00000000000E+00 0. -1.
          1   -1    0    0  501    0 -0.00000000000E+00 -0.00000000000E+00 -0.98907105446E+03  0.98907105446E+03  0.00000000000E+00 0. -1.
         25    2    1    2    0    0  0.47727275352E+02 -0.32836363855E+02  0.16138072253E+04  0.16196777782E+04  0.12500489953E+03 0.  0.
          2    1    1    2  501    0 -0.63036835010E+02  0.55058890223E+02 -0.98399050186E+03  0.98754363534E+03  0.00000000000E+00 0. -1.
          1    1    1    2  502    0  0.15309559658E+02 -0.22222526367E+02  0.49339629288E+03  0.49413371178E+03  0.00000000000E+00 0. -1.
         22    1    3    3    0    0 -0.23782912476E+02 -0.53981777685E+01  0.10926586616E+04  0.10929307928E+04  0.00000000000E+00 0.  1.
         22    1    3    3    0    0  0.71510187828E+02 -0.27438186087E+02  0.52114856380E+03  0.52674698534E+03  0.00000000000E+00 0.  1.
</event>
<event>
 7    1  0.6067783E-006  0.4311630E+02  0.7818608E-02  0.1560109E+00
          2   -1    0    0  502    0  0.00000000000E+00  0.00000000000E+00  0.54504078669E+02  0.54504078669E+02  0.00000000000E+00 0. -1.
          1   -1    0    0  501    0 -0.00000000000E+00 -0.00000000000E+00 -0.27392906230E+04  0.27392906230E+04  0.00000000000E+00 0. -1.
         25    2    1    2    0    0  0.33439939577E+02 -0.45258551592E+02 -0.85805958540E+03  0.86894025818E+03  0.12499741654E+03 0.  0.
          2    1    1    2  501    0  0.50077923341E+01  0.25919021626E+02 -0.18662414079E+04  0.18664281037E+04  0.00000000000E+00 0. -1.
          1    1    1    2  502    0 -0.38447731911E+02  0.19339529966E+02  0.39514448953E+02  0.58426339817E+02  0.00000000000E+00 0. -1.
         22    1    3    3    0    0  0.73009817626E+02 -0.41396323442E+02 -0.73108387319E+03  0.73588566959E+03  0.00000000000E+00 0.  1.
         22    1    3    3    0    0 -0.39569878049E+02 -0.38622281496E+01 -0.12697571220E+03  0.13305458859E+03  0.00000000000E+00 0.  1.
</event>
<event>
 7    1  0.6067783E-006  0.8375931E+02  0.7818608E-02  0.1380267E+00
          2   -1    0    0  502    0  0.00000000000E+00  0.00000000000E+00  0.13726766574E+04  0.13726766574E+04  0.00000000000E+00 0. -1.
          1   -1    0    0  501    0 -0.00000000000E+00 -0.00000000000E+00 -0.39602112344E+02  0.39602112344E+02  0.00000000000E+00 0. -1.
         25    2    1    2    0    0 -0.58660870287E+02 -0.10980028449E+03  0.41359724523E+03  0.44964985366E+03  0.12500043785E+03 0.  0.
          2    1    1    2  501    0  0.25814928744E+02  0.72760580930E+02  0.50524833892E+02  0.92267391440E+02  0.00000000000E+00 0. -1.
          1    1    1    2  502    0  0.32845941543E+02  0.37039703565E+02  0.86895246599E+03  0.87036152469E+03  0.00000000000E+00 0. -1.
         22    1    3    3    0    0  0.22606496310E+02  0.14880898994E+02  0.51975401296E+02  0.58599805206E+02  0.00000000000E+00 0.  1.
         22    1    3    3    0    0 -0.81267366597E+02 -0.12468118349E+03  0.36162184393E+03  0.39105004846E+03  0.00000000000E+00 0.  1.
</event>
<event>
 7    1  0.6067783E-006  0.9039083E+02  0.7818608E-02  0.1337132E+00
          2   -1    0    0  502    0  0.00000000000E+00  0.00000000000E+00  0.24001684833E+03  0.24001684833E+03  0.00000000000E+00 0. -1.
          1   -1    0    0  501    0 -0.00000000000E+00 -0.00000000000E+00 -0.25624612647E+04  0.25624612647E+04  0.00000000000E+00 0. -1.
         25    2    1    2    0    0 -0.15433508769E+02 -0.12677163584E+03 -0.12768881169E+03  0.21963613863E+03  0.12500543953E+03 0.  0.
          2    1    1    2  501    0 -0.36885448207E+02  0.54691623913E+02 -0.23780968441E+04  0.23790116246E+04  0.00000000000E+00 0. -1.
          1    1    1    2  502    0  0.52318956975E+02  0.72080011932E+02  0.18334123949E+03  0.20383034975E+03  0.00000000000E+00 0. -1.
         22    1    3    3    0    0  0.37564408352E+02 -0.90487638896E+01 -0.84561709850E+00  0.38648156114E+02  0.00000000000E+00 0. -1.
         22    1    3    3    0    0 -0.52997917120E+02 -0.11772287196E+03 -0.12684319459E+03  0.18098798251E+03  0.00000000000E+00 0. -1.
</event>
<event>
 7    1  0.6067783E-006  0.7670545E+02  0.7818608E-02  0.1424785E+00
          2   -1    0    0  502    0  0.00000000000E+00  0.00000000000E+00  0.69801523042E+02  0.69801523042E+02  0.00000000000E+00 0. -1.
          1   -1    0    0  501    0 -0.00000000000E+00 -0.00000000000E+00 -0.40103053249E+03  0.40103053249E+03  0.00000000000E+00 0. -1.
         25    2    1    2    0    0  0.17619157714E+02 -0.65858692474E+02 -0.14242162692E+03  0.20138581708E+03  0.12499810163E+03 0.  0.
          2    1    1    2  501    0 -0.35942170085E+02 -0.12474433831E+02 -0.18503978883E+03  0.18891049346E+03  0.00000000000E+00 0. -1.
          1    1    1    2  502    0  0.18323012371E+02  0.78333126304E+02 -0.37675936969E+01  0.80535744991E+02  0.00000000000E+00 0. -1.
         22    1    3    3    0    0 -0.26702174431E+02 -0.47813427384E+02 -0.14342127320E+03  0.15352130655E+03  0.00000000000E+00 0.  1.
         22    1    3    3    0    0  0.44321332145E+02 -0.18045265090E+02  0.99964628405E+00  0.47864510527E+02  0.00000000000E+00 0.  1.
</event>
<event>
 7    1  0.6067783E-006  0.1924350E+03  0.7818608E-02  0.1294839E+00
          2   -1    0    0  502    0  0.00000000000E+00  0.00000000000E+00  0.17219058488E+03  0.17219058488E+03  0.00000000000E+00 0. -1.
          1   -1    0    0  501    0 -0.00000000000E+00 -0.00000000000E+00 -0.77072446242E+03  0.77072446242E+03  0.00000000000E+00 0. -1.
         25    2    1    2    0    0  0.38314509185E+02 -0.16253039515E+03 -0.11069703074E+03  0.23613915734E+03  0.12499495212E+03 0.  0.
          2    1    1    2  501    0 -0.12027981916E+02  0.19945393134E+03 -0.57489252974E+03  0.60862793546E+03  0.00000000000E+00 0. -1.
          1    1    1    2  502    0 -0.26286527268E+02 -0.36923536198E+02  0.87055682933E+02  0.98147954498E+02  0.00000000000E+00 0. -1.
         22    1    3    3    0    0 -0.25964990963E+02 -0.56302882308E+02  0.10207063644E+02  0.62836131804E+02  0.00000000000E+00 0. -1.
         22    1    3    3    0    0  0.64279500147E+02 -0.10622751284E+03 -0.12090409438E+03  0.17330302554E+03  0.00000000000E+00 0. -1.
</event>
<event>
 7    1  0.6067783E-006  0.4391896E+02  0.7818608E-02  0.1481946E+00
          2   -1    0    0  502    0  0.00000000000E+00  0.00000000000E+00  0.40083687365E+02  0.40083687365E+02  0.00000000000E+00 0. -1.
          1   -1    0    0  501    0 -0.00000000000E+00 -0.00000000000E+00 -0.10594163984E+04  0.10594163984E+04  0.00000000000E+00 0. -1.
         25    2    1    2    0    0 -0.12558662858E+02 -0.44033613527E+01 -0.21628072038E+03  0.25015847572E+03  0.12499921346E+03 0.  0.
          2    1    1    2  501    0  0.79669084759E+01 -0.43190317561E+02 -0.80024005029E+03  0.80144432948E+03  0.00000000000E+00 0. -1.
          1    1    1    2  502    0  0.45917543820E+01  0.47593678914E+02 -0.28119404090E+01  0.47897280609E+02  0.00000000000E+00 0. -1.
         22    1    3    3    0    0 -0.49136474555E+02 -0.41610061005E+02 -0.16448913741E+03  0.17664219947E+03  0.00000000000E+00 0.  1.
         22    1    3    3    0    0  0.36577811697E+02  0.37206699652E+02 -0.51791582974E+02  0.73516276256E+02  0.00000000000E+00 0.  1.
</event>
<event>
 7    1  0.6067783E-006  0.6258614E+02  0.7818608E-02  0.1525045E+00
          2   -1    0    0  502    0  0.00000000000E+00  0.00000000000E+00  0.14125161811E+03  0.14125161811E+03  0.00000000000E+00 0. -1.
          1   -1    0    0  501    0 -0.00000000000E+00 -0.00000000000E+00 -0.94786720237E+03  0.94786720237E+03  0.00000000000E+00 0. -1.
         25    2    1    2    0    0  0.61735154761E+02 -0.91681273076E+01 -0.30923506583E+02  0.14309681876E+03  0.12500060955E+03 0.  0.
          2    1    1    2  501    0 -0.54558510395E+02  0.30842258214E+02 -0.85816329810E+03  0.86044879112E+03  0.00000000000E+00 0. -1.
          1    1    1    2  502    0 -0.71766443664E+01 -0.21674130906E+02  0.82471220416E+02  0.85573210597E+02  0.00000000000E+00 0. -1.
         22    1    3    3    0    0  0.79184124487E+02 -0.51025400408E+02 -0.17589786170E+02  0.95828584645E+02  0.00000000000E+00 0.  1.
         22    1    3    3    0    0 -0.17448969726E+02  0.41857273101E+02 -0.13333720413E+02  0.47268234111E+02  0.00000000000E+00 0.  1.
</event>
<event>
 7    1  0.6067783E-006  0.2569035E+02  0.7818608E-02  0.1666772E+00
          2   -1    0    0  502    0  0.00000000000E+00  0.00000000000E+00  0.12801422703E+04  0.12801422703E+04  0.00000000000E+00 0. -1.
          1   -1    0    0  501    0 -0.00000000000E+00 -0.00000000000E+00 -0.38413210059E+02  0.38413210059E+02  0.00000000000E+00 0. -1.
         25    2    1    2    0    0 -0.39677803476E-01 -0.25846072546E+01  0.21082474420E+03  0.24510905687E+03  0.12499878088E+03 0.  0.
          2    1    1    2  501    0 -0.10671133626E+02 -0.21006470501E+02 -0.14536300711E+02  0.27684814143E+02  0.00000000000E+00 0. -1.
          1    1    1    2  502    0  0.10710811430E+02  0.23591077756E+02  0.10454406168E+04  0.10457616094E+04  0.00000000000E+00 0. -1.
         22    1    3    3    0    0  0.93259590403E+01  0.40694956280E+02  0.19285192500E+03  0.19731932990E+03  0.00000000000E+00 0.  1.
         22    1    3    3    0    0 -0.93656368438E+01 -0.43279563535E+02  0.17972819204E+02  0.47789726965E+02  0.00000000000E+00 0.  1.
</event>
<event>
 7    1  0.6067783E-006  0.1276520E+03  0.7818608E-02  0.1292415E+00
          2   -1    0    0  502    0  0.00000000000E+00  0.00000000000E+00  0.70739902681E+03  0.70739902681E+03  0.00000000000E+00 0. -1.
          1   -1    0    0  501    0 -0.00000000000E+00 -0.00000000000E+00 -0.19969645045E+04  0.19969645045E+04  0.00000000000E+00 0. -1.
         25    2    1    2    0    0  0.15653791747E+03 -0.11240964631E+03  0.53913327560E+02  0.23594839428E+03  0.12499979875E+03 0.  0.
          2    1    1    2  501    0 -0.11268928968E+03  0.57990214851E+02 -0.19016587277E+04  0.19058771361E+04  0.00000000000E+00 0. -1.
          1    1    1    2  502    0 -0.43848627789E+02  0.54419431462E+02  0.55817992248E+03  0.56253800097E+03  0.00000000000E+00 0. -1.
         22    1    3    3    0    0  0.15346395331E+03 -0.49104851396E+02  0.15584757303E+02  0.16188068463E+03  0.00000000000E+00 0.  1.
         22    1    3    3    0    0  0.30739641574E+01 -0.63304794918E+02  0.38328570256E+02  0.74067709652E+02  0.00000000000E+00 0.  1.
</event>
<event>
 7    1  0.6067783E-006  0.4844841E+02  0.7818608E-02  0.1510579E+00
          2   -1    0    0  502    0  0.00000000000E+00  0.00000000000E+00  0.76359775334E+02  0.76359775334E+02  0.00000000000E+00 0. -1.
          1   -1    0    0  501    0 -0.00000000000E+00 -0.00000000000E+00 -0.46104093558E+03  0.46104093558E+03  0.00000000000E+00 0. -1.
         25    2    1    2    0    0  0.15015781920E+02 -0.56833716791E+02 -0.12889774536E+03  0.18893497494E+03  0.12500500360E+03 0.  0.
          2    1    1    2  501    0 -0.36145032300E+02  0.32141348365E+02 -0.29419843111E+03  0.29814802784E+03  0.00000000000E+00 0. -1.
          1    1    1    2  502    0  0.21129250380E+02  0.24692368426E+02  0.38415016230E+02  0.50317708136E+02  0.00000000000E+00 0. -1.
         22    1    3    3    0    0 -0.51693780302E+02 -0.41870287877E+02 -0.43251155029E+02  0.79347528885E+02  0.00000000000E+00 0.  1.
         22    1    3    3    0    0  0.66709562222E+02 -0.14963428914E+02 -0.85646590331E+02  0.10958744605E+03  0.00000000000E+00 0.  1.
</event>
<event>
 7    1  0.6067783E-006  0.5610520E+02  0.7818608E-02  0.1439559E+00
          2   -1    0    0  502    0  0.00000000000E+00  0.00000000000E+00  0.12858701213E+04  0.12858701213E+04  0.00000000000E+00 0. -1.
          1   -1    0    0  501    0 -0.00000000000E+00 -0.00000000000E+00 -0.48746446172E+03  0.48746446172E+03  0.00000000000E+00 0. -1.
         25    2    1    2    0    0  0.75068783551E+02  0.14959617254E+02  0.64617686858E+03  0.66259290074E+03  0.12500277679E+03 0.  0.
          2    1    1    2  501    0 -0.37201728960E+02 -0.41981384807E+02 -0.47675322081E+03  0.48004170533E+03  0.00000000000E+00 0. -1.
          1    1    1    2  502    0 -0.37867054591E+02  0.27021767553E+02  0.62898201181E+03  0.63069997696E+03  0.00000000000E+00 0. -1.
         22    1    3    3    0    0  0.28092842650E+01  0.15603165305E+02  0.39837049122E+01  0.16346888096E+02  0.00000000000E+00 0. -1.
         22    1    3    3    0    0  0.72259499286E+02 -0.64354805065E+00  0.64219316367E+03  0.64624601264E+03  0.00000000000E+00 0. -1.
</event>
<event>
 7    1  0.6067783E-006  0.3393060E+02  0.7818608E-02  0.1609969E+00
          2   -1    0    0  502    0  0.00000000000E+00  0.00000000000E+00  0.86202783605E+03  0.86202783605E+03  0.00000000000E+00 0. -1.
          1   -1    0    0  501    0 -0.00000000000E+00 -0.00000000000E+00 -0.19907196552E+02  0.19907196552E+02  0.00000000000E+00 0. -1.
         25    2    1    2    0    0  0.34093720581E+02  0.41045099962E+02  0.72144652192E+03  0.73413614086E+03  0.12499482909E+03 0.  0.
          2    1    1    2  501    0 -0.16888439508E+02 -0.18029855592E+02  0.10012325115E+01  0.24724432212E+02  0.00000000000E+00 0. -1.
          1    1    1    2  502    0 -0.17205281074E+02 -0.23015244370E+02  0.11967288506E+03  0.12307445954E+03  0.00000000000E+00 0. -1.
         22    1    3    3    0    0 -0.46754697593E+02  0.24991906951E+02  0.31256041746E+03  0.31702462322E+03  0.00000000000E+00 0.  1.
         22    1    3    3    0    0  0.80848418174E+02  0.16053193011E+02  0.40888610446E+03  0.41711151764E+03  0.00000000000E+00 0.  1.
</event>
<event>
 7    1  0.6067783E-006  0.1020098E+03  0.7818608E-02  0.1389978E+00
          2   -1    0    0  502    0  0.00000000000E+00  0.00000000000E+00  0.97166965300E+03  0.97166965300E+03  0.00000000000E+00 0. -1.
          1   -1    0    0  501    0 -0.00000000000E+00 -0.00000000000E+00 -0.30279488062E+03  0.30279488062E+03  0.00000000000E+00 0. -1.
         25    2    1    2    0    0  0.64081727669E+02 -0.22385769757E+02  0.65865354535E+02  0.15674731085E+03  0.12499553601E+03 0.  0.
          2    1    1    2  501    0  0.37541303390E+02 -0.16111458200E+01 -0.25279189287E+03  0.25556933766E+03  0.00000000000E+00 0. -1.
          1    1    1    2  502    0 -0.10162303106E+03  0.23996915577E+02  0.85580131071E+03  0.86214788511E+03  0.00000000000E+00 0. -1.
         22    1    3    3    0    0 -0.29253911998E+01 -0.32342712300E+02  0.81058381164E+02  0.87321647428E+02  0.00000000000E+00 0.  1.
         22    1    3    3    0    0  0.67007118869E+02  0.99569425426E+01 -0.15193026629E+02  0.69425663425E+02  0.00000000000E+00 0.  1.
</event>
<event>
 7    1  0.6067783E-006  0.2974311E+03  0.7818608E-02  0.1204716E+00
          2   -1    0    0  502    0  0.00000000000E+00  0.00000000000E+00  0.98590358993E+03  0.98590358993E+03  0.00000000000E+00 0. -1.
          1   -1    0    0  501    0 -0.00000000000E+00 -0.00000000000E+00 -0.15785972288E+04  0.15785972288E+04  0.00000000000E+00 0. -1.
         25    2    1    2    0    0 -0.16599957303E+02 -0.25347566441E+03  0.25934285153E+03  0.38393857588E+03  0.12499857751E+03 0.  0.
          2    1    1    2  501    0  0.79572372491E+02  0.28890647556E+03 -0.14994643806E+04  0.15291148233E+04  0.00000000000E+00 0. -1.
          1    1    1    2  502    0 -0.62972415188E+02 -0.35430811153E+02  0.64742789020E+03  0.65144741956E+03  0.00000000000E+00 0. -1.
         22    1    3    3    0    0 -0.47632915481E+01 -0.26510908611E+02  0.10698104547E+03  0.11031981377E+03  0.00000000000E+00 0.  1.
         22    1    3    3    0    0 -0.11836665755E+02 -0.22696475580E+03  0.15236180606E+03  0.27361876211E+03  0.00000000000E+00 0.  1.
</event>
<event>
 7    1  0.6067783E-006  0.6678211E+02  0.7818608E-02  0.1493717E+00
          2   -1    0    0  502    0  0.00000000000E+00  0.00000000000E+00  0.21363458993E+03  0.21363458993E+03  0.00000000000E+00 0. -1.
          1   -1    0    0  501    0 -0.00000000000E+00 -0.00000000000E+00 -0.10373705940E+04  0.10373705940E+04  0.00000000000E+00 0. -1.
         25    2    1    2    0    0  0.46950486720E+02  0.79839991924E+02 -0.66386494283E+02  0.16914674847E+03  0.12499873351E+03 0.  0.
          2    1    1    2  501    0 -0.34386999090E+02 -0.56548164171E+02 -0.91732470955E+03  0.91970907537E+03  0.00000000000E+00 0. -1.
          1    1    1    2  502    0 -0.12563487630E+02 -0.23291827753E+02  0.15997519973E+03  0.16214936013E+03  0.00000000000E+00 0. -1.
         22    1    3    3    0    0 -0.39574528233E+02  0.34796739568E+01 -0.22685143782E+02  0.45747865132E+02  0.00000000000E+00 0. -1.
         22    1    3    3    0    0  0.86525014953E+02  0.76360317967E+02 -0.43701350501E+02  0.12339888333E+03  0.00000000000E+00 0. -1.
</event>
<event>
 7    1  0.6067783E-006  0.1545356E+03  0.7818608E-02  0.1326650E+00
          2   -1    0    0  502    0  0.00000000000E+00  0.00000000000E+00  0.15751933382E+04  0.15751933382E+04  0.00000000000E+00 0. -1.
          1   -1    0    0  501    0 -0.00000000000E+00 -0.00000000000E+00 -0.11509651726E+03  0.11509651726E+03  0.00000000000E+00 0. -1.
         25    2    1    2    0    0  0.91952298809E+02  0.13601269329E+03  0.18766797303E+03  0.27892445948E+03  0.12499963201E+03 0.  0.
          2    1    1    2  501    0 -0.41226197147E+02  0.94780044282E+01 -0.58142462873E+02  0.71902558286E+02  0.00000000000E+00 0. -1.
          1    1    1    2  502    0 -0.50726101663E+02 -0.14549069772E+03  0.13305713108E+04  0.13394628377E+04  0.00000000000E+00 0. -1.
         22    1    3    3    0    0  0.11728133723E+03  0.93431025718E+02  0.10682949361E+03  0.18411086153E+03  0.00000000000E+00 0. -1.
         22    1    3    3    0    0 -0.25329038421E+02  0.42581667573E+02  0.80838479418E+02  0.94813597945E+02  0.00000000000E+00 0. -1.
</event>
<event>
 7    1  0.6067783E-006  0.6157428E+02  0.7818608E-02  0.1422735E+00
          2   -1    0    0  502    0  0.00000000000E+00  0.00000000000E+00  0.10497137132E+04  0.10497137132E+04  0.00000000000E+00 0. -1.
          1   -1    0    0  501    0 -0.00000000000E+00 -0.00000000000E+00 -0.52289507008E+02  0.52289507008E+02  0.00000000000E+00 0. -1.
         25    2    1    2    0    0  0.19226178998E+02  0.10657619251E+02  0.35754912541E+03  0.37940649003E+03  0.12499870715E+03 0.  0.
          2    1    1    2  501    0  0.24860440350E+02  0.41228297145E+02 -0.24997821987E+02  0.54246705743E+02  0.00000000000E+00 0. -1.
          1    1    1    2  502    0 -0.44086619348E+02 -0.51885916396E+02  0.66487290277E+03  0.66835002444E+03  0.00000000000E+00 0. -1.
         22    1    3    3    0    0 -0.60379150520E+01 -0.33700352176E+02  0.30211351876E+03  0.30404727983E+03  0.00000000000E+00 0. -1.
         22    1    3    3    0    0  0.25264094051E+02  0.44357971427E+02  0.55435606651E+02  0.75359210201E+02  0.00000000000E+00 0. -1.
</event>
<event>
 7    1  0.6067783E-006  0.9356489E+02  0.7818608E-02  0.1424757E+00
          2   -1    0    0  502    0  0.00000000000E+00  0.00000000000E+00  0.28066244631E+02  0.28066244631E+02  0.00000000000E+00 0. -1.
          1   -1    0    0  501    0 -0.00000000000E+00 -0.00000000000E+00 -0.13537083427E+04  0.13537083427E+04  0.00000000000E+00 0. -1.
         25    2    1    2    0    0 -0.97932055887E+02  0.27695884102E+02 -0.65060994159E+03  0.67028063985E+03  0.12500036199E+03 0.  0.
          2    1    1    2  501    0  0.51847913934E+01 -0.30762982910E+02 -0.57192977890E+03  0.57277998845E+03  0.00000000000E+00 0. -1.
          1    1    1    2  502    0  0.92747264494E+02  0.30670988078E+01 -0.10310237758E+03  0.13871395902E+03  0.00000000000E+00 0. -1.
         22    1    3    3    0    0 -0.13087909510E+01  0.40787912310E+02 -0.66017989062E+02  0.77612767018E+02  0.00000000000E+00 0. -1.
         22    1    3    3    0    0 -0.96623264936E+02 -0.13092028208E+02 -0.58459195253E+03  0.59266787283E+03  0.00000000000E+00 0. -1.
</event>
<event>
 7    1  0.6067783E-006  0.8927921E+02  0.7818608E-02  0.1438711E+00
          2   -1    0    0  502    0  0.00000000000E+00  0.00000000000E+00  0.64176454772E+03  0.64176454772E+03  0.00000000000E+00 0. -1.
          1   -1    0    0  501    0 -0.00000000000E+00 -0.00000000000E+00 -0.27978844607E+03  0.27978844607E+03  0.00000000000E+00 0. -1.
         25    2    1    2    0    0  0.88595313630E+02 -0.95437382437E+01 -0.62981768890E+02  0.16592762906E+03  0.12500024934E+03 0.  0.
          2    1    1    2  501    0 -0.76273808707E+01 -0.28414230958E+02 -0.16060312306E+03  0.16327556031E+03  0.00000000000E+00 0. -1.
          1    1    1    2  502    0 -0.80967932760E+02  0.37957969202E+02  0.58556099361E+03  0.59234980442E+03  0.00000000000E+00 0. -1.
         22    1    3    3    0    0  0.24947926726E+02 -0.62678243438E+02 -0.44990088915E+02  0.81086801324E+02  0.00000000000E+00 0.  1.
         22    1    3    3    0    0  0.63647386905E+02  0.53134505194E+02 -0.17991679975E+02  0.84840827733E+02  0.00000000000E+00 0.  1.
</event>
<event>
 7    1  0.6067783E-006  0.9233238E+02  0.7818608E-02  0.1336878E+00
          2   -1    0    0  502    0  0.00000000000E+00  0.00000000000E+00  0.13504965762E+04  0.13504965762E+04  0.00000000000E+00 0. -1.
          1   -1    0    0  501    0 -0.00000000000E+00 -0.00000000000E+00 -0.53383211500E+02  0.53383211500E+02  0.00000000000E+00 0. -1.
         25    2    1    2    0    0 -0.67560054327E+02  0.51848253556E+02  0.32985406451E+03  0.36287819860E+03  0.12499712319E+03 0.  0.
          2    1    1    2  501    0  0.48889970928E+02  0.42413868871E+02 -0.41446553163E+01  0.64856331207E+02  0.00000000000E+00 0. -1.
          1    1    1    2  502    0  0.18670083399E+02 -0.94262122427E+02  0.97140395551E+03  0.97614525790E+03  0.00000000000E+00 0. -1.
         22    1    3    3    0    0 -0.71243756818E+02  0.44301594526E+02  0.90602191206E+02  0.12347899098E+03  0.00000000000E+00 0. -1.
         22    1    3    3    0    0  0.36837024910E+01  0.75466590297E+01  0.23925187330E+03  0.23939920761E+03  0.00000000000E+00 0. -1.
</event>
<event>
 7    1  0.6067783E-006  0.1204176E+03  0.7818608E-02  0.1269974E+00
          2   -1    0    0  502    0  0.00000000000E+00  0.00000000000E+00  0.96069660710E+03  0.96069660710E+03  0.00000000000E+00 0. -1.
          1   -1    0    0  501    0 -0.00000000000E+00 -0.00000000000E+00 -0.12010055115E+04  0.12010055115E+04  0.00000000000E+00 0. -1.
         25    2    1    2    0    0  0.11810503297E+03  0.17014880046E+03  0.79032583102E+02  0.25450002474E+03  0.12499880116E+03 0.  0.
          2    1    1    2  501    0 -0.51621643640E+02 -0.10701245479E+03 -0.11074364957E+04  0.11137917452E+04  0.00000000000E+00 0. -1.
          1    1    1    2  502    0 -0.66483389332E+02 -0.63136345667E+02  0.78809500829E+03  0.79341034861E+03  0.00000000000E+00 0. -1.
         22    1    3    3    0    0 -0.53311228913E+01 -0.24624442929E+01  0.37890861937E+02  0.38343212196E+02  0.00000000000E+00 0.  1.
         22    1    3    3    0    0  0.12343615586E+03  0.17261124476E+03  0.41141721166E+02  0.21615681255E+03  0.00000000000E+00 0.  1.
</event>
<event>
 7    1  0.6067783E-006  0.6562933E+02  0.7818608E-02  0.1522148E+00
          2   -1    0    0  502    0  0.00000000000E+00  0.00000000000E+00  0.56046500118E+02  0.56046500118E+02  0.00000000000E+00 0. -1.
          1   -1    0    0  501    0 -0.00000000000E+00 -0.00000000000E+00 -0.34622384560E+03  0.34622384560E+03  0.00000000000E+00 0. -1.
         25    2    1    2    0    0 -0.33837755144E+02 -0.50204656987E+02 -0.21220614020E+03  0.25361713116E+03  0.12499880809E+03 0.  0.
          2    1    1    2  501    0 -0.19679557137E+02  0.10266492707E+02 -0.78804737934E+02  0.81871072806E+02  0.00000000000E+00 0. -1.
          1    1    1    2  502    0  0.53517312281E+02  0.39938164279E+02  0.83353265370E+00  0.66782141748E+02  0.00000000000E+00 0. -1.
         22    1    3    3    0    0  0.22527972901E+02 -0.68636444054E+02 -0.74941557320E+02  0.10408990359E+03  0.00000000000E+00 0.  1.
         22    1    3    3    0    0 -0.56365728045E+02  0.18431787067E+02 -0.13726458288E+03  0.14952722757E+03  0.00000000000E+00 0.  1.
</event>
<event>
 7    1  0.6067783E-006  0.1120861E+03  0.7818608E-02  0.1346503E+00
          2   -1    0    0  502    0  0.00000000000E+00  0.00000000000E+00  0.40183406325E+03  0.40183406325E+03  0.00000000000E+00 0. -1.
          1   -1    0    0  501    0 -0.00000000000E+00 -0.00000000000E+00 -0.13081985396E+04  0.13081985396E+04  0.00000000000E+00 0. -1.
         25    2    1    2    0    0  0.58383655228E+02  0.14369609049E+03 -0.40478732005E+03  0.45114867738E+03  0.12500054803E+03 0.  0.
          2    1    1    2  501    0 -0.37530260658E+02 -0.99286101821E+02 -0.87542207557E+03  0.88183335210E+03  0.00000000000E+00 0. -1.
          1    1    1    2  502    0 -0.20853394571E+02 -0.44409988666E+02  0.37384491930E+03  0.37705057333E+03  0.00000000000E+00 0. -1.
         22    1    3    3    0    0 -0.51609497038E+01  0.67630773907E+01  0.79667682700E+01  0.11655214040E+02  0.00000000000E+00 0. -1.
         22    1    3    3    0    0  0.63544604932E+02  0.13693301310E+03 -0.41275408832E+03  0.43949346334E+03  0.00000000000E+00 0. -1.
</event>
<event>
 7    1  0.6067783E-006  0.3853190E+02  0.7818608E-02  0.1570107E+00
          2   -1    0    0  502    0  0.00000000000E+00  0.00000000000E+00  0.20049575658E+04  0.20049575658E+04  0.00000000000E+00 0. -1.
          1   -1    0    0  501    0 -0.00000000000E+00 -0.00000000000E+00 -0.94181752571E+01  0.94181752571E+01  0.00000000000E+00 0. -1.
         25    2    1    2    0    0  0.14153248425E+02  0.75507875456E+01  0.16731284674E+04  0.16778680483E+04  0.12499996139E+03 0.  0.
          2    1    1    2  501    0 -0.18252308782E+02 -0.34983354371E+02  0.55155339611E+02  0.67816615564E+02  0.00000000000E+00 0. -1.
          1    1    1    2  502    0  0.40990603567E+01  0.27432566825E+02  0.26725558354E+03  0.26869107717E+03  0.00000000000E+00 0. -1.
         22    1    3    3    0    0 -0.53208912242E+02  0.15728196888E+02  0.92756090006E+03  0.92921891277E+03  0.00000000000E+00 0.  1.
         22    1    3    3    0    0  0.67362160667E+02 -0.81774093422E+01  0.74556756735E+03  0.74864913557E+03  0.00000000000E+00 0.  1.
</event>
<event>
 7    1  0.6067783E-006  0.1439043E+03  0.7818608E-02  0.1311412E+00
          2   -1    0    0  502    0  0.00000000000E+00  0.00000000000E+00  0.92785665888E+03  0.92785665888E+03  0.00000000000E+00 0. -1.
          1   -1    0    0  501    0 -0.00000000000E+00 -0.00000000000E+00 -0.21989666043E+04  0.21989666043E+04  0.00000000000E+00 0. -1.
         25    2    1    2    0    0  0.84384821595E+02 -0.53097608417E+02  0.29864484674E+02  0.16265951540E+03  0.12500430541E+03 0.  0.
          2    1    1    2  501    0 -0.10376148267E+03  0.10141971078E+03 -0.21292829095E+04  0.21342207271E+04  0.00000000000E+00 0. -1.
          1    1    1    2  502    0  0.19376661074E+02 -0.48322102361E+02  0.82830847942E+03  0.82994302073E+03  0.00000000000E+00 0. -1.
         22    1    3    3    0    0  0.77687529450E+00 -0.39265823580E+01 -0.41844225403E+02  0.42035232649E+02  0.00000000000E+00 0. -1.
         22    1    3    3    0    0  0.83607946301E+02 -0.49171026059E+02  0.71708710077E+02  0.12062428275E+03  0.00000000000E+00 0. -1.
</event>
<event>
 7    1  0.6067783E-006  0.4530356E+02  0.7818608E-02  0.1481092E+00
          2   -1    0    0  502    0  0.00000000000E+00  0.00000000000E+00  0.10055590453E+04  0.10055590453E+04  0.00000000000E+00 0. -1.
          1   -1    0    0  501    0 -0.00000000000E+00 -0.00000000000E+00 -0.48246494909E+03  0.48246494909E+03  0.00000000000E+00 0. -1.
         25    2    1    2    0    0 -0.62518157109E+01  0.57942880047E+01 -0.30343942268E+03  0.32828761864E+03  0.12499847336E+03 0.  0.
          2    1    1    2  501    0 -0.35484988921E+02 -0.23590097994E+02 -0.16334867069E+03  0.16881488495E+03  0.00000000000E+00 0. -1.
          1    1    1    2  502    0  0.41736804632E+02  0.17795809990E+02  0.98988218954E+03  0.99092149078E+03  0.00000000000E+00 0. -1.
         22    1    3    3    0    0  0.17247811534E+02 -0.55486312096E+02 -0.16842489205E+03  0.17816610815E+03  0.00000000000E+00 0.  1.
         22    1    3    3    0    0 -0.23499627245E+02  0.61280600101E+02 -0.13501453062E+03  0.15012151048E+03  0.00000000000E+00 0.  1.
</event>
<event>
 7    1  0.6067783E-006  0.7367320E+02  0.7818608E-02  0.1362096E+00
          2   -1    0    0  502    0  0.00000000000E+00  0.00000000000E+00  0.14580806100E+03  0.14580806100E+03  0.00000000000E+00 0. -1.
          1   -1    0    0  501    0 -0.00000000000E+00 -0.00000000000E+00 -0.65862232444E+03  0.65862232444E+03  0.00000000000E+00 0. -1.
         25    2    1    2    0    0  0.32046225539E+02 -0.17016124798E+02  0.16489377762E+02  0.13119192865E+03  0.12499165368E+03 0.  0.
          2    1    1    2  501    0  0.28315204696E+02 -0.58954214218E+02 -0.56580256355E+03  0.56956991767E+03  0.00000000000E+00 0. -1.
          1    1    1    2  502    0 -0.60361430235E+02  0.75970339015E+02  0.36498922361E+02  0.10366853912E+03  0.00000000000E+00 0. -1.
         22    1    3    3    0    0  0.53363307641E+02  0.97902709895E+00  0.59497527344E+02  0.79928448356E+02  0.00000000000E+00 0. -1.
         22    1    3    3    0    0 -0.21317082102E+02 -0.17995151896E+02 -0.43008149582E+02  0.51263480291E+02  0.00000000000E+00 0. -1.
</event>
<event>
 7    1  0.6067783E-006  0.1029118E+03  0.7818608E-02  0.1313056E+00
          2   -1    0    0  502    0  0.00000000000E+00  0.00000000000E+00  0.17709446813E+04  0.17709446813E+04  0.00000000000E+00 0. -1.
          1   -1    0    0  501    0 -0.00000000000E+00 -0.00000000000E+00 -0.11504839780E+03  0.11504839780E+03  0.00000000000E+00 0. -1.
         25    2    1    2    0    0 -0.61151846591E+01 -0.36742333959E+02  0.16720643389E+03  0.21206464026E+03  0.12500410204E+03 0.  0.
          2    1    1    2  501    0 -0.26285390927E+02 -0.66735664895E+02 -0.76570299163E+02  0.10491702178E+03  0.00000000000E+00 0. -1.
          1    1    1    2  502    0  0.32400575586E+02  0.10347799885E+03  0.15652601488E+04  0.15690114170E+04  0.00000000000E+00 0. -1.
         22    1    3    3    0    0 -0.38949114363E+02 -0.60234157801E+02  0.15349365698E+03  0.16942694593E+03  0.00000000000E+00 0.  1.
         22    1    3    3    0    0  0.32833929704E+02  0.23491823843E+02  0.13712776916E+02  0.42637694332E+02  0.00000000000E+00 0.  1.
</event>
<event>
 7    1  0.6067783E-006  0.3178922E+03  0.7818608E-02  0.1257657E+00
          2   -1    0    0  502    0  0.00000000000E+00  0.00000000000E+00  0.19788320929E+04  0.19788320929E+04  0.00000000000E+00 0. -1.
          1   -1    0    0  501    0 -0.00000000000E+00 -0.00000000000E+00 -0.11313374640E+04  0.11313374640E+04  0.00000000000E+00 0. -1.
         25    2    1    2    0    0  0.23681390801E+03 -0.22069874924E+03 -0.13403816876E+03  0.37199434677E+03  0.12499919362E+03 0.  0.
          2    1    1    2  501    0  0.20004925951E+02  0.33676299881E+02 -0.86430703533E+03  0.86519416408E+03  0.00000000000E+00 0. -1.
          1    1    1    2  502    0 -0.25681883396E+03  0.18702244935E+03  0.18458398330E+04  0.18729810461E+04  0.00000000000E+00 0. -1.
         22    1    3    3    0    0  0.10827480834E+03 -0.17658449029E+03 -0.10808305221E+03  0.23363959962E+03  0.00000000000E+00 0. -1.
         22    1    3    3    0    0  0.12853909967E+03 -0.44114258942E+02 -0.25955116553E+02  0.13835474716E+03  0.00000000000E+00 0. -1.
</event>
<event>
 7    1  0.6067783E-006  0.8168744E+02  0.7818608E-02  0.1403174E+00
          2   -1    0    0  502    0  0.00000000000E+00  0.00000000000E+00  0.36266102962E+03  0.36266102962E+03  0.00000000000E+00 0. -1.
          1   -1    0    0  501    0 -0.00000000000E+00 -0.00000000000E+00 -0.12683129624E+03  0.12683129624E+03  0.00000000000E+00 0. -1.
         25    2    1    2    0    0 -0.77002638685E+01 -0.87624079323E+02 -0.14363171318E+02  0.15348527900E+03  0.12495661983E+03 0.  0.
          2    1    1    2  501    0 -0.32652094931E+02  0.75115510054E+02 -0.37131410739E+00  0.81906269773E+02  0.00000000000E+00 0. -1.
          1    1    1    2  502    0  0.40352358799E+02  0.12508569269E+02  0.25056421881E+03  0.25410077708E+03  0.00000000000E+00 0. -1.
         22    1    3    3    0    0 -0.18749384723E+02 -0.91738006385E+02 -0.56749789692E+02  0.10948945097E+03  0.00000000000E+00 0.  1.
         22    1    3    3    0    0  0.11049120855E+02  0.41139270619E+01  0.42386618374E+02  0.43995828037E+02  0.00000000000E+00 0.  1.
</event>
<event>
 7    1  0.6067783E-006  0.1845474E+03  0.7818608E-02  0.1285698E+00
          2   -1    0    0  502    0  0.00000000000E+00  0.00000000000E+00  0.11706645897E+04  0.11706645897E+04  0.00000000000E+00 0. -1.
          1   -1    0    0  501    0 -0.00000000000E+00 -0.00000000000E+00 -0.50613836831E+03  0.50613836831E+03  0.00000000000E+00 0. -1.
         25    2    1    2    0    0 -0.19421935330E+03  0.77287766012E+02  0.75389182227E+03  0.79225501273E+03  0.12498227686E+03 0.  0.
          2    1    1    2  501    0  0.51410282325E+02  0.27634609291E+01 -0.46863387649E+03  0.47145345904E+03  0.00000000000E+00 0. -1.
          1    1    1    2  502    0  0.14280907097E+03 -0.80051226941E+02  0.37926827564E+03  0.41309448628E+03  0.00000000000E+00 0. -1.
         22    1    3    3    0    0 -0.17090604563E+03  0.10293316896E+03  0.70240631988E+03  0.73019090101E+03  0.00000000000E+00 0. -1.
         22    1    3    3    0    0 -0.23313307667E+02 -0.25645402950E+02  0.51485502391E+02  0.62064111718E+02  0.00000000000E+00 0. -1.
</event>
<event>
 7    1  0.6067783E-006  0.4504475E+02  0.7818608E-02  0.1515251E+00
          2   -1    0    0  502    0  0.00000000000E+00  0.00000000000E+00  0.15641203459E+04  0.15641203459E+04  0.00000000000E+00 0. -1.
          1   -1    0    0  501    0 -0.00000000000E+00 -0.00000000000E+00 -0.20595625743E+03  0.20595625743E+03  0.00000000000E+00 0. -1.
         25    2    1    2    0    0 -0.43629707327E+02 -0.20461132239E+02  0.12748381915E+04  0.12818579904E+04  0.12500113459E+03 0.  0.
          2    1    1    2  501    0  0.17206578306E+02  0.41649039758E+02 -0.19891359549E+03  0.20395422850E+03  0.00000000000E+00 0. -1.
          1    1    1    2  502    0  0.26423129021E+02 -0.21187907519E+02  0.28223949242E+03  0.28426438443E+03  0.00000000000E+00 0. -1.
         22    1    3    3    0    0 -0.54998429751E+02  0.30727414149E+02  0.35648647740E+03  0.36201051065E+03  0.00000000000E+00 0.  1.
         22    1    3    3    0    0  0.11368722424E+02 -0.51188546387E+02  0.91835171409E+03  0.91984747970E+03  0.00000000000E+00 0.  1.
</event>
<event>
 7    1  0.6067783E-006  0.1349156E+03  0.7818608E-02  0.1306768E+00
          2   -1    0    0  502    0  0.00000000000E+00  0.00000000000E+00  0.53429450008E+03  0.53429450008E+03  0.00000000000E+00 0. -1.
          1   -1    0    0  501    0 -0.00000000000E+00 -0.00000000000E+00 -0.19689501807E+03  0.19689501807E+03  0.00000000000E+00 0. -1.
         25    2    1    2    0    0  0.17024805764E+03  0.44448374856E+02  0.26739980466E+03  0.34363886068E+03  0.12499980751E+03 0.  0.
          2    1    1    2  501    0 -0.56536872673E+02 -0.12603375169E+02 -0.13727662298E+03  0.14899709479E+03  0.00000000000E+00 0. -1.
          1    1    1    2  502    0 -0.11371118496E+03 -0.31844999687E+02  0.20727630033E+03  0.23855356269E+03  0.00000000000E+00 0. -1.
         22    1    3    3    0    0  0.18963355237E+02 -0.36760621503E+02  0.75862825815E+02  0.86406715455E+02  0.00000000000E+00 0. -1.
         22    1    3    3    0    0  0.15128470240E+03  0.81208996359E+02  0.19153697885E+03  0.25723214522E+03  0.00000000000E+00 0. -1.
</event>
<event>
 7    1  0.6067783E-006  0.7787059E+02  0.7818608E-02  0.1412085E+00
          2   -1    0    0  502    0  0.00000000000E+00  0.00000000000E+00  0.21591005046E+03  0.21591005046E+03  0.00000000000E+00 0. -1.
          1   -1    0    0  501    0 -0.00000000000E+00 -0.00000000000E+00 -0.31277024549E+03  0.31277024549E+03  0.00000000000E+00 0. -1.
         25    2    1    2    0    0 -0.87686744424E+02  0.53440490543E+02 -0.15526173866E+03  0.22422430837E+03  0.12500192716E+03 0.  0.
          2    1    1    2  501    0  0.46364188119E+02 -0.54242036717E+02 -0.10996638965E+03  0.13108944786E+03  0.00000000000E+00 0. -1.
          1    1    1    2  502    0  0.41322556305E+02  0.80154617403E+00  0.16836793329E+03  0.17336653972E+03  0.00000000000E+00 0. -1.
         22    1    3    3    0    0 -0.99835023496E+02  0.92613007120E+01 -0.55868519260E+02  0.11477846075E+03  0.00000000000E+00 0. -1.
         22    1    3    3    0    0  0.12148279073E+02  0.44179189831E+02 -0.99393219405E+02  0.10944584762E+03  0.00000000000E+00 0. -1.
</event>
<event>
 7    1  0.6067783E-006  0.4071590E+02  0.7818608E-02  0.1601182E+00
          2   -1    0    0  502    0  0.00000000000E+00  0.00000000000E+00  0.55213127168E+03  0.55213127168E+03  0.00000000000E+00 0. -1.
          1   -1    0    0  501    0 -0.00000000000E+00 -0.00000000000E+00 -0.53670586650E+03  0.53670586650E+03  0.00000000000E+00 0. -1.
         25    2    1    2    0    0  0.42008058702E+02  0.42607539974E+02 -0.44790155855E+03  0.46884721426E+03  0.12498729819E+03 0.  0.
          2    1    1    2  501    0 -0.20013333491E+02 -0.83790525292E+01 -0.76048067238E+02  0.79082555404E+02  0.00000000000E+00 0. -1.
          1    1    1    2  502    0 -0.21994725211E+02 -0.34228487444E+02  0.53937503097E+03  0.54090736852E+03  0.00000000000E+00 0. -1.
         22    1    3    3    0    0 -0.67308521311E+01 -0.41114406557E+02 -0.13948808308E+03  0.14557686670E+03  0.00000000000E+00 0.  1.
         22    1    3    3    0    0  0.48738910833E+02  0.83721946531E+02 -0.30841347546E+03  0.32327034755E+03  0.00000000000E+00 0.  1.
</event>
<event>
 7    1  0.6067783E-006  0.4821093E+02  0.7818608E-02  0.1537585E+00
          2   -1    0    0  502    0  0.00000000000E+00  0.00000000000E+00  0.25062600635E+04  0.25062600635E+04  0.00000000000E+00 0. -1.
          1   -1    0    0  501    0 -0.00000000000E+00 -0.00000000000E+00 -0.12324019247E+04  0.12324019247E+04  0.00000000000E+00 0. -1.
         25    2    1    2    0    0 -0.11438409348E+02  0.53106908463E+02  0.15433821159E+04  0.15493884412E+04  0.12500002088E+03 0.  0.
          2    1    1    2  501    0 -0.20984334085E+02 -0.17446833287E+02 -0.12286421549E+04  0.12289451896E+04  0.00000000000E+00 0. -1.
          1    1    1    2  502    0  0.32422743433E+02 -0.35660075176E+02  0.95911817767E+03  0.96032835739E+03  0.00000000000E+00 0. -1.
         22    1    3    3    0    0  0.44160985129E+02  0.41284239582E+02  0.39489125791E+03  0.39949178542E+03  0.00000000000E+00 0. -1.
         22    1    3    3    0    0 -0.55599394477E+02  0.11822668881E+02  0.11484908580E+04  0.11498966558E+04  0.00000000000E+00 0. -1.
</event>
<event>
 7    1  0.6067783E-006  0.1393427E+03  0.7818608E-02  0.1391187E+00
          2   -1    0    0  502    0  0.00000000000E+00  0.00000000000E+00  0.24085992512E+03  0.24085992512E+03  0.00000000000E+00 0. -1.
          1   -1    0    0  501    0 -0.00000000000E+00 -0.00000000000E+00 -0.56319378516E+03  0.56319378516E+03  0.00000000000E+00 0. -1.
         25    2    1    2    0    0  0.15416984333E+03 -0.47434325725E+01 -0.41786519202E+03  0.46263210808E+03  0.12500523181E+03 0.  0.
          2    1    1    2  501    0 -0.16527419347E+02  0.21656793809E+02 -0.98910100547E+02  0.10259327609E+03  0.00000000000E+00 0. -1.
          1    1    1    2  502    0 -0.13764242399E+03 -0.16913361237E+02  0.19444143253E+03  0.23882832611E+03  0.00000000000E+00 0. -1.
         22    1    3    3    0    0  0.22042456779E+01  0.33977075234E+02 -0.34688490167E+02  0.48606498439E+02  0.00000000000E+00 0. -1.
         22    1    3    3    0    0  0.15196559766E+03 -0.38720507807E+02 -0.38317670186E+03  0.41402560964E+03  0.00000000000E+00 0. -1.
</event>
<event>
 7    1  0.6067783E-006  0.8176906E+02  0.7818608E-02  0.1402826E+00
          2   -1    0    0  502    0  0.00000000000E+00  0.00000000000E+00  0.39478183038E+03  0.39478183038E+03  0.00000000000E+00 0. -1.
          1   -1    0    0  501    0 -0.00000000000E+00 -0.00000000000E+00 -0.50116900029E+03  0.50116900029E+03  0.00000000000E+00 0. -1.
         25    2    1    2    0    0  0.76239678902E+02  0.14583544530E+02  0.81103852318E+02  0.16801291573E+03  0.12500134632E+03 0.  0.
          2    1    1    2  501    0 -0.12936505693E+02  0.40294690013E+02 -0.45020454562E+03  0.45218928351E+03  0.00000000000E+00 0. -1.
          1    1    1    2  502    0 -0.63303173209E+02 -0.54878234542E+02  0.26271352339E+03  0.27574863143E+03  0.00000000000E+00 0. -1.
         22    1    3    3    0    0  0.43942951161E+02  0.44886402473E+02 -0.12875465128E+02  0.64121366844E+02  0.00000000000E+00 0. -1.
         22    1    3    3    0    0  0.32296727741E+02 -0.30302857943E+02  0.93979317446E+02  0.10389154889E+03  0.00000000000E+00 0. -1.
</event>
<event>
 7    1  0.6067783E-006  0.1185845E+03  0.7818608E-02  0.1280274E+00
          2   -1    0    0  502    0  0.00000000000E+00  0.00000000000E+00  0.56774412646E+02  0.56774412646E+02  0.00000000000E+00 0. -1.
          1   -1    0    0  501    0 -0.00000000000E+00 -0.00000000000E+00 -0.12098565256E+04  0.12098565256E+04  0.00000000000E+00 0. -1.
         25    2    1    2    0    0  0.17772294167E+02 -0.15037004292E+03 -0.70163725890E+03  0.72860173490E+03  0.12505455124E+03 0.  0.
          2    1    1    2  501    0 -0.70098919214E+02  0.84218114400E+02 -0.43936583667E+03  0.45282324112E+03  0.00000000000E+00 0. -1.
          1    1    1    2  502    0  0.52326625047E+02  0.66151928519E+02 -0.12079017378E+02  0.85205962211E+02  0.00000000000E+00 0. -1.
         22    1    3    3    0    0 -0.40549701653E+02 -0.59677723288E+02 -0.14907545250E+03  0.16561763040E+03  0.00000000000E+00 0.  1.
         22    1    3    3    0    0  0.58321995820E+02 -0.90692319630E+02 -0.55256180639E+03  0.56298410450E+03  0.00000000000E+00 0.  1.
</event>
<event>
 7    1  0.6067783E-006  0.1060301E+03  0.7818608E-02  0.1432359E+00
          2   -1    0    0  502    0  0.00000000000E+00  0.00000000000E+00  0.24643615698E+04  0.24643615698E+04  0.00000000000E+00 0. -1.
          1   -1    0    0  501    0 -0.00000000000E+00 -0.00000000000E+00 -0.17712668922E+02  0.17712668922E+02  0.00000000000E+00 0. -1.
         25    2    1    2    0    0  0.11400298289E+03 -0.18012037242E+02  0.61506861347E+03  0.63816581462E+03  0.12500037632E+03 0.  0.
          2    1    1    2  501    0 -0.10052967356E+03 -0.42065086256E+01  0.41263614169E+03  0.42472637711E+03  0.00000000000E+00 0. -1.
          1    1    1    2  502    0 -0.13473309332E+02  0.22218545868E+02  0.14189441457E+04  0.14191820470E+04  0.00000000000E+00 0. -1.
         22    1    3    3    0    0 -0.21917437873E+02 -0.23119030421E+02  0.80752230183E+02  0.86808906974E+02  0.00000000000E+00 0. -1.
         22    1    3    3    0    0  0.13592042076E+03  0.51069931795E+01  0.53431638329E+03  0.55135690764E+03  0.00000000000E+00 0. -1.
</event>
<event>
 7    1  0.6067783E-006  0.6904680E+02  0.7818608E-02  0.1399007E+00
          2   -1    0    0  502    0  0.00000000000E+00  0.00000000000E+00  0.89674240339E+03  0.89674240339E+03  0.00000000000E+00 0. -1.
          1   -1    0    0  501    0 -0.00000000000E+00 -0.00000000000E+00 -0.62000241926E+03  0.62000241926E+03  0.00000000000E+00 0. -1.
         25    2    1    2    0    0  0.11514128939E+02 -0.40209299043E+02  0.99237901594E+02  0.16499133319E+03  0.12499846407E+03 0.  0.
          2    1    1    2  501    0 -0.47058101551E+02 -0.21300806948E+02 -0.58433380484E+03  0.58661246559E+03  0.00000000000E+00 0. -1.
          1    1    1    2  502    0  0.35543972612E+02  0.61510105991E+02  0.76183588738E+03  0.76514102388E+03  0.00000000000E+00 0. -1.
         22    1    3    3    0    0  0.48021848807E+02 -0.51119137287E+01 -0.55467428340E+01  0.48610657071E+02  0.00000000000E+00 0. -1.
         22    1    3    3    0    0 -0.36507719868E+02 -0.35097385314E+02  0.10478464443E+03  0.11638067612E+03  0.00000000000E+00 0. -1.
</event>
<event>
 7    1  0.6067783E-006  0.2098796E+03  0.7818608E-02  0.1206491E+00
          2   -1    0    0  502    0  0.00000000000E+00  0.00000000000E+00  0.10917821552E+04  0.10917821552E+04  0.00000000000E+00 0. -1.
          1   -1    0    0  501    0 -0.00000000000E+00 -0.00000000000E+00 -0.16569912527E+03  0.16569912527E+03  0.00000000000E+00 0. -1.
         25    2    1    2    0    0 -0.15971181726E+03 -0.97557274580E+02  0.49397350163E+03  0.54282634403E+03  0.12500133224E+03 0.  0.
          2    1    1    2  501    0  0.16266611789E+02 -0.99135675735E+02 -0.92343621557E+02  0.13645449536E+03  0.00000000000E+00 0. -1.
          1    1    1    2  502    0  0.14344520547E+03  0.19669295032E+03  0.52445314987E+03  0.57820044110E+03  0.00000000000E+00 0. -1.
         22    1    3    3    0    0 -0.86762560798E+02 -0.69507136074E+02  0.13231175364E+03  0.17281604113E+03  0.00000000000E+00 0. -1.
         22    1    3    3    0    0 -0.72949256458E+02 -0.28050138507E+02  0.36166174799E+03  0.37001030289E+03  0.00000000000E+00 0. -1.
</event>
<event>
 7    1  0.6067783E-006  0.8236906E+02  0.7818608E-02  0.1374266E+00
          2   -1    0    0  502    0  0.00000000000E+00  0.00000000000E+00  0.38410218955E+02  0.38410218955E+02  0.00000000000E+00 0. -1.
          1   -1    0    0  501    0 -0.00000000000E+00 -0.00000000000E+00 -0.20089633311E+04  0.20089633311E+04  0.00000000000E+00 0. -1.
         25    2    1    2    0    0  0.49874717518E+01 -0.10833983781E+03 -0.69375647606E+03  0.71322141676E+03  0.12499738365E+03 0.  0.
          2    1    1    2  501    0  0.36279602394E+02  0.38466967161E+02 -0.12463625353E+04  0.12474836618E+04  0.00000000000E+00 0. -1.
          1    1    1    2  502    0 -0.41267074146E+02  0.69872870648E+02 -0.30434100822E+02  0.86668471511E+02  0.00000000000E+00 0. -1.
         22    1    3    3    0    0  0.38359906809E+02 -0.66400800525E+02 -0.60272469097E+03  0.60758341145E+03  0.00000000000E+00 0. -1.
         22    1    3    3    0    0 -0.33372435057E+02 -0.41939037285E+02 -0.91031785091E+02  0.10563800531E+03  0.00000000000E+00 0. -1.
</event>
<event>
 7    1  0.6067783E-006  0.1403164E+03  0.7818608E-02  0.1419003E+00
          2   -1    0    0  502    0  0.00000000000E+00  0.00000000000E+00  0.21585561413E+03  0.21585561413E+03  0.00000000000E+00 0. -1.
          1   -1    0    0  501    0 -0.00000000000E+00 -0.00000000000E+00 -0.51511133869E+03  0.51511133869E+03  0.00000000000E+00 0. -1.
         25    2    1    2    0    0  0.85676410084E+02 -0.89196722390E+02  0.73389519099E+02  0.19054227271E+03  0.12499533449E+03 0.  0.
          2    1    1    2  501    0 -0.10710888534E+03  0.92845991748E+02 -0.44387079491E+03  0.46595490562E+03  0.00000000000E+00 0. -1.
          1    1    1    2  502    0  0.21432475251E+02 -0.36492693582E+01  0.71225551247E+02  0.74469774490E+02  0.00000000000E+00 0. -1.
         22    1    3    3    0    0  0.12481081510E+02  0.30507304536E+01 -0.30759334362E+02  0.33334981661E+02  0.00000000000E+00 0.  1.
         22    1    3    3    0    0  0.73195328574E+02 -0.92247452843E+02  0.10414885346E+03  0.15720729105E+03  0.00000000000E+00 0.  1.
</event>
<event>
 7    1  0.6067783E-006  0.7274300E+02  0.7818608E-02  0.1423128E+00
          2   -1    0    0  502    0  0.00000000000E+00  0.00000000000E+00  0.22199543681E+04  0.22199543681E+04  0.00000000000E+00 0. -1.
          1   -1    0    0  501    0 -0.00000000000E+00 -0.00000000000E+00 -0.18146919762E+04  0.18146919762E+04  0.00000000000E+00 0. -1.
         25    2    1    2    0    0  0.79033378250E+02 -0.43375667119E+02 -0.77712038057E+02  0.17259970062E+03  0.12499508959E+03 0.  0.
          2    1    1    2  501    0 -0.64031086275E+01  0.40121848074E+02 -0.16886834348E+04  0.16891721362E+04  0.00000000000E+00 0. -1.
          1    1    1    2  502    0 -0.72630269622E+02  0.32538190449E+01  0.21716578648E+04  0.21728745074E+04  0.00000000000E+00 0. -1.
         22    1    3    3    0    0 -0.62224200355E+01  0.13801814924E+02  0.23814935963E+02  0.28219847293E+02  0.00000000000E+00 0.  1.
         22    1    3    3    0    0  0.85255798285E+02 -0.57177482043E+02 -0.10152697402E+03  0.14437985333E+03  0.00000000000E+00 0.  1.
</event>
<event>
 7    1  0.6067783E-006  0.8885794E+02  0.7818608E-02  0.1346109E+00
          2   -1    0    0  502    0  0.00000000000E+00  0.00000000000E+00  0.20992711084E+04  0.20992711084E+04  0.00000000000E+00 0. -1.
          1   -1    0    0  501    0 -0.00000000000E+00 -0.00000000000E+00 -0.10830825186E+03  0.10830825186E+03  0.00000000000E+00 0. -1.
         25    2    1    2    0    0  0.17258324984E+02 -0.28054647817E+02  0.14221381193E+04  0.14280010224E+04  0.12500070582E+03 0.  0.
          2    1    1    2  501    0 -0.73787166053E+01  0.89360961179E+02 -0.84560463485E+02  0.12324893033E+03  0.00000000000E+00 0. -1.
          1    1    1    2  502    0 -0.98796083789E+01 -0.61306313362E+02  0.65338520071E+03  0.65632940756E+03  0.00000000000E+00 0. -1.
         22    1    3    3    0    0  0.53927117781E+02 -0.20028836759E+02  0.12699430709E+04  0.12712453310E+04  0.00000000000E+00 0. -1.
         22    1    3    3    0    0 -0.36668792797E+02 -0.80258110580E+01  0.15219504844E+03  0.15675569137E+03  0.00000000000E+00 0. -1.
</event>
<event>
 7    1  0.6067783E-006  0.6592112E+02  0.7818608E-02  0.1533675E+00
          2   -1    0    0  502    0  0.00000000000E+00  0.00000000000E+00  0.94097197999E+02  0.94097197999E+02  0.00000000000E+00 0. -1.
          1   -1    0    0  501    0 -0.00000000000E+00 -0.00000000000E+00 -0.22653161734E+04  0.22653161734E+04  0.00000000000E+00 0. -1.
         25    2    1    2    0    0 -0.13215630752E+02 -0.71628402319E+02 -0.79993461576E+02  0.16531574999E+03  0.12500024953E+03 0.  0.
          2    1    1    2  501    0  0.29322272418E+02  0.58985764913E+02 -0.21400967541E+04  0.21411102804E+04  0.00000000000E+00 0. -1.
          1    1    1    2  502    0 -0.16106641665E+02  0.12642637406E+02  0.48871240228E+02  0.52987341014E+02  0.00000000000E+00 0. -1.
         22    1    3    3    0    0  0.43971986519E+02 -0.43791630197E+02  0.13319572241E+01  0.62072671795E+02  0.00000000000E+00 0. -1.
         22    1    3    3    0    0 -0.57187617272E+02 -0.27836772122E+02 -0.81325418800E+02  0.10324307819E+03  0.00000000000E+00 0. -1.
</event>
<event>
 7    1  0.6067783E-006  0.5546097E+02  0.7818608E-02  0.1475338E+00
          2   -1    0    0  502    0  0.00000000000E+00  0.00000000000E+00  0.54811312763E+03  0.54811312763E+03  0.00000000000E+00 0. -1.
          1   -1    0    0  501    0 -0.00000000000E+00 -0.00000000000E+00 -0.89863375411E+03  0.89863375411E+03  0.00000000000E+00 0. -1.
         25    2    1    2    0    0 -0.48020447824E+01 -0.87954711600E+02 -0.10603896246E+03  0.18609214476E+03  0.12500773518E+03 0.  0.
          2    1    1    2  501    0 -0.10030120021E+02  0.34839301728E+02 -0.75063299031E+03  0.75150799490E+03  0.00000000000E+00 0. -1.
          1    1    1    2  502    0  0.14832164804E+02  0.53115409872E+02  0.50615132629E+03  0.50914674209E+03  0.00000000000E+00 0. -1.
         22    1    3    3    0    0  0.50666337794E+02 -0.48282789153E+02 -0.93436771255E+02  0.11674217634E+03  0.00000000000E+00 0.  1.
         22    1    3    3    0    0 -0.55468382576E+02 -0.39671922448E+02 -0.12602191202E+02  0.69349968417E+02  0.00000000000E+00 0.  1.
</event>
<event>
 7    1  0.6067783E-006  0.2531976E+03  0.7818608E-02  0.1333338E+00
          2   -1    0    0  502    0  0.00000000000E+00  0.00000000000E+00  0.80908741861E+03  0.80908741861E+03  0.00000000000E+00 0. -1.
          1   -1    0    0  501    0 -0.00000000000E+00 -0.00000000000E+00 -0.41496957882E+03  0.41496957882E+03  0.00000000000E+00 0. -1.
         25    2    1    2    0    0 -0.86084250678E+02  0.23991712794E+03 -0.23548855155E+02  0.28487219267E+03  0.12500756411E+03 0.  0.
          2    1    1    2  501    0  0.10768272533E+03 -0.22868836581E+03 -0.19920490527E+03  0.32183308139E+03  0.00000000000E+00 0. -1.
          1    1    1    2  502    0 -0.21598474648E+02 -0.11228762131E+02  0.61687160022E+03  0.61735172338E+03  0.00000000000E+00 0. -1.
         22    1    3    3    0    0  0.21760299932E+02  0.11493090349E+03 -0.25759780298E+02  0.11977557977E+03  0.00000000000E+00 0. -1.
         22    1    3    3    0    0 -0.10784455061E+03  0.12498622445E+03  0.22109251432E+01  0.16509661290E+03  0.00000000000E+00 0. -1.
</event>
<event>
 7    1  0.6067783E-006  0.1625209E+03  0.7818608E-02  0.1375977E+00
          2   -1    0    0  502    0  0.00000000000E+00  0.00000000000E+00  0.12294056743E+04  0.12294056743E+04  0.00000000000E+00 0. -1.
          1   -1    0    0  501    0 -0.00000000000E+00 -0.00000000000E+00 -0.28882173748E+03  0.28882173748E+03  0.00000000000E+00 0. -1.
         25    2    1    2    0    0  0.12710337920E+03  0.12736842881E+03  0.74849125360E+03  0.77989904588E+03  0.12500151752E+03 0.  0.
          2    1    1    2  501    0 -0.12671381181E+03 -0.10094637399E+03 -0.24866232709E+03  0.29678192910E+03  0.00000000000E+00 0. -1.
          1    1    1    2  502    0 -0.38956739404E+00 -0.26422054825E+02  0.44075501034E+03  0.44154643684E+03  0.00000000000E+00 0. -1.
         22    1    3    3    0    0  0.54773606667E+02  0.12637226719E+02  0.43102381743E+03  0.43467387624E+03  0.00000000000E+00 0. -1.
         22    1    3    3    0    0  0.72329772533E+02  0.11473120209E+03  0.31746743617E+03  0.34522516964E+03  0.00000000000E+00 0. -1.
</event>
<event>
 7    1  0.6067783E-006  0.1432185E+03  0.7818608E-02  0.1380823E+00
          2   -1    0    0  502    0  0.00000000000E+00  0.00000000000E+00  0.63324419245E+03  0.63324419245E+03  0.00000000000E+00 0. -1.
          1   -1    0    0  501    0 -0.00000000000E+00 -0.00000000000E+00 -0.20349102883E+04  0.20349102883E+04  0.00000000000E+00 0. -1.
         25    2    1    2    0    0 -0.18907627703E+02 -0.11766459401E+03  0.38755805483E+01  0.17275110354E+03  0.12500187432E+03 0.  0.
          2    1    1    2  501    0  0.71930427360E+01 -0.27909727115E+02 -0.19405783556E+04  0.19407923761E+04  0.00000000000E+00 0. -1.
          1    1    1    2  502    0  0.11714584967E+02  0.14557432112E+03  0.53503667921E+03  0.55461100113E+03  0.00000000000E+00 0. -1.
         22    1    3    3    0    0 -0.50725145504E+02 -0.95639031759E+00  0.96585575937E+01  0.51645356070E+02  0.00000000000E+00 0.  1.
         22    1    3    3    0    0  0.31817517801E+02 -0.11670820369E+03 -0.57829770454E+01  0.12110574747E+03  0.00000000000E+00 0.  1.
</event>
<event>
 7    1  0.6067783E-006  0.1195985E+03  0.7818608E-02  0.1304929E+00
          2   -1    0    0  502    0  0.00000000000E+00  0.00000000000E+00  0.51916725557E+03  0.51916725557E+03  0.00000000000E+00 0. -1.
          1   -1    0    0  501    0 -0.00000000000E+00 -0.00000000000E+00 -0.10577892685E+03  0.10577892685E+03  0.00000000000E+00 0. -1.
         25    2    1    2    0    0 -0.13795404638E+03 -0.81700760759E+02  0.20871426812E+03  0.29136043519E+03  0.12499169676E+03 0.  0.
          2    1    1    2  501    0  0.66440526041E+02 -0.11129866398E+01 -0.31319085410E+02  0.73460651718E+02  0.00000000000E+00 0. -1.
          1    1    1    2  502    0  0.71513520336E+02  0.82813747399E+02  0.23599314602E+03  0.26012509551E+03  0.00000000000E+00 0. -1.
         22    1    3    3    0    0 -0.41972234335E+02 -0.95051359675E+02  0.13059786870E+03  0.16688988208E+03  0.00000000000E+00 0. -1.
         22    1    3    3    0    0 -0.95981812042E+02  0.13350598916E+02  0.78116399418E+02  0.12447055311E+03  0.00000000000E+00 0. -1.
</event>
<event>
 7    1  0.6067783E-006  0.1316498E+03  0.7818608E-02  0.1336966E+00
          2   -1    0    0  502    0  0.00000000000E+00  0.00000000000E+00  0.11605038603E+03  0.11605038603E+03  0.00000000000E+00 0. -1.
          1   -1    0    0  501    0 -0.00000000000E+00 -0.00000000000E+00 -0.17125878006E+04  0.17125878006E+04  0.00000000000E+00 0. -1.
         25    2    1    2    0    0 -0.10569268915E+03  0.32822102529E+02 -0.20977291528E+03  0.26810120184E+03  0.12500137395E+03 0.  0.
          2    1    1    2  501    0  0.13438418510E+03  0.23097596718E+01 -0.14644360240E+04  0.14705908039E+04  0.00000000000E+00 0. -1.
          1    1    1    2  502    0 -0.28691495959E+02 -0.35131862200E+02  0.77671524769E+02  0.89946180808E+02  0.00000000000E+00 0. -1.
         22    1    3    3    0    0 -0.52725203388E+02 -0.46231139264E+01 -0.48412542578E+01  0.53148452447E+02  0.00000000000E+00 0.  1.
         22    1    3    3    0    0 -0.52967485757E+02  0.37445216455E+02 -0.20493166102E+03  0.21495274939E+03  0.00000000000E+00 0.  1.
</event>
<event>
 7    1  0.6067783E-006  0.1274387E+03  0.7818608E-02  0.1391893E+00
          2   -1    0    0  502    0  0.00000000000E+00  0.00000000000E+00  0.25171965230E+04  0.25171965230E+04  0.00000000000E+00 0. -1.
          1   -1    0    0  501    0 -0.00000000000E+00 -0.00000000000E+00 -0.65878904142E+02  0.65878904142E+02  0.00000000000E+00 0. -1.
         25    2    1    2    0    0 -0.11323580903E+03 -0.28735313036E+02  0.77690091028E+03  0.79551777684E+03  0.12500176884E+03 0.  0.
          2    1    1    2  501    0  0.12862955813E+03  0.34302452432E+01  0.16904641672E+02  0.12978095668E+03  0.00000000000E+00 0. -1.
          1    1    1    2  502    0 -0.15393749097E+02  0.25305067793E+02  0.16575120669E+04  0.16577766936E+04  0.00000000000E+00 0. -1.
         22    1    3    3    0    0 -0.50314043254E+02 -0.31695595216E+02  0.10499095027E+03  0.12066156531E+03  0.00000000000E+00 0. -1.
         22    1    3    3    0    0 -0.62921765779E+02  0.29602821801E+01  0.67190996001E+03  0.67485621153E+03  0.00000000000E+00 0. -1.
</event>
<event>
 7    1  0.6067783E-006  0.7198128E+02  0.7818608E-02  0.1445004E+00
          2   -1    0    0  502    0  0.00000000000E+00  0.00000000000E+00  0.18779907140E+02  0.18779907140E+02  0.00000000000E+00 0. -1.
          1   -1    0    0  501    0 -0.00000000000E+00 -0.00000000000E+00 -0.27593371033E+04  0.27593371033E+04  0.00000000000E+00 0. -1.
         25    2    1    2    0    0 -0.49625557855E+02  0.56166978827E+02 -0.45554854739E+03  0.47829654337E+03  0.12500271544E+03 0.  0.
          2    1    1    2  501    0  0.31551766348E+02  0.14724314570E+02 -0.21080195160E+04  0.21083070458E+04  0.00000000000E+00 0. -1.
          1    1    1    2  502    0  0.18073791508E+02 -0.70891293397E+02 -0.17698913273E+03  0.19151342127E+03  0.00000000000E+00 0. -1.
         22    1    3    3    0    0 -0.21959194959E+01  0.42253740987E+02 -0.40638406989E+03  0.40858073002E+03  0.00000000000E+00 0. -1.
         22    1    3    3    0    0 -0.47429638359E+02  0.13913237839E+02 -0.49164477500E+02  0.69715813342E+02  0.00000000000E+00 0. -1.
</event>
<event>
 7    1  0.6067783E-006  0.4350189E+02  0.7818608E-02  0.1544630E+00
          2   -1    0    0  502    0  0.00000000000E+00  0.00000000000E+00  0.20074765315E+03  0.20074765315E+03  0.00000000000E+00 0. -1.
          1   -1    0    0  501    0 -0.00000000000E+00 -0.00000000000E+00 -0.99507089586E+03  0.99507089586E+03  0.00000000000E+00 0. -1.
         25    2    1    2    0    0 -0.15085874796E+02 -0.43970079600E+01 -0.19776703862E+03  0.23448722222E+03  0.12500215406E+03 0.  0.
          2    1    1    2  501    0  0.41127161666E+02  0.16907277516E+02 -0.77716015048E+03  0.77843124228E+03  0.00000000000E+00 0. -1.
          1    1    1    2  502    0 -0.26041286869E+02 -0.12510269556E+02  0.18060394639E+03  0.18290008452E+03  0.00000000000E+00 0. -1.
         22    1    3    3    0    0 -0.37395192731E+02 -0.34673790364E+02 -0.23397511036E+02  0.56108071614E+02  0.00000000000E+00 0.  1.
         22    1    3    3    0    0  0.22309317935E+02  0.30276782404E+02 -0.17436952758E+03  0.17837915060E+03  0.00000000000E+00 0.  1.
</event>
<event>
 7    1  0.6067783E-006  0.5049185E+02  0.7818608E-02  0.1459098E+00
          2   -1    0    0  502    0  0.00000000000E+00  0.00000000000E+00  0.81928358104E+03  0.81928358104E+03  0.00000000000E+00 0. -1.
          1   -1    0    0  501    0 -0.00000000000E+00 -0.00000000000E+00 -0.14699172091E+03  0.14699172091E+03  0.00000000000E+00 0. -1.
         25    2    1    2    0    0  0.19288119068E+02  0.50607566732E+02  0.15811410226E+03  0.20870159544E+03  0.12499251681E+03 0.  0.
          2    1    1    2  501    0  0.29062177939E+02 -0.34035137634E+02 -0.11651419065E+03  0.12481409136E+03  0.00000000000E+00 0. -1.
          1    1    1    2  502    0 -0.48350297007E+02 -0.16572429099E+02  0.63069194852E+03  0.63275961514E+03  0.00000000000E+00 0. -1.
         22    1    3    3    0    0  0.48394661945E+02  0.80764762172E+02  0.11393756595E+03  0.14780649190E+03  0.00000000000E+00 0.  1.
         22    1    3    3    0    0 -0.29106542876E+02 -0.30157195440E+02  0.44176536309E+02  0.60895103541E+02  0.00000000000E+00 0.  1.
</event>
<event>
 7    1  0.6067783E-006  0.6096683E+02  0.7818608E-02  0.1445363E+00
          2   -1    0    0  502    0  0.00000000000E+00  0.00000000000E+00  0.84189184473E+03  0.84189184473E+03  0.00000000000E+00 0. -1.
          1   -1    0    0  501    0 -0.00000000000E+00 -0.00000000000E+00 -0.55444053740E+03  0.55444053740E+03  0.00000000000E+00 0. -1.
         25    2    1    2    0    0 -0.62997306780E+02  0.55797990668E+02  0.16500895609E+03  0.22346166580E+03  0.12500033627E+03 0.  0.
          2    1    1    2  501    0  0.40998192322E+02  0.31257718612E+00 -0.52300805801E+03  0.52461259823E+03  0.00000000000E+00 0. -1.
          1    1    1    2  502    0  0.21999114458E+02 -0.56110567854E+02  0.64545040925E+03  0.64825811808E+03  0.00000000000E+00 0. -1.
         22    1    3    3    0    0 -0.50260820924E+02  0.31947931435E+02  0.34491014640E+01  0.59654980881E+02  0.00000000000E+00 0.  1.
         22    1    3    3    0    0 -0.12736485855E+02  0.23850059232E+02  0.16155985463E+03  0.16380668492E+03  0.00000000000E+00 0.  1.
</event>
<event>
 7    1  0.6067783E-006  0.6627768E+02  0.7818608E-02  0.1437919E+00
          2   -1    0    0  502    0  0.00000000000E+00  0.00000000000E+00  0.18711478370E+04  0.18711478370E+04  0.00000000000E+00 0. -1.
          1   -1    0    0  501    0 -0.00000000000E+00 -0.00000000000E+00 -0.86942616050E+03  0.86942616050E+03  0.00000000000E+00 0. -1.
         25    2    1    2    0    0 -0.63136629035E+02  0.24516287370E+02 -0.76616591901E+01  0.14238031273E+03  0.12500468055E+03 0.  0.
          2    1    1    2  501    0  0.37407748103E+02 -0.54968552472E+02 -0.79279308839E+03  0.79557637118E+03  0.00000000000E+00 0. -1.
          1    1    1    2  502    0  0.25728880932E+02  0.30452265102E+02  0.18021764240E+04  0.18026173135E+04  0.00000000000E+00 0. -1.
         22    1    3    3    0    0 -0.91065352643E+02  0.23151463178E+01  0.24515373109E+02  0.94335899174E+02  0.00000000000E+00 0.  1.
         22    1    3    3    0    0  0.27928723607E+02  0.22201141052E+02 -0.32177032299E+02  0.48044413555E+02  0.00000000000E+00 0.  1.
</event>
<event>
 7    1  0.6067783E-006  0.5605847E+02  0.7818608E-02  0.1448437E+00
          2   -1    0    0  502    0  0.00000000000E+00  0.00000000000E+00  0.43504257942E+03  0.43504257942E+03  0.00000000000E+00 0. -1.
          1   -1    0    0  501    0 -0.00000000000E+00 -0.00000000000E+00 -0.50135157908E+03  0.50135157908E+03  0.00000000000E+00 0. -1.
         25    2    1    2    0    0 -0.53737985971E+02  0.44700636165E+02 -0.23959221798E+02  0.14520781730E+03  0.12500139153E+03 0.  0.
          2    1    1    2  501    0  0.42371513912E+02  0.10218406561E+02 -0.41351612370E+03  0.41580686092E+03  0.00000000000E+00 0. -1.
          1    1    1    2  502    0  0.11366472059E+02 -0.54919042726E+02  0.37116634584E+03  0.37537948029E+03  0.00000000000E+00 0. -1.
         22    1    3    3    0    0  0.38526362140E+02  0.10970438277E+02  0.99647396859E+01  0.41278652264E+02  0.00000000000E+00 0.  1.
         22    1    3    3    0    0 -0.92264348111E+02  0.33730197888E+02 -0.33923961484E+02  0.10392916503E+03  0.00000000000E+00 0.  1.
</event>
<event>
 7    1  0.6067783E-006  0.6337048E+02  0.7818608E-02  0.1396002E+00
          2   -1    0    0  502    0  0.00000000000E+00  0.00000000000E+00  0.39356898926E+03  0.39356898926E+03  0.00000000000E+00 0. -1.
          1   -1    0    0  501    0 -0.00000000000E+00 -0.00000000000E+00 -0.22202971712E+04  0.22202971712E+04  0.00000000000E+00 0. -1.
         25    2    1    2    0    0 -0.18049922288E+02  0.34138125199E+02 -0.12760772557E+03  0.18275852298E+03  0.12500293921E+03 0.  0.
          2    1    1    2  501    0 -0.46143188838E+02 -0.34545058194E+02 -0.20618932859E+04  0.20626988334E+04  0.00000000000E+00 0. -1.
          1    1    1    2  502    0  0.64193111126E+02  0.40693299520E+00  0.36277282950E+03  0.36840880410E+03  0.00000000000E+00 0. -1.
         22    1    3    3    0    0 -0.39757390701E+02 -0.14893623393E+02 -0.12160305530E+03  0.12880129344E+03  0.00000000000E+00 0. -1.
         22    1    3    3    0    0  0.21707468412E+02  0.49031748592E+02 -0.60046702679E+01  0.53957229542E+02  0.00000000000E+00 0. -1.
</event>
<event>
 7    1  0.6067783E-006  0.6662911E+02  0.7818608E-02  0.1466701E+00
          2   -1    0    0  502    0  0.00000000000E+00  0.00000000000E+00  0.51289556399E+02  0.51289556399E+02  0.00000000000E+00 0. -1.
          1   -1    0    0  501    0 -0.00000000000E+00 -0.00000000000E+00 -0.50949708238E+03  0.50949708238E+03  0.00000000000E+00 0. -1.
         25    2    1    2    0    0  0.53307954793E+02  0.75735959655E+02 -0.26873839095E+03  0.31052045233E+03  0.12499981966E+03 0.  0.
          2    1    1    2  501    0 -0.30872084329E+02 -0.52777766474E+02 -0.20548712577E+03  0.21439108443E+03  0.00000000000E+00 0. -1.
          1    1    1    2  502    0 -0.22435870464E+02 -0.22958193181E+02  0.16017990741E+02  0.35875102020E+02  0.00000000000E+00 0. -1.
         22    1    3    3    0    0  0.18839791722E+02  0.56065843791E+02 -0.26085050873E+02  0.64643224480E+02  0.00000000000E+00 0. -1.
         22    1    3    3    0    0  0.34468163071E+02  0.19670115864E+02 -0.24265334008E+03  0.24587722785E+03  0.00000000000E+00 0. -1.
</event>
<event>
 7    1  0.6067783E-006  0.3226989E+03  0.7818608E-02  0.1172305E+00
          2   -1    0    0  502    0  0.00000000000E+00  0.00000000000E+00  0.20111804684E+04  0.20111804684E+04  0.00000000000E+00 0. -1.
          1   -1    0    0  501    0 -0.00000000000E+00 -0.00000000000E+00 -0.67205334162E+03  0.67205334162E+03  0.00000000000E+00 0. -1.
         25    2    1    2    0    0  0.41045698213E+02  0.38239489165E+03 -0.18422381050E+03  0.44438014818E+03  0.12499880496E+03 0.  0.
          2    1    1    2  501    0 -0.71159251477E+02 -0.63488665676E+02 -0.33745854432E+03  0.35067466243E+03  0.00000000000E+00 0. -1.
          1    1    1    2  502    0  0.30113553265E+02 -0.31890622597E+03  0.18608094816E+04  0.18881789994E+04  0.00000000000E+00 0. -1.
         22    1    3    3    0    0 -0.27401554856E+02  0.25757139943E+03 -0.92572326205E+02  0.27507000307E+03  0.00000000000E+00 0. -1.
         22    1    3    3    0    0  0.68447253069E+02  0.12482349222E+03 -0.91651484290E+02  0.16931014510E+03  0.00000000000E+00 0. -1.
</event>
<event>
 7    1  0.6067783E-006  0.1483737E+03  0.7818608E-02  0.1331004E+00
          2   -1    0    0  502    0  0.00000000000E+00  0.00000000000E+00  0.52702644413E+03  0.52702644413E+03  0.00000000000E+00 0. -1.
          1   -1    0    0  501    0 -0.00000000000E+00 -0.00000000000E+00 -0.19843879344E+03  0.19843879344E+03  0.00000000000E+00 0. -1.
         25    2    1    2    0    0 -0.47270476379E+02 -0.13525879361E+03  0.94167872029E+01  0.19038418169E+03  0.12501208571E+03 0.  0.
          2    1    1    2  501    0  0.87378899058E+01  0.15295007958E+03 -0.51781090913E+02  0.16171381803E+03  0.00000000000E+00 0. -1.
          1    1    1    2  502    0  0.38532586473E+02 -0.17691285978E+02  0.37095195441E+03  0.37336723785E+03  0.00000000000E+00 0. -1.
         22    1    3    3    0    0 -0.64344187981E+02 -0.63693399607E+02 -0.42819502319E+02  0.10015255094E+03  0.00000000000E+00 0. -1.
         22    1    3    3    0    0  0.17073711602E+02 -0.71565393998E+02  0.52236289522E+02  0.90231630757E+02  0.00000000000E+00 0. -1.
</event>
<event>
 7    1  0.6067783E-006  0.4382936E+02  0.7818608E-02  0.1482498E+00
          2   -1    0    0  502    0  0.00000000000E+00  0.00000000000E+00  0.29636850032E+04  0.29636850032E+04  0.00000000000E+00 0. -1.
          1   -1    0    0  501    0 -0.00000000000E+00 -0.00000000000E+00 -0.28048117170E+04  0.28048117170E+04  0.00000000000E+00 0. -1.
         25    2    1    2    0    0  0.59481700789E+02 -0.21286006217E+02 -0.18799996343E+03  0.23442066700E+03  0.12497158109E+03 0.  0.
          2    1    1    2  501    0 -0.19693052287E+02  0.39137381760E+02 -0.25932546602E+04  0.25936247384E+04  0.00000000000E+00 0. -1.
          1    1    1    2  502    0 -0.39788648502E+02 -0.17851375543E+02  0.29401279098E+04  0.29404513147E+04  0.00000000000E+00 0. -1.
         22    1    3    3    0    0 -0.24274442150E+02 -0.45199805910E+02 -0.53043481136E+02  0.73796218649E+02  0.00000000000E+00 0. -1.
         22    1    3    3    0    0  0.83756142939E+02  0.23913799693E+02 -0.13495648229E+03  0.16062444835E+03  0.00000000000E+00 0. -1.
</event>
<event>
 7    1  0.6067783E-006  0.1206588E+03  0.7818608E-02  0.1358856E+00
          2   -1    0    0  502    0  0.00000000000E+00  0.00000000000E+00  0.83943226110E+03  0.83943226110E+03  0.00000000000E+00 0. -1.
          1   -1    0    0  501    0 -0.00000000000E+00 -0.00000000000E+00 -0.26927900123E+03  0.26927900123E+03  0.00000000000E+00 0. -1.
         25    2    1    2    0    0 -0.13354468370E+03  0.41610031954E+02  0.15096568113E+03  0.24079271064E+03  0.12499966126E+03 0.  0.
          2    1    1    2  501    0  0.14726544801E+02 -0.38301612629E+02 -0.21693701364E+03  0.22078394991E+03  0.00000000000E+00 0. -1.
          1    1    1    2  502    0  0.11881813890E+03 -0.33084193254E+01  0.63612459239E+03  0.64713460177E+03  0.00000000000E+00 0. -1.
         22    1    3    3    0    0 -0.11616892549E+02  0.33509542088E+02  0.10400057006E+03  0.10988157342E+03  0.00000000000E+00 0. -1.
         22    1    3    3    0    0 -0.12192779116E+03  0.81004898659E+01  0.46965111066E+02  0.13091113723E+03  0.00000000000E+00 0. -1.
</event>
<event>
 7    1  0.6067783E-006  0.1244075E+03  0.7818608E-02  0.1327977E+00
          2   -1    0    0  502    0  0.00000000000E+00  0.00000000000E+00  0.79593391993E+03  0.79593391993E+03  0.00000000000E+00 0. -1.
          1   -1    0    0  501    0 -0.00000000000E+00 -0.00000000000E+00 -0.14393296771E+03  0.14393296771E+03  0.00000000000E+00 0. -1.
         25    2    1    2    0    0 -0.84281641041E+02  0.30074165257E+02  0.25552748386E+03  0.29820693051E+03  0.12500091186E+03 0.  0.
          2    1    1    2  501    0 -0.42536504576E+02  0.29794628306E+02 -0.10704434391E+03  0.11897716445E+03  0.00000000000E+00 0. -1.
          1    1    1    2  502    0  0.12681814562E+03 -0.59868793563E+02  0.50351781226E+03  0.52268279268E+03  0.00000000000E+00 0. -1.
         22    1    3    3    0    0 -0.94537057797E+02  0.47220796956E+02  0.11465903345E+03  0.15592867894E+03  0.00000000000E+00 0.  1.
         22    1    3    3    0    0  0.10255416756E+02 -0.17146631699E+02  0.14086845041E+03  0.14227825158E+03  0.00000000000E+00 0.  1.
</event>
<event>
 7    1  0.6067783E-006  0.3287807E+02  0.7818608E-02  0.1597996E+00
          2   -1    0    0  502    0  0.00000000000E+00  0.00000000000E+00  0.57000197360E+03  0.57000197360E+03  0.00000000000E+00 0. -1.
          1   -1    0    0  501    0 -0.00000000000E+00 -0.00000000000E+00 -0.66610443367E+03  0.66610443367E+03  0.00000000000E+00 0. -1.
         25    2    1    2    0    0  0.24520964499E+02  0.42154213643E+02  0.18609209441E+03  0.22942333418E+03  0.12500617279E+03 0.  0.
          2    1    1    2  501    0  0.43450962042E+01 -0.27042290332E+02 -0.64341420919E+03  0.64399690210E+03  0.00000000000E+00 0. -1.
          1    1    1    2  502    0 -0.28866060703E+02 -0.15111923311E+02  0.36121965470E+03  0.36268617099E+03  0.00000000000E+00 0. -1.
         22    1    3    3    0    0 -0.15412530518E+02  0.52250726761E+02  0.17965561258E+03  0.18773338455E+03  0.00000000000E+00 0.  1.
         22    1    3    3    0    0  0.39933495017E+02 -0.10096513118E+02  0.64364818323E+01  0.41689949626E+02  0.00000000000E+00 0.  1.
</event>
<event>
 7    1  0.6067783E-006  0.1225161E+03  0.7818608E-02  0.1250087E+00
          2   -1    0    0  502    0  0.00000000000E+00  0.00000000000E+00  0.14098502231E+03  0.14098502231E+03  0.00000000000E+00 0. -1.
          1   -1    0    0  501    0 -0.00000000000E+00 -0.00000000000E+00 -0.43983125613E+03  0.43983125613E+03  0.00000000000E+00 0. -1.
         25    2    1    2    0    0 -0.20248071442E+01  0.83503692663E+02 -0.67507191085E+02  0.16480094635E+03  0.12500065814E+03 0.  0.
          2    1    1    2  501    0 -0.10607146032E+03 -0.10138723009E+03 -0.26369611745E+03  0.30177171418E+03  0.00000000000E+00 0. -1.
          1    1    1    2  502    0  0.10809626747E+03  0.17883537425E+02  0.32357074719E+02  0.11424361792E+03  0.00000000000E+00 0. -1.
         22    1    3    3    0    0  0.36536789913E+02  0.52491522218E+02  0.17617823141E+02  0.66337656080E+02  0.00000000000E+00 0. -1.
         22    1    3    3    0    0 -0.38561597057E+02  0.31012170444E+02 -0.85125014226E+02  0.98463290267E+02  0.00000000000E+00 0. -1.
</event>
<event>
 7    1  0.6067783E-006  0.2362544E+03  0.7818608E-02  0.1283315E+00
          2   -1    0    0  502    0  0.00000000000E+00  0.00000000000E+00  0.27624923105E+04  0.27624923105E+04  0.00000000000E+00 0. -1.
          1   -1    0    0  501    0 -0.00000000000E+00 -0.00000000000E+00 -0.87720558795E+03  0.87720558795E+03  0.00000000000E+00 0. -1.
         25    2    1    2    0    0  0.14152903360E+03  0.14004730188E+03  0.65707779840E+03  0.69786799012E+03  0.12499913747E+03 0.  0.
          2    1    1    2  501    0 -0.18011519180E+03 -0.15429368680E+03 -0.84019006922E+03  0.87302197940E+03  0.00000000000E+00 0. -1.
          1    1    1    2  502    0  0.38586158195E+02  0.14246384920E+02  0.20683989934E+04  0.20688079289E+04  0.00000000000E+00 0. -1.
         22    1    3    3    0    0  0.88023542456E+01  0.68420116415E+02  0.33764517699E+03  0.34462016673E+03  0.00000000000E+00 0.  1.
         22    1    3    3    0    0  0.13272667936E+03  0.71627185469E+02  0.31943262141E+03  0.35324782339E+03  0.00000000000E+00 0.  1.
</event>
<event>
 7    1  0.6067783E-006  0.8310792E+02  0.7818608E-02  0.1410274E+00
          2   -1    0    0  502    0  0.00000000000E+00  0.00000000000E+00  0.11963523081E+03  0.11963523081E+03  0.00000000000E+00 0. -1.
          1   -1    0    0  501    0 -0.00000000000E+00 -0.00000000000E+00 -0.10701224629E+04  0.10701224629E+04  0.00000000000E+00 0. -1.
         25    2    1    2    0    0  0.86520279815E+02  0.18981927826E+02 -0.11871016040E+03  0.19380871621E+03  0.12499457546E+03 0.  0.
          2    1    1    2  501    0 -0.65109607187E+02 -0.51908818230E+02 -0.90714630552E+03  0.91096004631E+03  0.00000000000E+00 0. -1.
          1    1    1    2  502    0 -0.21410672628E+02  0.32926890404E+02  0.75369233835E+02  0.84988931179E+02  0.00000000000E+00 0. -1.
         22    1    3    3    0    0  0.35962055655E+02 -0.33339344951E+02  0.60223903924E+01  0.49406988926E+02  0.00000000000E+00 0. -1.
         22    1    3    3    0    0  0.50558224159E+02  0.52321272777E+02 -0.12473255079E+03  0.14440172728E+03  0.00000000000E+00 0. -1.
</event>
<event>
 7    1  0.6067783E-006  0.1713607E+03  0.7818608E-02  0.1205410E+00
          2   -1    0    0  502    0  0.00000000000E+00  0.00000000000E+00  0.11997853291E+04  0.11997853291E+04  0.00000000000E+00 0. -1.
          1   -1    0    0  501    0 -0.00000000000E+00 -0.00000000000E+00 -0.12237585323E+04  0.12237585323E+04  0.00000000000E+00 0. -1.
         25    2    1    2    0    0  0.24260827484E+03 -0.11050587134E+03 -0.60819123099E+03  0.67571781432E+03  0.12501067359E+03 0.  0.
          2    1    1    2  501    0 -0.14064282680E+03  0.39101150838E+02 -0.56924566789E+03  0.58766481529E+03  0.00000000000E+00 0. -1.
          1    1    1    2  502    0 -0.10196544804E+03  0.71404720507E+02  0.11534636956E+04  0.11601612318E+04  0.00000000000E+00 0. -1.
         22    1    3    3    0    0  0.13590673079E+03  0.36957352249E-01 -0.34735317100E+03  0.37299445873E+03  0.00000000000E+00 0. -1.
         22    1    3    3    0    0  0.10670154405E+03 -0.11054282870E+03 -0.26083805999E+03  0.30272335559E+03  0.00000000000E+00 0. -1.
</event>
<event>
 7    1  0.6067783E-006  0.6405910E+02  0.7818608E-02  0.1421947E+00
          2   -1    0    0  502    0  0.00000000000E+00  0.00000000000E+00  0.22793935966E+04  0.22793935966E+04  0.00000000000E+00 0. -1.
          1   -1    0    0  501    0 -0.00000000000E+00 -0.00000000000E+00 -0.19772192126E+02  0.19772192126E+02  0.00000000000E+00 0. -1.
         25    2    1    2    0    0  0.39755202067E+02  0.44018984320E+02  0.69299605410E+03  0.70667003938E+03  0.12498346487E+03 0.  0.
          2    1    1    2  501    0 -0.40995158555E+02  0.22066031650E+02  0.32106054567E+02  0.56553616308E+02  0.00000000000E+00 0. -1.
          1    1    1    2  502    0  0.12399564874E+01 -0.66085015969E+02  0.15345192958E+04  0.15359421330E+04  0.00000000000E+00 0. -1.
         22    1    3    3    0    0  0.68967166815E+02  0.61951550861E+02  0.35372189067E+03  0.36566875816E+03  0.00000000000E+00 0. -1.
         22    1    3    3    0    0 -0.29211964748E+02 -0.17932566542E+02  0.33927416342E+03  0.34100128122E+03  0.00000000000E+00 0. -1.
</event>
<event>
 7    1  0.6067783E-006  0.8575041E+02  0.7818608E-02  0.1320447E+00
          2   -1    0    0  502    0  0.00000000000E+00  0.00000000000E+00  0.43296124809E+03  0.43296124809E+03  0.00000000000E+00 0. -1.
          1   -1    0    0  501    0 -0.00000000000E+00 -0.00000000000E+00 -0.51148740999E+03  0.51148740999E+03  0.00000000000E+00 0. -1.
         25    2    1    2    0    0  0.12046082436E+03  0.87698051857E+01 -0.88336289598E+02  0.19497696155E+03  0.12499998316E+03 0.  0.
          2    1    1    2  501    0 -0.52661973028E+02 -0.60955386832E+02 -0.36050833882E+03  0.36939830122E+03  0.00000000000E+00 0. -1.
          1    1    1    2  502    0 -0.67798851329E+02  0.52185581647E+02  0.37031846652E+03  0.38007339530E+03  0.00000000000E+00 0. -1.
         22    1    3    3    0    0  0.11195203120E+03 -0.23991348752E+02 -0.10666852546E+03  0.15648327843E+03  0.00000000000E+00 0.  1.
         22    1    3    3    0    0  0.85087931546E+01  0.32761153937E+02  0.18332235865E+02  0.38493683119E+02  0.00000000000E+00 0.  1.
</event>
<event>
 7    1  0.6067783E-006  0.6146875E+02  0.7818608E-02  0.1454079E+00
          2   -1    0    0  502    0  0.00000000000E+00  0.00000000000E+00  0.22060761408E+03  0.22060761408E+03  0.00000000000E+00 0. -1.
          1   -1    0    0  501    0 -0.00000000000E+00 -0.00000000000E+00 -0.98521522670E+03  0.98521522670E+03  0.00000000000E+00 0. -1.
         25    2    1    2    0    0 -0.42176533262E+02  0.82912401503E+02 -0.65412329881E+02  0.16898953926E+03  0.12500146078E+03 0.  0.
          2    1    1    2  501    0  0.41243497694E+02 -0.44789218174E+02 -0.86477662228E+03  0.86691735858E+03  0.00000000000E+00 0. -1.
          1    1    1    2  502    0  0.93303556753E+00 -0.38123183329E+02  0.16558133953E+03  0.16991594294E+03  0.00000000000E+00 0. -1.
         22    1    3    3    0    0 -0.40716162313E+02  0.99183552189E+02 -0.60123736117E+01  0.10738403762E+03  0.00000000000E+00 0. -1.
         22    1    3    3    0    0 -0.14603709490E+01 -0.16271150686E+02 -0.59399956270E+02  0.61605501644E+02  0.00000000000E+00 0. -1.
</event>
<event>
 7    1  0.6067783E-006  0.3550944E+02  0.7818608E-02  0.1576290E+00
          2   -1    0    0  502    0  0.00000000000E+00  0.00000000000E+00  0.59211681289E+03  0.59211681289E+03  0.00000000000E+00 0. -1.
          1   -1    0    0  501    0 -0.00000000000E+00 -0.00000000000E+00 -0.35518378099E+03  0.35518378099E+03  0.00000000000E+00 0. -1.
         25    2    1    2    0    0  0.59736429386E+02 -0.22008805360E+02  0.34221236502E+02  0.14439017515E+03  0.12499840456E+03 0.  0.
          2    1    1    2  501    0 -0.28290484171E+02  0.61943903521E+01 -0.29878230159E+03  0.30018258729E+03  0.00000000000E+00 0. -1.
          1    1    1    2  502    0 -0.31445945215E+02  0.15814415008E+02  0.50149409699E+03  0.50272783144E+03  0.00000000000E+00 0. -1.
         22    1    3    3    0    0  0.68157393368E+02 -0.66106103374E+02  0.17906120942E+02  0.96623373680E+02  0.00000000000E+00 0. -1.
         22    1    3    3    0    0 -0.84209639817E+01  0.44097298015E+02  0.16315115560E+02  0.47766801466E+02  0.00000000000E+00 0. -1.
</event>
<event>
 7    1  0.6067783E-006  0.3299123E+03  0.7818608E-02  0.1161577E+00
          2   -1    0    0  502    0  0.00000000000E+00  0.00000000000E+00  0.59740938300E+03  0.59740938300E+03  0.00000000000E+00 0. -1.
          1   -1    0    0  501    0 -0.00000000000E+00 -0.00000000000E+00 -0.68574591209E+03  0.68574591209E+03  0.00000000000E+00 0. -1.
         25    2    1    2    0    0  0.32101569113E+03  0.15577023904E+03  0.28211887159E+03  0.47173135469E+03  0.12499588779E+03 0.  0.
          2    1    1    2  501    0 -0.24027019837E+03 -0.22371157574E+03 -0.52803739945E+03  0.62177176887E+03  0.00000000000E+00 0. -1.
          1    1    1    2  502    0 -0.80745492763E+02  0.67941336706E+02  0.15758199877E+03  0.18965217154E+03  0.00000000000E+00 0. -1.
         22    1    3    3    0    0  0.54031549927E+01  0.37987624500E+01 -0.12417776141E+02  0.14065057565E+02  0.00000000000E+00 0. -1.
         22    1    3    3    0    0  0.31561253614E+03  0.15197147659E+03  0.29453664773E+03  0.45766629712E+03  0.00000000000E+00 0. -1.
</event>
<event>
 7    1  0.6067783E-006  0.1306601E+03  0.7818608E-02  0.1423173E+00
          2   -1    0    0  502    0  0.00000000000E+00  0.00000000000E+00  0.12826592433E+04  0.12826592433E+04  0.00000000000E+00 0. -1.
          1   -1    0    0  501    0 -0.00000000000E+00 -0.00000000000E+00 -0.67102346725E+03  0.67102346725E+03  0.00000000000E+00 0. -1.
         25    2    1    2    0    0 -0.50472036138E+02  0.14333599297E+03  0.34691416945E+03  0.39883272486E+03  0.12500187255E+03 0.  0.
          2    1    1    2  501    0  0.48849931514E+02 -0.12078230775E+03 -0.63834254295E+03  0.65150278880E+03  0.00000000000E+00 0. -1.
          1    1    1    2  502    0  0.16221046248E+01 -0.22553685220E+02  0.90306414956E+03  0.90334719690E+03  0.00000000000E+00 0. -1.
         22    1    3    3    0    0 -0.62223120033E+02  0.20700991483E+02  0.70923520820E+02  0.96593962133E+02  0.00000000000E+00 0.  1.
         22    1    3    3    0    0  0.11751083895E+02  0.12263500149E+03  0.27599064863E+03  0.30223876273E+03  0.00000000000E+00 0.  1.
</event>
<event>
 7    1  0.6067783E-006  0.3297189E+03  0.7818608E-02  0.1135490E+00
          2   -1    0    0  502    0  0.00000000000E+00  0.00000000000E+00  0.13606716856E+04  0.13606716856E+04  0.00000000000E+00 0. -1.
          1   -1    0    0  501    0 -0.00000000000E+00 -0.00000000000E+00 -0.10714490064E+04  0.10714490064E+04  0.00000000000E+00 0. -1.
         25    2    1    2    0    0  0.73453174799E+02  0.19169898222E+03 -0.93964684565E+02  0.25806427425E+03  0.12499575603E+03 0.  0.
          2    1    1    2  501    0  0.16215409019E+02  0.14303155613E+03 -0.86590383545E+03  0.87778722808E+03  0.00000000000E+00 0. -1.
          1    1    1    2  502    0 -0.89668583818E+02 -0.33473053836E+03  0.12490911992E+04  0.12962691897E+04  0.00000000000E+00 0. -1.
         22    1    3    3    0    0 -0.26130772987E+01  0.49121888693E+02 -0.82508414734E+02  0.96059495229E+02  0.00000000000E+00 0.  1.
         22    1    3    3    0    0  0.76066252098E+02  0.14257709353E+03 -0.11456269831E+02  0.16200477902E+03  0.00000000000E+00 0.  1.
</event>
<event>
 7    1  0.6067783E-006  0.1509448E+03  0.7818608E-02  0.1392839E+00
          2   -1    0    0  502    0  0.00000000000E+00  0.00000000000E+00  0.32227572142E+03  0.32227572142E+03  0.00000000000E+00 0. -1.
          1   -1    0    0  501    0 -0.00000000000E+00 -0.00000000000E+00 -0.23484785862E+04  0.23484785862E+04  0.00000000000E+00 0. -1.
         25    2    1    2    0    0 -0.11067721692E+03 -0.64480322202E+02 -0.19174499662E+04  0.19257846343E+04  0.12499970647E+03 0.  0.
          2    1    1    2  501    0 -0.14652492964E+02 -0.20031110855E+02 -0.40850590665E+03  0.40925910707E+03  0.00000000000E+00 0. -1.
          1    1    1    2  502    0  0.12532970989E+03  0.84511433056E+02  0.29975300801E+03  0.33571056628E+03  0.00000000000E+00 0. -1.
         22    1    3    3    0    0 -0.81405465036E+02 -0.12763624655E+02 -0.47378241295E+03  0.48089451512E+03  0.00000000000E+00 0. -1.
         22    1    3    3    0    0 -0.29271751886E+02 -0.51716697546E+02 -0.14436675532E+04  0.14448901192E+04  0.00000000000E+00 0. -1.
</event>
<event>
 7    1  0.6067783E-006  0.7914485E+02  0.7818608E-02  0.1471944E+00
          2   -1    0    0  502    0  0.00000000000E+00  0.00000000000E+00  0.31470783774E+03  0.31470783774E+03  0.00000000000E+00 0. -1.
          1   -1    0    0  501    0 -0.00000000000E+00 -0.00000000000E+00 -0.43709130942E+03  0.43709130942E+03  0.00000000000E+00 0. -1.
         25    2    1    2    0    0 -0.40939083263E+02 -0.39856878378E+02 -0.84071301517E+01  0.13769605818E+03  0.12499978123E+03 0.  0.
          2    1    1    2  501    0  0.47979858585E+02  0.64913642835E+02 -0.35886693506E+03  0.36783328416E+03  0.00000000000E+00 0. -1.
          1    1    1    2  502    0 -0.70407753226E+01 -0.25056764456E+02  0.24489059354E+03  0.24626980482E+03  0.00000000000E+00 0. -1.
         22    1    3    3    0    0 -0.49107585297E+01  0.43591025229E+02 -0.15504324743E+02  0.46526090697E+02  0.00000000000E+00 0.  1.
         22    1    3    3    0    0 -0.36028324733E+02 -0.83447903607E+02  0.70971945908E+01  0.91169967481E+02  0.00000000000E+00 0.  1.
</event>
<event>
 7    1  0.6067783E-006  0.6718040E+02  0.7818608E-02  0.1374972E+00
          2   -1    0    0  502    0  0.00000000000E+00  0.00000000000E+00  0.34207331639E+03  0.34207331639E+03  0.00000000000E+00 0. -1.
          1   -1    0    0  501    0 -0.00000000000E+00 -0.00000000000E+00 -0.60842639359E+02  0.60842639359E+02  0.00000000000E+00 0. -1.
         25    2    1    2    0    0  0.34343545736E+01 -0.37324669976E+02  0.17362572809E+03  0.21720279502E+03  0.12500493963E+03 0.  0.
          2    1    1    2  501    0 -0.65316897217E+02  0.55356769206E+02  0.73224507187E+02  0.11266098443E+03  0.00000000000E+00 0. -1.
          1    1    1    2  502    0  0.61882542644E+02 -0.18032099230E+02  0.34380441752E+02  0.73052176297E+02  0.00000000000E+00 0. -1.
         22    1    3    3    0    0  0.48759029377E+02  0.21277205516E+02  0.96928361229E+02  0.11056794124E+03  0.00000000000E+00 0. -1.
         22    1    3    3    0    0 -0.45324674804E+02 -0.58601875492E+02  0.76697366860E+02  0.10663485378E+03  0.00000000000E+00 0. -1.
</event>
<event>
 7    1  0.6067783E-006  0.1644987E+03  0.7818608E-02  0.1408966E+00
          2   -1    0    0  502    0  0.00000000000E+00  0.00000000000E+00  0.45867002066E+03  0.45867002066E+03  0.00000000000E+00 0. -1.
          1   -1    0    0  501    0 -0.00000000000E+00 -0.00000000000E+00 -0.22054018754E+04  0.22054018754E+04  0.00000000000E+00 0. -1.
         25    2    1    2    0    0  0.33581101988E+02 -0.14775514313E+03 -0.21148188362E+02  0.19756014620E+03  0.12499397091E+03 0.  0.
          2    1    1    2  501    0 -0.21322089371E+02  0.16361669729E+03 -0.20925265012E+04  0.20990217277E+04  0.00000000000E+00 0. -1.
          1    1    1    2  502    0 -0.12259012617E+02 -0.15861554160E+02  0.36694283487E+03  0.36749002211E+03  0.00000000000E+00 0. -1.
         22    1    3    3    0    0  0.19213608772E+02  0.15082949941E+02 -0.23749148372E+02  0.34068756792E+02  0.00000000000E+00 0. -1.
         22    1    3    3    0    0  0.14367493216E+02 -0.16283809308E+03  0.26009600100E+01  0.16349138941E+03  0.00000000000E+00 0. -1.
</event>
<event>
 7    1  0.6067783E-006  0.4677996E+02  0.7818608E-02  0.1534571E+00
          2   -1    0    0  502    0  0.00000000000E+00  0.00000000000E+00  0.18195937134E+04  0.18195937134E+04  0.00000000000E+00 0. -1.
          1   -1    0    0  501    0 -0.00000000000E+00 -0.00000000000E+00 -0.47139118445E+03  0.47139118445E+03  0.00000000000E+00 0. -1.
         25    2    1    2    0    0  0.15972498987E+02  0.20430317943E+02  0.22059905055E+03  0.25488477034E+03  0.12501914427E+03 0.  0.
          2    1    1    2  501    0  0.28395075071E+02 -0.40666692248E+01 -0.45344160169E+03  0.45434799904E+03  0.00000000000E+00 0. -1.
          1    1    1    2  502    0 -0.44367574058E+02 -0.16363648718E+02  0.15810450801E+04  0.15817521284E+04  0.00000000000E+00 0. -1.
         22    1    3    3    0    0 -0.38759798929E+02  0.49980443670E+02  0.13491410683E+03  0.14900396969E+03  0.00000000000E+00 0. -1.
         22    1    3    3    0    0  0.54732297916E+02 -0.29550125727E+02  0.85684943727E+02  0.10588080065E+03  0.00000000000E+00 0. -1.
</event>
<event>
 7    1  0.6067783E-006  0.1359920E+03  0.7818608E-02  0.1313140E+00
          2   -1    0    0  502    0  0.00000000000E+00  0.00000000000E+00  0.11466120498E+04  0.11466120498E+04  0.00000000000E+00 0. -1.
          1   -1    0    0  501    0 -0.00000000000E+00 -0.00000000000E+00 -0.26453089835E+03  0.26453089835E+03  0.00000000000E+00 0. -1.
         25    2    1    2    0    0  0.16189885485E+03  0.42391529329E+02 -0.93819819387E+01  0.20911366259E+03  0.12502888200E+03 0.  0.
          2    1    1    2  501    0 -0.11194012595E+03 -0.63506017300E+02 -0.12777084697E+03  0.18135323368E+03  0.00000000000E+00 0. -1.
          1    1    1    2  502    0 -0.49958728903E+02  0.21114487971E+02  0.10192339804E+04  0.10206760519E+04  0.00000000000E+00 0. -1.
         22    1    3    3    0    0  0.41059556365E+02  0.49072472922E+02 -0.50269402115E+02  0.81369573899E+02  0.00000000000E+00 0.  1.
         22    1    3    3    0    0  0.12083929848E+03 -0.66809435928E+01  0.40887420176E+02  0.12774408869E+03  0.00000000000E+00 0.  1.
</event>
<event>
 7    1  0.6067783E-006  0.5521792E+02  0.7818608E-02  0.1466768E+00
          2   -1    0    0  502    0  0.00000000000E+00  0.00000000000E+00  0.19038347690E+04  0.19038347690E+04  0.00000000000E+00 0. -1.
          1   -1    0    0  501    0 -0.00000000000E+00 -0.00000000000E+00 -0.22281021140E+03  0.22281021140E+03  0.00000000000E+00 0. -1.
         25    2    1    2    0    0  0.68562860124E+02  0.62770615211E+02  0.14153797532E+03  0.21047459514E+03  0.12500216326E+03 0.  0.
          2    1    1    2  501    0 -0.38391268345E+02 -0.38509969802E+02 -0.18419507563E+03  0.19205398498E+03  0.00000000000E+00 0. -1.
          1    1    1    2  502    0 -0.30171591779E+02 -0.24260645410E+02  0.17236816579E+04  0.17241164003E+04  0.00000000000E+00 0. -1.
         22    1    3    3    0    0  0.27784706541E+01  0.70186985252E+02  0.12313875402E+03  0.14176418991E+03  0.00000000000E+00 0. -1.
         22    1    3    3    0    0  0.65784389470E+02 -0.74163700403E+01  0.18399221295E+02  0.68710405230E+02  0.00000000000E+00 0. -1.
</event>
<event>
 7    1  0.6067783E-006  0.3485610E+02  0.7818608E-02  0.1552675E+00
          2   -1    0    0  502    0  0.00000000000E+00  0.00000000000E+00  0.33417727227E+03  0.33417727227E+03  0.00000000000E+00 0. -1.
          1   -1    0    0  501    0 -0.00000000000E+00 -0.00000000000E+00 -0.37077776500E+03  0.37077776500E+03  0.00000000000E+00 0. -1.
         25    2    1    2    0    0  0.21636191769E+02 -0.55751934606E+02  0.15660839361E+03  0.20910990430E+03  0.12499744045E+03 0.  0.
          2    1    1    2  501    0 -0.26982565943E+02  0.21934510407E+02 -0.34169658753E+03  0.34346140910E+03  0.00000000000E+00 0. -1.
          1    1    1    2  502    0  0.53463741742E+01  0.33817424198E+02  0.14848770119E+03  0.15238372387E+03  0.00000000000E+00 0. -1.
         22    1    3    3    0    0  0.65478541744E+02 -0.43924937995E+02  0.50341246482E+02  0.93547211098E+02  0.00000000000E+00 0. -1.
         22    1    3    3    0    0 -0.43842349975E+02 -0.11826996611E+02  0.10626714713E+03  0.11556269320E+03  0.00000000000E+00 0. -1.
</event>
<event>
 7    1  0.1760211E-005  0.1128012E+03  0.7818608E-02  0.1392065E+00
          2   -1    0    0  502    0  0.00000000000E+00  0.00000000000E+00  0.16135395885E+04  0.16135395885E+04  0.00000000000E+00 0. -1.
          1   -1    0    0  501    0 -0.00000000000E+00 -0.00000000000E+00 -0.11814787117E+04  0.11814787117E+04  0.00000000000E+00 0. -1.
         25    2    1    2    0    0 -0.37188411098E+02 -0.79842747888E+02 -0.49505482822E+03  0.51813015729E+03  0.12498693787E+03 0.  0.
          2    1    1    2  501    0 -0.32094300079E+02 -0.93081784542E+01 -0.67248144005E+03  0.67331120108E+03  0.00000000000E+00 0. -1.
          1    1    1    2  502    0  0.69282711178E+02  0.89150926342E+02  0.15995971451E+04  0.16035769418E+04  0.00000000000E+00 0. -1.
         22    1    3    3    0    0 -0.58606986031E+02 -0.57236723531E+02 -0.14379562616E+03  0.16549321266E+03  0.00000000000E+00 0. -1.
         22    1    3    3    0    0  0.21418574933E+02 -0.22606024356E+02 -0.35125920206E+03  0.35263694463E+03  0.00000000000E+00 0. -1.
</event>
<event>
 7    1  0.6067783E-006  0.1035307E+03  0.7818608E-02  0.1419383E+00
          2   -1    0    0  502    0  0.00000000000E+00  0.00000000000E+00  0.72604030188E+03  0.72604030188E+03  0.00000000000E+00 0. -1.
          1   -1    0    0  501    0 -0.00000000000E+00 -0.00000000000E+00 -0.61864843158E+02  0.61864843158E+02  0.00000000000E+00 0. -1.
         25    2    1    2    0    0 -0.30266543775E+02  0.11690489356E+03  0.32567087649E+03  0.36915152260E+03  0.12501403535E+03 0.  0.
          2    1    1    2  501    0 -0.11075736123E+02 -0.27212104802E+02 -0.27145405105E+02  0.40000544955E+02  0.00000000000E+00 0. -1.
          1    1    1    2  502    0  0.41342279898E+02 -0.89692788757E+02  0.36564998734E+03  0.37875307748E+03  0.00000000000E+00 0. -1.
         22    1    3    3    0    0 -0.52876765581E+02 -0.73269228731E+00  0.81073179769E+02  0.96795400997E+02  0.00000000000E+00 0. -1.
         22    1    3    3    0    0  0.22610221805E+02  0.11763758585E+03  0.24459769672E+03  0.27235612161E+03  0.00000000000E+00 0. -1.
</event>
<event>
 7    1  0.6067783E-006  0.4273521E+02  0.7818608E-02  0.1540263E+00
          2   -1    0    0  502    0  0.00000000000E+00  0.00000000000E+00  0.18013784991E+04  0.18013784991E+04  0.00000000000E+00 0. -1.
          1   -1    0    0  501    0 -0.00000000000E+00 -0.00000000000E+00 -0.10696769411E+03  0.10696769411E+03  0.00000000000E+00 0. -1.
         25    2    1    2    0    0 -0.49998709151E+02  0.35972600067E+02  0.88187026984E+03  0.89281248862E+03  0.12500027254E+03 0.  0.
          2    1    1    2  501    0  0.30247549734E+02  0.61556186767E+00 -0.98757491022E+02  0.10328763340E+03  0.00000000000E+00 0. -1.
          1    1    1    2  502    0  0.19751159418E+02 -0.36588161935E+02  0.91129802612E+03  0.91224607114E+03  0.00000000000E+00 0. -1.
         22    1    3    3    0    0 -0.12142443606E+02  0.60130654295E+02  0.76740753516E+03  0.76985547965E+03  0.00000000000E+00 0.  1.
         22    1    3    3    0    0 -0.37856265546E+02 -0.24158054227E+02  0.11446273468E+03  0.12295700897E+03  0.00000000000E+00 0.  1.
</event>
<event>
 7    1  0.6067783E-006  0.5643296E+02  0.7818608E-02  0.1459126E+00
          2   -1    0    0  502    0  0.00000000000E+00  0.00000000000E+00  0.40851393498E+03  0.40851393498E+03  0.00000000000E+00 0. -1.
          1   -1    0    0  501    0 -0.00000000000E+00 -0.00000000000E+00 -0.42970363299E+03  0.42970363299E+03  0.00000000000E+00 0. -1.
         25    2    1    2    0    0  0.34113800670E+02 -0.78579020784E+02  0.10176852648E+03  0.18253875869E+03  0.12500060615E+03 0.  0.
          2    1    1    2  501    0 -0.32154205825E+02  0.23852220712E+02 -0.38545607784E+03  0.38752962380E+03  0.00000000000E+00 0. -1.
          1    1    1    2  502    0 -0.19595948444E+01  0.54726800072E+02  0.26249785335E+03  0.26814918547E+03  0.00000000000E+00 0. -1.
         22    1    3    3    0    0 -0.37812345278E+02  0.81907766603E+01  0.29516466145E+02  0.48662963858E+02  0.00000000000E+00 0.  1.
         22    1    3    3    0    0  0.71926145948E+02 -0.86769797444E+02  0.72252060336E+02  0.13387579483E+03  0.00000000000E+00 0.  1.
</event>
<event>
 7    1  0.6067783E-006  0.1269462E+03  0.7818608E-02  0.1277821E+00
          2   -1    0    0  502    0  0.00000000000E+00  0.00000000000E+00  0.59312349857E+03  0.59312349857E+03  0.00000000000E+00 0. -1.
          1   -1    0    0  501    0 -0.00000000000E+00 -0.00000000000E+00 -0.31107487298E+03  0.31107487298E+03  0.00000000000E+00 0. -1.
         25    2    1    2    0    0 -0.17587387891E+03 -0.87070903271E+02 -0.14918771677E+03  0.27639179760E+03  0.12498994948E+03 0.  0.
          2    1    1    2  501    0  0.80351140081E+02  0.69736294131E+01 -0.72759477374E+02  0.10862264390E+03  0.00000000000E+00 0. -1.
          1    1    1    2  502    0  0.95522738825E+02  0.80097273858E+02  0.50399581973E+03  0.51918393004E+03  0.00000000000E+00 0. -1.
         22    1    3    3    0    0 -0.63064660675E+02 -0.59166728264E+02 -0.13359701905E+03  0.15914149886E+03  0.00000000000E+00 0. -1.
         22    1    3    3    0    0 -0.11280921823E+03 -0.27904175008E+02 -0.15590697718E+02  0.11725029875E+03  0.00000000000E+00 0. -1.
</event>
<event>
 7    1  0.6067783E-006  0.1250206E+03  0.7818608E-02  0.1349164E+00
          2   -1    0    0  502    0  0.00000000000E+00  0.00000000000E+00  0.38460596723E+03  0.38460596723E+03  0.00000000000E+00 0. -1.
          1   -1    0    0  501    0 -0.00000000000E+00 -0.00000000000E+00 -0.14117265684E+04  0.14117265684E+04  0.00000000000E+00 0. -1.
         25    2    1    2    0    0  0.20873918109E+02 -0.91631089784E+02 -0.48507146223E+03  0.50965818209E+03  0.12500064814E+03 0.  0.
          2    1    1    2  501    0 -0.26310351353E+02 -0.34005824327E+02 -0.90321685878E+03  0.90423963896E+03  0.00000000000E+00 0. -1.
          1    1    1    2  502    0  0.54364332438E+01  0.12563691411E+03  0.36116771988E+03  0.38243471453E+03  0.00000000000E+00 0. -1.
         22    1    3    3    0    0 -0.47560553912E+02 -0.62907501368E+02 -0.19748344651E+03  0.21264776430E+03  0.00000000000E+00 0.  1.
         22    1    3    3    0    0  0.68434472021E+02 -0.28723588416E+02 -0.28758801572E+03  0.29701041780E+03  0.00000000000E+00 0.  1.
</event>
<event>
 7    1  0.6067783E-006  0.1170943E+03  0.7818608E-02  0.1312756E+00
          2   -1    0    0  502    0  0.00000000000E+00  0.00000000000E+00  0.16052626652E+04  0.16052626652E+04  0.00000000000E+00 0. -1.
          1   -1    0    0  501    0 -0.00000000000E+00 -0.00000000000E+00 -0.11533709942E+04  0.11533709942E+04  0.00000000000E+00 0. -1.
         25    2    1    2    0    0 -0.45319282863E+02 -0.46010912579E+02  0.10278901508E+03  0.17424526760E+03  0.12499996074E+03 0.  0.
          2    1    1    2  501    0  0.10851530742E+03  0.47329119215E+02 -0.11138233983E+04  0.11200973976E+04  0.00000000000E+00 0. -1.
          1    1    1    2  502    0 -0.63196024554E+02 -0.13182066358E+01  0.14629260543E+04  0.14642909942E+04  0.00000000000E+00 0. -1.
         22    1    3    3    0    0  0.34801142803E+02 -0.48778179717E+02  0.52045006565E+02  0.79366951971E+02  0.00000000000E+00 0.  1.
         22    1    3    3    0    0 -0.80120425666E+02  0.27672671376E+01  0.50744008519E+02  0.94878315631E+02  0.00000000000E+00 0.  1.
</event>
<event>
 7    1  0.6067783E-006  0.6442013E+02  0.7818608E-02  0.1435896E+00
          2   -1    0    0  502    0  0.00000000000E+00  0.00000000000E+00  0.46126251680E+03  0.46126251680E+03  0.00000000000E+00 0. -1.
          1   -1    0    0  501    0 -0.00000000000E+00 -0.00000000000E+00 -0.82513287077E+03  0.82513287077E+03  0.00000000000E+00 0. -1.
         25    2    1    2    0    0  0.12515188933E+02  0.44645852605E+02 -0.25617822272E+02  0.13575856014E+03  0.12499692686E+03 0.  0.
          2    1    1    2  501    0  0.26353753532E+02 -0.59591236694E+02 -0.74194576053E+03  0.74480141473E+03  0.00000000000E+00 0. -1.
          1    1    1    2  502    0 -0.38868942464E+02  0.14945384089E+02  0.40369322883E+03  0.40583541270E+03  0.00000000000E+00 0. -1.
         22    1    3    3    0    0  0.37216326287E+02  0.80974179466E+02 -0.21217626406E+02  0.91608189332E+02  0.00000000000E+00 0. -1.
         22    1    3    3    0    0 -0.24701137354E+02 -0.36328326861E+02 -0.44001958656E+01  0.44150370811E+02  0.00000000000E+00 0. -1.
</event>
<event>
 7    1  0.6067783E-006  0.2213807E+03  0.7818608E-02  0.1335453E+00
          2   -1    0    0  502    0  0.00000000000E+00  0.00000000000E+00  0.66835863710E+03  0.66835863710E+03  0.00000000000E+00 0. -1.
          1   -1    0    0  501    0 -0.00000000000E+00 -0.00000000000E+00 -0.85170105503E+03  0.85170105503E+03  0.00000000000E+00 0. -1.
         25    2    1    2    0    0 -0.19592766294E+03  0.59721477384E+02  0.44929349636E+03  0.50935551646E+03  0.12499636921E+03 0.  0.
          2    1    1    2  501    0  0.21768814415E+03 -0.43183397611E+02 -0.80559169367E+03  0.83560212472E+03  0.00000000000E+00 0. -1.
          1    1    1    2  502    0 -0.21760481211E+02 -0.16538079773E+02  0.17295577938E+03  0.17510205094E+03  0.00000000000E+00 0. -1.
         22    1    3    3    0    0 -0.18913923550E+03  0.72829940388E+02  0.31708421404E+03  0.37632465959E+03  0.00000000000E+00 0.  1.
         22    1    3    3    0    0 -0.67884274389E+01 -0.13108463005E+02  0.13220928231E+03  0.13303085687E+03  0.00000000000E+00 0.  1.
</event>
<event>
 7    1  0.6067783E-006  0.5568892E+02  0.7818608E-02  0.1437980E+00
          2   -1    0    0  502    0  0.00000000000E+00  0.00000000000E+00  0.16893608068E+04  0.16893608068E+04  0.00000000000E+00 0. -1.
          1   -1    0    0  501    0 -0.00000000000E+00 -0.00000000000E+00 -0.39789621131E+03  0.39789621131E+03  0.00000000000E+00 0. -1.
         25    2    1    2    0    0  0.31627389497E+02 -0.43281346061E+00 -0.16900244360E+03  0.21257198334E+03  0.12499817225E+03 0.  0.
          2    1    1    2  501    0 -0.28246119426E+01 -0.47340578054E+02 -0.20392068062E+03  0.20936273008E+03  0.00000000000E+00 0. -1.
          1    1    1    2  502    0 -0.28802777554E+02  0.47773391514E+02  0.16643877197E+04  0.16653223046E+04  0.00000000000E+00 0. -1.
         22    1    3    3    0    0 -0.20889627546E+02  0.50143490875E+02 -0.89533533874E+02  0.10472344486E+03  0.00000000000E+00 0. -1.
         22    1    3    3    0    0  0.52517017043E+02 -0.50576304336E+02 -0.79468909722E+02  0.10784853848E+03  0.00000000000E+00 0. -1.
</event>
<event>
 7    1  0.6067783E-006  0.5588771E+02  0.7818608E-02  0.1417035E+00
          2   -1    0    0  502    0  0.00000000000E+00  0.00000000000E+00  0.19529291968E+04  0.19529291968E+04  0.00000000000E+00 0. -1.
          1   -1    0    0  501    0 -0.00000000000E+00 -0.00000000000E+00 -0.15433448968E+02  0.15433448968E+02  0.00000000000E+00 0. -1.
         25    2    1    2    0    0  0.11236826307E+02  0.17395180203E+02  0.97050057971E+03  0.97873657521E+03  0.12500019956E+03 0.  0.
          2    1    1    2  501    0 -0.27110987813E+02  0.48871571414E+02  0.67855052347E+02  0.87907589443E+02  0.00000000000E+00 0. -1.
          1    1    1    2  502    0  0.15874161507E+02 -0.66266751617E+02  0.89914011577E+03  0.90171848110E+03  0.00000000000E+00 0. -1.
         22    1    3    3    0    0 -0.38258360623E+02  0.20560204766E+02  0.79976138765E+03  0.80093988623E+03  0.00000000000E+00 0. -1.
         22    1    3    3    0    0  0.49495186929E+02 -0.31650245626E+01  0.17073919205E+03  0.17779668898E+03  0.00000000000E+00 0. -1.
</event>
<event>
 7    1  0.6067783E-006  0.8931299E+02  0.7818608E-02  0.1306950E+00
          2   -1    0    0  502    0  0.00000000000E+00  0.00000000000E+00  0.43281863172E+03  0.43281863172E+03  0.00000000000E+00 0. -1.
          1   -1    0    0  501    0 -0.00000000000E+00 -0.00000000000E+00 -0.35026108257E+03  0.35026108257E+03  0.00000000000E+00 0. -1.
         25    2    1    2    0    0 -0.85415744537E+02 -0.44679133280E+02  0.92557247660E+02  0.18298662303E+03  0.12500074299E+03 0.  0.
          2    1    1    2  501    0  0.10928524949E+02  0.90315066640E+02 -0.29149161206E+03  0.30535815663E+03  0.00000000000E+00 0. -1.
          1    1    1    2  502    0  0.74487219588E+02 -0.45635933360E+02  0.28149191355E+03  0.29473493462E+03  0.00000000000E+00 0. -1.
         22    1    3    3    0    0  0.31605906989E+02 -0.82503632824E+01  0.34023620741E+02  0.47165756850E+02  0.00000000000E+00 0.  1.
         22    1    3    3    0    0 -0.11702165153E+03 -0.36428769998E+02  0.58533626919E+02  0.13582086618E+03  0.00000000000E+00 0.  1.
</event>
<event>
 7    1  0.6067783E-006  0.1119953E+03  0.7818608E-02  0.1423138E+00
          2   -1    0    0  502    0  0.00000000000E+00  0.00000000000E+00  0.32182859659E+03  0.32182859659E+03  0.00000000000E+00 0. -1.
          1   -1    0    0  501    0 -0.00000000000E+00 -0.00000000000E+00 -0.14297252853E+04  0.14297252853E+04  0.00000000000E+00 0. -1.
         25    2    1    2    0    0  0.81738973295E+02  0.58131616404E+02  0.14195922268E+03  0.21409827002E+03  0.12500041497E+03 0.  0.
          2    1    1    2  501    0 -0.10351238661E+03 -0.43224413220E+02 -0.13901666757E+04  0.13946851079E+04  0.00000000000E+00 0. -1.
          1    1    1    2  502    0  0.21773413315E+02 -0.14907203184E+02  0.14031076427E+03  0.14277050397E+03  0.00000000000E+00 0. -1.
         22    1    3    3    0    0  0.70428723049E+02  0.91796365344E+01  0.85439191815E+01  0.71536489375E+02  0.00000000000E+00 0. -1.
         22    1    3    3    0    0  0.11310250246E+02  0.48951979870E+02  0.13341530350E+03  0.14256178065E+03  0.00000000000E+00 0. -1.
</event>
<event>
 7    1  0.6067783E-006  0.8556516E+02  0.7818608E-02  0.1342135E+00
          2   -1    0    0  502    0  0.00000000000E+00  0.00000000000E+00  0.11717914387E+03  0.11717914387E+03  0.00000000000E+00 0. -1.
          1   -1    0    0  501    0 -0.00000000000E+00 -0.00000000000E+00 -0.13498819759E+04  0.13498819759E+04  0.00000000000E+00 0. -1.
         25    2    1    2    0    0  0.68622481431E+02  0.74856959790E+01 -0.18573989405E+03  0.23428604960E+03  0.12500225675E+03 0.  0.
          2    1    1    2  501    0 -0.15636903175E+01 -0.66712753515E+02 -0.11171001505E+04  0.11190914989E+04  0.00000000000E+00 0. -1.
          1    1    1    2  502    0 -0.67058791113E+02  0.59227057536E+02  0.70137212497E+02  0.11368357131E+03  0.00000000000E+00 0. -1.
         22    1    3    3    0    0  0.49571659484E+02 -0.73866094252E+01 -0.32732506289E+01  0.50225746311E+02  0.00000000000E+00 0. -1.
         22    1    3    3    0    0  0.19050821947E+02  0.14872305404E+02 -0.18246664343E+03  0.18406030329E+03  0.00000000000E+00 0. -1.
</event>
<event>
 7    1  0.6067783E-006  0.1076934E+03  0.7818608E-02  0.1307747E+00
          2   -1    0    0  502    0  0.00000000000E+00  0.00000000000E+00  0.38304200458E+03  0.38304200458E+03  0.00000000000E+00 0. -1.
          1   -1    0    0  501    0 -0.00000000000E+00 -0.00000000000E+00 -0.72855078054E+03  0.72855078054E+03  0.00000000000E+00 0. -1.
         25    2    1    2    0    0  0.27656889270E+02  0.91859990161E+02 -0.93364909548E+02  0.18315770873E+03  0.12500631430E+03 0.  0.
          2    1    1    2  501    0  0.43450066123E+02 -0.10265711264E+03 -0.58110652365E+03  0.59170193751E+03  0.00000000000E+00 0. -1.
          1    1    1    2  502    0 -0.71106955393E+02  0.10797122476E+02  0.32896265725E+03  0.33673313888E+03  0.00000000000E+00 0. -1.
         22    1    3    3    0    0  0.52168409024E+02  0.10695247728E+03 -0.45691625776E+02  0.12746803506E+03  0.00000000000E+00 0. -1.
         22    1    3    3    0    0 -0.24511519755E+02 -0.15092487116E+02 -0.47673283772E+02  0.55689673671E+02  0.00000000000E+00 0. -1.
</event>
<event>
 7    1  0.6067783E-006  0.1678537E+03  0.7818608E-02  0.1400528E+00
          2   -1    0    0  502    0  0.00000000000E+00  0.00000000000E+00  0.79633276445E+03  0.79633276445E+03  0.00000000000E+00 0. -1.
          1   -1    0    0  501    0 -0.00000000000E+00 -0.00000000000E+00 -0.15032377101E+03  0.15032377101E+03  0.00000000000E+00 0. -1.
         25    2    1    2    0    0 -0.14845739535E+03  0.11614598213E+02  0.56845457594E+03  0.60078342890E+03  0.12500250559E+03 0.  0.
          2    1    1    2  501    0  0.16874876640E+03 -0.16999033516E+02 -0.79578337707E+02  0.18734413558E+03  0.00000000000E+00 0. -1.
          1    1    1    2  502    0 -0.20291371057E+02  0.53844353025E+01  0.15713275521E+03  0.15852897099E+03  0.00000000000E+00 0. -1.
         22    1    3    3    0    0 -0.46961962353E+02  0.62247127828E+02  0.18132509596E+03  0.19738014403E+03  0.00000000000E+00 0.  1.
         22    1    3    3    0    0 -0.10149543299E+03 -0.50632529615E+02  0.38712947998E+03  0.40340328487E+03  0.00000000000E+00 0.  1.
</event>
<event>
 7    1  0.6067783E-006  0.1140134E+03  0.7818608E-02  0.1371003E+00
          2   -1    0    0  502    0  0.00000000000E+00  0.00000000000E+00  0.22818071366E+03  0.22818071366E+03  0.00000000000E+00 0. -1.
          1   -1    0    0  501    0 -0.00000000000E+00 -0.00000000000E+00 -0.46056925829E+03  0.46056925829E+03  0.00000000000E+00 0. -1.
         25    2    1    2    0    0 -0.92653634680E+00  0.12481538191E+03 -0.11073510521E+03  0.20848861028E+03  0.12500199623E+03 0.  0.
          2    1    1    2  501    0  0.35841685240E+02 -0.10690151200E+03 -0.28803397803E+03  0.30931558669E+03  0.00000000000E+00 0. -1.
          1    1    1    2  502    0 -0.34915148894E+02 -0.17913869910E+02  0.16638053860E+03  0.17094577498E+03  0.00000000000E+00 0. -1.
         22    1    3    3    0    0  0.32569043508E+02  0.75807261845E+02 -0.12277096012E+03  0.14791954635E+03  0.00000000000E+00 0.  1.
         22    1    3    3    0    0 -0.33495579855E+02  0.49008120064E+02  0.12035854918E+02  0.60569063932E+02  0.00000000000E+00 0.  1.
</event>
<event>
 7    1  0.6067783E-006  0.2793494E+03  0.7818608E-02  0.1295425E+00
          2   -1    0    0  502    0  0.00000000000E+00  0.00000000000E+00  0.72125196214E+03  0.72125196214E+03  0.00000000000E+00 0. -1.
          1   -1    0    0  501    0 -0.00000000000E+00 -0.00000000000E+00 -0.27426835115E+04  0.27426835115E+04  0.00000000000E+00 0. -1.
         25    2    1    2    0    0 -0.15071266870E+02 -0.29476656074E+03 -0.29314386247E+03  0.43436433603E+03  0.12499833560E+03 0.  0.
          2    1    1    2  501    0  0.38948334331E+02  0.27491193015E+03 -0.23704512293E+04  0.23866571963E+04  0.00000000000E+00 0. -1.
          1    1    1    2  502    0 -0.23877067461E+02  0.19854630592E+02  0.64216354242E+03  0.64291394130E+03  0.00000000000E+00 0. -1.
         22    1    3    3    0    0 -0.28541874343E+02 -0.30022089000E+03 -0.26002145942E+03  0.39819389842E+03  0.00000000000E+00 0. -1.
         22    1    3    3    0    0  0.13470607473E+02  0.54543292598E+01 -0.33122403047E+02  0.36170437611E+02  0.00000000000E+00 0. -1.
</event>
<event>
 7    1  0.6067783E-006  0.7172405E+02  0.7818608E-02  0.1470801E+00
          2   -1    0    0  502    0  0.00000000000E+00  0.00000000000E+00  0.18646352821E+03  0.18646352821E+03  0.00000000000E+00 0. -1.
          1   -1    0    0  501    0 -0.00000000000E+00 -0.00000000000E+00 -0.50394676196E+03  0.50394676196E+03  0.00000000000E+00 0. -1.
         25    2    1    2    0    0 -0.19369405228E+02  0.41483310332E+02 -0.89937904771E+02  0.16065136794E+03  0.12499598558E+03 0.  0.
          2    1    1    2  501    0  0.26537008059E+02 -0.69537917082E+02 -0.37355910641E+03  0.38090174676E+03  0.00000000000E+00 0. -1.
          1    1    1    2  502    0 -0.71676028312E+01  0.28054606750E+02  0.14601377743E+03  0.14885717547E+03  0.00000000000E+00 0. -1.
         22    1    3    3    0    0  0.32478615670E+02  0.67042181121E+02 -0.59383157230E+02  0.95267381028E+02  0.00000000000E+00 0. -1.
         22    1    3    3    0    0 -0.51848020898E+02 -0.25558870790E+02 -0.30554747541E+02  0.65383986911E+02  0.00000000000E+00 0. -1.
</event>
<event>
 7    1  0.6067783E-006  0.1100289E+03  0.7818608E-02  0.1271375E+00
          2   -1    0    0  502    0  0.00000000000E+00  0.00000000000E+00  0.54716497268E+03  0.54716497268E+03  0.00000000000E+00 0. -1.
          1   -1    0    0  501    0 -0.00000000000E+00 -0.00000000000E+00 -0.75466958959E+03  0.75466958959E+03  0.00000000000E+00 0. -1.
         25    2    1    2    0    0 -0.43624901701E+02  0.25411082736E+02 -0.14525780040E+03  0.19818051626E+03  0.12500733288E+03 0.  0.
          2    1    1    2  501    0 -0.20331160968E+02 -0.11494304896E+03 -0.57116852526E+03  0.58297405161E+03  0.00000000000E+00 0. -1.
          1    1    1    2  502    0  0.63956062669E+02  0.89531966223E+02  0.50892170875E+03  0.52067999440E+03  0.00000000000E+00 0. -1.
         22    1    3    3    0    0  0.30908635947E+02  0.11875135504E+02  0.13709451062E+01  0.33139736116E+02  0.00000000000E+00 0.  1.
         22    1    3    3    0    0 -0.74533537649E+02  0.13535947232E+02 -0.14662874551E+03  0.16504078014E+03  0.00000000000E+00 0.  1.
</event>
<event>
 7    1  0.6067783E-006  0.1928725E+03  0.7818608E-02  0.1296815E+00
          2   -1    0    0  502    0  0.00000000000E+00  0.00000000000E+00  0.11150244301E+04  0.11150244301E+04  0.00000000000E+00 0. -1.
          1   -1    0    0  501    0 -0.00000000000E+00 -0.00000000000E+00 -0.29163164807E+03  0.29163164807E+03  0.00000000000E+00 0. -1.
         25    2    1    2    0    0  0.29067537879E+02 -0.17539412894E+03  0.27984552047E+03  0.35432594938E+03  0.12500136342E+03 0.  0.
          2    1    1    2  501    0  0.10861636916E+02  0.19481221220E+03 -0.21623515958E+03  0.29125146766E+03  0.00000000000E+00 0. -1.
          1    1    1    2  502    0 -0.39929174795E+02 -0.19418083262E+02  0.75978242118E+03  0.76107866117E+03  0.00000000000E+00 0. -1.
         22    1    3    3    0    0  0.76439530135E+02 -0.82564981864E+02  0.15837456714E+03  0.19427424305E+03  0.00000000000E+00 0. -1.
         22    1    3    3    0    0 -0.47371992256E+02 -0.92829147071E+02  0.12147095333E+03  0.16005170633E+03  0.00000000000E+00 0. -1.
</event>
<event>
 7    1  0.6067783E-006  0.4801857E+02  0.7818608E-02  0.1464179E+00
          2   -1    0    0  502    0  0.00000000000E+00  0.00000000000E+00  0.44356415138E+02  0.44356415138E+02  0.00000000000E+00 0. -1.
          1   -1    0    0  501    0 -0.00000000000E+00 -0.00000000000E+00 -0.10198134803E+04  0.10198134803E+04  0.00000000000E+00 0. -1.
         25    2    1    2    0    0  0.50696810482E+02  0.43706675922E+02 -0.26982901012E+03  0.30481674534E+03  0.12500045370E+03 0.  0.
          2    1    1    2  501    0 -0.29122540098E+01 -0.45265108084E+02 -0.70990469418E+03  0.71135229391E+03  0.00000000000E+00 0. -1.
          1    1    1    2  502    0 -0.47784556473E+02  0.15584321624E+01  0.42766391765E+01  0.48000856146E+02  0.00000000000E+00 0. -1.
         22    1    3    3    0    0  0.13572041190E+02  0.10662856303E+02 -0.25111851094E+03  0.25171095197E+03  0.00000000000E+00 0. -1.
         22    1    3    3    0    0  0.37124769292E+02  0.33043819619E+02 -0.18710499181E+02  0.53105793371E+02  0.00000000000E+00 0. -1.
</event>
<event>
 7    1  0.6067783E-006  0.1415874E+03  0.7818608E-02  0.1253324E+00
          2   -1    0    0  502    0  0.00000000000E+00  0.00000000000E+00  0.19939919298E+03  0.19939919298E+03  0.00000000000E+00 0. -1.
          1   -1    0    0  501    0 -0.00000000000E+00 -0.00000000000E+00 -0.11816217529E+04  0.11816217529E+04  0.00000000000E+00 0. -1.
         25    2    1    2    0    0  0.39281715573E+02  0.88949159200E+02 -0.64929354864E+02  0.17115754138E+03  0.12499630693E+03 0.  0.
          2    1    1    2  501    0  0.34389892965E+02 -0.14371781154E+03 -0.10434388663E+04  0.10538511004E+04  0.00000000000E+00 0. -1.
          1    1    1    2  502    0 -0.73671608538E+02  0.54768652343E+02  0.12614566124E+03  0.15601230411E+03  0.00000000000E+00 0. -1.
         22    1    3    3    0    0 -0.30717192465E+02 -0.56494566533E+01  0.85990509657E+01  0.32394535819E+02  0.00000000000E+00 0. -1.
         22    1    3    3    0    0  0.69998908038E+02  0.94598615853E+02 -0.73528405829E+02  0.13876300556E+03  0.00000000000E+00 0. -1.
</event>
<event>
 7    1  0.6067783E-006  0.8304193E+02  0.7818608E-02  0.1390981E+00
          2   -1    0    0  502    0  0.00000000000E+00  0.00000000000E+00  0.28412413328E+02  0.28412413328E+02  0.00000000000E+00 0. -1.
          1   -1    0    0  501    0 -0.00000000000E+00 -0.00000000000E+00 -0.26808037136E+04  0.26808037136E+04  0.00000000000E+00 0. -1.
         25    2    1    2    0    0 -0.47768288364E+02  0.21667177275E+02 -0.10680358498E+04  0.10766038236E+04  0.12499576229E+03 0.  0.
          2    1    1    2  501    0  0.92639500443E+02 -0.12547829392E+02 -0.15840667026E+04  0.15868228771E+04  0.00000000000E+00 0. -1.
          1    1    1    2  502    0 -0.44871212079E+02 -0.91193478830E+01 -0.28874789563E+00  0.45789426232E+02  0.00000000000E+00 0. -1.
         22    1    3    3    0    0 -0.79094920446E+02  0.13546751902E+01 -0.93755615754E+03  0.94088755445E+03  0.00000000000E+00 0. -1.
         22    1    3    3    0    0  0.31326632083E+02  0.20312502085E+02 -0.13047969223E+03  0.13571626912E+03  0.00000000000E+00 0. -1.
</event>
<event>
 7    1  0.6067783E-006  0.2753617E+03  0.7818608E-02  0.1276212E+00
          2   -1    0    0  502    0  0.00000000000E+00  0.00000000000E+00  0.79549761426E+03  0.79549761426E+03  0.00000000000E+00 0. -1.
          1   -1    0    0  501    0 -0.00000000000E+00 -0.00000000000E+00 -0.21193111715E+04  0.21193111715E+04  0.00000000000E+00 0. -1.
         25    2    1    2    0    0 -0.14762101112E+03 -0.20711757918E+03 -0.83287260892E+03  0.87976801596E+03  0.12500129879E+03 0.  0.
          2    1    1    2  501    0 -0.37673410472E+02  0.25426650668E+01 -0.12380241296E+04  0.12385998128E+04  0.00000000000E+00 0. -1.
          1    1    1    2  502    0  0.18529442159E+03  0.20457491411E+03  0.74708318126E+03  0.79644095694E+03  0.00000000000E+00 0. -1.
         22    1    3    3    0    0 -0.25583411790E+02 -0.91841850197E+02 -0.15982755371E+03  0.18610288373E+03  0.00000000000E+00 0.  1.
         22    1    3    3    0    0 -0.12203759933E+03 -0.11527572898E+03 -0.67304505520E+03  0.69366513223E+03  0.00000000000E+00 0.  1.
</event>
<event>
 7    1  0.6067783E-006  0.9890424E+02  0.7818608E-02  0.1345731E+00
          2   -1    0    0  502    0  0.00000000000E+00  0.00000000000E+00  0.26626745714E+04  0.26626745714E+04  0.00000000000E+00 0. -1.
          1   -1    0    0  501    0 -0.00000000000E+00 -0.00000000000E+00 -0.36126583251E+03  0.36126583251E+03  0.00000000000E+00 0. -1.
         25    2    1    2    0    0 -0.56656148767E+02  0.76255273952E+02  0.57128827273E+03  0.59246943407E+03  0.12499981501E+03 0.  0.
          2    1    1    2  501    0  0.55089362984E+01 -0.98985565391E+02 -0.34328320965E+03  0.35731198212E+03  0.00000000000E+00 0. -1.
          1    1    1    2  502    0  0.51147212469E+02  0.22730291439E+02  0.20734036758E+04  0.20741589877E+04  0.00000000000E+00 0. -1.
         22    1    3    3    0    0 -0.53812002838E+02  0.10859219488E+03  0.49382867501E+03  0.50848279883E+03  0.00000000000E+00 0.  1.
         22    1    3    3    0    0 -0.28441459294E+01 -0.32336920930E+02  0.77459597717E+02  0.83986635245E+02  0.00000000000E+00 0.  1.
</event>
<event>
 7    1  0.6067783E-006  0.5924909E+02  0.7818608E-02  0.1541107E+00
          2   -1    0    0  502    0  0.00000000000E+00  0.00000000000E+00  0.43241313247E+04  0.43241313247E+04  0.00000000000E+00 0. -1.
          1   -1    0    0  501    0 -0.00000000000E+00 -0.00000000000E+00 -0.31623390192E+01  0.31623390192E+01  0.00000000000E+00 0. -1.
         25    2    1    2    0    0  0.91628846526E+01 -0.45632020157E+02  0.20324115900E+04  0.20367836305E+04  0.12499778672E+03 0.  0.
          2    1    1    2  501    0 -0.18807050557E+02  0.65073388351E+02  0.13464945922E+04  0.13481972919E+04  0.00000000000E+00 0. -1.
          1    1    1    2  502    0  0.96441659040E+01 -0.19441368194E+02  0.94206280349E+03  0.94231274132E+03  0.00000000000E+00 0. -1.
         22    1    3    3    0    0  0.18626759516E+02  0.41008656708E+02  0.56967026599E+03  0.57144805368E+03  0.00000000000E+00 0.  1.
         22    1    3    3    0    0 -0.94638748636E+01 -0.86640676865E+02  0.14627413240E+04  0.14653355768E+04  0.00000000000E+00 0.  1.
</event>
<event>
 7    1  0.6067783E-006  0.9340082E+02  0.7818608E-02  0.1342351E+00
          2   -1    0    0  502    0  0.00000000000E+00  0.00000000000E+00  0.14038984627E+04  0.14038984627E+04  0.00000000000E+00 0. -1.
          1   -1    0    0  501    0 -0.00000000000E+00 -0.00000000000E+00 -0.89334259169E+03  0.89334259169E+03  0.00000000000E+00 0. -1.
         25    2    1    2    0    0 -0.66729575259E+02 -0.10033276879E+03  0.53303926989E+03  0.56060252938E+03  0.12499932797E+03 0.  0.
          2    1    1    2  501    0  0.83532089486E+02  0.41672858847E+02 -0.87599182005E+03  0.88095170466E+03  0.00000000000E+00 0. -1.
          1    1    1    2  502    0 -0.16802514227E+02  0.58659909945E+02  0.85350842116E+03  0.85568682034E+03  0.00000000000E+00 0. -1.
         22    1    3    3    0    0  0.47240552155E+01 -0.41399372839E+01  0.28566443055E+03  0.28573348187E+03  0.00000000000E+00 0.  1.
         22    1    3    3    0    0 -0.71453630474E+02 -0.96192831509E+02  0.24737483933E+03  0.27486904751E+03  0.00000000000E+00 0.  1.
</event>
<event>
 7    1  0.6067783E-006  0.1135452E+03  0.7818608E-02  0.1263252E+00
          2   -1    0    0  502    0  0.00000000000E+00  0.00000000000E+00  0.14025797488E+04  0.14025797488E+04  0.00000000000E+00 0. -1.
          1   -1    0    0  501    0 -0.00000000000E+00 -0.00000000000E+00 -0.79372530486E+02  0.79372530486E+02  0.00000000000E+00 0. -1.
         25    2    1    2    0    0 -0.42190163957E+00 -0.96447713679E+01  0.14989506355E+03  0.19541530402E+03  0.12500164541E+03 0.  0.
          2    1    1    2  501    0 -0.11030473843E+03 -0.26932690394E+02  0.63070622558E+01  0.11372020122E+03  0.00000000000E+00 0. -1.
          1    1    1    2  502    0  0.11072664007E+03  0.36577461762E+02  0.11670050925E+04  0.11728167740E+04  0.00000000000E+00 0. -1.
         22    1    3    3    0    0 -0.60250908395E+02  0.11538160960E+02  0.82906181069E+02  0.10313455279E+03  0.00000000000E+00 0.  1.
         22    1    3    3    0    0  0.59829006755E+02 -0.21182932328E+02  0.66988882481E+02  0.92280751229E+02  0.00000000000E+00 0.  1.
</event>
<event>
 7    1  0.6067783E-006  0.7212051E+02  0.7818608E-02  0.1370328E+00
          2   -1    0    0  502    0  0.00000000000E+00  0.00000000000E+00  0.18619085116E+04  0.18619085116E+04  0.00000000000E+00 0. -1.
          1   -1    0    0  501    0 -0.00000000000E+00 -0.00000000000E+00 -0.62336900074E+02  0.62336900074E+02  0.00000000000E+00 0. -1.
         25    2    1    2    0    0 -0.11026759343E+03  0.29610476386E+02  0.48673928209E+03  0.51533940801E+03  0.12499541691E+03 0.  0.
          2    1    1    2  501    0  0.59459782791E+02  0.18877917951E+02 -0.26466737922E+02  0.67766730568E+02  0.00000000000E+00 0. -1.
          1    1    1    2  502    0  0.50807810638E+02 -0.48488394338E+02  0.13392990674E+04  0.13411392731E+04  0.00000000000E+00 0. -1.
         22    1    3    3    0    0 -0.98763151812E+02  0.73472995079E+02  0.37748674996E+03  0.39704998118E+03  0.00000000000E+00 0.  1.
         22    1    3    3    0    0 -0.11504441616E+02 -0.43862518693E+02  0.10925253214E+03  0.11828942684E+03  0.00000000000E+00 0.  1.
</event>
<event>
 7    1  0.6067783E-006  0.1236359E+03  0.7818608E-02  0.1432005E+00
          2   -1    0    0  502    0  0.00000000000E+00  0.00000000000E+00  0.18606933010E+03  0.18606933010E+03  0.00000000000E+00 0. -1.
          1   -1    0    0  501    0 -0.00000000000E+00 -0.00000000000E+00 -0.36707019305E+03  0.36707019305E+03  0.00000000000E+00 0. -1.
         25    2    1    2    0    0 -0.22058723140E+02  0.14108288734E+03 -0.22565326669E+03  0.29485020806E+03  0.12500512013E+03 0.  0.
          2    1    1    2  501    0  0.10327153342E+02 -0.19814216770E+02 -0.80549879338E+02  0.83591484876E+02  0.00000000000E+00 0. -1.
          1    1    1    2  502    0  0.11731569798E+02 -0.12126867057E+03  0.12520228308E+03  0.17469783021E+03  0.00000000000E+00 0. -1.
         22    1    3    3    0    0  0.21978975298E+02  0.87585068162E+02 -0.44040625709E+02  0.10046788658E+03  0.00000000000E+00 0. -1.
         22    1    3    3    0    0 -0.44037698438E+02  0.53497819174E+02 -0.18161264098E+03  0.19438232148E+03  0.00000000000E+00 0. -1.
</event>
<event>
 7    1  0.6067783E-006  0.6732047E+02  0.7818608E-02  0.1389620E+00
          2   -1    0    0  502    0  0.00000000000E+00  0.00000000000E+00  0.83400337917E+03  0.83400337917E+03  0.00000000000E+00 0. -1.
          1   -1    0    0  501    0 -0.00000000000E+00 -0.00000000000E+00 -0.19759964733E+03  0.19759964733E+03  0.00000000000E+00 0. -1.
         25    2    1    2    0    0 -0.40200995072E+02  0.34739008319E+02 -0.12732653348E+03  0.18617268707E+03  0.12500121831E+03 0.  0.
          2    1    1    2  501    0  0.78037010396E+02  0.20942960305E+02  0.20949047048E+01  0.80825560336E+02  0.00000000000E+00 0. -1.
          1    1    1    2  502    0 -0.37836015324E+02 -0.55681968624E+02  0.76163536061E+03  0.76460477910E+03  0.00000000000E+00 0. -1.
         22    1    3    3    0    0 -0.73357885982E+02 -0.81460805353E+01 -0.10310204630E+03  0.12679814673E+03  0.00000000000E+00 0. -1.
         22    1    3    3    0    0  0.33156890910E+02  0.42885088854E+02 -0.24224487175E+02  0.59374540333E+02  0.00000000000E+00 0. -1.
</event>
<event>
 7    1  0.6067783E-006  0.7119388E+02  0.7818608E-02  0.1482499E+00
          2   -1    0    0  502    0  0.00000000000E+00  0.00000000000E+00  0.75137458873E+03  0.75137458873E+03  0.00000000000E+00 0. -1.
          1   -1    0    0  501    0 -0.00000000000E+00 -0.00000000000E+00 -0.83377485147E+03  0.83377485147E+03  0.00000000000E+00 0. -1.
         25    2    1    2    0    0  0.35493639875E+02  0.70126525836E+02 -0.47564453604E+02  0.15512646302E+03  0.12499725671E+03 0.  0.
          2    1    1    2  501    0 -0.86498944286E+01 -0.70573150951E+02 -0.73044427496E+03  0.73389660656E+03  0.00000000000E+00 0. -1.
          1    1    1    2  502    0 -0.26843745447E+02  0.44662511491E+00  0.69560846582E+03  0.69612637061E+03  0.00000000000E+00 0. -1.
         22    1    3    3    0    0  0.22203259171E+02  0.39176499388E+02  0.40672099337E+02  0.60679506315E+02  0.00000000000E+00 0.  1.
         22    1    3    3    0    0  0.13290380705E+02  0.30950026448E+02 -0.88236552942E+02  0.94446956708E+02  0.00000000000E+00 0.  1.
</event>
<event>
 7    1  0.6067783E-006  0.7048200E+02  0.7818608E-02  0.1435787E+00
          2   -1    0    0  502    0  0.00000000000E+00  0.00000000000E+00  0.53373019904E+03  0.53373019904E+03  0.00000000000E+00 0. -1.
          1   -1    0    0  501    0 -0.00000000000E+00 -0.00000000000E+00 -0.11449132956E+03  0.11449132956E+03  0.00000000000E+00 0. -1.
         25    2    1    2    0    0  0.22754445088E+02 -0.33601141281E+02 -0.82398668921E+01  0.13168205629E+03  0.12500186829E+03 0.  0.
          2    1    1    2  501    0 -0.93298657305E+01 -0.36932704707E+02 -0.33059357914E+02  0.50438003700E+02  0.00000000000E+00 0. -1.
          1    1    1    2  502    0 -0.13424579357E+02  0.70533845987E+02  0.46053809428E+03  0.46610146862E+03  0.00000000000E+00 0. -1.
         22    1    3    3    0    0 -0.24271201307E+02 -0.23334547871E+02 -0.55056834176E+02  0.64535628352E+02  0.00000000000E+00 0.  1.
         22    1    3    3    0    0  0.47025646394E+02 -0.10266593409E+02  0.46816967284E+02  0.67146427937E+02  0.00000000000E+00 0.  1.
</event>
<event>
 7    1  0.6067783E-006  0.1308165E+03  0.7818608E-02  0.1352508E+00
          2   -1    0    0  502    0  0.00000000000E+00  0.00000000000E+00  0.19872868546E+04  0.19872868546E+04  0.00000000000E+00 0. -1.
          1   -1    0    0  501    0 -0.00000000000E+00 -0.00000000000E+00 -0.59507410270E+02  0.59507410270E+02  0.00000000000E+00 0. -1.
         25    2    1    2    0    0  0.12122593199E+03  0.85639180099E+02  0.65840823532E+03  0.68640818608E+03  0.12499999130E+03 0.  0.
          2    1    1    2  501    0 -0.12059370516E+03 -0.45707657783E+02  0.46847895512E+02  0.13721063012E+03  0.00000000000E+00 0. -1.
          1    1    1    2  502    0 -0.63222683202E+00 -0.39931522316E+02  0.12225233135E+04  0.12231754487E+04  0.00000000000E+00 0. -1.
         22    1    3    3    0    0 -0.24032000501E+01 -0.11684185240E+02  0.22513526745E+03  0.22545106831E+03  0.00000000000E+00 0.  1.
         22    1    3    3    0    0  0.12362913204E+03  0.97323365339E+02  0.43327296787E+03  0.46095711777E+03  0.00000000000E+00 0.  1.
</event>
<event>
 7    1  0.6067783E-006  0.3602493E+02  0.7818608E-02  0.1554263E+00
          2   -1    0    0  502    0  0.00000000000E+00  0.00000000000E+00  0.46156099867E+02  0.46156099867E+02  0.00000000000E+00 0. -1.
          1   -1    0    0  501    0 -0.00000000000E+00 -0.00000000000E+00 -0.23236427861E+04  0.23236427861E+04  0.00000000000E+00 0. -1.
         25    2    1    2    0    0  0.30731108561E+02 -0.55549362078E+02 -0.31020872377E+03  0.34041759694E+03  0.12499822135E+03 0.  0.
          2    1    1    2  501    0 -0.27472096660E+02  0.22919736044E+02 -0.19894662552E+04  0.19897879312E+04  0.00000000000E+00 0. -1.
          1    1    1    2  502    0 -0.32590119005E+01  0.32629626034E+02  0.22188292731E+02  0.39593357878E+02  0.00000000000E+00 0. -1.
         22    1    3    3    0    0 -0.20666759752E+02  0.20622441212E+02 -0.17192688816E+03  0.17438823043E+03  0.00000000000E+00 0. -1.
         22    1    3    3    0    0  0.51397868312E+02 -0.76171803291E+02 -0.13828183561E+03  0.16602936651E+03  0.00000000000E+00 0. -1.
</event>
<event>
 7    1  0.6067783E-006  0.1217996E+03  0.7818608E-02  0.1254661E+00
          2   -1    0    0  502    0  0.00000000000E+00  0.00000000000E+00  0.26626971133E+03  0.26626971133E+03  0.00000000000E+00 0. -1.
          1   -1    0    0  501    0 -0.00000000000E+00 -0.00000000000E+00 -0.84352580976E+03  0.84352580976E+03  0.00000000000E+00 0. -1.
         25    2    1    2    0    0 -0.18390395635E+03  0.12112060459E+03 -0.13269184864E+03  0.28587148908E+03  0.12499806221E+03 0.  0.
          2    1    1    2  501    0  0.97246218250E+02 -0.61288048909E+02 -0.61387041992E+03  0.62453978605E+03  0.00000000000E+00 0. -1.
          1    1    1    2  502    0  0.86657738100E+02 -0.59832555681E+02  0.16930617013E+03  0.19938424596E+03  0.00000000000E+00 0. -1.
         22    1    3    3    0    0 -0.73949019984E+02  0.94398272514E+02 -0.12131697459E+02  0.12052663396E+03  0.00000000000E+00 0. -1.
         22    1    3    3    0    0 -0.10995493636E+03  0.26722332076E+02 -0.12056015118E+03  0.16534485512E+03  0.00000000000E+00 0. -1.
</event>
<event>
 7    1  0.6067783E-006  0.8202798E+02  0.7818608E-02  0.1361907E+00
          2   -1    0    0  502    0  0.00000000000E+00  0.00000000000E+00  0.34123799344E+04  0.34123799344E+04  0.00000000000E+00 0. -1.
          1   -1    0    0  501    0 -0.00000000000E+00 -0.00000000000E+00 -0.71419794424E+01  0.71419794424E+01  0.00000000000E+00 0. -1.
         25    2    1    2    0    0 -0.29338801464E+02 -0.37569437236E+02  0.13418506058E+04  0.13485024107E+04  0.12499390101E+03 0.  0.
          2    1    1    2  501    0 -0.58467692291E+02 -0.65481035834E+01  0.35788833993E+03  0.36269189757E+03  0.00000000000E+00 0. -1.
          1    1    1    2  502    0  0.87806493755E+02  0.44117540820E+02  0.17054990092E+04  0.17083276056E+04  0.00000000000E+00 0. -1.
         22    1    3    3    0    0 -0.20962522291E+02 -0.82223977874E+02  0.71731974409E+03  0.72232113712E+03  0.00000000000E+00 0.  1.
         22    1    3    3    0    0 -0.83762791725E+01  0.44654540637E+02  0.62453086176E+03  0.62618127354E+03  0.00000000000E+00 0.  1.
</event>
<event>
 7    1  0.6067783E-006  0.8189986E+02  0.7818608E-02  0.1408009E+00
          2   -1    0    0  502    0  0.00000000000E+00  0.00000000000E+00  0.17612393670E+04  0.17612393670E+04  0.00000000000E+00 0. -1.
          1   -1    0    0  501    0 -0.00000000000E+00 -0.00000000000E+00 -0.49452537499E+02  0.49452537499E+02  0.00000000000E+00 0. -1.
         25    2    1    2    0    0  0.62488946168E+02  0.26997196749E+02  0.12572616627E+03  0.18990704384E+03  0.12499559748E+03 0.  0.
          2    1    1    2  501    0 -0.12287454416E+02  0.38661145473E+02  0.89914188636E+01  0.41551309468E+02  0.00000000000E+00 0. -1.
          1    1    1    2  502    0 -0.50201491752E+02 -0.65658342222E+02  0.15770692444E+04  0.15792335512E+04  0.00000000000E+00 0. -1.
         22    1    3    3    0    0  0.10080330218E+03  0.25438221335E+02  0.90438817475E+02  0.13779545908E+03  0.00000000000E+00 0.  1.
         22    1    3    3    0    0 -0.38314356017E+02  0.15589754137E+01  0.35287348792E+02  0.52111584759E+02  0.00000000000E+00 0.  1.
</event>
<event>
 7    1  0.6067783E-006  0.9670343E+02  0.7818608E-02  0.1453202E+00
          2   -1    0    0  502    0  0.00000000000E+00  0.00000000000E+00  0.73880824142E+03  0.73880824142E+03  0.00000000000E+00 0. -1.
          1   -1    0    0  501    0 -0.00000000000E+00 -0.00000000000E+00 -0.12626628962E+03  0.12626628962E+03  0.00000000000E+00 0. -1.
         25    2    1    2    0    0 -0.30877653001E+02 -0.91475441999E+02  0.80033679082E+02  0.17706210168E+03  0.12499764846E+03 0.  0.
          2    1    1    2  501    0  0.53155817176E+02  0.81532495960E+02 -0.46935239420E+02  0.10805556671E+03  0.00000000000E+00 0. -1.
          1    1    1    2  502    0 -0.22278164174E+02  0.99429460392E+01  0.57944351214E+03  0.57995686265E+03  0.00000000000E+00 0. -1.
         22    1    3    3    0    0 -0.50008676463E+02 -0.18142915340E+02 -0.15224605842E+02  0.55333730415E+02  0.00000000000E+00 0. -1.
         22    1    3    3    0    0  0.19131023461E+02 -0.73332526660E+02  0.95258284924E+02  0.12172837127E+03  0.00000000000E+00 0. -1.
</event>
<event>
 7    1  0.6067783E-006  0.1152103E+03  0.7818608E-02  0.1336959E+00
          2   -1    0    0  502    0  0.00000000000E+00  0.00000000000E+00  0.13174612255E+04  0.13174612255E+04  0.00000000000E+00 0. -1.
          1   -1    0    0  501    0 -0.00000000000E+00 -0.00000000000E+00 -0.12834696610E+03  0.12834696610E+03  0.00000000000E+00 0. -1.
         25    2    1    2    0    0  0.15675663781E+03 -0.64755792117E+01  0.25201563358E+03  0.32211083495E+03  0.12501573420E+03 0.  0.
          2    1    1    2  501    0 -0.48017069702E+02 -0.19524025124E+02 -0.82801229964E+02  0.97687615506E+02  0.00000000000E+00 0. -1.
          1    1    1    2  502    0 -0.10873956811E+03  0.25999604336E+02  0.10198998558E+04  0.10260097412E+04  0.00000000000E+00 0. -1.
         22    1    3    3    0    0  0.13199032909E+03 -0.41686287263E+02  0.11979039474E+03  0.18305445143E+03  0.00000000000E+00 0.  1.
         22    1    3    3    0    0  0.24766308723E+02  0.35210708051E+02  0.13222523884E+03  0.13905638351E+03  0.00000000000E+00 0.  1.
</event>
<event>
 7    1  0.6067783E-006  0.1655849E+03  0.7818608E-02  0.1245242E+00
          2   -1    0    0  502    0  0.00000000000E+00  0.00000000000E+00  0.13439606141E+04  0.13439606141E+04  0.00000000000E+00 0. -1.
          1   -1    0    0  501    0 -0.00000000000E+00 -0.00000000000E+00 -0.18257556918E+03  0.18257556918E+03  0.00000000000E+00 0. -1.
         25    2    1    2    0    0 -0.42767291634E+01 -0.17522489579E+03  0.10061888511E+03  0.23762867669E+03  0.12498469278E+03 0.  0.
          2    1    1    2  501    0 -0.79181790678E+02  0.31189484748E+02 -0.91337074886E+02  0.12483990221E+03  0.00000000000E+00 0. -1.
          1    1    1    2  502    0  0.83458519841E+02  0.14403541104E+03  0.11521032347E+04  0.11640676044E+04  0.00000000000E+00 0. -1.
         22    1    3    3    0    0  0.55205314909E+02 -0.12301324384E+03  0.75816986659E+02  0.15468710489E+03  0.00000000000E+00 0.  1.
         22    1    3    3    0    0 -0.59482044072E+02 -0.52211651951E+02  0.24801898452E+02  0.82941571804E+02  0.00000000000E+00 0.  1.
</event>
<event>
 7    1  0.6067783E-006  0.1149380E+03  0.7818608E-02  0.1315734E+00
          2   -1    0    0  502    0  0.00000000000E+00  0.00000000000E+00  0.84343589166E+03  0.84343589166E+03  0.00000000000E+00 0. -1.
          1   -1    0    0  501    0 -0.00000000000E+00 -0.00000000000E+00 -0.10080366763E+04  0.10080366763E+04  0.00000000000E+00 0. -1.
         25    2    1    2    0    0 -0.67830550352E+02 -0.10127642177E+03 -0.10668344871E+03  0.20460853030E+03  0.12500158108E+03 0.  0.
          2    1    1    2  501    0  0.61169361833E+02 -0.13723330179E+02 -0.84705075463E+03  0.84936741258E+03  0.00000000000E+00 0. -1.
          1    1    1    2  502    0  0.66611885197E+01  0.11499975195E+03  0.78913341875E+03  0.79749662505E+03  0.00000000000E+00 0. -1.
         22    1    3    3    0    0 -0.30790841342E+02 -0.10144254591E+03 -0.12448817249E+03  0.16351137918E+03  0.00000000000E+00 0.  1.
         22    1    3    3    0    0 -0.37039709010E+02  0.16612414062E+00  0.17804723781E+02  0.41097151114E+02  0.00000000000E+00 0.  1.
</event>
<event>
 7    1  0.6067783E-006  0.4734633E+02  0.7818608E-02  0.1483791E+00
          2   -1    0    0  502    0  0.00000000000E+00  0.00000000000E+00  0.11227965877E+04  0.11227965877E+04  0.00000000000E+00 0. -1.
          1   -1    0    0  501    0 -0.00000000000E+00 -0.00000000000E+00 -0.12457634560E+03  0.12457634560E+03  0.00000000000E+00 0. -1.
         25    2    1    2    0    0 -0.13722231195E+02 -0.35105942508E+02  0.58796488579E+03  0.60228570014E+03  0.12499852336E+03 0.  0.
          2    1    1    2  501    0  0.38855844678E+02 -0.95192760655E+01 -0.11272077295E+03  0.11960922179E+03  0.00000000000E+00 0. -1.
          1    1    1    2  502    0 -0.25133613483E+02  0.44625218574E+02  0.52297612929E+03  0.52547801140E+03  0.00000000000E+00 0. -1.
         22    1    3    3    0    0  0.18733366569E+02  0.33506289778E+02  0.80598147453E+02  0.89273018603E+02  0.00000000000E+00 0.  1.
         22    1    3    3    0    0 -0.32455597764E+02 -0.68612232286E+02  0.50736673834E+03  0.51301268154E+03  0.00000000000E+00 0.  1.
</event>
<event>
 7    1  0.6067783E-006  0.3677283E+02  0.7818608E-02  0.1601006E+00
          2   -1    0    0  502    0  0.00000000000E+00  0.00000000000E+00  0.18738824382E+04  0.18738824382E+04  0.00000000000E+00 0. -1.
          1   -1    0    0  501    0 -0.00000000000E+00 -0.00000000000E+00 -0.19366027117E+04  0.19366027117E+04  0.00000000000E+00 0. -1.
         25    2    1    2    0    0 -0.40556764841E+02 -0.29407731199E+02  0.42238152598E+03  0.44332941529E+03  0.12500060459E+03 0.  0.
          2    1    1    2  501    0  0.16739999270E+02  0.32738033720E+02 -0.19258529305E+04  0.19262039135E+04  0.00000000000E+00 0. -1.
          1    1    1    2  502    0  0.23816765570E+02 -0.33303025211E+01  0.14407511311E+04  0.14409518212E+04  0.00000000000E+00 0. -1.
         22    1    3    3    0    0 -0.52430749485E+02 -0.33846380186E+02  0.83667257245E+02  0.10437801913E+03  0.00000000000E+00 0. -1.
         22    1    3    3    0    0  0.11873984644E+02  0.44386489873E+01  0.33871426873E+03  0.33895139616E+03  0.00000000000E+00 0. -1.
</event>
<event>
 7    1  0.6067783E-006  0.3322775E+02  0.7818608E-02  0.1570976E+00
          2   -1    0    0  502    0  0.00000000000E+00  0.00000000000E+00  0.34577739869E+02  0.34577739869E+02  0.00000000000E+00 0. -1.
          1   -1    0    0  501    0 -0.00000000000E+00 -0.00000000000E+00 -0.34752800681E+03  0.34752800681E+03  0.00000000000E+00 0. -1.
         25    2    1    2    0    0 -0.10989018057E+01  0.81746155914E+01 -0.20410343304E+03  0.23948032287E+03  0.12499832693E+03 0.  0.
          2    1    1    2  501    0  0.33408913307E+02 -0.15930030557E+02 -0.10225860192E+03  0.10875083001E+03  0.00000000000E+00 0. -1.
          1    1    1    2  502    0 -0.32310011502E+02  0.77554149651E+01 -0.65882319798E+01  0.33874593800E+02  0.00000000000E+00 0. -1.
         22    1    3    3    0    0 -0.73730668467E+01  0.44079112133E+02 -0.19743092044E+03  0.20242603238E+03  0.00000000000E+00 0.  1.
         22    1    3    3    0    0  0.62741650410E+01 -0.35904496542E+02 -0.66725126065E+01  0.37054290485E+02  0.00000000000E+00 0.  1.
</event>
<event>
 7    1  0.6067783E-006  0.1785170E+03  0.7818608E-02  0.1181606E+00
          2   -1    0    0  502    0  0.00000000000E+00  0.00000000000E+00  0.29272473027E+04  0.29272473027E+04  0.00000000000E+00 0. -1.
          1   -1    0    0  501    0 -0.00000000000E+00 -0.00000000000E+00 -0.11116893636E+04  0.11116893636E+04  0.00000000000E+00 0. -1.
         25    2    1    2    0    0  0.15960738009E+03 -0.27994881695E+03  0.13491475888E+03  0.37104335991E+03  0.12500130749E+03 0.  0.
          2    1    1    2  501    0 -0.10628612371E+03  0.11308114293E+03 -0.98467247140E+03  0.99682694632E+03  0.00000000000E+00 0. -1.
          1    1    1    2  502    0 -0.53321256387E+02  0.16686767402E+03  0.26653156516E+04  0.26710663600E+04  0.00000000000E+00 0. -1.
         22    1    3    3    0    0  0.73050743675E+02 -0.89437965930E+02 -0.10906825476E+02  0.11599361941E+03  0.00000000000E+00 0. -1.
         22    1    3    3    0    0  0.86556636418E+02 -0.19051085102E+03  0.14582158436E+03  0.25504974050E+03  0.00000000000E+00 0. -1.
</event>
<event>
 7    1  0.6067783E-006  0.4882976E+02  0.7818608E-02  0.1462456E+00
          2   -1    0    0  502    0  0.00000000000E+00  0.00000000000E+00  0.60122747240E+03  0.60122747240E+03  0.00000000000E+00 0. -1.
          1   -1    0    0  501    0 -0.00000000000E+00 -0.00000000000E+00 -0.25849590867E+03  0.25849590867E+03  0.00000000000E+00 0. -1.
         25    2    1    2    0    0  0.82137037285E+02  0.20618033567E+02 -0.22682673202E+02  0.15268103763E+03  0.12500159753E+03 0.  0.
          2    1    1    2  501    0 -0.46741029046E+02  0.74345170864E+01 -0.16656028352E+03  0.17315404670E+03  0.00000000000E+00 0. -1.
          1    1    1    2  502    0 -0.35396008240E+02 -0.28052550654E+02  0.53197452045E+03  0.53388829675E+03  0.00000000000E+00 0. -1.
         22    1    3    3    0    0  0.99900147380E+02  0.27950948490E+02 -0.53226383334E+02  0.11659478055E+03  0.00000000000E+00 0.  1.
         22    1    3    3    0    0 -0.17763110095E+02 -0.73329149231E+01  0.30543710132E+02  0.36086257082E+02  0.00000000000E+00 0.  1.
</event>
<event>
 7    1  0.6067783E-006  0.1754945E+03  0.7818608E-02  0.1352166E+00
          2   -1    0    0  502    0  0.00000000000E+00  0.00000000000E+00  0.88819341104E+03  0.88819341104E+03  0.00000000000E+00 0. -1.
          1   -1    0    0  501    0 -0.00000000000E+00 -0.00000000000E+00 -0.74300648000E+03  0.74300648000E+03  0.00000000000E+00 0. -1.
         25    2    1    2    0    0  0.82880596038E+02 -0.16655673339E+03 -0.12547965143E+03  0.25687130863E+03  0.12500955020E+03 0.  0.
          2    1    1    2  501    0 -0.29854602341E+02 -0.30286417805E+00 -0.54209825634E+03  0.54291979936E+03  0.00000000000E+00 0. -1.
          1    1    1    2  502    0 -0.53025993696E+02  0.16685959757E+03  0.81276483882E+03  0.83140878304E+03  0.00000000000E+00 0. -1.
         22    1    3    3    0    0  0.46298448764E+02 -0.11048126265E+03 -0.14408907360E+03  0.18738014005E+03  0.00000000000E+00 0.  1.
         22    1    3    3    0    0  0.36582147274E+02 -0.56075470736E+02  0.18609422170E+02  0.69491168583E+02  0.00000000000E+00 0.  1.
</event>
<event>
 7    1  0.6067783E-006  0.9235595E+02  0.7818608E-02  0.1329452E+00
          2   -1    0    0  502    0  0.00000000000E+00  0.00000000000E+00  0.21843957940E+04  0.21843957940E+04  0.00000000000E+00 0. -1.
          1   -1    0    0  501    0 -0.00000000000E+00 -0.00000000000E+00 -0.93697956065E+03  0.93697956065E+03  0.00000000000E+00 0. -1.
         25    2    1    2    0    0 -0.30110907979E+02  0.58626379008E+02  0.36236380603E+02  0.14586868195E+03  0.12498351091E+03 0.  0.
          2    1    1    2  501    0 -0.32453955973E+02 -0.87849255308E+02 -0.87910608060E+03  0.88408045553E+03  0.00000000000E+00 0. -1.
          1    1    1    2  502    0  0.62564863953E+02  0.29222876300E+02  0.20902859333E+04  0.20914262171E+04  0.00000000000E+00 0. -1.
         22    1    3    3    0    0  0.12376794846E+02  0.41157518446E+01 -0.40528487205E+02  0.42575612022E+02  0.00000000000E+00 0. -1.
         22    1    3    3    0    0 -0.42487702825E+02  0.54510627163E+02  0.76764867808E+02  0.10329306993E+03  0.00000000000E+00 0. -1.
</event>
<event>
 7    1  0.6067783E-006  0.1795904E+03  0.7818608E-02  0.1345921E+00
          2   -1    0    0  502    0  0.00000000000E+00  0.00000000000E+00  0.10366243956E+04  0.10366243956E+04  0.00000000000E+00 0. -1.
          1   -1    0    0  501    0 -0.00000000000E+00 -0.00000000000E+00 -0.32762796007E+03  0.32762796007E+03  0.00000000000E+00 0. -1.
         25    2    1    2    0    0  0.13667036251E+03  0.67620406559E+02  0.27977248024E+03  0.34227002950E+03  0.12499930009E+03 0.  0.
          2    1    1    2  501    0 -0.16709381654E+03 -0.72253294337E+02 -0.26805295052E+03  0.32402664451E+03  0.00000000000E+00 0. -1.
          1    1    1    2  502    0  0.30423454029E+02  0.46328877775E+01  0.69727690578E+03  0.69795568164E+03  0.00000000000E+00 0. -1.
         22    1    3    3    0    0  0.83685153192E+01  0.44805327144E+02  0.15607864520E+03  0.16259794856E+03  0.00000000000E+00 0. -1.
         22    1    3    3    0    0  0.12830184719E+03  0.22815079416E+02  0.12369383504E+03  0.17967208094E+03  0.00000000000E+00 0. -1.
</event>
<event>
 7    1  0.6067783E-006  0.1357825E+03  0.7818608E-02  0.1381858E+00
          2   -1    0    0  502    0  0.00000000000E+00  0.00000000000E+00  0.40380978733E+04  0.40380978733E+04  0.00000000000E+00 0. -1.
          1   -1    0    0  501    0 -0.00000000000E+00 -0.00000000000E+00 -0.15365189197E+03  0.15365189197E+03  0.00000000000E+00 0. -1.
         25    2    1    2    0    0 -0.50100099544E+02  0.10349683600E+03  0.91774021648E+02  0.19304016582E+03  0.12498167680E+03 0.  0.
          2    1    1    2  501    0  0.12372337946E+02  0.27489132272E+02 -0.99594664203E+02  0.10405683196E+03  0.00000000000E+00 0. -1.
          1    1    1    2  502    0  0.37727761598E+02 -0.13098596827E+03  0.38922666239E+04  0.38946527675E+04  0.00000000000E+00 0. -1.
         22    1    3    3    0    0  0.21196532454E+01 -0.28128256935E+02  0.16239759772E+02  0.32548756743E+02  0.00000000000E+00 0.  1.
         22    1    3    3    0    0 -0.52219752789E+02  0.13162509293E+03  0.75534261877E+02  0.16049140908E+03  0.00000000000E+00 0.  1.
</event>
<event>
 7    1  0.6067783E-006  0.1523151E+03  0.7818608E-02  0.1291698E+00
          2   -1    0    0  502    0  0.00000000000E+00  0.00000000000E+00  0.13733709777E+04  0.13733709777E+04  0.00000000000E+00 0. -1.
          1   -1    0    0  501    0 -0.00000000000E+00 -0.00000000000E+00 -0.79981907031E+03  0.79981907031E+03  0.00000000000E+00 0. -1.
         25    2    1    2    0    0 -0.18143550417E+03  0.18696027091E+02 -0.71793130322E+03  0.75121196766E+03  0.12500272244E+03 0.  0.
          2    1    1    2  501    0  0.32355437145E+02 -0.49293569807E+02 -0.46670013885E+02  0.75198540765E+02  0.00000000000E+00 0. -1.
          1    1    1    2  502    0  0.14908006702E+03  0.30597542716E+02  0.13381532245E+04  0.13467795396E+04  0.00000000000E+00 0. -1.
         22    1    3    3    0    0 -0.19648763261E+03  0.24055969931E+02 -0.59082489954E+03  0.62310524101E+03  0.00000000000E+00 0. -1.
         22    1    3    3    0    0  0.15052128439E+02 -0.53599428404E+01 -0.12710640367E+03  0.12810672665E+03  0.00000000000E+00 0. -1.
</event>
<event>
 7    1  0.6067783E-006  0.8111302E+02  0.7818608E-02  0.1389156E+00
          2   -1    0    0  502    0  0.00000000000E+00  0.00000000000E+00  0.96336288891E+03  0.96336288891E+03  0.00000000000E+00 0. -1.
          1   -1    0    0  501    0 -0.00000000000E+00 -0.00000000000E+00 -0.33446096171E+03  0.33446096171E+03  0.00000000000E+00 0. -1.
         25    2    1    2    0    0 -0.20056125851E+02  0.50274758930E+02  0.80831945271E+03  0.81971666792E+03  0.12500111384E+03 0.  0.
          2    1    1    2  501    0  0.67390702634E+02 -0.45548998058E+02 -0.31974870969E+03  0.32993250124E+03  0.00000000000E+00 0. -1.
          1    1    1    2  502    0 -0.47334576783E+02 -0.47257608721E+01  0.14033118418E+03  0.14817468147E+03  0.00000000000E+00 0. -1.
         22    1    3    3    0    0 -0.10242796303E+02 -0.28807857919E+02  0.61735306265E+02  0.68891622086E+02  0.00000000000E+00 0. -1.
         22    1    3    3    0    0 -0.98133295483E+01  0.79082616850E+02  0.74658414644E+03  0.75082504583E+03  0.00000000000E+00 0. -1.
</event>
<event>
 7    1  0.6067783E-006  0.8010718E+02  0.7818608E-02  0.1351703E+00
          2   -1    0    0  502    0  0.00000000000E+00  0.00000000000E+00  0.92377492635E+03  0.92377492635E+03  0.00000000000E+00 0. -1.
          1   -1    0    0  501    0 -0.00000000000E+00 -0.00000000000E+00 -0.19224763960E+04  0.19224763960E+04  0.00000000000E+00 0. -1.
         25    2    1    2    0    0 -0.57228448377E+02  0.11205789716E+03  0.26406413693E+03  0.31809945691E+03  0.12500131383E+03 0.  0.
          2    1    1    2  501    0  0.55570496015E+02 -0.34983657007E+02 -0.18925388262E+04  0.18936776772E+04  0.00000000000E+00 0. -1.
          1    1    1    2  502    0  0.16579523614E+01 -0.77074240154E+02  0.62977321968E+03  0.63447418823E+03  0.00000000000E+00 0. -1.
         22    1    3    3    0    0  0.96324245098E+01 -0.23811944359E+02  0.32649245085E+02  0.41542333838E+02  0.00000000000E+00 0.  1.
         22    1    3    3    0    0 -0.66860872886E+02  0.13586984152E+03  0.23141489184E+03  0.27655712308E+03  0.00000000000E+00 0.  1.
</event>
<event>
 7    1  0.6067783E-006  0.3542961E+02  0.7818608E-02  0.1578224E+00
          2   -1    0    0  502    0  0.00000000000E+00  0.00000000000E+00  0.16591282974E+03  0.16591282974E+03  0.00000000000E+00 0. -1.
          1   -1    0    0  501    0 -0.00000000000E+00 -0.00000000000E+00 -0.15826042697E+04  0.15826042697E+04  0.00000000000E+00 0. -1.
         25    2    1    2    0    0 -0.18083185446E+02 -0.32090197373E+02 -0.66195934368E+02  0.14616325780E+03  0.12500005536E+03 0.  0.
          2    1    1    2  501    0  0.34442270498E+02  0.85330572700E+01 -0.14745754883E+04  0.14750023572E+04  0.00000000000E+00 0. -1.
          1    1    1    2  502    0 -0.16359085052E+02  0.23557140103E+02  0.12407998264E+03  0.12735148450E+03  0.00000000000E+00 0. -1.
         22    1    3    3    0    0 -0.31321143976E+02  0.29787413727E+02  0.12676876143E+02  0.45044503163E+02  0.00000000000E+00 0.  1.
         22    1    3    3    0    0  0.13237958530E+02 -0.61877611100E+02 -0.78872810511E+02  0.10111875464E+03  0.00000000000E+00 0.  1.
</event>
<event>
 7    1  0.6067783E-006  0.6331547E+02  0.7818608E-02  0.1422682E+00
          2   -1    0    0  502    0  0.00000000000E+00  0.00000000000E+00  0.17309076418E+04  0.17309076418E+04  0.00000000000E+00 0. -1.
          1   -1    0    0  501    0 -0.00000000000E+00 -0.00000000000E+00 -0.66777646804E+02  0.66777646804E+02  0.00000000000E+00 0. -1.
         25    2    1    2    0    0  0.49858372554E+00 -0.23765335474E+02  0.24304190985E+03  0.27435531914E+03  0.12504571740E+03 0.  0.
          2    1    1    2  501    0  0.28595271512E+02  0.60472326859E+02 -0.28697253002E+02  0.72788214695E+02  0.00000000000E+00 0. -1.
          1    1    1    2  502    0 -0.29093855238E+02 -0.36706991384E+02  0.14497853382E+04  0.14505417548E+04  0.00000000000E+00 0. -1.
         22    1    3    3    0    0  0.27205358160E+02 -0.29190643289E+02  0.24384791727E+03  0.24709114093E+03  0.00000000000E+00 0. -1.
         22    1    3    3    0    0 -0.26706774434E+02  0.54253078150E+01 -0.80600741674E+00  0.27264178211E+02  0.00000000000E+00 0. -1.
</event>
<event>
 7    1  0.6067783E-006  0.7811702E+02  0.7818608E-02  0.1417132E+00
          2   -1    0    0  502    0  0.00000000000E+00  0.00000000000E+00  0.20129690155E+03  0.20129690155E+03  0.00000000000E+00 0. -1.
          1   -1    0    0  501    0 -0.00000000000E+00 -0.00000000000E+00 -0.42826850494E+03  0.42826850494E+03  0.00000000000E+00 0. -1.
         25    2    1    2    0    0 -0.46332124418E+01 -0.73249673667E+02 -0.11795546459E+03  0.18687638222E+03  0.12498923656E+03 0.  0.
          2    1    1    2  501    0  0.43809779249E+02  0.67342296170E+02 -0.26751261121E+03  0.27931573312E+03  0.00000000000E+00 0. -1.
          1    1    1    2  502    0 -0.39176566807E+02  0.59073774976E+01  0.15849647241E+03  0.16337329115E+03  0.00000000000E+00 0. -1.
         22    1    3    3    0    0  0.49242230665E+02 -0.19622020436E+02 -0.92680192880E+02  0.10676815592E+03  0.00000000000E+00 0.  1.
         22    1    3    3    0    0 -0.53875443106E+02 -0.53627653231E+02 -0.25275271712E+02  0.80108226301E+02  0.00000000000E+00 0.  1.
</event>
<event>
 7    1  0.6183437E-006  0.2201707E+03  0.7818608E-02  0.1263721E+00
          2   -1    0    0  502    0  0.00000000000E+00  0.00000000000E+00  0.17269604488E+04  0.17269604488E+04  0.00000000000E+00 0. -1.
          1   -1    0    0  501    0 -0.00000000000E+00 -0.00000000000E+00 -0.14513394084E+04  0.14513394084E+04  0.00000000000E+00 0. -1.
         25    2    1    2    0    0  0.16652106933E+03 -0.24282429700E+02 -0.35623104342E+03  0.41333315204E+03  0.12499934142E+03 0.  0.
          2    1    1    2  501    0  0.53287551991E+02  0.18947615728E-01 -0.10586857733E+04  0.10600260045E+04  0.00000000000E+00 0. -1.
          1    1    1    2  502    0 -0.21980862132E+03  0.24263482084E+02  0.16905378571E+04  0.17049407007E+04  0.00000000000E+00 0. -1.
         22    1    3    3    0    0  0.34810340773E+01 -0.17744690384E+02 -0.14646234896E+03  0.14757442630E+03  0.00000000000E+00 0.  1.
         22    1    3    3    0    0  0.16304003525E+03 -0.65377393161E+01 -0.20976869446E+03  0.26575872574E+03  0.00000000000E+00 0.  1.
</event>
<event>
 7    1  0.6067783E-006  0.1412293E+03  0.7818608E-02  0.1218614E+00
          2   -1    0    0  502    0  0.00000000000E+00  0.00000000000E+00  0.41527738454E+03  0.41527738454E+03  0.00000000000E+00 0. -1.
          1   -1    0    0  501    0 -0.00000000000E+00 -0.00000000000E+00 -0.75539180068E+03  0.75539180068E+03  0.00000000000E+00 0. -1.
         25    2    1    2    0    0  0.12767549908E+03 -0.42039087711E+02  0.65513293746E+02  0.19489536974E+03  0.12499558204E+03 0.  0.
          2    1    1    2  501    0  0.30398172266E+01  0.13120665602E+03 -0.66179200342E+03  0.67467998552E+03  0.00000000000E+00 0. -1.
          1    1    1    2  502    0 -0.13071531630E+03 -0.89167568310E+02  0.25616429353E+03  0.30109382995E+03  0.00000000000E+00 0. -1.
         22    1    3    3    0    0  0.14644419454E+03 -0.56570084305E+02  0.67888049279E+02  0.17104053259E+03  0.00000000000E+00 0.  1.
         22    1    3    3    0    0 -0.18768695468E+02  0.14530996594E+02 -0.23747555332E+01  0.23854837149E+02  0.00000000000E+00 0.  1.
</event>
<event>
 7    1  0.6067783E-006  0.1029412E+03  0.7818608E-02  0.1337695E+00
          2   -1    0    0  502    0  0.00000000000E+00  0.00000000000E+00  0.20994558247E+04  0.20994558247E+04  0.00000000000E+00 0. -1.
          1   -1    0    0  501    0 -0.00000000000E+00 -0.00000000000E+00 -0.51541109590E+02  0.51541109590E+02  0.00000000000E+00 0. -1.
         25    2    1    2    0    0 -0.55644198511E+02  0.14278112068E+03  0.78425672958E+03  0.80880596105E+03  0.12500295789E+03 0.  0.
          2    1    1    2  501    0  0.20808464635E+02 -0.96855986244E+02  0.24972563846E+02  0.10216507826E+03  0.00000000000E+00 0. -1.
          1    1    1    2  502    0  0.34835733876E+02 -0.45925134441E+02  0.12386854217E+04  0.12400258950E+04  0.00000000000E+00 0. -1.
         22    1    3    3    0    0 -0.21546027398E+02  0.12452757696E+03  0.73691926313E+03  0.74767730278E+03  0.00000000000E+00 0. -1.
         22    1    3    3    0    0 -0.34098171113E+02  0.18253543723E+02  0.47337466458E+02  0.61128658274E+02  0.00000000000E+00 0. -1.
</event>
<event>
 7    1  0.6067783E-006  0.9119846E+02  0.7818608E-02  0.1416729E+00
          2   -1    0    0  502    0  0.00000000000E+00  0.00000000000E+00  0.15978299518E+04  0.15978299518E+04  0.00000000000E+00 0. -1.
          1   -1    0    0  501    0 -0.00000000000E+00 -0.00000000000E+00 -0.16154438196E+04  0.16154438196E+04  0.00000000000E+00 0. -1.
         25    2    1    2    0    0  0.66621224804E+02  0.55475527812E+02 -0.63538981216E+02  0.16486142947E+03  0.12500466796E+03 0.  0.
          2    1    1    2  501    0 -0.23231834908E+02  0.24883010330E+02 -0.14997026410E+04  0.15000889619E+04  0.00000000000E+00 0. -1.
          1    1    1    2  502    0 -0.43389389896E+02 -0.80358538142E+02  0.15456277544E+04  0.15483233800E+04  0.00000000000E+00 0. -1.
         22    1    3    3    0    0 -0.35465423276E+02  0.17383986091E+02 -0.33616415709E+02  0.51865813651E+02  0.00000000000E+00 0.  1.
         22    1    3    3    0    0  0.10208664808E+03  0.38091541720E+02 -0.29922565508E+02  0.11299561581E+03  0.00000000000E+00 0.  1.
</event>
<event>
 7    1  0.6067783E-006  0.1140324E+03  0.7818608E-02  0.1272006E+00
          2   -1    0    0  502    0  0.00000000000E+00  0.00000000000E+00  0.23207115532E+04  0.23207115532E+04  0.00000000000E+00 0. -1.
          1   -1    0    0  501    0 -0.00000000000E+00 -0.00000000000E+00 -0.22332453693E+03  0.22332453693E+03  0.00000000000E+00 0. -1.
         25    2    1    2    0    0  0.49895597626E+02 -0.83863699443E+01  0.64008755862E+02  0.14927376654E+03  0.12500253872E+03 0.  0.
          2    1    1    2  501    0  0.36091268160E+02  0.87810476806E+02 -0.16655725829E+03  0.19171483971E+03  0.00000000000E+00 0. -1.
          1    1    1    2  502    0 -0.85986865786E+02 -0.79424106862E+02  0.21999355187E+04  0.22030474839E+04  0.00000000000E+00 0. -1.
         22    1    3    3    0    0  0.25650320689E+02  0.46923876119E+02 -0.93148095329E+01  0.54282177352E+02  0.00000000000E+00 0. -1.
         22    1    3    3    0    0  0.24245276938E+02 -0.55310246063E+02  0.73323565395E+02  0.94991589183E+02  0.00000000000E+00 0. -1.
</event>
<event>
 7    1  0.6067783E-006  0.1025259E+03  0.7818608E-02  0.1395460E+00
          2   -1    0    0  502    0  0.00000000000E+00  0.00000000000E+00  0.46319061507E+03  0.46319061507E+03  0.00000000000E+00 0. -1.
          1   -1    0    0  501    0 -0.00000000000E+00 -0.00000000000E+00 -0.67778426194E+03  0.67778426194E+03  0.00000000000E+00 0. -1.
         25    2    1    2    0    0 -0.78834836922E+02 -0.50113225252E+02  0.15879246771E+03  0.22263120664E+03  0.12499335787E+03 0.  0.
          2    1    1    2  501    0  0.10053656079E+03  0.21663562677E+02 -0.64057055420E+03  0.64877387811E+03  0.00000000000E+00 0. -1.
          1    1    1    2  502    0 -0.21701723871E+02  0.28449662575E+02  0.26718443963E+03  0.26956979226E+03  0.00000000000E+00 0. -1.
         22    1    3    3    0    0 -0.10317112958E+03 -0.39824096476E+02  0.16185877203E+03  0.19603189211E+03  0.00000000000E+00 0.  1.
         22    1    3    3    0    0  0.24336292656E+02 -0.10289128776E+02 -0.30663043271E+01  0.26599314530E+02  0.00000000000E+00 0.  1.
</event>
<event>
 7    1  0.6067783E-006  0.7455047E+02  0.7818608E-02  0.1347608E+00
          2   -1    0    0  502    0  0.00000000000E+00  0.00000000000E+00  0.88008607932E+03  0.88008607932E+03  0.00000000000E+00 0. -1.
          1   -1    0    0  501    0 -0.00000000000E+00 -0.00000000000E+00 -0.30569040338E+02  0.30569040338E+02  0.00000000000E+00 0. -1.
         25    2    1    2    0    0 -0.36452086973E+02 -0.13656619631E+02  0.26600325150E+03  0.29647577227E+03  0.12499958332E+03 0.  0.
          2    1    1    2  501    0 -0.30662309238E+02  0.67952888100E+02  0.11014085769E+03  0.13299917572E+03  0.00000000000E+00 0. -1.
          1    1    1    2  502    0  0.67114396211E+02 -0.54296268469E+02  0.47337292980E+03  0.48118017168E+03  0.00000000000E+00 0. -1.
         22    1    3    3    0    0  0.43328643013E+01 -0.65105442317E+02  0.13500506245E+03  0.14994618775E+03  0.00000000000E+00 0.  1.
         22    1    3    3    0    0 -0.40784951274E+02  0.51448822686E+02  0.13099818905E+03  0.14652958452E+03  0.00000000000E+00 0.  1.
</event>
<event>
 7    1  0.6067783E-006  0.1474139E+03  0.7818608E-02  0.1283886E+00
          2   -1    0    0  502    0  0.00000000000E+00  0.00000000000E+00  0.11223454480E+04  0.11223454480E+04  0.00000000000E+00 0. -1.
          1   -1    0    0  501    0 -0.00000000000E+00 -0.00000000000E+00 -0.19771174634E+04  0.19771174634E+04  0.00000000000E+00 0. -1.
         25    2    1    2    0    0 -0.60125441266E+02  0.19862678980E+03  0.61984480761E+03  0.66551479452E+03  0.12503873756E+03 0.  0.
          2    1    1    2  501    0  0.21605499241E+02 -0.14556942829E+03 -0.19492551979E+04  0.19548025686E+04  0.00000000000E+00 0. -1.
          1    1    1    2  502    0  0.38519942025E+02 -0.53057361511E+02  0.47463837482E+03  0.47914554824E+03  0.00000000000E+00 0. -1.
         22    1    3    3    0    0 -0.32569140967E+02  0.10285645701E+03  0.49053333780E+03  0.50225805636E+03  0.00000000000E+00 0. -1.
         22    1    3    3    0    0 -0.27556300299E+02  0.95770332785E+02  0.12931146981E+03  0.16325673816E+03  0.00000000000E+00 0. -1.
</event>
<event>
 7    1  0.6067783E-006  0.1805602E+03  0.7818608E-02  0.1309676E+00
          2   -1    0    0  502    0  0.00000000000E+00  0.00000000000E+00  0.13429134241E+04  0.13429134241E+04  0.00000000000E+00 0. -1.
          1   -1    0    0  501    0 -0.00000000000E+00 -0.00000000000E+00 -0.10010030855E+03  0.10010030855E+03  0.00000000000E+00 0. -1.
         25    2    1    2    0    0  0.14878156630E+03  0.94023924451E+02  0.19874877653E+03  0.29343289301E+03  0.12500133475E+03 0.  0.
          2    1    1    2  501    0  0.23367778381E+02 -0.35081013781E+02 -0.35303803257E+02  0.54982625608E+02  0.00000000000E+00 0. -1.
          1    1    1    2  502    0 -0.17214934468E+03 -0.58942910669E+02  0.10793681422E+04  0.10945982140E+04  0.00000000000E+00 0. -1.
         22    1    3    3    0    0  0.83878245258E+02  0.73996532357E+02  0.36691754227E+02  0.11771716806E+03  0.00000000000E+00 0. -1.
         22    1    3    3    0    0  0.64903321043E+02  0.20027392093E+02  0.16205702230E+03  0.17571572495E+03  0.00000000000E+00 0. -1.
</event>
<event>
 7    1  0.6067783E-006  0.1520325E+03  0.7818608E-02  0.1404318E+00
          2   -1    0    0  502    0  0.00000000000E+00  0.00000000000E+00  0.15604987934E+04  0.15604987934E+04  0.00000000000E+00 0. -1.
          1   -1    0    0  501    0 -0.00000000000E+00 -0.00000000000E+00 -0.16212432487E+03  0.16212432487E+03  0.00000000000E+00 0. -1.
         25    2    1    2    0    0 -0.77574579660E+02 -0.15538693596E+03 -0.83281606056E+01  0.21414211334E+03  0.12499828466E+03 0.  0.
          2    1    1    2  501    0  0.11680325567E+02  0.19225490171E+02 -0.44263097074E+02  0.49651497865E+02  0.00000000000E+00 0. -1.
          1    1    1    2  502    0  0.65894254092E+02  0.13616144579E+03  0.14509657262E+04  0.14588295071E+04  0.00000000000E+00 0. -1.
         22    1    3    3    0    0  0.26566849970E+02 -0.50949155926E+02  0.25437333124E+02  0.62838458951E+02  0.00000000000E+00 0. -1.
         22    1    3    3    0    0 -0.10414142963E+03 -0.10443778003E+03 -0.33765493729E+02  0.15130365438E+03  0.00000000000E+00 0. -1.
</event>
<event>
 7    1  0.6067783E-006  0.1365429E+03  0.7818608E-02  0.1249632E+00
          2   -1    0    0  502    0  0.00000000000E+00  0.00000000000E+00  0.39854455003E+04  0.39854455003E+04  0.00000000000E+00 0. -1.
          1   -1    0    0  501    0 -0.00000000000E+00 -0.00000000000E+00 -0.28745995554E+03  0.28745995554E+03  0.00000000000E+00 0. -1.
         25    2    1    2    0    0 -0.48960753220E+02 -0.21725597205E+01  0.28658225186E+03  0.31647382141E+03  0.12499766872E+03 0.  0.
          2    1    1    2  501    0 -0.88969654826E+02 -0.42866278382E+02 -0.26208732286E+03  0.28007656472E+03  0.00000000000E+00 0. -1.
          1    1    1    2  502    0  0.13793040805E+03  0.45038838102E+02  0.36734906157E+04  0.36763550697E+04  0.00000000000E+00 0. -1.
         22    1    3    3    0    0 -0.49080726059E+02 -0.29022992973E+02  0.28380906751E+03  0.28948029051E+03  0.00000000000E+00 0.  1.
         22    1    3    3    0    0  0.11997283935E+00  0.26850433253E+02  0.27731843537E+01  0.26993530907E+02  0.00000000000E+00 0.  1.
</event>
<event>
 7    1  0.6067783E-006  0.4742097E+02  0.7818608E-02  0.1588506E+00
          2   -1    0    0  502    0  0.00000000000E+00  0.00000000000E+00  0.46750476987E+03  0.46750476987E+03  0.00000000000E+00 0. -1.
          1   -1    0    0  501    0 -0.00000000000E+00 -0.00000000000E+00 -0.27183280939E+02  0.27183280939E+02  0.00000000000E+00 0. -1.
         25    2    1    2    0    0 -0.11811263987E+02  0.38819745756E+02  0.20409252190E+03  0.24274461309E+03  0.12499884428E+03 0.  0.
          2    1    1    2  501    0 -0.20029398414E+02 -0.18572972000E+01  0.14211514924E+02  0.24629119151E+02  0.00000000000E+00 0. -1.
          1    1    1    2  502    0  0.31840662402E+02 -0.36962448556E+02  0.22201745210E+03  0.22731431856E+03  0.00000000000E+00 0. -1.
         22    1    3    3    0    0  0.38936202992E+02 -0.22286072382E+02  0.11469637374E+03  0.12315825216E+03  0.00000000000E+00 0. -1.
         22    1    3    3    0    0 -0.50747466980E+02  0.61105818138E+02  0.89396148162E+02  0.11958636093E+03  0.00000000000E+00 0. -1.
</event>
<event>
 7    1  0.6067783E-006  0.5643066E+02  0.7818608E-02  0.1527195E+00
          2   -1    0    0  502    0  0.00000000000E+00  0.00000000000E+00  0.13299016045E+04  0.13299016045E+04  0.00000000000E+00 0. -1.
          1   -1    0    0  501    0 -0.00000000000E+00 -0.00000000000E+00 -0.45850955374E+03  0.45850955374E+03  0.00000000000E+00 0. -1.
         25    2    1    2    0    0 -0.38926691496E+02 -0.44449853303E+02 -0.33544673803E+03  0.36282333717E+03  0.12500073266E+03 0.  0.
          2    1    1    2  501    0 -0.12642893846E+02  0.21525096254E+02 -0.10733657681E+03  0.11020123980E+03  0.00000000000E+00 0. -1.
          1    1    1    2  502    0  0.51569585342E+02  0.22924757048E+02  0.13141753656E+04  0.13153865813E+04  0.00000000000E+00 0. -1.
         22    1    3    3    0    0 -0.18720768185E+02 -0.68059811542E+02 -0.32079027952E+03  0.32846462297E+03  0.00000000000E+00 0.  1.
         22    1    3    3    0    0 -0.20205923311E+02  0.23609958240E+02 -0.14656458511E+02  0.34358714193E+02  0.00000000000E+00 0.  1.
</event>
<event>
 7    1  0.6067783E-006  0.7081884E+02  0.7818608E-02  0.1380378E+00
          2   -1    0    0  502    0  0.00000000000E+00  0.00000000000E+00  0.15882098494E+04  0.15882098494E+04  0.00000000000E+00 0. -1.
          1   -1    0    0  501    0 -0.00000000000E+00 -0.00000000000E+00 -0.34935765308E+02  0.34935765308E+02  0.00000000000E+00 0. -1.
         25    2    1    2    0    0 -0.61235398883E+02 -0.12401300321E+02  0.37102128820E+03  0.39646563367E+03  0.12499854422E+03 0.  0.
          2    1    1    2  501    0  0.59919651470E+02 -0.46082488705E+02  0.45098044967E+02  0.88021554504E+02  0.00000000000E+00 0. -1.
          1    1    1    2  502    0  0.13157474134E+01  0.58483789026E+02  0.11371547510E+04  0.11386584266E+04  0.00000000000E+00 0. -1.
         22    1    3    3    0    0 -0.94457415904E+02 -0.89394815279E+01  0.18982101342E+03  0.21221247580E+03  0.00000000000E+00 0.  1.
         22    1    3    3    0    0  0.33222017020E+02 -0.34618187932E+01  0.18120027478E+03  0.18425315787E+03  0.00000000000E+00 0.  1.
</event>
<event>
 7    1  0.6067783E-006  0.9826615E+02  0.7818608E-02  0.1445406E+00
          2   -1    0    0  502    0  0.00000000000E+00  0.00000000000E+00  0.15813427574E+04  0.15813427574E+04  0.00000000000E+00 0. -1.
          1   -1    0    0  501    0 -0.00000000000E+00 -0.00000000000E+00 -0.14469579809E+04  0.14469579809E+04  0.00000000000E+00 0. -1.
         25    2    1    2    0    0  0.87077863471E+02  0.46071752184E+02 -0.34537123848E+03  0.38027534736E+03  0.12499154683E+03 0.  0.
          2    1    1    2  501    0 -0.72461267176E+02 -0.66880049735E+02 -0.10817887131E+04  0.10862736285E+04  0.00000000000E+00 0. -1.
          1    1    1    2  502    0 -0.14616596295E+02  0.20808297551E+02  0.15615447280E+04  0.15617517625E+04  0.00000000000E+00 0. -1.
         22    1    3    3    0    0  0.97772389962E+02  0.58881022813E+02 -0.34520953756E+03  0.36358773344E+03  0.00000000000E+00 0.  1.
         22    1    3    3    0    0 -0.10694526491E+02 -0.12809270628E+02 -0.16170092173E+00  0.16687613912E+02  0.00000000000E+00 0.  1.
</event>
<event>
 7    1  0.6067783E-006  0.1138460E+03  0.7818608E-02  0.1391438E+00
          2   -1    0    0  502    0  0.00000000000E+00  0.00000000000E+00  0.46951868465E+03  0.46951868465E+03  0.00000000000E+00 0. -1.
          1   -1    0    0  501    0 -0.00000000000E+00 -0.00000000000E+00 -0.77287263388E+02  0.77287263388E+02  0.00000000000E+00 0. -1.
         25    2    1    2    0    0 -0.79435061091E+02  0.72454828432E+02  0.29785145675E+03  0.34044017816E+03  0.12499757406E+03 0.  0.
          2    1    1    2  501    0  0.10433520907E+03 -0.50378736812E+02  0.10750812885E+02  0.11635906906E+03  0.00000000000E+00 0. -1.
          1    1    1    2  502    0 -0.24900147984E+02 -0.22076091620E+02  0.83629151627E+02  0.90006700821E+02  0.00000000000E+00 0. -1.
         22    1    3    3    0    0 -0.46638674342E+02 -0.27198753568E+02  0.14778300676E+03  0.15733643961E+03  0.00000000000E+00 0. -1.
         22    1    3    3    0    0 -0.32796386749E+02  0.99653582000E+02  0.15006844999E+03  0.18310373855E+03  0.00000000000E+00 0. -1.
</event>
<event>
 7    1  0.6067783E-006  0.6465897E+02  0.7818608E-02  0.1470242E+00
          2   -1    0    0  502    0  0.00000000000E+00  0.00000000000E+00  0.15755160268E+04  0.15755160268E+04  0.00000000000E+00 0. -1.
          1   -1    0    0  501    0 -0.00000000000E+00 -0.00000000000E+00 -0.15810514074E+04  0.15810514074E+04  0.00000000000E+00 0. -1.
         25    2    1    2    0    0  0.10605670658E+02  0.59286841033E+02  0.65837226277E+02  0.15355516116E+03  0.12496894569E+03 0.  0.
          2    1    1    2  501    0 -0.41413223733E+02 -0.49755276423E+02 -0.15363333695E+04  0.15376966102E+04  0.00000000000E+00 0. -1.
          1    1    1    2  502    0  0.30807553075E+02 -0.95315646108E+01  0.14649607626E+04  0.14653156630E+04  0.00000000000E+00 0. -1.
         22    1    3    3    0    0  0.52813578929E+02  0.69566276502E+01  0.67888538902E+02  0.86293235551E+02  0.00000000000E+00 0. -1.
         22    1    3    3    0    0 -0.42207908272E+02  0.52330213383E+02 -0.20513126249E+01  0.67261925611E+02  0.00000000000E+00 0. -1.
</event>
<event>
 7    1  0.6067783E-006  0.6668544E+02  0.7818608E-02  0.1443316E+00
          2   -1    0    0  502    0  0.00000000000E+00  0.00000000000E+00  0.26973395531E+04  0.26973395531E+04  0.00000000000E+00 0. -1.
          1   -1    0    0  501    0 -0.00000000000E+00 -0.00000000000E+00 -0.40351841891E+03  0.40351841891E+03  0.00000000000E+00 0. -1.
         25    2    1    2    0    0  0.29808035563E+02 -0.32638904603E+01  0.60685003448E+02  0.14215159095E+03  0.12500093280E+03 0.  0.
          2    1    1    2  501    0 -0.67821793687E+02  0.14354898768E+01 -0.35947304655E+03  0.36581788847E+03  0.00000000000E+00 0. -1.
          1    1    1    2  502    0  0.38013758124E+02  0.18284005835E+01  0.25926091773E+04  0.25928884926E+04  0.00000000000E+00 0. -1.
         22    1    3    3    0    0  0.50565290710E+02  0.26204657087E+02  0.82328539407E+02  0.10010754756E+03  0.00000000000E+00 0.  1.
         22    1    3    3    0    0 -0.20757255148E+02 -0.29468547547E+02 -0.21643535959E+02  0.42044043391E+02  0.00000000000E+00 0.  1.
</event>
<event>
 7    1  0.6067783E-006  0.1070320E+03  0.7818608E-02  0.1302681E+00
          2   -1    0    0  502    0  0.00000000000E+00  0.00000000000E+00  0.12720336712E+04  0.12720336712E+04  0.00000000000E+00 0. -1.
          1   -1    0    0  501    0 -0.00000000000E+00 -0.00000000000E+00 -0.47955010759E+03  0.47955010759E+03  0.00000000000E+00 0. -1.
         25    2    1    2    0    0 -0.10671907160E+03  0.10699101409E+03  0.57165344790E+02  0.20426767553E+03  0.12498547629E+03 0.  0.
          2    1    1    2  501    0  0.75593496656E+02 -0.55454426224E+01 -0.39996543582E+03  0.40708411726E+03  0.00000000000E+00 0. -1.
          1    1    1    2  502    0  0.31125574940E+02 -0.10144557147E+03  0.11352836547E+04  0.11402319860E+04  0.00000000000E+00 0. -1.
         22    1    3    3    0    0 -0.70180495988E+02 -0.51471470752E+01  0.49583908470E+02  0.86083442771E+02  0.00000000000E+00 0. -1.
         22    1    3    3    0    0 -0.36538575608E+02  0.11213816116E+03  0.75814363199E+01  0.11818423276E+03  0.00000000000E+00 0. -1.
</event>
<event>
 7    1  0.6067783E-006  0.9757857E+02  0.7818608E-02  0.1289398E+00
          2   -1    0    0  502    0  0.00000000000E+00  0.00000000000E+00  0.17779824306E+03  0.17779824306E+03  0.00000000000E+00 0. -1.
          1   -1    0    0  501    0 -0.00000000000E+00 -0.00000000000E+00 -0.26896790880E+03  0.26896790880E+03  0.00000000000E+00 0. -1.
         25    2    1    2    0    0  0.98602197710E+01 -0.13190717462E+02 -0.11588108554E+03  0.17124314784E+03  0.12499828293E+03 0.  0.
          2    1    1    2  501    0 -0.35466268316E+02 -0.90905007099E+02 -0.79615967824E+02  0.12593759898E+03  0.00000000000E+00 0. -1.
          1    1    1    2  502    0  0.25606048545E+02  0.10409572456E+03  0.10432738762E+03  0.14958540504E+03  0.00000000000E+00 0. -1.
         22    1    3    3    0    0  0.29927948226E+02 -0.26566091968E+02 -0.13478514181E+03  0.14060040462E+03  0.00000000000E+00 0. -1.
         22    1    3    3    0    0 -0.20067728455E+02  0.13375374506E+02  0.18904056268E+02  0.30642743217E+02  0.00000000000E+00 0. -1.
</event>
<event>
 7    1  0.6067783E-006  0.1043833E+03  0.7818608E-02  0.1396959E+00
          2   -1    0    0  502    0  0.00000000000E+00  0.00000000000E+00  0.17587969927E+04  0.17587969927E+04  0.00000000000E+00 0. -1.
          1   -1    0    0  501    0 -0.00000000000E+00 -0.00000000000E+00 -0.52998114513E+03  0.52998114513E+03  0.00000000000E+00 0. -1.
         25    2    1    2    0    0 -0.74047432638E+02 -0.10828006801E+03  0.49777579499E+02  0.18791109067E+03  0.12500070067E+03 0.  0.
          2    1    1    2  501    0  0.72310193826E+02  0.73595185208E+02 -0.45495371452E+03  0.46650605331E+03  0.00000000000E+00 0. -1.
          1    1    1    2  502    0  0.17372388122E+01  0.34684882797E+02  0.16339919826E+04  0.16343609939E+04  0.00000000000E+00 0. -1.
         22    1    3    3    0    0 -0.21303788724E+02 -0.45005408765E+02  0.84849786125E+02  0.98381016653E+02  0.00000000000E+00 0. -1.
         22    1    3    3    0    0 -0.52743643915E+02 -0.63274659241E+02 -0.35072206626E+02  0.89530074014E+02  0.00000000000E+00 0. -1.
</event>
<event>
 7    1  0.6067783E-006  0.9619335E+02  0.7818608E-02  0.1452026E+00
          2   -1    0    0  502    0  0.00000000000E+00  0.00000000000E+00  0.15129753311E+03  0.15129753311E+03  0.00000000000E+00 0. -1.
          1   -1    0    0  501    0 -0.00000000000E+00 -0.00000000000E+00 -0.76688262019E+03  0.76688262019E+03  0.00000000000E+00 0. -1.
         25    2    1    2    0    0  0.54314138935E+02 -0.10115846774E+03  0.78280355159E+02  0.18691176885E+03  0.12500053619E+03 0.  0.
          2    1    1    2  501    0 -0.32127544581E+02  0.90216234224E+02 -0.69939393027E+03  0.70591997970E+03  0.00000000000E+00 0. -1.
          1    1    1    2  502    0 -0.22186594354E+02  0.10942233515E+02  0.55284880315E+01  0.25348404748E+02  0.00000000000E+00 0. -1.
         22    1    3    3    0    0 -0.78892764544E+01 -0.62324887491E+01 -0.29029226061E+02  0.30721011778E+02  0.00000000000E+00 0. -1.
         22    1    3    3    0    0  0.62203415390E+02 -0.94925978990E+02  0.10730958122E+03  0.15619075707E+03  0.00000000000E+00 0. -1.
</event>
<event>
 7    1  0.6067783E-006  0.1062989E+03  0.7818608E-02  0.1359229E+00
          2   -1    0    0  502    0  0.00000000000E+00  0.00000000000E+00  0.35240976715E+03  0.35240976715E+03  0.00000000000E+00 0. -1.
          1   -1    0    0  501    0 -0.00000000000E+00 -0.00000000000E+00 -0.25438278215E+04  0.25438278215E+04  0.00000000000E+00 0. -1.
         25    2    1    2    0    0  0.10152092087E+03 -0.10497711820E+03 -0.21704692425E+03  0.28993323597E+03  0.12500088509E+03 0.  0.
          2    1    1    2  501    0 -0.58639537139E+02  0.87167519060E+02 -0.22874197236E+04  0.22898309465E+04  0.00000000000E+00 0. -1.
          1    1    1    2  502    0 -0.42881383731E+02  0.17809599135E+02  0.31304859352E+03  0.31647340614E+03  0.00000000000E+00 0. -1.
         22    1    3    3    0    0 -0.27770306033E+02 -0.35366053098E+02 -0.42986274992E+02  0.62207454912E+02  0.00000000000E+00 0. -1.
         22    1    3    3    0    0  0.12929122690E+03 -0.69611065097E+02 -0.17406064925E+03  0.22772578106E+03  0.00000000000E+00 0. -1.
</event>
<event>
 7    1  0.6067783E-006  0.1190875E+03  0.7818608E-02  0.1275893E+00
          2   -1    0    0  502    0  0.00000000000E+00  0.00000000000E+00  0.29876298607E+04  0.29876298607E+04  0.00000000000E+00 0. -1.
          1   -1    0    0  501    0 -0.00000000000E+00 -0.00000000000E+00 -0.28161739415E+02  0.28161739415E+02  0.00000000000E+00 0. -1.
         25    2    1    2    0    0 -0.12028803082E+03 -0.94071651905E+02  0.68929430624E+03  0.71698620447E+03  0.12499556288E+03 0.  0.
          2    1    1    2  501    0  0.33962615864E+02  0.10881854637E+03  0.22948952806E+03  0.25624281219E+03  0.00000000000E+00 0. -1.
          1    1    1    2  502    0  0.86325414957E+02 -0.14746894466E+02  0.20406842870E+04  0.20425625835E+04  0.00000000000E+00 0. -1.
         22    1    3    3    0    0 -0.39821656325E+02 -0.29601891760E+02  0.49087339210E+03  0.49337483051E+03  0.00000000000E+00 0. -1.
         22    1    3    3    0    0 -0.80466374496E+02 -0.64469760145E+02  0.19842091414E+03  0.22361137396E+03  0.00000000000E+00 0. -1.
</event>
<event>
 7    1  0.6067783E-006  0.4949212E+02  0.7818608E-02  0.1503328E+00
          2   -1    0    0  502    0  0.00000000000E+00  0.00000000000E+00  0.20068281401E+02  0.20068281401E+02  0.00000000000E+00 0. -1.
          1   -1    0    0  501    0 -0.00000000000E+00 -0.00000000000E+00 -0.12785289136E+04  0.12785289136E+04  0.00000000000E+00 0. -1.
         25    2    1    2    0    0  0.43291777947E+02 -0.29950014038E+02 -0.59694261565E+03  0.61215816860E+03  0.12500382244E+03 0.  0.
          2    1    1    2  501    0 -0.50276260500E+02 -0.27348479933E+01 -0.64868665815E+03  0.65063781186E+03  0.00000000000E+00 0. -1.
          1    1    1    2  502    0  0.69844825523E+01  0.32684862031E+02 -0.12831358363E+02  0.35801214504E+02  0.00000000000E+00 0. -1.
         22    1    3    3    0    0  0.50933170884E+02 -0.67211003639E+02 -0.51448540874E+03  0.52135088253E+03  0.00000000000E+00 0.  1.
         22    1    3    3    0    0 -0.76413929364E+01  0.37260989601E+02 -0.82457206907E+02  0.90807286067E+02  0.00000000000E+00 0.  1.
</event>
<event>
 7    1  0.6067783E-006  0.6786380E+02  0.7818608E-02  0.1368810E+00
          2   -1    0    0  502    0  0.00000000000E+00  0.00000000000E+00  0.10640166594E+04  0.10640166594E+04  0.00000000000E+00 0. -1.
          1   -1    0    0  501    0 -0.00000000000E+00 -0.00000000000E+00 -0.12729919871E+04  0.12729919871E+04  0.00000000000E+00 0. -1.
         25    2    1    2    0    0 -0.91255139382E+02  0.36099464152E+02  0.57394974352E+03  0.59554379973E+03  0.12499374998E+03 0.  0.
          2    1    1    2  501    0  0.63137904509E+02  0.24865250533E+02 -0.12589256099E+04  0.12607530952E+04  0.00000000000E+00 0. -1.
          1    1    1    2  502    0  0.28117234872E+02 -0.60964714685E+02  0.47600053864E+03  0.48071175159E+03  0.00000000000E+00 0. -1.
         22    1    3    3    0    0 -0.59641758322E+02  0.64246390557E+02  0.51811276102E+03  0.52547651819E+03  0.00000000000E+00 0. -1.
         22    1    3    3    0    0 -0.31613381060E+02 -0.28146926406E+02  0.55836982505E+02  0.70067281547E+02  0.00000000000E+00 0. -1.
</event>
<event>
 7    1  0.6067783E-006  0.8763281E+02  0.7818608E-02  0.1388938E+00
          2   -1    0    0  502    0  0.00000000000E+00  0.00000000000E+00  0.11304724875E+04  0.11304724875E+04  0.00000000000E+00 0. -1.
          1   -1    0    0  501    0 -0.00000000000E+00 -0.00000000000E+00 -0.15896528274E+03  0.15896528274E+03  0.00000000000E+00 0. -1.
         25    2    1    2    0    0 -0.15359392338E+02  0.48139430659E+02  0.14026481653E+03  0.19455651381E+03  0.12499881036E+03 0.  0.
          2    1    1    2  501    0 -0.34250664182E+02  0.27792212832E+02 -0.12592476959E+03  0.13342624437E+03  0.00000000000E+00 0. -1.
          1    1    1    2  502    0  0.49610056521E+02 -0.75931643491E+02  0.95716715786E+03  0.96145501210E+03  0.00000000000E+00 0. -1.
         22    1    3    3    0    0 -0.34884379112E+02  0.24211381924E+02  0.15473186177E+03  0.16045267205E+03  0.00000000000E+00 0.  1.
         22    1    3    3    0    0  0.19524986773E+02  0.23928048735E+02 -0.14467045239E+02  0.34103841759E+02  0.00000000000E+00 0.  1.
</event>
<event>
 7    1  0.6067783E-006  0.6248543E+02  0.7818608E-02  0.1503621E+00
          2   -1    0    0  502    0  0.00000000000E+00  0.00000000000E+00  0.18059867860E+04  0.18059867860E+04  0.00000000000E+00 0. -1.
          1   -1    0    0  501    0 -0.00000000000E+00 -0.00000000000E+00 -0.70730381832E+03  0.70730381832E+03  0.00000000000E+00 0. -1.
         25    2    1    2    0    0  0.95325923030E+01 -0.60838814232E+02 -0.41207213792E+03  0.43499417454E+03  0.12499701357E+03 0.  0.
          2    1    1    2  501    0  0.16868610514E+02  0.61829251736E+02 -0.28005338506E+03  0.28729306444E+03  0.00000000000E+00 0. -1.
          1    1    1    2  502    0 -0.26401202817E+02 -0.99043750382E+00  0.17908084907E+04  0.17910033654E+04  0.00000000000E+00 0. -1.
         22    1    3    3    0    0  0.34773499422E+02 -0.77953293407E+02 -0.38456914308E+03  0.39392808738E+03  0.00000000000E+00 0.  1.
         22    1    3    3    0    0 -0.25240907119E+02  0.17114479175E+02 -0.27502994834E+02  0.41066087158E+02  0.00000000000E+00 0.  1.
</event>
<event>
 7    1  0.6067783E-006  0.8742474E+02  0.7818608E-02  0.1341532E+00
          2   -1    0    0  502    0  0.00000000000E+00  0.00000000000E+00  0.86634771536E+03  0.86634771536E+03  0.00000000000E+00 0. -1.
          1   -1    0    0  501    0 -0.00000000000E+00 -0.00000000000E+00 -0.29276149404E+03  0.29276149404E+03  0.00000000000E+00 0. -1.
         25    2    1    2    0    0 -0.17997818063E+02 -0.16069926582E+02  0.33676832841E+03  0.36002786237E+03  0.12499996269E+03 0.  0.
          2    1    1    2  501    0  0.49168743024E+02  0.73851072923E+02 -0.27196976321E+03  0.28607533687E+03  0.00000000000E+00 0. -1.
          1    1    1    2  502    0 -0.31170924960E+02 -0.57781146342E+02  0.50878765612E+03  0.51300601016E+03  0.00000000000E+00 0. -1.
         22    1    3    3    0    0 -0.33841368904E+02  0.39486899049E+02  0.25287368343E+03  0.25816574757E+03  0.00000000000E+00 0.  1.
         22    1    3    3    0    0  0.15843550840E+02 -0.55556825631E+02  0.83894644977E+02  0.10186211481E+03  0.00000000000E+00 0.  1.
</event>
<event>
 7    1  0.7717763E-006  0.1112653E+03  0.7818608E-02  0.1353889E+00
          2   -1    0    0  502    0  0.00000000000E+00  0.00000000000E+00  0.16159074017E+04  0.16159074017E+04  0.00000000000E+00 0. -1.
          1   -1    0    0  501    0 -0.00000000000E+00 -0.00000000000E+00 -0.89617259335E+03  0.89617259335E+03  0.00000000000E+00 0. -1.
         25    2    1    2    0    0  0.44086384156E+02 -0.88946957826E+02 -0.13517375124E+03  0.20917053754E+03  0.12500080071E+03 0.  0.
          2    1    1    2  501    0  0.42484699659E+02  0.18671344394E+02 -0.72128521501E+03  0.72277654237E+03  0.00000000000E+00 0. -1.
          1    1    1    2  502    0 -0.86571083815E+02  0.70275613432E+02  0.15761937746E+04  0.15801329151E+04  0.00000000000E+00 0. -1.
         22    1    3    3    0    0 -0.74851521703E+00  0.31121334739E+02 -0.21255054980E+02  0.37694497121E+02  0.00000000000E+00 0.  1.
         22    1    3    3    0    0  0.44834899373E+02 -0.12006829257E+03 -0.11391869626E+03  0.17147604042E+03  0.00000000000E+00 0.  1.
</event>
<event>
 7    1  0.6067783E-006  0.2457819E+03  0.7818608E-02  0.1295061E+00
          2   -1    0    0  502    0  0.00000000000E+00  0.00000000000E+00  0.13759450536E+04  0.13759450536E+04  0.00000000000E+00 0. -1.
          1   -1    0    0  501    0 -0.00000000000E+00 -0.00000000000E+00 -0.33284885413E+03  0.33284885413E+03  0.00000000000E+00 0. -1.
         25    2    1    2    0    0  0.46576245783E+02 -0.23606216353E+03  0.26472055279E+03  0.37894251414E+03  0.12500306491E+03 0.  0.
          2    1    1    2  501    0 -0.12798380214E+02  0.24670181643E+03 -0.22003152303E+03  0.33081634768E+03  0.00000000000E+00 0. -1.
          1    1    1    2  502    0 -0.33777865569E+02 -0.10639652902E+02  0.99840716975E+03  0.99903504595E+03  0.00000000000E+00 0. -1.
         22    1    3    3    0    0  0.86355103862E+01 -0.17194831811E+02 -0.13069548245E+02  0.23260425017E+02  0.00000000000E+00 0.  1.
         22    1    3    3    0    0  0.37940735397E+02 -0.21886733172E+03  0.27779010103E+03  0.35568208913E+03  0.00000000000E+00 0.  1.
</event>
<event>
 7    1  0.6067783E-006  0.3032202E+02  0.7818608E-02  0.1601350E+00
          2   -1    0    0  502    0  0.00000000000E+00  0.00000000000E+00  0.16089035635E+03  0.16089035635E+03  0.00000000000E+00 0. -1.
          1   -1    0    0  501    0 -0.00000000000E+00 -0.00000000000E+00 -0.44445028220E+03  0.44445028220E+03  0.00000000000E+00 0. -1.
         25    2    1    2    0    0  0.45521565001E+02  0.37968477479E+02  0.70675503757E+02  0.15535391444E+03  0.12500397489E+03 0.  0.
          2    1    1    2  501    0 -0.23338644432E+02 -0.19127469260E+02 -0.39706180478E+03  0.39820676692E+03  0.00000000000E+00 0. -1.
          1    1    1    2  502    0 -0.22182920569E+02 -0.18841008219E+02  0.42826375181E+02  0.51779957193E+02  0.00000000000E+00 0. -1.
         22    1    3    3    0    0  0.67529753481E+02  0.62730636754E+02  0.19215582409E+02  0.94152211871E+02  0.00000000000E+00 0. -1.
         22    1    3    3    0    0 -0.22008188480E+02 -0.24762159275E+02  0.51459921348E+02  0.61201702569E+02  0.00000000000E+00 0. -1.
</event>
<event>
 7    1  0.6067783E-006  0.6899092E+02  0.7818608E-02  0.1483578E+00
          2   -1    0    0  502    0  0.00000000000E+00  0.00000000000E+00  0.20163769907E+04  0.20163769907E+04  0.00000000000E+00 0. -1.
          1   -1    0    0  501    0 -0.00000000000E+00 -0.00000000000E+00 -0.15946448883E+02  0.15946448883E+02  0.00000000000E+00 0. -1.
         25    2    1    2    0    0  0.44465698999E+02  0.24541884688E+02  0.10483881288E+04  0.10570349301E+04  0.12500268965E+03 0.  0.
          2    1    1    2  501    0  0.13612960195E+02  0.23888876096E+02  0.85837791596E+01  0.28804033590E+02  0.00000000000E+00 0. -1.
          1    1    1    2  502    0 -0.58078659194E+02 -0.48430760784E+02  0.94345863387E+03  0.94648447587E+03  0.00000000000E+00 0. -1.
         22    1    3    3    0    0  0.56631106020E+02  0.19335794493E+02  0.20531363748E+03  0.21385659881E+03  0.00000000000E+00 0.  1.
         22    1    3    3    0    0 -0.12165407020E+02  0.52060901951E+01  0.84307449133E+03  0.84317833134E+03  0.00000000000E+00 0.  1.
</event>
<event>
 7    1  0.6067783E-006  0.3399119E+02  0.7818608E-02  0.1632946E+00
          2   -1    0    0  502    0  0.00000000000E+00  0.00000000000E+00  0.50978533784E+03  0.50978533784E+03  0.00000000000E+00 0. -1.
          1   -1    0    0  501    0 -0.00000000000E+00 -0.00000000000E+00 -0.24855335482E+03  0.24855335482E+03  0.00000000000E+00 0. -1.
         25    2    1    2    0    0  0.45004701611E+02  0.41856712888E+01  0.13872441217E+03  0.19212758120E+03  0.12500240763E+03 0.  0.
          2    1    1    2  501    0 -0.16467892168E+02  0.13910410514E+02 -0.22049594240E+03  0.22154717693E+03  0.00000000000E+00 0. -1.
          1    1    1    2  502    0 -0.28536809443E+02 -0.18096081803E+02  0.34300351324E+03  0.34466393453E+03  0.00000000000E+00 0. -1.
         22    1    3    3    0    0  0.29029967443E+02 -0.59103940344E+02  0.53901680534E+02  0.85096450797E+02  0.00000000000E+00 0.  1.
         22    1    3    3    0    0  0.15974734168E+02  0.63289611633E+02  0.84822731639E+02  0.10703113040E+03  0.00000000000E+00 0.  1.
</event>
<event>
 7    1  0.6067783E-006  0.9110784E+02  0.7818608E-02  0.1393812E+00
          2   -1    0    0  502    0  0.00000000000E+00  0.00000000000E+00  0.78269434460E+02  0.78269434460E+02  0.00000000000E+00 0. -1.
          1   -1    0    0  501    0 -0.00000000000E+00 -0.00000000000E+00 -0.19289580792E+04  0.19289580792E+04  0.00000000000E+00 0. -1.
         25    2    1    2    0    0 -0.46573787181E+02 -0.28910879072E+02 -0.30331459898E+03  0.33261015130E+03  0.12499924084E+03 0.  0.
          2    1    1    2  501    0  0.85995124725E+02  0.39425725255E+02 -0.16029134700E+04  0.16057026941E+04  0.00000000000E+00 0. -1.
          1    1    1    2  502    0 -0.39421337544E+02 -0.10514846183E+02  0.55539424332E+02  0.68914668244E+02  0.00000000000E+00 0. -1.
         22    1    3    3    0    0 -0.54493104397E+02 -0.25195173360E+02 -0.47258279782E+02  0.76404451411E+02  0.00000000000E+00 0. -1.
         22    1    3    3    0    0  0.79193172161E+01 -0.37157057124E+01 -0.25605631919E+03  0.25620569988E+03  0.00000000000E+00 0. -1.
</event>
<event>
 7    1  0.6067783E-006  0.3419120E+02  0.7818608E-02  0.1637768E+00
          2   -1    0    0  502    0  0.00000000000E+00  0.00000000000E+00  0.25377290920E+03  0.25377290920E+03  0.00000000000E+00 0. -1.
          1   -1    0    0  501    0 -0.00000000000E+00 -0.00000000000E+00 -0.18709895456E+03  0.18709895456E+03  0.00000000000E+00 0. -1.
         25    2    1    2    0    0  0.36020616779E+02 -0.96587118208E+01  0.15606251567E+03  0.20339966635E+03  0.12500055970E+03 0.  0.
          2    1    1    2  501    0 -0.32447240115E+02 -0.10877108272E+02 -0.16011849196E+03  0.16373474385E+03  0.00000000000E+00 0. -1.
          1    1    1    2  502    0 -0.35733766639E+01  0.20535820093E+02  0.70729930931E+02  0.73737453558E+02  0.00000000000E+00 0. -1.
         22    1    3    3    0    0 -0.16151282160E+02  0.18100930945E+02 -0.10671143798E+02  0.26502470195E+02  0.00000000000E+00 0.  1.
         22    1    3    3    0    0  0.52171898939E+02 -0.27759642765E+02  0.16673365947E+03  0.17689719615E+03  0.00000000000E+00 0.  1.
</event>
<event>
 7    1  0.6067783E-006  0.1021059E+03  0.7818608E-02  0.1366950E+00
          2   -1    0    0  502    0  0.00000000000E+00  0.00000000000E+00  0.31111411123E+03  0.31111411123E+03  0.00000000000E+00 0. -1.
          1   -1    0    0  501    0 -0.00000000000E+00 -0.00000000000E+00 -0.76317137644E+03  0.76317137644E+03  0.00000000000E+00 0. -1.
         25    2    1    2    0    0  0.11087643972E+03 -0.67768700222E+02  0.10048945445E+03  0.20641737237E+03  0.12499527809E+03 0.  0.
          2    1    1    2  501    0 -0.45291686033E+02 -0.14942558969E+01 -0.69497394488E+03  0.69644982137E+03  0.00000000000E+00 0. -1.
          1    1    1    2  502    0 -0.65584753686E+02  0.69262956119E+02  0.14242722522E+03  0.17141829392E+03  0.00000000000E+00 0. -1.
         22    1    3    3    0    0  0.12816866179E+03 -0.29768669655E+02  0.98959002615E+02  0.16463980004E+03  0.00000000000E+00 0.  1.
         22    1    3    3    0    0 -0.17292222067E+02 -0.38000030567E+02  0.15304518318E+01  0.41777572331E+02  0.00000000000E+00 0.  1.
</event>
<event>
 7    1  0.6067783E-006  0.8414465E+02  0.7818608E-02  0.1392169E+00
          2   -1    0    0  502    0  0.00000000000E+00  0.00000000000E+00  0.17672379533E+04  0.17672379533E+04  0.00000000000E+00 0. -1.
          1   -1    0    0  501    0 -0.00000000000E+00 -0.00000000000E+00 -0.56659663809E+02  0.56659663809E+02  0.00000000000E+00 0. -1.
         25    2    1    2    0    0  0.13578265917E+02  0.71296964799E+02  0.58873527890E+03  0.60621838471E+03  0.12499549926E+03 0.  0.
          2    1    1    2  501    0 -0.57608338615E+02 -0.63244976768E+02 -0.89361360308E+01  0.86014546976E+02  0.00000000000E+00 0. -1.
          1    1    1    2  502    0  0.44030072698E+02 -0.80519880304E+01  0.11307791466E+04  0.11316646854E+04  0.00000000000E+00 0. -1.
         22    1    3    3    0    0  0.58807996877E+02  0.79129876393E+02  0.40877910176E+03  0.42050002600E+03  0.00000000000E+00 0.  1.
         22    1    3    3    0    0 -0.45229730960E+02 -0.78329115938E+01  0.17995617714E+03  0.18571835870E+03  0.00000000000E+00 0.  1.
</event>
<event>
 7    1  0.6067783E-006  0.6897140E+02  0.7818608E-02  0.1447153E+00
          2   -1    0    0  502    0  0.00000000000E+00  0.00000000000E+00  0.42304056460E+03  0.42304056460E+03  0.00000000000E+00 0. -1.
          1   -1    0    0  501    0 -0.00000000000E+00 -0.00000000000E+00 -0.39672041385E+03  0.39672041385E+03  0.00000000000E+00 0. -1.
         25    2    1    2    0    0 -0.31859147668E+02  0.43601334937E+02 -0.30790165932E+02  0.13960294906E+03  0.12499946948E+03 0.  0.
          2    1    1    2  501    0  0.64422379342E+02 -0.28813163003E+02 -0.30663877247E+03  0.31465501443E+03  0.00000000000E+00 0. -1.
          1    1    1    2  502    0 -0.32563231673E+02 -0.14788171934E+02  0.36374908915E+03  0.36550301496E+03  0.00000000000E+00 0. -1.
         22    1    3    3    0    0 -0.56926639663E+02  0.52631289523E+02 -0.61490103435E+02  0.98953159427E+02  0.00000000000E+00 0. -1.
         22    1    3    3    0    0  0.25067491994E+02 -0.90299545855E+01  0.30699937503E+02  0.40649789635E+02  0.00000000000E+00 0. -1.
</event>
<event>
 7    1  0.6067783E-006  0.6512702E+02  0.7818608E-02  0.1377931E+00
          2   -1    0    0  502    0  0.00000000000E+00  0.00000000000E+00  0.93457831524E+03  0.93457831524E+03  0.00000000000E+00 0. -1.
          1   -1    0    0  501    0 -0.00000000000E+00 -0.00000000000E+00 -0.14667265838E+03  0.14667265838E+03  0.00000000000E+00 0. -1.
         25    2    1    2    0    0  0.38474977368E+02  0.35207827090E+02  0.11221302076E+03  0.17588787215E+03  0.12499946628E+03 0.  0.
          2    1    1    2  501    0  0.19013136450E+02 -0.65314912427E+02 -0.10329196010E+03  0.12368009607E+03  0.00000000000E+00 0. -1.
          1    1    1    2  502    0 -0.57488113817E+02  0.30107085337E+02  0.77898459619E+03  0.78168300540E+03  0.00000000000E+00 0. -1.
         22    1    3    3    0    0  0.82311842608E+02  0.20539325662E+02  0.50316524484E+02  0.98634963214E+02  0.00000000000E+00 0.  1.
         22    1    3    3    0    0 -0.43836865240E+02  0.14668501428E+02  0.61896496277E+02  0.77252908939E+02  0.00000000000E+00 0.  1.
</event>
<event>
 7    1  0.6067783E-006  0.8395735E+02  0.7818608E-02  0.1444342E+00
          2   -1    0    0  502    0  0.00000000000E+00  0.00000000000E+00  0.19940529561E+03  0.19940529561E+03  0.00000000000E+00 0. -1.
          1   -1    0    0  501    0 -0.00000000000E+00 -0.00000000000E+00 -0.12823341572E+04  0.12823341572E+04  0.00000000000E+00 0. -1.
         25    2    1    2    0    0 -0.76785999476E+02 -0.77757880562E+02 -0.55912818270E+03  0.58325941672E+03  0.12499937920E+03 0.  0.
          2    1    1    2  501    0  0.56498617316E+02  0.55659299725E+02 -0.70771002060E+03  0.71214010185E+03  0.00000000000E+00 0. -1.
          1    1    1    2  502    0  0.20287382160E+02  0.22098580837E+02  0.18390934167E+03  0.18633993427E+03  0.00000000000E+00 0. -1.
         22    1    3    3    0    0 -0.29865910152E+02 -0.24902654779E+02 -0.45930972210E+03  0.46095285618E+03  0.00000000000E+00 0. -1.
         22    1    3    3    0    0 -0.46920089324E+02 -0.52855225783E+02 -0.99818460595E+02  0.12230656054E+03  0.00000000000E+00 0. -1.
</event>
<event>
 7    1  0.6067783E-006  0.1404029E+03  0.7818608E-02  0.1324121E+00
          2   -1    0    0  502    0  0.00000000000E+00  0.00000000000E+00  0.99154538823E+03  0.99154538823E+03  0.00000000000E+00 0. -1.
          1   -1    0    0  501    0 -0.00000000000E+00 -0.00000000000E+00 -0.10792273745E+04  0.10792273745E+04  0.00000000000E+00 0. -1.
         25    2    1    2    0    0 -0.18408055935E+03 -0.20761566720E+02 -0.66348510904E+02  0.23311728786E+03  0.12499940007E+03 0.  0.
          2    1    1    2  501    0  0.45402451880E+02  0.14344600169E+02 -0.92357216101E+03  0.92479872771E+03  0.00000000000E+00 0. -1.
          1    1    1    2  502    0  0.13867810747E+03  0.64169665504E+01  0.90223868564E+03  0.91285674715E+03  0.00000000000E+00 0. -1.
         22    1    3    3    0    0 -0.33276621186E+01  0.56377071198E+00  0.27936154023E+02  0.28139294131E+02  0.00000000000E+00 0. -1.
         22    1    3    3    0    0 -0.18075289723E+03 -0.21325337432E+02 -0.94284664927E+02  0.20497799373E+03  0.00000000000E+00 0. -1.
</event>
<event>
 7    1  0.6067783E-006  0.1216387E+03  0.7818608E-02  0.1295261E+00
          2   -1    0    0  502    0  0.00000000000E+00  0.00000000000E+00  0.26450328107E+04  0.26450328107E+04  0.00000000000E+00 0. -1.
          1   -1    0    0  501    0 -0.00000000000E+00 -0.00000000000E+00 -0.49066665024E+03  0.49066665024E+03  0.00000000000E+00 0. -1.
         25    2    1    2    0    0  0.45967396593E+02 -0.18268658511E+03  0.49637197948E+03  0.54543521429E+03  0.12500816393E+03 0.  0.
          2    1    1    2  501    0 -0.22264261967E+02  0.67865770349E+02 -0.46176955646E+03  0.46726072317E+03  0.00000000000E+00 0. -1.
          1    1    1    2  502    0 -0.23703134625E+02  0.11482081476E+03  0.21197637375E+04  0.21230035235E+04  0.00000000000E+00 0. -1.
         22    1    3    3    0    0  0.77816285238E+02 -0.17751105637E+03  0.42552849644E+03  0.46758961779E+03  0.00000000000E+00 0.  1.
         22    1    3    3    0    0 -0.31848888646E+02 -0.51755287373E+01  0.70843483037E+02  0.77845596500E+02  0.00000000000E+00 0.  1.
</event>
<event>
 7    1  0.6067783E-006  0.8956953E+02  0.7818608E-02  0.1369260E+00
          2   -1    0    0  502    0  0.00000000000E+00  0.00000000000E+00  0.12728953302E+04  0.12728953302E+04  0.00000000000E+00 0. -1.
          1   -1    0    0  501    0 -0.00000000000E+00 -0.00000000000E+00 -0.36583962877E+03  0.36583962877E+03  0.00000000000E+00 0. -1.
         25    2    1    2    0    0  0.30026049666E+02 -0.65710548862E+02  0.67709629809E+02  0.15946490694E+03  0.12500009075E+03 0.  0.
          2    1    1    2  501    0 -0.77535432249E+02  0.48073121280E+02 -0.31289076004E+03  0.32591930897E+03  0.00000000000E+00 0. -1.
          1    1    1    2  502    0  0.47509382584E+02  0.17637427582E+02  0.11522368316E+04  0.11533507430E+04  0.00000000000E+00 0. -1.
         22    1    3    3    0    0 -0.85306210622E+01 -0.75730312870E+02 -0.51949156150E+01  0.76386117399E+02  0.00000000000E+00 0.  1.
         22    1    3    3    0    0  0.38556670728E+02  0.10019764008E+02  0.72904545424E+02  0.83078789543E+02  0.00000000000E+00 0.  1.
</event>
<event>
 7    1  0.6067783E-006  0.7274394E+02  0.7818608E-02  0.1452461E+00
          2   -1    0    0  502    0  0.00000000000E+00  0.00000000000E+00  0.18969716753E+03  0.18969716753E+03  0.00000000000E+00 0. -1.
          1   -1    0    0  501    0 -0.00000000000E+00 -0.00000000000E+00 -0.13550606250E+04  0.13550606250E+04  0.00000000000E+00 0. -1.
         25    2    1    2    0    0  0.37069537543E+01  0.58259822272E+02  0.13172825280E+02  0.13858830814E+03  0.12500098971E+03 0.  0.
          2    1    1    2  501    0  0.27525836110E+02 -0.67630940621E+02 -0.12889626575E+04  0.12910291818E+04  0.00000000000E+00 0. -1.
          1    1    1    2  502    0 -0.31232789864E+02  0.93711183493E+01  0.11042637480E+03  0.11514030256E+03  0.00000000000E+00 0. -1.
         22    1    3    3    0    0  0.55822184448E+02  0.39405332088E+01  0.26866560162E+02  0.62076212300E+02  0.00000000000E+00 0. -1.
         22    1    3    3    0    0 -0.52115230694E+02  0.54319289063E+02 -0.13693734882E+02  0.76512095839E+02  0.00000000000E+00 0. -1.
</event>
<event>
 7    1  0.6067783E-006  0.1104154E+03  0.7818608E-02  0.1291724E+00
          2   -1    0    0  502    0  0.00000000000E+00  0.00000000000E+00  0.32859579758E+03  0.32859579758E+03  0.00000000000E+00 0. -1.
          1   -1    0    0  501    0 -0.00000000000E+00 -0.00000000000E+00 -0.12225766693E+04  0.12225766693E+04  0.00000000000E+00 0. -1.
         25    2    1    2    0    0 -0.84329864930E+02 -0.99269702413E+02 -0.47432521946E+03  0.50751876897E+03  0.12499954842E+03 0.  0.
          2    1    1    2  501    0 -0.24109273482E+02  0.77663021894E+02 -0.71949537409E+03  0.72407623589E+03  0.00000000000E+00 0. -1.
          1    1    1    2  502    0  0.10843913841E+03  0.21606680519E+02  0.29983972188E+03  0.31957746197E+03  0.00000000000E+00 0. -1.
         22    1    3    3    0    0 -0.10392159897E+03 -0.34272221497E+02 -0.24435523051E+03  0.26773823518E+03  0.00000000000E+00 0.  1.
         22    1    3    3    0    0  0.19591734040E+02 -0.64997480917E+02 -0.22996998895E+03  0.23978053379E+03  0.00000000000E+00 0.  1.
</event>
<event>
 7    1  0.6067783E-006  0.8200230E+02  0.7818608E-02  0.1357263E+00
          2   -1    0    0  502    0  0.00000000000E+00  0.00000000000E+00  0.17891493795E+03  0.17891493795E+03  0.00000000000E+00 0. -1.
          1   -1    0    0  501    0 -0.00000000000E+00 -0.00000000000E+00 -0.99006958663E+03  0.99006958663E+03  0.00000000000E+00 0. -1.
         25    2    1    2    0    0 -0.43878118587E+02  0.81836402939E+01 -0.22224938143E+03  0.25886635813E+03  0.12499897026E+03 0.  0.
          2    1    1    2  501    0  0.77826063144E+02  0.42732354911E+02 -0.74093427343E+03  0.74623491463E+03  0.00000000000E+00 0. -1.
          1    1    1    2  502    0 -0.33947944557E+02 -0.50915995205E+02  0.15202900619E+03  0.16388325183E+03  0.00000000000E+00 0. -1.
         22    1    3    3    0    0 -0.80141139282E+02  0.14302756465E+02 -0.19987906728E+03  0.21582125147E+03  0.00000000000E+00 0.  1.
         22    1    3    3    0    0  0.36263020695E+02 -0.61191161713E+01 -0.22370314150E+02  0.43045106665E+02  0.00000000000E+00 0.  1.
</event>
<event>
 7    1  0.6067783E-006  0.5946483E+02  0.7818608E-02  0.1416009E+00
          2   -1    0    0  502    0  0.00000000000E+00  0.00000000000E+00  0.16500615051E+04  0.16500615051E+04  0.00000000000E+00 0. -1.
          1   -1    0    0  501    0 -0.00000000000E+00 -0.00000000000E+00 -0.35503260765E+03  0.35503260765E+03  0.00000000000E+00 0. -1.
         25    2    1    2    0    0  0.49457188411E+02 -0.89979935756E+02  0.44675014222E+02  0.16781569160E+03  0.12499538842E+03 0.  0.
          2    1    1    2  501    0 -0.38342510060E+01  0.52360303897E+02 -0.29054252750E+03  0.29524779964E+03  0.00000000000E+00 0. -1.
          1    1    1    2  502    0 -0.45622937405E+02  0.37619631859E+02  0.15408964107E+04  0.15420306215E+04  0.00000000000E+00 0. -1.
         22    1    3    3    0    0  0.19917027971E+01  0.23443923406E+02 -0.18172942480E+02  0.29729451106E+02  0.00000000000E+00 0. -1.
         22    1    3    3    0    0  0.47465485613E+02 -0.11342385916E+03  0.62847956702E+02  0.13808624049E+03  0.00000000000E+00 0. -1.
</event>
<event>
 7    1  0.6067783E-006  0.2047720E+03  0.7818608E-02  0.1245026E+00
          2   -1    0    0  502    0  0.00000000000E+00  0.00000000000E+00  0.28819605280E+04  0.28819605280E+04  0.00000000000E+00 0. -1.
          1   -1    0    0  501    0 -0.00000000000E+00 -0.00000000000E+00 -0.10376635195E+04  0.10376635195E+04  0.00000000000E+00 0. -1.
         25    2    1    2    0    0 -0.20400155104E+03  0.17133537596E+03  0.18025934200E+03  0.34509501469E+03  0.12499877961E+03 0.  0.
          2    1    1    2  501    0  0.16825292526E+03 -0.11235689760E+03 -0.94407200145E+03  0.96550767124E+03  0.00000000000E+00 0. -1.
          1    1    1    2  502    0  0.35748625783E+02 -0.58978478358E+02  0.26081096679E+04  0.26090213615E+04  0.00000000000E+00 0. -1.
         22    1    3    3    0    0 -0.19399940979E+03  0.96613694887E+02  0.15140459161E+03  0.26437346198E+03  0.00000000000E+00 0. -1.
         22    1    3    3    0    0 -0.10002141251E+02  0.74721681072E+02  0.28854750389E+02  0.80721552710E+02  0.00000000000E+00 0. -1.
</event>
<event>
 7    1  0.6067783E-006  0.9011074E+02  0.7818608E-02  0.1328938E+00
          2   -1    0    0  502    0  0.00000000000E+00  0.00000000000E+00  0.12790379873E+04  0.12790379873E+04  0.00000000000E+00 0. -1.
          1   -1    0    0  501    0 -0.00000000000E+00 -0.00000000000E+00 -0.29328603557E+03  0.29328603557E+03  0.00000000000E+00 0. -1.
         25    2    1    2    0    0 -0.11152670663E+03 -0.54032635427E+02  0.65010011330E+02  0.18764130420E+03  0.12500090193E+03 0.  0.
          2    1    1    2  501    0  0.66969630255E+02 -0.23865348554E+02 -0.22472654033E+03  0.23570427270E+03  0.00000000000E+00 0. -1.
          1    1    1    2  502    0  0.44557076374E+02  0.77897983981E+02  0.11454684807E+04  0.11489784460E+04  0.00000000000E+00 0. -1.
         22    1    3    3    0    0 -0.99561096229E+01  0.35454199633E+02 -0.14179094829E+01  0.36852881268E+02  0.00000000000E+00 0. -1.
         22    1    3    3    0    0 -0.10157059701E+03 -0.89486835060E+02  0.66427920813E+02  0.15078842293E+03  0.00000000000E+00 0. -1.
</event>
<event>
 7    1  0.6067783E-006  0.1663054E+03  0.7818608E-02  0.1349062E+00
          2   -1    0    0  502    0  0.00000000000E+00  0.00000000000E+00  0.62486847037E+03  0.62486847037E+03  0.00000000000E+00 0. -1.
          1   -1    0    0  501    0 -0.00000000000E+00 -0.00000000000E+00 -0.22326523441E+04  0.22326523441E+04  0.00000000000E+00 0. -1.
         25    2    1    2    0    0  0.19478361969E+03  0.19870299542E+02 -0.51683106126E+02  0.23797124370E+03  0.12499472815E+03 0.  0.
          2    1    1    2  501    0 -0.32342102498E+02  0.73095766446E+00 -0.20750901088E+04  0.20753422623E+04  0.00000000000E+00 0. -1.
          1    1    1    2  502    0 -0.16244151720E+03 -0.20601257206E+02  0.51898934122E+03  0.54420730848E+03  0.00000000000E+00 0. -1.
         22    1    3    3    0    0  0.14428453316E+03  0.37890935508E+02  0.17767598796E+02  0.15023127860E+03  0.00000000000E+00 0. -1.
         22    1    3    3    0    0  0.50499086534E+02 -0.18020635966E+02 -0.69450704923E+02  0.87739965100E+02  0.00000000000E+00 0. -1.
</event>
<event>
 7    1  0.6067783E-006  0.9144531E+02  0.7818608E-02  0.1314021E+00
          2   -1    0    0  502    0  0.00000000000E+00  0.00000000000E+00  0.16564334700E+03  0.16564334700E+03  0.00000000000E+00 0. -1.
          1   -1    0    0  501    0 -0.00000000000E+00 -0.00000000000E+00 -0.17523470393E+04  0.17523470393E+04  0.00000000000E+00 0. -1.
         25    2    1    2    0    0  0.54916358638E+00 -0.11395295782E+03 -0.13925295686E+04  0.14027677135E+04  0.12503231753E+03 0.  0.
          2    1    1    2  501    0 -0.58902373250E+02  0.59198106070E+02 -0.33933901991E+03  0.34946369735E+03  0.00000000000E+00 0. -1.
          1    1    1    2  502    0  0.58353209664E+02  0.54754851750E+02  0.14516489618E+03  0.16575897548E+03  0.00000000000E+00 0. -1.
         22    1    3    3    0    0  0.29906674830E+02 -0.11353450283E+03 -0.13084944243E+04  0.13137511754E+04  0.00000000000E+00 0.  1.
         22    1    3    3    0    0 -0.29357511244E+02 -0.41845499095E+00 -0.84035144300E+02  0.89016538062E+02  0.00000000000E+00 0.  1.
</event>
<event>
 7    1  0.6067783E-006  0.1796972E+03  0.7818608E-02  0.1388850E+00
          2   -1    0    0  502    0  0.00000000000E+00  0.00000000000E+00  0.56588844742E+03  0.56588844742E+03  0.00000000000E+00 0. -1.
          1   -1    0    0  501    0 -0.00000000000E+00 -0.00000000000E+00 -0.35187598472E+03  0.35187598472E+03  0.00000000000E+00 0. -1.
         25    2    1    2    0    0 -0.11049055926E+03  0.16503958604E+03 -0.71807222087E+02  0.24540430497E+03  0.12498306728E+03 0.  0.
          2    1    1    2  501    0  0.15780188056E+02 -0.14640032329E+02 -0.17610790198E+03  0.17741853911E+03  0.00000000000E+00 0. -1.
          1    1    1    2  502    0  0.94710371207E+02 -0.15039955372E+03  0.46192758677E+03  0.49494158806E+03  0.00000000000E+00 0. -1.
         22    1    3    3    0    0 -0.10777553239E+03  0.50219182635E+02 -0.47312993072E+02  0.12796894545E+03  0.00000000000E+00 0.  1.
         22    1    3    3    0    0 -0.27150268700E+01  0.11482040341E+03 -0.24494229015E+02  0.11743535952E+03  0.00000000000E+00 0.  1.
</event>
<event>
 7    1  0.6067783E-006  0.4652068E+02  0.7818608E-02  0.1562915E+00
          2   -1    0    0  502    0  0.00000000000E+00  0.00000000000E+00  0.76422242227E+03  0.76422242227E+03  0.00000000000E+00 0. -1.
          1   -1    0    0  501    0 -0.00000000000E+00 -0.00000000000E+00 -0.10167243622E+03  0.10167243622E+03  0.00000000000E+00 0. -1.
         25    2    1    2    0    0  0.20157364161E+01 -0.28233497480E+02  0.26832064640E+02  0.13094286701E+03  0.12499952462E+03 0.  0.
          2    1    1    2  501    0  0.11238397532E+02  0.48284977263E+02 -0.36965034395E+02  0.61839747543E+02  0.00000000000E+00 0. -1.
          1    1    1    2  502    0 -0.13254133948E+02 -0.20051479783E+02  0.67268295581E+03  0.67311224394E+03  0.00000000000E+00 0. -1.
         22    1    3    3    0    0 -0.99688952775E+01 -0.24482416122E+02 -0.48143301561E+02  0.54923083102E+02  0.00000000000E+00 0. -1.
         22    1    3    3    0    0  0.11984631694E+02 -0.37510813587E+01  0.74975366201E+02  0.76019783907E+02  0.00000000000E+00 0. -1.
</event>
<event>
 7    1  0.6067783E-006  0.5011052E+02  0.7818608E-02  0.1486936E+00
          2   -1    0    0  502    0  0.00000000000E+00  0.00000000000E+00  0.37722279674E+03  0.37722279674E+03  0.00000000000E+00 0. -1.
          1   -1    0    0  501    0 -0.00000000000E+00 -0.00000000000E+00 -0.13104615731E+03  0.13104615731E+03  0.00000000000E+00 0. -1.
         25    2    1    2    0    0 -0.55989071780E+02 -0.42290068740E+02  0.88869325619E+02  0.16865926154E+03  0.12499985358E+03 0.  0.
          2    1    1    2  501    0  0.49158267178E+02  0.59525547838E+01 -0.82905741093E+02  0.96567748480E+02  0.00000000000E+00 0. -1.
          1    1    1    2  502    0  0.68308046022E+01  0.36337513956E+02  0.24021305491E+03  0.24304194403E+03  0.00000000000E+00 0. -1.
         22    1    3    3    0    0 -0.93149806118E+02 -0.43590079170E+02  0.80353533606E+02  0.13051310947E+03  0.00000000000E+00 0.  1.
         22    1    3    3    0    0  0.37160734338E+02  0.13000104300E+01  0.85157920130E+01  0.38146152064E+02  0.00000000000E+00 0.  1.
</event>
<event>
 7    1  0.6067783E-006  0.9931529E+02  0.7818608E-02  0.1388438E+00
          2   -1    0    0  502    0  0.00000000000E+00  0.00000000000E+00  0.57502993857E+03  0.57502993857E+03  0.00000000000E+00 0. -1.
          1   -1    0    0  501    0 -0.00000000000E+00 -0.00000000000E+00 -0.18146286770E+04  0.18146286770E+04  0.00000000000E+00 0. -1.
         25    2    1    2    0    0  0.25805636973E+02  0.62823022739E+02 -0.84171912601E+02  0.16530093463E+03  0.12500729992E+03 0.  0.
          2    1    1    2  501    0 -0.12938730631E+02 -0.99720418284E+02 -0.16876794699E+04  0.16906725188E+04  0.00000000000E+00 0. -1.
          1    1    1    2  502    0 -0.12866906342E+02  0.36897395545E+02  0.53225264413E+03  0.53368516212E+03  0.00000000000E+00 0. -1.
         22    1    3    3    0    0  0.40901133947E+02  0.65256006708E+02  0.27311202998E+01  0.77063014395E+02  0.00000000000E+00 0. -1.
         22    1    3    3    0    0 -0.15095496974E+02 -0.24329839688E+01 -0.86903032900E+02  0.88237920234E+02  0.00000000000E+00 0. -1.
</event>
<event>
 7    1  0.6067783E-006  0.1281910E+03  0.7818608E-02  0.1281140E+00
          2   -1    0    0  502    0  0.00000000000E+00  0.00000000000E+00  0.25264620203E+04  0.25264620203E+04  0.00000000000E+00 0. -1.
          1   -1    0    0  501    0 -0.00000000000E+00 -0.00000000000E+00 -0.35815423960E+02  0.35815423960E+02  0.00000000000E+00 0. -1.
         25    2    1    2    0    0 -0.14497038911E+03 -0.11661820669E+03  0.10546147998E+04  0.10781716941E+04  0.12500242385E+03 0.  0.
          2    1    1    2  501    0  0.73560502542E+02  0.24027242843E+02  0.47798764211E+02  0.90957010686E+02  0.00000000000E+00 0. -1.
          1    1    1    2  502    0  0.71409886571E+02  0.92590963842E+02  0.13882330323E+04  0.13931487395E+04  0.00000000000E+00 0. -1.
         22    1    3    3    0    0 -0.76857230468E+02 -0.19959162384E+02  0.19633928202E+03  0.21178884697E+03  0.00000000000E+00 0.  1.
         22    1    3    3    0    0 -0.68113158645E+02 -0.96659044302E+02  0.85827551782E+03  0.86638284708E+03  0.00000000000E+00 0.  1.
</event>
<event>
 7    1  0.6067783E-006  0.1533108E+03  0.7818608E-02  0.1206002E+00
          2   -1    0    0  502    0  0.00000000000E+00  0.00000000000E+00  0.17670737170E+03  0.17670737170E+03  0.00000000000E+00 0. -1.
          1   -1    0    0  501    0 -0.00000000000E+00 -0.00000000000E+00 -0.21423468842E+04  0.21423468842E+04  0.00000000000E+00 0. -1.
         25    2    1    2    0    0 -0.10736161927E+02  0.65800148060E+02 -0.90949237989E+03  0.92045978691E+03  0.12499962235E+03 0.  0.
          2    1    1    2  501    0 -0.13779415168E+03 -0.11266978762E+02 -0.11859238835E+04  0.11939554558E+04  0.00000000000E+00 0. -1.
          1    1    1    2  502    0  0.14853031361E+03 -0.54533169298E+02  0.12977675092E+03  0.20463901313E+03  0.00000000000E+00 0. -1.
         22    1    3    3    0    0  0.81389017903E+01 -0.21658550794E+02 -0.38745143998E+02  0.45127826540E+02  0.00000000000E+00 0.  1.
         22    1    3    3    0    0 -0.18875063718E+02  0.87458698854E+02 -0.87074723589E+03  0.87533196037E+03  0.00000000000E+00 0.  1.
</event>
<event>
 7    1  0.6067783E-006  0.6679319E+02  0.7818608E-02  0.1385439E+00
          2   -1    0    0  502    0  0.00000000000E+00  0.00000000000E+00  0.68790054448E+03  0.68790054448E+03  0.00000000000E+00 0. -1.
          1   -1    0    0  501    0 -0.00000000000E+00 -0.00000000000E+00 -0.11380303365E+03  0.11380303365E+03  0.00000000000E+00 0. -1.
         25    2    1    2    0    0  0.53064543104E+02 -0.46698767360E+02  0.26444486677E+03  0.30091814807E+03  0.12499609460E+03 0.  0.
          2    1    1    2  501    0  0.16003825570E+02  0.57335126266E+02 -0.82901646798E+02  0.10205940515E+03  0.00000000000E+00 0. -1.
          1    1    1    2  502    0 -0.69068368674E+02 -0.10636358907E+02  0.39255429085E+03  0.39872602492E+03  0.00000000000E+00 0. -1.
         22    1    3    3    0    0  0.85584055876E+02 -0.52841612146E+02  0.14156169912E+03  0.17365650363E+03  0.00000000000E+00 0.  1.
         22    1    3    3    0    0 -0.32519512773E+02  0.61428447866E+01  0.12288316765E+03  0.12726164444E+03  0.00000000000E+00 0.  1.
</event>
<event>
 7    1  0.6067783E-006  0.2299900E+03  0.7818608E-02  0.1225406E+00
          2   -1    0    0  502    0  0.00000000000E+00  0.00000000000E+00  0.89862269469E+03  0.89862269469E+03  0.00000000000E+00 0. -1.
          1   -1    0    0  501    0 -0.00000000000E+00 -0.00000000000E+00 -0.11617783301E+04  0.11617783301E+04  0.00000000000E+00 0. -1.
         25    2    1    2    0    0  0.86838963240E+02  0.28910374175E+03  0.19291552818E+03  0.37942565429E+03  0.12500178835E+03 0.  0.
          2    1    1    2  501    0 -0.69303591923E+02 -0.21611841886E+03 -0.10540988474E+04  0.10782553218E+04  0.00000000000E+00 0. -1.
          1    1    1    2  502    0 -0.17535371317E+02 -0.72985322888E+02  0.59802768378E+03  0.60272004876E+03  0.00000000000E+00 0. -1.
         22    1    3    3    0    0  0.54594513631E+02  0.28069955255E+03  0.14381714206E+03  0.32008775371E+03  0.00000000000E+00 0. -1.
         22    1    3    3    0    0  0.32244449610E+02  0.84041891989E+01  0.49098386113E+02  0.59337900583E+02  0.00000000000E+00 0. -1.
</event>
<event>
 7    1  0.6067783E-006  0.8843480E+02  0.7818608E-02  0.1317616E+00
          2   -1    0    0  502    0  0.00000000000E+00  0.00000000000E+00  0.94644203064E+03  0.94644203064E+03  0.00000000000E+00 0. -1.
          1   -1    0    0  501    0 -0.00000000000E+00 -0.00000000000E+00 -0.11231899240E+03  0.11231899240E+03  0.00000000000E+00 0. -1.
         25    2    1    2    0    0 -0.11199491342E+03  0.11586891317E+03  0.25243622139E+03  0.32452541048E+03  0.12499692199E+03 0.  0.
          2    1    1    2  501    0  0.64227913169E+02 -0.47881647894E+02 -0.51749871654E+02  0.95372565506E+02  0.00000000000E+00 0. -1.
          1    1    1    2  502    0  0.47767000247E+02 -0.67987265279E+02  0.63343668850E+03  0.63886304706E+03  0.00000000000E+00 0. -1.
         22    1    3    3    0    0  0.22548331278E+02  0.42953152758E+02  0.83604549060E+02  0.96659822050E+02  0.00000000000E+00 0.  1.
         22    1    3    3    0    0 -0.13454324469E+03  0.72915760415E+02  0.16883167233E+03  0.22786558843E+03  0.00000000000E+00 0.  1.
</event>
<event>
 7    1  0.6067783E-006  0.6506930E+02  0.7818608E-02  0.1439881E+00
          2   -1    0    0  502    0  0.00000000000E+00  0.00000000000E+00  0.67416354373E+03  0.67416354373E+03  0.00000000000E+00 0. -1.
          1   -1    0    0  501    0 -0.00000000000E+00 -0.00000000000E+00 -0.42221029302E+02  0.42221029302E+02  0.00000000000E+00 0. -1.
         25    2    1    2    0    0 -0.76107997787E+02  0.18799420040E+02  0.26315163814E+03  0.30169453985E+03  0.12499986079E+03 0.  0.
          2    1    1    2  501    0  0.14341248996E+02 -0.37356601573E+02 -0.29070254917E+00  0.40015891990E+02  0.00000000000E+00 0. -1.
          1    1    1    2  502    0  0.61766748791E+02  0.18557181533E+02  0.36908157883E+03  0.37467414119E+03  0.00000000000E+00 0. -1.
         22    1    3    3    0    0 -0.20333220264E+02  0.53356177594E+02  0.41639646672E+02  0.70669524611E+02  0.00000000000E+00 0.  1.
         22    1    3    3    0    0 -0.55774777522E+02 -0.34556757554E+02  0.22151199147E+03  0.23102501524E+03  0.00000000000E+00 0.  1.
</event>
<event>
 7    1  0.6067783E-006  0.1418308E+03  0.7818608E-02  0.1408821E+00
          2   -1    0    0  502    0  0.00000000000E+00  0.00000000000E+00  0.22901351385E+03  0.22901351385E+03  0.00000000000E+00 0. -1.
          1   -1    0    0  501    0 -0.00000000000E+00 -0.00000000000E+00 -0.12723679715E+04  0.12723679715E+04  0.00000000000E+00 0. -1.
         25    2    1    2    0    0 -0.12057449662E+03  0.72557912000E+02 -0.26294617436E+02  0.19008652841E+03  0.12505447431E+03 0.  0.
          2    1    1    2  501    0 -0.12010161206E+02 -0.19939236075E+02 -0.11294524771E+04  0.11296923100E+04  0.00000000000E+00 0. -1.
          1    1    1    2  502    0  0.13258465783E+03 -0.52618675925E+02  0.11239263692E+03  0.18160264696E+03  0.00000000000E+00 0. -1.
         22    1    3    3    0    0  0.16901083721E+02 -0.10381717983E+02  0.14329976032E+02  0.24469877652E+02  0.00000000000E+00 0.  1.
         22    1    3    3    0    0 -0.13747558034E+03  0.82939629982E+02 -0.40624593468E+02  0.16561665075E+03  0.00000000000E+00 0.  1.
</event>
<event>
 7    1  0.6067783E-006  0.1449386E+03  0.7818608E-02  0.1294676E+00
          2   -1    0    0  502    0  0.00000000000E+00  0.00000000000E+00  0.23840164738E+04  0.23840164738E+04  0.00000000000E+00 0. -1.
          1   -1    0    0  501    0 -0.00000000000E+00 -0.00000000000E+00 -0.25459810702E+03  0.25459810702E+03  0.00000000000E+00 0. -1.
         25    2    1    2    0    0  0.87231328137E+02 -0.56945039393E+02  0.29417421393E+03  0.33617670289E+03  0.12499706121E+03 0.  0.
          2    1    1    2  501    0 -0.14387360306E+03  0.36353393206E+02 -0.20954047013E+03  0.25676524585E+03  0.00000000000E+00 0. -1.
          1    1    1    2  502    0  0.56642274928E+02  0.20591646187E+02  0.20447846230E+04  0.20456726321E+04  0.00000000000E+00 0. -1.
         22    1    3    3    0    0  0.98861657688E+02  0.38329477154E+01  0.20512310351E+03  0.22773626510E+03  0.00000000000E+00 0. -1.
         22    1    3    3    0    0 -0.11630329551E+02 -0.60777987109E+02  0.89051110417E+02  0.10844043779E+03  0.00000000000E+00 0. -1.
</event>
<event>
 7    1  0.6067783E-006  0.6970895E+02  0.7818608E-02  0.1414416E+00
          2   -1    0    0  502    0  0.00000000000E+00  0.00000000000E+00  0.10534591540E+04  0.10534591540E+04  0.00000000000E+00 0. -1.
          1   -1    0    0  501    0 -0.00000000000E+00 -0.00000000000E+00 -0.35330462831E+03  0.35330462831E+03  0.00000000000E+00 0. -1.
         25    2    1    2    0    0  0.72250666136E+02 -0.78850511225E+02  0.18516694756E+03  0.24768936120E+03  0.12500263720E+03 0.  0.
          2    1    1    2  501    0 -0.14166103722E+02  0.43071430715E+02 -0.31904787961E+03  0.32225358978E+03  0.00000000000E+00 0. -1.
          1    1    1    2  502    0 -0.58084562414E+02  0.35779080510E+02  0.83403545776E+03  0.83682083136E+03  0.00000000000E+00 0. -1.
         22    1    3    3    0    0 -0.90189374382E+01  0.44889856576E+01  0.10700224143E+03  0.10747544788E+03  0.00000000000E+00 0. -1.
         22    1    3    3    0    0  0.81269603574E+02 -0.83339496883E+02  0.78164706129E+02  0.14021391333E+03  0.00000000000E+00 0. -1.
</event>
<event>
 7    1  0.6067783E-006  0.8008098E+02  0.7818608E-02  0.1462885E+00
          2   -1    0    0  502    0  0.00000000000E+00  0.00000000000E+00  0.13711798754E+04  0.13711798754E+04  0.00000000000E+00 0. -1.
          1   -1    0    0  501    0 -0.00000000000E+00 -0.00000000000E+00 -0.20436945258E+02  0.20436945258E+02  0.00000000000E+00 0. -1.
         25    2    1    2    0    0 -0.32586091274E+02  0.66776795743E+02  0.87318666734E+03  0.88521124684E+03  0.12499200664E+03 0.  0.
          2    1    1    2  501    0  0.90327586820E+01 -0.80881941186E+02  0.10504081403E+03  0.13287983952E+03  0.00000000000E+00 0. -1.
          1    1    1    2  502    0  0.23553332592E+02  0.14105145443E+02  0.37251544877E+03  0.37352573429E+03  0.00000000000E+00 0. -1.
         22    1    3    3    0    0  0.17149518813E+02  0.42583494224E+01  0.60789929547E+03  0.60815605972E+03  0.00000000000E+00 0. -1.
         22    1    3    3    0    0 -0.49735610087E+02  0.62518446320E+02  0.26528737187E+03  0.27705518713E+03  0.00000000000E+00 0. -1.
</event>
<event>
 7    1  0.6067783E-006  0.6206698E+02  0.7818608E-02  0.1418813E+00
          2   -1    0    0  502    0  0.00000000000E+00  0.00000000000E+00  0.19399141727E+03  0.19399141727E+03  0.00000000000E+00 0. -1.
          1   -1    0    0  501    0 -0.00000000000E+00 -0.00000000000E+00 -0.20922815981E+04  0.20922815981E+04  0.00000000000E+00 0. -1.
         25    2    1    2    0    0 -0.61703981657E+02  0.90857359955E+02 -0.18805620286E+03  0.25110437603E+03  0.12500332404E+03 0.  0.
          2    1    1    2  501    0  0.30470235541E+02 -0.38657765091E+02 -0.18666715002E+04  0.18673203656E+04  0.00000000000E+00 0. -1.
          1    1    1    2  502    0  0.31233746116E+02 -0.52199594864E+02  0.15643752229E+03  0.16784827369E+03  0.00000000000E+00 0. -1.
         22    1    3    3    0    0 -0.46942459502E+02  0.11376426664E+03 -0.98920722638E+02  0.15789620716E+03  0.00000000000E+00 0. -1.
         22    1    3    3    0    0 -0.14761522156E+02 -0.22906906689E+02 -0.89135480220E+02  0.93208168872E+02  0.00000000000E+00 0. -1.
</event>
<event>
 7    1  0.6067783E-006  0.1155558E+03  0.7818608E-02  0.1435768E+00
          2   -1    0    0  502    0  0.00000000000E+00  0.00000000000E+00  0.50609773509E+03  0.50609773509E+03  0.00000000000E+00 0. -1.
          1   -1    0    0  501    0 -0.00000000000E+00 -0.00000000000E+00 -0.20704221395E+03  0.20704221395E+03  0.00000000000E+00 0. -1.
         25    2    1    2    0    0 -0.83724554931E+02  0.44672038879E+02  0.13327701905E+03  0.20590098034E+03  0.12500823069E+03 0.  0.
          2    1    1    2  501    0  0.10309304695E+03 -0.57511402662E+02 -0.14984583916E+03  0.19076035563E+03  0.00000000000E+00 0. -1.
          1    1    1    2  502    0 -0.19368492019E+02  0.12839363783E+02  0.31562434125E+03  0.31647861308E+03  0.00000000000E+00 0. -1.
         22    1    3    3    0    0  0.31902515182E+02  0.13832825709E+02  0.15756318839E+02  0.38175635232E+02  0.00000000000E+00 0.  1.
         22    1    3    3    0    0 -0.11562707011E+03  0.30839213170E+02  0.11752070021E+03  0.16772534510E+03  0.00000000000E+00 0.  1.
</event>
<event>
 7    1  0.6067783E-006  0.1366227E+03  0.7818608E-02  0.1317780E+00
          2   -1    0    0  502    0  0.00000000000E+00  0.00000000000E+00  0.93721192722E+03  0.93721192722E+03  0.00000000000E+00 0. -1.
          1   -1    0    0  501    0 -0.00000000000E+00 -0.00000000000E+00 -0.23594228774E+04  0.23594228774E+04  0.00000000000E+00 0. -1.
         25    2    1    2    0    0 -0.28944151673E+02 -0.10143807796E+03  0.29444543301E+03  0.33682391602E+03  0.12499915922E+03 0.  0.
          2    1    1    2  501    0 -0.40350535686E+02 -0.32449538217E+02 -0.23288004939E+04  0.23293760707E+04  0.00000000000E+00 0. -1.
          1    1    1    2  502    0  0.69294687359E+02  0.13388761618E+03  0.61214411068E+03  0.63043481796E+03  0.00000000000E+00 0. -1.
         22    1    3    3    0    0  0.34682343140E+02 -0.90512549709E+02  0.14978862615E+03  0.17841529953E+03  0.00000000000E+00 0.  1.
         22    1    3    3    0    0 -0.63626494813E+02 -0.10925528255E+02  0.14465680685E+03  0.15840861649E+03  0.00000000000E+00 0.  1.
</event>
<event>
 7    1  0.6067783E-006  0.8003552E+02  0.7818608E-02  0.1391801E+00
          2   -1    0    0  502    0  0.00000000000E+00  0.00000000000E+00  0.33728213314E+03  0.33728213314E+03  0.00000000000E+00 0. -1.
          1   -1    0    0  501    0 -0.00000000000E+00 -0.00000000000E+00 -0.15793366995E+04  0.15793366995E+04  0.00000000000E+00 0. -1.
         25    2    1    2    0    0 -0.54104786136E+02 -0.13465420211E+02 -0.40774949412E+03  0.43011326222E+03  0.12501649074E+03 0.  0.
          2    1    1    2  501    0  0.58984783073E+02  0.60409759144E+02 -0.11571514210E+04  0.11602275444E+04  0.00000000000E+00 0. -1.
          1    1    1    2  502    0 -0.48799969371E+01 -0.46944338933E+02  0.32284634878E+03  0.32627802600E+03  0.00000000000E+00 0. -1.
         22    1    3    3    0    0  0.31709216280E+02  0.23195022625E+02 -0.76886002380E+02  0.86341999245E+02  0.00000000000E+00 0.  1.
         22    1    3    3    0    0 -0.85814002416E+02 -0.36660442836E+02 -0.33086349174E+03  0.34377126297E+03  0.00000000000E+00 0.  1.
</event>
<event>
 7    1  0.1140188E-005  0.6886607E+02  0.7818608E-02  0.1364108E+00
          2   -1    0    0  502    0  0.00000000000E+00  0.00000000000E+00  0.94138567385E+03  0.94138567385E+03  0.00000000000E+00 0. -1.
          1   -1    0    0  501    0 -0.00000000000E+00 -0.00000000000E+00 -0.16784632751E+04  0.16784632751E+04  0.00000000000E+00 0. -1.
         25    2    1    2    0    0 -0.36832334587E+02  0.18105258721E+02 -0.26476043525E+03  0.29564353038E+03  0.12499035049E+03 0.  0.
          2    1    1    2  501    0 -0.63792929637E+01 -0.71726995553E+02 -0.13960515717E+04  0.13979075249E+04  0.00000000000E+00 0. -1.
          1    1    1    2  502    0  0.43211627551E+02  0.53621736832E+02  0.92373440575E+03  0.92629789365E+03  0.00000000000E+00 0. -1.
         22    1    3    3    0    0  0.11689518099E+02  0.52168562625E+02 -0.51264735172E+02  0.74069405506E+02  0.00000000000E+00 0. -1.
         22    1    3    3    0    0 -0.48521852686E+02 -0.34063303904E+02 -0.21349570008E+03  0.22157412488E+03  0.00000000000E+00 0. -1.
</event>
<event>
 7    1  0.6067783E-006  0.1365654E+03  0.7818608E-02  0.1262916E+00
          2   -1    0    0  502    0  0.00000000000E+00  0.00000000000E+00  0.11008177589E+04  0.11008177589E+04  0.00000000000E+00 0. -1.
          1   -1    0    0  501    0 -0.00000000000E+00 -0.00000000000E+00 -0.45126292550E+03  0.45126292550E+03  0.00000000000E+00 0. -1.
         25    2    1    2    0    0  0.63518532146E+02  0.10661681498E+03  0.37050812796E+02  0.17999870465E+03  0.12500008713E+03 0.  0.
          2    1    1    2  501    0 -0.80678900559E+02  0.31439219348E+02 -0.36988838971E+03  0.37988804976E+03  0.00000000000E+00 0. -1.
          1    1    1    2  502    0  0.17160368413E+02 -0.13805603433E+03  0.98239241032E+03  0.99219392999E+03  0.00000000000E+00 0. -1.
         22    1    3    3    0    0 -0.36408920075E+02  0.35899367586E+02 -0.29338807308E+01  0.51215053551E+02  0.00000000000E+00 0.  1.
         22    1    3    3    0    0  0.99927452221E+02  0.70717447395E+02  0.39984693527E+02  0.12878365110E+03  0.00000000000E+00 0.  1.
</event>
<event>
 7    1  0.6067783E-006  0.1103677E+03  0.7818608E-02  0.1443355E+00
          2   -1    0    0  502    0  0.00000000000E+00  0.00000000000E+00  0.16769531340E+04  0.16769531340E+04  0.00000000000E+00 0. -1.
          1   -1    0    0  501    0 -0.00000000000E+00 -0.00000000000E+00 -0.54210329838E+03  0.54210329838E+03  0.00000000000E+00 0. -1.
         25    2    1    2    0    0 -0.90427174577E+02 -0.42121369017E+02 -0.13381881722E+03  0.20852811187E+03  0.12500085587E+03 0.  0.
          2    1    1    2  501    0 -0.16854387099E+02  0.15632923528E+02 -0.36870957407E+03  0.36942551167E+03  0.00000000000E+00 0. -1.
          1    1    1    2  502    0  0.10728156168E+03  0.26488445489E+02  0.16373782269E+04  0.16411028088E+04  0.00000000000E+00 0. -1.
         22    1    3    3    0    0  0.21707572042E+02  0.19349253030E+02 -0.10617082119E+02  0.30956981596E+02  0.00000000000E+00 0.  1.
         22    1    3    3    0    0 -0.11213474662E+03 -0.61470622047E+02 -0.12320173511E+03  0.17757113028E+03  0.00000000000E+00 0.  1.
</event>
<event>
 7    1  0.6067783E-006  0.1242152E+03  0.7818608E-02  0.1269982E+00
          2   -1    0    0  502    0  0.00000000000E+00  0.00000000000E+00  0.22044064919E+04  0.22044064919E+04  0.00000000000E+00 0. -1.
          1   -1    0    0  501    0 -0.00000000000E+00 -0.00000000000E+00 -0.14920416393E+03  0.14920416393E+03  0.00000000000E+00 0. -1.
         25    2    1    2    0    0  0.49617203854E+02  0.64157248382E+02  0.27031208138E+03  0.30866242228E+03  0.12500340056E+03 0.  0.
          2    1    1    2  501    0  0.79649012813E+02 -0.39432417724E+02 -0.11229147681E+03  0.14320704094E+03  0.00000000000E+00 0. -1.
          1    1    1    2  502    0 -0.12926621667E+03 -0.24724830658E+02  0.18971817234E+04  0.19017411926E+04  0.00000000000E+00 0. -1.
         22    1    3    3    0    0 -0.11300731579E+02 -0.23983946504E+02  0.12693321818E+03  0.12967258038E+03  0.00000000000E+00 0. -1.
         22    1    3    3    0    0  0.60917935433E+02  0.88141194887E+02  0.14337886320E+03  0.17898984190E+03  0.00000000000E+00 0. -1.
</event>
<event>
 7    1  0.6067783E-006  0.8560067E+02  0.7818608E-02  0.1392264E+00
          2   -1    0    0  502    0  0.00000000000E+00  0.00000000000E+00  0.96930077903E+02  0.96930077903E+02  0.00000000000E+00 0. -1.
          1   -1    0    0  501    0 -0.00000000000E+00 -0.00000000000E+00 -0.17007515005E+04  0.17007515005E+04  0.00000000000E+00 0. -1.
         25    2    1    2    0    0 -0.48110400199E+02  0.28306342958E+02 -0.65307282511E+02  0.15170796989E+03  0.12503762362E+03 0.  0.
          2    1    1    2  501    0  0.86321303429E+02 -0.65601719066E+01 -0.15818638109E+04  0.15842308921E+04  0.00000000000E+00 0. -1.
          1    1    1    2  502    0 -0.38210903231E+02 -0.21746171052E+02  0.43349670757E+02  0.61742716460E+02  0.00000000000E+00 0. -1.
         22    1    3    3    0    0 -0.20755584629E+01 -0.46793335000E+02 -0.35297622970E+02  0.58650203159E+02  0.00000000000E+00 0.  1.
         22    1    3    3    0    0 -0.46034841736E+02  0.75099677958E+02 -0.30009659541E+02  0.93057766730E+02  0.00000000000E+00 0.  1.
</event>
<event>
 7    1  0.6067783E-006  0.4759934E+02  0.7818608E-02  0.1540667E+00
          2   -1    0    0  502    0  0.00000000000E+00  0.00000000000E+00  0.60217651831E+03  0.60217651831E+03  0.00000000000E+00 0. -1.
          1   -1    0    0  501    0 -0.00000000000E+00 -0.00000000000E+00 -0.36166320924E+04  0.36166320924E+04  0.00000000000E+00 0. -1.
         25    2    1    2    0    0 -0.93189027527E+01 -0.60484556079E+02 -0.19680148247E+04  0.19729300308E+04  0.12500133153E+03 0.  0.
          2    1    1    2  501    0 -0.17179229141E+02  0.20947370878E+02 -0.16451036318E+04  0.16453266780E+04  0.00000000000E+00 0. -1.
          1    1    1    2  502    0  0.26498131893E+02  0.39537185200E+02  0.59866288239E+03  0.60055190181E+03  0.00000000000E+00 0. -1.
         22    1    3    3    0    0 -0.19492259607E+02 -0.98042450892E+02 -0.13559906709E+04  0.13596701695E+04  0.00000000000E+00 0.  1.
         22    1    3    3    0    0  0.10173356854E+02  0.37557894813E+02 -0.61202415381E+03  0.61325986131E+03  0.00000000000E+00 0.  1.
</event>
<event>
 7    1  0.6067783E-006  0.3910605E+03  0.7818608E-02  0.1091120E+00
          2   -1    0    0  502    0  0.00000000000E+00  0.00000000000E+00  0.41597625801E+03  0.41597625801E+03  0.00000000000E+00 0. -1.
          1   -1    0    0  501    0 -0.00000000000E+00 -0.00000000000E+00 -0.12208000708E+04  0.12208000708E+04  0.00000000000E+00 0. -1.
         25    2    1    2    0    0 -0.28044474350E+03 -0.10399609406E+03 -0.34212747077E+03  0.47131833959E+03  0.12500131694E+03 0.  0.
          2    1    1    2  501    0  0.47872776714E+03  0.18146152289E+03 -0.68662997743E+03  0.85648659373E+03  0.00000000000E+00 0. -1.
          1    1    1    2  502    0 -0.19828302364E+03 -0.77465428826E+02  0.22393363545E+03  0.30897139546E+03  0.00000000000E+00 0. -1.
         22    1    3    3    0    0 -0.18211475746E+03 -0.12762733219E+03 -0.24887833363E+03  0.33375881375E+03  0.00000000000E+00 0. -1.
         22    1    3    3    0    0 -0.98329986039E+02  0.23631238130E+02 -0.93249137143E+02  0.13755952583E+03  0.00000000000E+00 0. -1.
</event>
<event>
 7    1  0.6067783E-006  0.5639257E+02  0.7818608E-02  0.1457109E+00
          2   -1    0    0  502    0  0.00000000000E+00  0.00000000000E+00  0.28836038967E+04  0.28836038967E+04  0.00000000000E+00 0. -1.
          1   -1    0    0  501    0 -0.00000000000E+00 -0.00000000000E+00 -0.10025674898E+04  0.10025674898E+04  0.00000000000E+00 0. -1.
         25    2    1    2    0    0  0.51933954812E+02 -0.49027038687E+02  0.15929567628E+04  0.15994486121E+04  0.12499531321E+03 0.  0.
          2    1    1    2  501    0 -0.11741730219E+02  0.55155416752E+02 -0.99820458398E+03  0.99979616908E+03  0.00000000000E+00 0. -1.
          1    1    1    2  502    0 -0.40192224593E+02 -0.61283780648E+01  0.12862842282E+04  0.12869266053E+04  0.00000000000E+00 0. -1.
         22    1    3    3    0    0  0.86680324094E+02 -0.19741108105E+02  0.74684249502E+03  0.75211495285E+03  0.00000000000E+00 0. -1.
         22    1    3    3    0    0 -0.34746369282E+02 -0.29285930583E+02  0.84611426778E+03  0.84733365922E+03  0.00000000000E+00 0. -1.
</event>
<event>
 7    1  0.6067783E-006  0.6127059E+02  0.7818608E-02  0.1475346E+00
          2   -1    0    0  502    0  0.00000000000E+00  0.00000000000E+00  0.17624429586E+04  0.17624429586E+04  0.00000000000E+00 0. -1.
          1   -1    0    0  501    0 -0.00000000000E+00 -0.00000000000E+00 -0.12573942817E+04  0.12573942817E+04  0.00000000000E+00 0. -1.
         25    2    1    2    0    0 -0.79238606411E+02 -0.17952907783E+02 -0.96502109789E+03  0.97647053334E+03  0.12501167733E+03 0.  0.
          2    1    1    2  501    0  0.47168606609E+02  0.24904929278E+02 -0.28401229944E+03  0.28897771399E+03  0.00000000000E+00 0. -1.
          1    1    1    2  502    0  0.32069999802E+02 -0.69520214948E+01  0.17540820743E+04  0.17543889930E+04  0.00000000000E+00 0. -1.
         22    1    3    3    0    0 -0.10735027549E+03 -0.67895818041E+01 -0.87309697829E+03  0.87969796724E+03  0.00000000000E+00 0. -1.
         22    1    3    3    0    0  0.28111669083E+02 -0.11163325979E+02 -0.91924119605E+02  0.96772566106E+02  0.00000000000E+00 0. -1.
</event>
<event>
 7    1  0.6067783E-006  0.1858862E+03  0.7818608E-02  0.1307184E+00
          2   -1    0    0  502    0  0.00000000000E+00  0.00000000000E+00  0.10057155493E+03  0.10057155493E+03  0.00000000000E+00 0. -1.
          1   -1    0    0  501    0 -0.00000000000E+00 -0.00000000000E+00 -0.19851994392E+04  0.19851994392E+04  0.00000000000E+00 0. -1.
         25    2    1    2    0    0 -0.14276556689E+03 -0.16762160344E+03 -0.99302243043E+03  0.10247927525E+04  0.12501051615E+03 0.  0.
          2    1    1    2  501    0  0.37678701022E+02  0.18288043962E+02 -0.87677443569E+03  0.87777420111E+03  0.00000000000E+00 0. -1.
          1    1    1    2  502    0  0.10508686587E+03  0.14933355948E+03 -0.14831018130E+02  0.18320404052E+03  0.00000000000E+00 0. -1.
         22    1    3    3    0    0 -0.10394793070E+03 -0.43606613109E+02 -0.31830680995E+03  0.33767726347E+03  0.00000000000E+00 0.  1.
         22    1    3    3    0    0 -0.38817636196E+02 -0.12401499033E+03 -0.67471562048E+03  0.68711548900E+03  0.00000000000E+00 0.  1.
</event>
<event>
 7    1  0.6067783E-006  0.1985004E+03  0.7818608E-02  0.1259700E+00
          2   -1    0    0  502    0  0.00000000000E+00  0.00000000000E+00  0.17513209138E+04  0.17513209138E+04  0.00000000000E+00 0. -1.
          1   -1    0    0  501    0 -0.00000000000E+00 -0.00000000000E+00 -0.16008926661E+03  0.16008926661E+03  0.00000000000E+00 0. -1.
         25    2    1    2    0    0  0.55087222301E+02  0.17279072517E+03  0.26049763427E+03  0.34113779171E+03  0.12499895483E+03 0.  0.
          2    1    1    2  501    0  0.61123962075E+02 -0.66087600503E+01 -0.10425139687E+03  0.12102961703E+03  0.00000000000E+00 0. -1.
          1    1    1    2  502    0 -0.11621118438E+03 -0.16618196512E+03  0.14349854098E+04  0.14492427717E+04  0.00000000000E+00 0. -1.
         22    1    3    3    0    0  0.13996557451E+02 -0.82595244787E+01  0.81994944882E+02  0.83590037393E+02  0.00000000000E+00 0.  1.
         22    1    3    3    0    0  0.41090664850E+02  0.18105024965E+03  0.17850268938E+03  0.25754775432E+03  0.00000000000E+00 0.  1.
</event>
<event>
 7    1  0.6067783E-006  0.1313766E+03  0.7818608E-02  0.1368439E+00
          2   -1    0    0  502    0  0.00000000000E+00  0.00000000000E+00  0.47168203573E+02  0.47168203573E+02  0.00000000000E+00 0. -1.
          1   -1    0    0  501    0 -0.00000000000E+00 -0.00000000000E+00 -0.18858743164E+04  0.18858743164E+04  0.00000000000E+00 0. -1.
         25    2    1    2    0    0  0.81194398352E+02 -0.71484878727E+02 -0.69595497056E+03  0.71531918904E+03  0.12500241175E+03 0.  0.
          2    1    1    2  501    0 -0.99215527767E+02  0.10123982068E+03 -0.11668347212E+04  0.11754133268E+04  0.00000000000E+00 0. -1.
          1    1    1    2  502    0  0.18021129415E+02 -0.29754941952E+02  0.24083578928E+02  0.42310004135E+02  0.00000000000E+00 0. -1.
         22    1    3    3    0    0  0.10290397269E+02 -0.85590231146E+02 -0.27480169484E+03  0.28800616562E+03  0.00000000000E+00 0.  1.
         22    1    3    3    0    0  0.70904001083E+02  0.14105352419E+02 -0.42115327572E+03  0.42731302342E+03  0.00000000000E+00 0.  1.
</event>
<event>
 7    1  0.6067783E-006  0.5684426E+02  0.7818608E-02  0.1441376E+00
          2   -1    0    0  502    0  0.00000000000E+00  0.00000000000E+00  0.39236800910E+03  0.39236800910E+03  0.00000000000E+00 0. -1.
          1   -1    0    0  501    0 -0.00000000000E+00 -0.00000000000E+00 -0.61596335718E+02  0.61596335718E+02  0.00000000000E+00 0. -1.
         25    2    1    2    0    0  0.21378048062E+02  0.22407839778E+02  0.63371395302E+02  0.14352588742E+03  0.12499845757E+03 0.  0.
          2    1    1    2  501    0 -0.59247888269E+02 -0.47259523793E+02  0.55980812263E+02  0.94221155772E+02  0.00000000000E+00 0. -1.
          1    1    1    2  502    0  0.37869840207E+02  0.24851684015E+02  0.21141946581E+03  0.21621730162E+03  0.00000000000E+00 0. -1.
         22    1    3    3    0    0  0.14038419376E+01  0.20256200430E+02  0.99843269552E+02  0.10188701047E+03  0.00000000000E+00 0.  1.
         22    1    3    3    0    0  0.19974206124E+02  0.21516393473E+01 -0.36471874250E+02  0.41638876948E+02  0.00000000000E+00 0.  1.
</event>
<event>
 7    1  0.6067783E-006  0.1236183E+03  0.7818608E-02  0.1262525E+00
          2   -1    0    0  502    0  0.00000000000E+00  0.00000000000E+00  0.97584274031E+03  0.97584274031E+03  0.00000000000E+00 0. -1.
          1   -1    0    0  501    0 -0.00000000000E+00 -0.00000000000E+00 -0.16093551528E+03  0.16093551528E+03  0.00000000000E+00 0. -1.
         25    2    1    2    0    0 -0.65921108439E+02  0.13108640500E+03  0.15113233931E+03  0.24493874732E+03  0.12499907136E+03 0.  0.
          2    1    1    2  501    0 -0.29591443830E+02 -0.12118844804E+03 -0.75855969147E+02  0.14600144363E+03  0.00000000000E+00 0. -1.
          1    1    1    2  502    0  0.95512552269E+02 -0.98979569541E+01  0.73963085487E+03  0.74583806465E+03  0.00000000000E+00 0. -1.
         22    1    3    3    0    0  0.23560892811E+02 -0.63718106692E+01  0.39858372359E+02  0.46737623906E+02  0.00000000000E+00 0. -1.
         22    1    3    3    0    0 -0.89482001250E+02  0.13745821567E+03  0.11127396695E+03  0.19820112341E+03  0.00000000000E+00 0. -1.
</event>
<event>
 7    1  0.6067783E-006  0.7146090E+02  0.7818608E-02  0.1378532E+00
          2   -1    0    0  502    0  0.00000000000E+00  0.00000000000E+00  0.13690846119E+04  0.13690846119E+04  0.00000000000E+00 0. -1.
          1   -1    0    0  501    0 -0.00000000000E+00 -0.00000000000E+00 -0.41509088897E+04  0.41509088897E+04  0.00000000000E+00 0. -1.
         25    2    1    2    0    0 -0.43134874284E+02  0.11185917198E+03 -0.24155210369E+04  0.24217226874E+04  0.12500321327E+03 0.  0.
          2    1    1    2  501    0 -0.45711243586E+01 -0.58675002147E+02 -0.17308523470E+04  0.17318526202E+04  0.00000000000E+00 0. -1.
          1    1    1    2  502    0  0.47705998642E+02 -0.53184169835E+02  0.13645491060E+04  0.13664181940E+04  0.00000000000E+00 0. -1.
         22    1    3    3    0    0 -0.61701484696E+02  0.10575685572E+03 -0.12381168381E+04  0.12441562966E+04  0.00000000000E+00 0. -1.
         22    1    3    3    0    0  0.18566610412E+02  0.61023162650E+01 -0.11774041988E+04  0.11775663908E+04  0.00000000000E+00 0. -1.
</event>
<event>
 7    1  0.6067783E-006  0.4600593E+02  0.7818608E-02  0.1469407E+00
          2   -1    0    0  502    0  0.00000000000E+00  0.00000000000E+00  0.18956976981E+04  0.18956976981E+04  0.00000000000E+00 0. -1.
          1   -1    0    0  501    0 -0.00000000000E+00 -0.00000000000E+00 -0.49469428548E+03  0.49469428548E+03  0.00000000000E+00 0. -1.
         25    2    1    2    0    0 -0.12626338855E+02 -0.11285191772E+01  0.10306487826E+04  0.10382789732E+04  0.12500246073E+03 0.  0.
          2    1    1    2  501    0 -0.27219371915E+02  0.37089778636E+02 -0.48896209321E+03  0.49112164938E+03  0.00000000000E+00 0. -1.
          1    1    1    2  502    0  0.39845710769E+02 -0.35961259458E+02  0.85931672327E+03  0.86099136101E+03  0.00000000000E+00 0. -1.
         22    1    3    3    0    0  0.23368414692E+02  0.54161046165E+02  0.54077273800E+03  0.54398038190E+03  0.00000000000E+00 0. -1.
         22    1    3    3    0    0 -0.35994753547E+02 -0.55289565342E+02  0.48987604457E+03  0.49429859130E+03  0.00000000000E+00 0. -1.
</event>
<event>
 7    1  0.6067783E-006  0.5917718E+02  0.7818608E-02  0.1461274E+00
          2   -1    0    0  502    0  0.00000000000E+00  0.00000000000E+00  0.20603190362E+04  0.20603190362E+04  0.00000000000E+00 0. -1.
          1   -1    0    0  501    0 -0.00000000000E+00 -0.00000000000E+00 -0.61279235604E+02  0.61279235604E+02  0.00000000000E+00 0. -1.
         25    2    1    2    0    0  0.31964236257E+01  0.46451085453E+02  0.13033877415E+03  0.18649647568E+03  0.12499927572E+03 0.  0.
          2    1    1    2  501    0  0.37472803259E+02 -0.29373888680E+01 -0.21940270637E+02  0.43522577050E+02  0.00000000000E+00 0. -1.
          1    1    1    2  502    0 -0.40669226885E+02 -0.43513696585E+02  0.18906412971E+04  0.18915792191E+04  0.00000000000E+00 0. -1.
         22    1    3    3    0    0  0.60018815129E+02  0.47525647408E+02  0.74897287901E+02  0.10710064923E+03  0.00000000000E+00 0. -1.
         22    1    3    3    0    0 -0.56822391503E+02 -0.10745619543E+01  0.55441486252E+02  0.79395826448E+02  0.00000000000E+00 0. -1.
</event>
<event>
 7    1  0.6067783E-006  0.6095564E+02  0.7818608E-02  0.1409267E+00
          2   -1    0    0  502    0  0.00000000000E+00  0.00000000000E+00  0.44485387828E+03  0.44485387828E+03  0.00000000000E+00 0. -1.
          1   -1    0    0  501    0 -0.00000000000E+00 -0.00000000000E+00 -0.46371954860E+03  0.46371954860E+03  0.00000000000E+00 0. -1.
         25    2    1    2    0    0  0.80425749642E+02  0.32405857693E+02 -0.30235351861E+02  0.15511111328E+03  0.12500736035E+03 0.  0.
          2    1    1    2  501    0 -0.30331527899E+02 -0.52494346200E+02 -0.36664010311E+03  0.37161892199E+03  0.00000000000E+00 0. -1.
          1    1    1    2  502    0 -0.50094221743E+02  0.20088488507E+02  0.37800978466E+03  0.38184339162E+03  0.00000000000E+00 0. -1.
         22    1    3    3    0    0  0.68095129430E+02  0.19660563258E+01 -0.73877230658E+02  0.10049207551E+03  0.00000000000E+00 0. -1.
         22    1    3    3    0    0  0.12330620212E+02  0.30439801367E+02  0.43641878798E+02  0.54619037772E+02  0.00000000000E+00 0. -1.
</event>
<event>
 7    1  0.6067783E-006  0.4415735E+02  0.7818608E-02  0.1588643E+00
          2   -1    0    0  502    0  0.00000000000E+00  0.00000000000E+00  0.10524038238E+03  0.10524038238E+03  0.00000000000E+00 0. -1.
          1   -1    0    0  501    0 -0.00000000000E+00 -0.00000000000E+00 -0.10193660018E+04  0.10193660018E+04  0.00000000000E+00 0. -1.
         25    2    1    2    0    0 -0.31498821688E+02  0.83496923954E+01 -0.21693844421E+03  0.25248593520E+03  0.12499986307E+03 0.  0.
          2    1    1    2  501    0  0.43683588085E+02  0.94660455991E+01 -0.78267483904E+03  0.78395010399E+03  0.00000000000E+00 0. -1.
          1    1    1    2  502    0 -0.12184766397E+02 -0.17815737994E+02  0.85487663872E+02  0.88170344939E+02  0.00000000000E+00 0. -1.
         22    1    3    3    0    0 -0.27170935629E+02  0.13040690301E+02  0.49186378910E+01  0.30537065104E+02  0.00000000000E+00 0.  1.
         22    1    3    3    0    0 -0.43278860591E+01 -0.46909979058E+01 -0.22185708210E+03  0.22194887009E+03  0.00000000000E+00 0.  1.
</event>
<event>
 7    1  0.6067783E-006  0.6944063E+02  0.7818608E-02  0.1479589E+00
          2   -1    0    0  502    0  0.00000000000E+00  0.00000000000E+00  0.52217268799E+03  0.52217268799E+03  0.00000000000E+00 0. -1.
          1   -1    0    0  501    0 -0.00000000000E+00 -0.00000000000E+00 -0.39950614577E+03  0.39950614577E+03  0.00000000000E+00 0. -1.
         25    2    1    2    0    0 -0.51242796874E+02 -0.33546181298E+02 -0.73611762399E+02  0.15746420835E+03  0.12500045935E+03 0.  0.
          2    1    1    2  501    0  0.69694576321E+02  0.12358270705E+02 -0.27913620220E+03  0.28797062386E+03  0.00000000000E+00 0. -1.
          1    1    1    2  502    0 -0.18451779448E+02  0.21187910593E+02  0.47541450682E+03  0.47624400156E+03  0.00000000000E+00 0. -1.
         22    1    3    3    0    0 -0.28256647115E+02  0.42809864542E+02 -0.55730471807E+02  0.75743039919E+02  0.00000000000E+00 0.  1.
         22    1    3    3    0    0 -0.22986149759E+02 -0.76356045840E+02 -0.17881290592E+02  0.81721168434E+02  0.00000000000E+00 0.  1.
</event>
<event>
 7    1  0.6067783E-006  0.9974959E+02  0.7818608E-02  0.1445022E+00
          2   -1    0    0  502    0  0.00000000000E+00  0.00000000000E+00  0.10696537975E+04  0.10696537975E+04  0.00000000000E+00 0. -1.
          1   -1    0    0  501    0 -0.00000000000E+00 -0.00000000000E+00 -0.18469863886E+03  0.18469863886E+03  0.00000000000E+00 0. -1.
         25    2    1    2    0    0  0.98528088311E+02  0.15574103753E+01  0.41176209044E+03  0.44145549521E+03  0.12499890164E+03 0.  0.
          2    1    1    2  501    0 -0.13856494010E+01  0.25084064946E+02 -0.16495035346E+03  0.16685247809E+03  0.00000000000E+00 0. -1.
          1    1    1    2  502    0 -0.97142438910E+02 -0.26641475322E+02  0.63814342164E+03  0.64604446304E+03  0.00000000000E+00 0. -1.
         22    1    3    3    0    0  0.96636006185E+02  0.27834307800E+02  0.40027592848E+03  0.41271550165E+03  0.00000000000E+00 0.  1.
         22    1    3    3    0    0  0.18920821257E+01 -0.26276897425E+02  0.11486161962E+02  0.28739993557E+02  0.00000000000E+00 0.  1.
</event>
<event>
 7    1  0.6067783E-006  0.2064030E+03  0.7818608E-02  0.1250493E+00
          2   -1    0    0  502    0  0.00000000000E+00  0.00000000000E+00  0.11408577059E+04  0.11408577059E+04  0.00000000000E+00 0. -1.
          1   -1    0    0  501    0 -0.00000000000E+00 -0.00000000000E+00 -0.87449794233E+03  0.87449794233E+03  0.00000000000E+00 0. -1.
         25    2    1    2    0    0  0.98735272811E+02 -0.19456415167E+03  0.21291675939E+03  0.32948795878E+03  0.12499962137E+03 0.  0.
          2    1    1    2  501    0 -0.64257746587E+02 -0.81518054071E+01 -0.80273462482E+03  0.80534364579E+03  0.00000000000E+00 0. -1.
          1    1    1    2  502    0 -0.34477526224E+02  0.20271595708E+03  0.85617762902E+03  0.88052404368E+03  0.00000000000E+00 0. -1.
         22    1    3    3    0    0  0.54685136057E+02 -0.16993119698E+03  0.97238376827E+02  0.20327906370E+03  0.00000000000E+00 0. -1.
         22    1    3    3    0    0  0.44050136754E+02 -0.24632954688E+02  0.11567838256E+03  0.12620889508E+03  0.00000000000E+00 0. -1.
</event>
<event>
 7    1  0.6067783E-006  0.2916444E+02  0.7818608E-02  0.1636816E+00
          2   -1    0    0  502    0  0.00000000000E+00  0.00000000000E+00  0.71262001994E+01  0.71262001994E+01  0.00000000000E+00 0. -1.
          1   -1    0    0  501    0 -0.00000000000E+00 -0.00000000000E+00 -0.12692171541E+04  0.12692171541E+04  0.00000000000E+00 0. -1.
         25    2    1    2    0    0 -0.17377836581E+02  0.69973408138E+01 -0.73302012313E+03  0.74383779767E+03  0.12500086537E+03 0.  0.
          2    1    1    2  501    0  0.90895318051E+00  0.24554041466E+02 -0.19399904095E+03  0.19554885589E+03  0.00000000000E+00 0. -1.
          1    1    1    2  502    0  0.16468883401E+02 -0.31551382280E+02 -0.33507178983E+03  0.33695670075E+03  0.00000000000E+00 0. -1.
         22    1    3    3    0    0  0.83100435091E+01  0.56588864689E+02 -0.20364002406E+03  0.21151977645E+03  0.00000000000E+00 0. -1.
         22    1    3    3    0    0 -0.25687880090E+02 -0.49591523876E+02 -0.52938009906E+03  0.53231802121E+03  0.00000000000E+00 0. -1.
</event>
<event>
 7    1  0.6067783E-006  0.8502396E+02  0.7818608E-02  0.1371433E+00
          2   -1    0    0  502    0  0.00000000000E+00  0.00000000000E+00  0.45429069546E+03  0.45429069546E+03  0.00000000000E+00 0. -1.
          1   -1    0    0  501    0 -0.00000000000E+00 -0.00000000000E+00 -0.15428151799E+04  0.15428151799E+04  0.00000000000E+00 0. -1.
         25    2    1    2    0    0  0.50522357426E+02  0.18010775096E+02 -0.37373148844E+02  0.14104992821E+03  0.12498573268E+03 0.  0.
          2    1    1    2  501    0  0.82077460825E+00  0.52429199733E+02 -0.14484038970E+04  0.14493527326E+04  0.00000000000E+00 0. -1.
          1    1    1    2  502    0 -0.51343132034E+02 -0.70439974829E+02  0.39725256136E+03  0.40670321460E+03  0.00000000000E+00 0. -1.
         22    1    3    3    0    0 -0.37276146126E+02 -0.71336106872E+01  0.84332944846E+01  0.38878270631E+02  0.00000000000E+00 0.  1.
         22    1    3    3    0    0  0.87798503551E+02  0.25144385783E+02 -0.45806443329E+02  0.10217165758E+03  0.00000000000E+00 0.  1.
</event>
<event>
 7    1  0.6067783E-006  0.2944453E+02  0.7818608E-02  0.1605865E+00
          2   -1    0    0  502    0  0.00000000000E+00  0.00000000000E+00  0.89718534534E+03  0.89718534534E+03  0.00000000000E+00 0. -1.
          1   -1    0    0  501    0 -0.00000000000E+00 -0.00000000000E+00 -0.12573854215E+04  0.12573854215E+04  0.00000000000E+00 0. -1.
         25    2    1    2    0    0 -0.50580672145E+01 -0.18522591771E+02 -0.86816746920E+03  0.87733039787E+03  0.12500080793E+03 0.  0.
          2    1    1    2  501    0  0.31607546950E+02  0.57905372876E+01 -0.38372192557E+03  0.38506503802E+03  0.00000000000E+00 0. -1.
          1    1    1    2  502    0 -0.26549479735E+02  0.12732054484E+02  0.89168931865E+03  0.89217533091E+03  0.00000000000E+00 0. -1.
         22    1    3    3    0    0  0.28525976168E+02  0.42690095922E+02 -0.24897905765E+03  0.25421791194E+03  0.00000000000E+00 0. -1.
         22    1    3    3    0    0 -0.33584043383E+02 -0.61212687694E+02 -0.61918841156E+03  0.62311248592E+03  0.00000000000E+00 0. -1.
</event>
<event>
 7    1  0.6067783E-006  0.7401741E+02  0.7818608E-02  0.1392678E+00
          2   -1    0    0  502    0  0.00000000000E+00  0.00000000000E+00  0.41716543283E+03  0.41716543283E+03  0.00000000000E+00 0. -1.
          1   -1    0    0  501    0 -0.00000000000E+00 -0.00000000000E+00 -0.25143292388E+03  0.25143292388E+03  0.00000000000E+00 0. -1.
         25    2    1    2    0    0 -0.61821210484E+02 -0.45589272092E+01  0.12878489773E+03  0.18987940902E+03  0.12500397674E+03 0.  0.
          2    1    1    2  501    0  0.51439384391E+01 -0.50415827675E+02 -0.21178012970E+03  0.21775913096E+03  0.00000000000E+00 0. -1.
          1    1    1    2  502    0  0.56677272045E+02  0.54974754884E+02  0.24872774092E+03  0.26095981673E+03  0.00000000000E+00 0. -1.
         22    1    3    3    0    0 -0.35919094961E+02  0.55764630048E+02  0.95494761474E+02  0.11627177136E+03  0.00000000000E+00 0.  1.
         22    1    3    3    0    0 -0.25902115523E+02 -0.60323557257E+02  0.33290136259E+02  0.73607637653E+02  0.00000000000E+00 0.  1.
</event>
<event>
 7    1  0.6067783E-006  0.6820859E+02  0.7818608E-02  0.1376387E+00
          2   -1    0    0  502    0  0.00000000000E+00  0.00000000000E+00  0.42305167757E+03  0.42305167757E+03  0.00000000000E+00 0. -1.
          1   -1    0    0  501    0 -0.00000000000E+00 -0.00000000000E+00 -0.28810379095E+03  0.28810379095E+03  0.00000000000E+00 0. -1.
         25    2    1    2    0    0 -0.27375099736E+02  0.32251774401E+01  0.68269166086E+02  0.14504454217E+03  0.12496976563E+03 0.  0.
          2    1    1    2  501    0  0.25825730380E+02 -0.65957538110E+02 -0.24146633968E+03  0.25164132884E+03  0.00000000000E+00 0. -1.
          1    1    1    2  502    0  0.15493693559E+01  0.62732360670E+02  0.30814506021E+03  0.31446959750E+03  0.00000000000E+00 0. -1.
         22    1    3    3    0    0 -0.74295948775E+02  0.18973628457E+02  0.53128168030E+02  0.93287131049E+02  0.00000000000E+00 0. -1.
         22    1    3    3    0    0  0.46920849039E+02 -0.15748451017E+02  0.15140998057E+02  0.51757411123E+02  0.00000000000E+00 0. -1.
</event>
<event>
 7    1  0.6067783E-006  0.7905641E+02  0.7818608E-02  0.1473808E+00
          2   -1    0    0  502    0  0.00000000000E+00  0.00000000000E+00  0.38358561981E+03  0.38358561981E+03  0.00000000000E+00 0. -1.
          1   -1    0    0  501    0 -0.00000000000E+00 -0.00000000000E+00 -0.96643284938E+03  0.96643284938E+03  0.00000000000E+00 0. -1.
         25    2    1    2    0    0 -0.29851205219E+02  0.60005784408E+02  0.13733222205E+03  0.19742770485E+03  0.12500308322E+03 0.  0.
          2    1    1    2  501    0  0.11807950706E+02 -0.78324031198E+02 -0.93393822019E+03  0.93729113977E+03  0.00000000000E+00 0. -1.
          1    1    1    2  502    0  0.18043254513E+02  0.18318246790E+02  0.21375876856E+03  0.21529962456E+03  0.00000000000E+00 0. -1.
         22    1    3    3    0    0 -0.16055239165E+02  0.70974864507E+02  0.15576513306E+03  0.17192434026E+03  0.00000000000E+00 0.  1.
         22    1    3    3    0    0 -0.13795966054E+02 -0.10969080099E+02 -0.18432911006E+02  0.25503364596E+02  0.00000000000E+00 0.  1.
</event>
<event>
 7    1  0.6067783E-006  0.1436393E+03  0.7818608E-02  0.1381242E+00
          2   -1    0    0  502    0  0.00000000000E+00  0.00000000000E+00  0.54859342791E+03  0.54859342791E+03  0.00000000000E+00 0. -1.
          1   -1    0    0  501    0 -0.00000000000E+00 -0.00000000000E+00 -0.31232691242E+03  0.31232691242E+03  0.00000000000E+00 0. -1.
         25    2    1    2    0    0 -0.69306226573E+02 -0.13757069691E+03 -0.10014432497E+02  0.19863203315E+03  0.12500138418E+03 0.  0.
          2    1    1    2  501    0 -0.16447834859E+02  0.23445354462E+02 -0.19572123004E+03  0.19780549994E+03  0.00000000000E+00 0. -1.
          1    1    1    2  502    0  0.85754061432E+02  0.11412534244E+03  0.44200217803E+03  0.46448280724E+03  0.00000000000E+00 0. -1.
         22    1    3    3    0    0 -0.24401505715E+02 -0.76496691231E+02 -0.66369844193E+02  0.10417357375E+03  0.00000000000E+00 0.  1.
         22    1    3    3    0    0 -0.44904720858E+02 -0.61074005675E+02  0.56355411696E+02  0.94458459399E+02  0.00000000000E+00 0.  1.
</event>
<event>
 7    1  0.6067783E-006  0.8542053E+02  0.7818608E-02  0.1389428E+00
          2   -1    0    0  502    0  0.00000000000E+00  0.00000000000E+00  0.17066654133E+03  0.17066654133E+03  0.00000000000E+00 0. -1.
          1   -1    0    0  501    0 -0.00000000000E+00 -0.00000000000E+00 -0.55813529620E+03  0.55813529620E+03  0.00000000000E+00 0. -1.
         25    2    1    2    0    0  0.54234973472E+02  0.46613932138E+02 -0.34744031080E+02  0.14814243127E+03  0.12499896492E+03 0.  0.
          2    1    1    2  501    0  0.33902490599E+02 -0.29700658402E+02 -0.44771543914E+03  0.44997846884E+03  0.00000000000E+00 0. -1.
          1    1    1    2  502    0 -0.88137464071E+02 -0.16913273736E+02  0.94990715352E+02  0.13068093742E+03  0.00000000000E+00 0. -1.
         22    1    3    3    0    0  0.34431051822E+02  0.89580355595E+02 -0.16199943675E+02  0.97327157634E+02  0.00000000000E+00 0.  1.
         22    1    3    3    0    0  0.19803921650E+02 -0.42966423457E+02 -0.18544087405E+02  0.50815273640E+02  0.00000000000E+00 0.  1.
</event>
<event>
 7    1  0.6067783E-006  0.1692609E+03  0.7818608E-02  0.1247143E+00
          2   -1    0    0  502    0  0.00000000000E+00  0.00000000000E+00  0.20614418566E+04  0.20614418566E+04  0.00000000000E+00 0. -1.
          1   -1    0    0  501    0 -0.00000000000E+00 -0.00000000000E+00 -0.34609381241E+03  0.34609381241E+03  0.00000000000E+00 0. -1.
         25    2    1    2    0    0 -0.20751758909E+03 -0.13971962523E+02 -0.45577684342E+02  0.24690095426E+03  0.12499596147E+03 0.  0.
          2    1    1    2  501    0  0.15298268020E+03 -0.46835051479E+02 -0.16683070337E+03  0.23114866661E+03  0.00000000000E+00 0. -1.
          1    1    1    2  502    0  0.54534908894E+02  0.60807014002E+02  0.19277564319E+04  0.19294860481E+04  0.00000000000E+00 0. -1.
         22    1    3    3    0    0 -0.18994963836E+03 -0.25886581250E+01 -0.80392093448E+02  0.20627761622E+03  0.00000000000E+00 0.  1.
         22    1    3    3    0    0 -0.17567950736E+02 -0.11383304398E+02  0.34814409106E+02  0.40623338040E+02  0.00000000000E+00 0.  1.
</event>
<event>
 7    1  0.6067783E-006  0.3987925E+02  0.7818608E-02  0.1538042E+00
          2   -1    0    0  502    0  0.00000000000E+00  0.00000000000E+00  0.15261142928E+04  0.15261142928E+04  0.00000000000E+00 0. -1.
          1   -1    0    0  501    0 -0.00000000000E+00 -0.00000000000E+00 -0.46236218866E+03  0.46236218866E+03  0.00000000000E+00 0. -1.
         25    2    1    2    0    0 -0.26467568676E+01 -0.37246250708E+02 -0.26272603888E+03  0.29333288605E+03  0.12499968807E+03 0.  0.
          2    1    1    2  501    0  0.31448300963E+02  0.96412392232E+01 -0.18259961931E+03  0.18553859464E+03  0.00000000000E+00 0. -1.
          1    1    1    2  502    0 -0.28801544096E+02  0.27605011484E+02  0.15090777623E+04  0.15096050008E+04  0.00000000000E+00 0. -1.
         22    1    3    3    0    0  0.18438423353E+02 -0.96075302112E+01  0.65681699461E+01  0.21804149810E+02  0.00000000000E+00 0. -1.
         22    1    3    3    0    0 -0.21085180220E+02 -0.27638720496E+02 -0.26929420883E+03  0.27152873624E+03  0.00000000000E+00 0. -1.
</event>
<event>
 7    1  0.6067783E-006  0.8232007E+02  0.7818608E-02  0.1418054E+00
          2   -1    0    0  502    0  0.00000000000E+00  0.00000000000E+00  0.31167109272E+04  0.31167109272E+04  0.00000000000E+00 0. -1.
          1   -1    0    0  501    0 -0.00000000000E+00 -0.00000000000E+00 -0.42653757352E+03  0.42653757352E+03  0.00000000000E+00 0. -1.
         25    2    1    2    0    0 -0.31778670448E+02 -0.41640178043E+02  0.17337121011E+04  0.17390015460E+04  0.12499975590E+03 0.  0.
          2    1    1    2  501    0  0.25324031055E+02  0.78407907825E+02 -0.41963331524E+03  0.42764614557E+03  0.00000000000E+00 0. -1.
          1    1    1    2  502    0  0.64546393923E+01 -0.36767729782E+02  0.13760945678E+04  0.13766008091E+04  0.00000000000E+00 0. -1.
         22    1    3    3    0    0 -0.66180804777E+02 -0.53410647782E+02  0.15064994493E+04  0.15088980041E+04  0.00000000000E+00 0.  1.
         22    1    3    3    0    0  0.34402134330E+02  0.11770469739E+02  0.22721265188E+03  0.23010354187E+03  0.00000000000E+00 0.  1.
</event>
<event>
 7    1  0.6067783E-006  0.5164373E+02  0.7818608E-02  0.1479528E+00
          2   -1    0    0  502    0  0.00000000000E+00  0.00000000000E+00  0.11842998705E+04  0.11842998705E+04  0.00000000000E+00 0. -1.
          1   -1    0    0  501    0 -0.00000000000E+00 -0.00000000000E+00 -0.15093574837E+02  0.15093574837E+02  0.00000000000E+00 0. -1.
         25    2    1    2    0    0  0.10333452409E+02  0.22536882873E+02  0.43907398918E+03  0.45719298470E+03  0.12499906380E+03 0.  0.
          2    1    1    2  501    0 -0.29284923529E+02 -0.55236725952E+02  0.17588658679E+03  0.18666760311E+03  0.00000000000E+00 0. -1.
          1    1    1    2  502    0  0.18951471121E+02  0.32699843079E+02  0.55424571965E+03  0.55553285749E+03  0.00000000000E+00 0. -1.
         22    1    3    3    0    0  0.25403556850E+02  0.22995463973E+02  0.44069851818E+03  0.44202863707E+03  0.00000000000E+00 0. -1.
         22    1    3    3    0    0 -0.15070104442E+02 -0.45858109986E+00 -0.16245289967E+01  0.15164347627E+02  0.00000000000E+00 0. -1.
</event>
<event>
 7    1  0.6067783E-006  0.7966557E+02  0.7818608E-02  0.1371712E+00
          2   -1    0    0  502    0  0.00000000000E+00  0.00000000000E+00  0.13453280405E+03  0.13453280405E+03  0.00000000000E+00 0. -1.
          1   -1    0    0  501    0 -0.00000000000E+00 -0.00000000000E+00 -0.22702038824E+04  0.22702038824E+04  0.00000000000E+00 0. -1.
         25    2    1    2    0    0  0.61250992869E+02  0.66141670268E+02 -0.36051620050E+03  0.39207638552E+03  0.12500222632E+03 0.  0.
          2    1    1    2  501    0 -0.54180281062E+02  0.13487004913E+02 -0.18799921692E+04  0.18808210862E+04  0.00000000000E+00 0. -1.
          1    1    1    2  502    0 -0.70707118071E+01 -0.79628675181E+02  0.10483729135E+03  0.13183921471E+03  0.00000000000E+00 0. -1.
         22    1    3    3    0    0  0.96110292650E+01  0.51042438982E+02 -0.32136952936E+03  0.32553967018E+03  0.00000000000E+00 0.  1.
         22    1    3    3    0    0  0.51639963604E+02  0.15099231286E+02 -0.39146671140E+02  0.66536715336E+02  0.00000000000E+00 0.  1.
</event>
<event>
 7    1  0.6067783E-006  0.1086262E+03  0.7818608E-02  0.1275938E+00
          2   -1    0    0  502    0  0.00000000000E+00  0.00000000000E+00  0.50574653907E+03  0.50574653907E+03  0.00000000000E+00 0. -1.
          1   -1    0    0  501    0 -0.00000000000E+00 -0.00000000000E+00 -0.17998133872E+04  0.17998133872E+04  0.00000000000E+00 0. -1.
         25    2    1    2    0    0 -0.19028565594E+03  0.64759517501E+02 -0.22089773694E+03  0.32376394751E+03  0.12499943023E+03 0.  0.
          2    1    1    2  501    0  0.97752103814E+02 -0.39314785654E+02 -0.15205711274E+04  0.15242170710E+04  0.00000000000E+00 0. -1.
          1    1    1    2  502    0  0.92533552123E+02 -0.25444731847E+02  0.44740201623E+03  0.45757890771E+03  0.00000000000E+00 0. -1.
         22    1    3    3    0    0 -0.88830980265E+02  0.63011382604E+02 -0.39381448864E+02  0.11581138073E+03  0.00000000000E+00 0. -1.
         22    1    3    3    0    0 -0.10145467567E+03  0.17481348970E+01 -0.18151628808E+03  0.20795256678E+03  0.00000000000E+00 0. -1.
</event>
<event>
 7    1  0.6067783E-006  0.9852100E+02  0.7818608E-02  0.1319336E+00
          2   -1    0    0  502    0  0.00000000000E+00  0.00000000000E+00  0.18743406469E+03  0.18743406469E+03  0.00000000000E+00 0. -1.
          1   -1    0    0  501    0 -0.00000000000E+00 -0.00000000000E+00 -0.13108299499E+04  0.13108299499E+04  0.00000000000E+00 0. -1.
         25    2    1    2    0    0  0.16448460228E+02 -0.15373980619E+03 -0.22753783132E+02  0.20012308591E+03  0.12500014005E+03 0.  0.
          2    1    1    2  501    0 -0.26955232858E+02  0.65480397488E+02 -0.11781103567E+04  0.11802365354E+04  0.00000000000E+00 0. -1.
          1    1    1    2  502    0  0.10506772630E+02  0.88259408706E+02  0.77468254555E+02  0.11790439330E+03  0.00000000000E+00 0. -1.
         22    1    3    3    0    0 -0.21072867694E+02 -0.13008993866E+03  0.25879214667E+02  0.13430261220E+03  0.00000000000E+00 0. -1.
         22    1    3    3    0    0  0.37521327922E+02 -0.23649867535E+02 -0.48632997799E+02  0.65820473702E+02  0.00000000000E+00 0. -1.
</event>
<event>
 7    1  0.6067783E-006  0.5727080E+02  0.7818608E-02  0.1526699E+00
          2   -1    0    0  502    0  0.00000000000E+00  0.00000000000E+00  0.13130790377E+04  0.13130790377E+04  0.00000000000E+00 0. -1.
          1   -1    0    0  501    0 -0.00000000000E+00 -0.00000000000E+00 -0.95570708944E+02  0.95570708944E+02  0.00000000000E+00 0. -1.
         25    2    1    2    0    0  0.29808855415E+02 -0.28385577507E+02  0.91530010115E+01  0.13192051740E+03  0.12499974645E+03 0.  0.
          2    1    1    2  501    0 -0.53167029759E+02  0.36348339525E+02 -0.36167447935E+01  0.64505935250E+02  0.00000000000E+00 0. -1.
          1    1    1    2  502    0  0.23358174344E+02 -0.79627620178E+01  0.12119720726E+04  0.12122232940E+04  0.00000000000E+00 0. -1.
         22    1    3    3    0    0  0.10619451418E+02 -0.55662626979E+02  0.52486225134E+02  0.77239268636E+02  0.00000000000E+00 0.  1.
         22    1    3    3    0    0  0.19189403997E+02  0.27277049472E+02 -0.43333224122E+02  0.54681248765E+02  0.00000000000E+00 0.  1.
</event>
<event>
 7    1  0.6067783E-006  0.5180157E+02  0.7818608E-02  0.1461060E+00
          2   -1    0    0  502    0  0.00000000000E+00  0.00000000000E+00  0.57756024156E+03  0.57756024156E+03  0.00000000000E+00 0. -1.
          1   -1    0    0  501    0 -0.00000000000E+00 -0.00000000000E+00 -0.34670414065E+04  0.34670414065E+04  0.00000000000E+00 0. -1.
         25    2    1    2    0    0  0.28083100736E+02 -0.65368920239E+02 -0.27226226702E+03  0.30791911992E+03  0.12500274433E+03 0.  0.
          2    1    1    2  501    0 -0.40287689705E+02  0.15047600329E+02 -0.31756072717E+04  0.31758984670E+04  0.00000000000E+00 0. -1.
          1    1    1    2  502    0  0.12204588969E+02  0.50321319910E+02  0.55838837383E+03  0.56078406116E+03  0.00000000000E+00 0. -1.
         22    1    3    3    0    0  0.62740980600E-01 -0.22095493834E+02 -0.25129612236E+03  0.25226564550E+03  0.00000000000E+00 0.  1.
         22    1    3    3    0    0  0.28020359755E+02 -0.43273426404E+02 -0.20966144661E+02  0.55653474425E+02  0.00000000000E+00 0.  1.
</event>
<event>
 7    1  0.6067783E-006  0.7029617E+02  0.7818608E-02  0.1383295E+00
          2   -1    0    0  502    0  0.00000000000E+00  0.00000000000E+00  0.21307302980E+04  0.21307302980E+04  0.00000000000E+00 0. -1.
          1   -1    0    0  501    0 -0.00000000000E+00 -0.00000000000E+00 -0.21150223593E+04  0.21150223593E+04  0.00000000000E+00 0. -1.
         25    2    1    2    0    0 -0.58011614290E+01  0.13487062515E+02 -0.13566407304E+02  0.12659234066E+03  0.12500407584E+03 0.  0.
          2    1    1    2  501    0 -0.45310468665E+02  0.35484272803E+02 -0.20439339121E+04  0.20447439960E+04  0.00000000000E+00 0. -1.
          1    1    1    2  502    0  0.51111630094E+02 -0.48971335318E+02  0.20732082580E+04  0.20744163207E+04  0.00000000000E+00 0. -1.
         22    1    3    3    0    0  0.40138911041E+02  0.45256505446E+02 -0.31141715935E+02  0.68037415707E+02  0.00000000000E+00 0.  1.
         22    1    3    3    0    0 -0.45940072470E+02 -0.31769442931E+02  0.17575308631E+02  0.58554924953E+02  0.00000000000E+00 0.  1.
</event>
<event>
 7    1  0.6067783E-006  0.7956988E+02  0.7818608E-02  0.1346529E+00
          2   -1    0    0  502    0  0.00000000000E+00  0.00000000000E+00  0.70542140172E+03  0.70542140172E+03  0.00000000000E+00 0. -1.
          1   -1    0    0  501    0 -0.00000000000E+00 -0.00000000000E+00 -0.10086335717E+03  0.10086335717E+03  0.00000000000E+00 0. -1.
         25    2    1    2    0    0 -0.23797500153E+01 -0.24102270784E+02  0.38723160016E+02  0.13309738979E+03  0.12501539657E+03 0.  0.
          2    1    1    2  501    0 -0.57978926636E+02  0.75950083533E+02 -0.60986471547E+01  0.95745311215E+02  0.00000000000E+00 0. -1.
          1    1    1    2  502    0  0.60358676652E+02 -0.51847812749E+02  0.57193353170E+03  0.57744205788E+03  0.00000000000E+00 0. -1.
         22    1    3    3    0    0  0.21121497995E+02  0.24344814451E+02  0.65470489593E+02  0.72973780742E+02  0.00000000000E+00 0.  1.
         22    1    3    3    0    0 -0.23501248011E+02 -0.48447085235E+02 -0.26747329576E+02  0.60123609051E+02  0.00000000000E+00 0.  1.
</event>
<event>
 7    1  0.6067783E-006  0.1050667E+03  0.7818608E-02  0.1352015E+00
          2   -1    0    0  502    0  0.00000000000E+00  0.00000000000E+00  0.15541056570E+04  0.15541056570E+04  0.00000000000E+00 0. -1.
          1   -1    0    0  501    0 -0.00000000000E+00 -0.00000000000E+00 -0.38292907313E+03  0.38292907313E+03  0.00000000000E+00 0. -1.
         25    2    1    2    0    0  0.15312002686E+03  0.13381113213E+02 -0.87279503615E+02  0.21648994321E+03  0.12500154777E+03 0.  0.
          2    1    1    2  501    0 -0.49865779532E+02  0.25949715314E+01 -0.22648923003E+03  0.23192822417E+03  0.00000000000E+00 0. -1.
          1    1    1    2  502    0 -0.10325424732E+03 -0.15976084744E+02  0.14849453175E+04  0.14886165628E+04  0.00000000000E+00 0. -1.
         22    1    3    3    0    0  0.37427675806E+02 -0.51090912622E+02 -0.13052544684E+02  0.64664373434E+02  0.00000000000E+00 0.  1.
         22    1    3    3    0    0  0.11569235105E+03  0.64472025835E+02 -0.74226958932E+02  0.15182556978E+03  0.00000000000E+00 0.  1.
</event>
<event>
 7    1  0.6067783E-006  0.6223118E+02  0.7818608E-02  0.1481778E+00
          2   -1    0    0  502    0  0.00000000000E+00  0.00000000000E+00  0.17604125046E+03  0.17604125046E+03  0.00000000000E+00 0. -1.
          1   -1    0    0  501    0 -0.00000000000E+00 -0.00000000000E+00 -0.12421587446E+04  0.12421587446E+04  0.00000000000E+00 0. -1.
         25    2    1    2    0    0  0.35865572100E+02 -0.26810460389E+01  0.83221350680E+02  0.15438808569E+03  0.12496543732E+03 0.  0.
          2    1    1    2  501    0 -0.60283489851E+02 -0.16206948551E+02 -0.12015428574E+04  0.12031633316E+04  0.00000000000E+00 0. -1.
          1    1    1    2  502    0  0.24417917751E+02  0.18887994590E+02  0.52204012620E+02  0.60648577729E+02  0.00000000000E+00 0. -1.
         22    1    3    3    0    0 -0.34357943309E+01 -0.53655576461E+02  0.70690227519E+02  0.88813477776E+02  0.00000000000E+00 0.  1.
         22    1    3    3    0    0  0.39301366431E+02  0.50974530422E+02  0.12531123160E+02  0.65574607911E+02  0.00000000000E+00 0.  1.
</event>
<event>
 7    1  0.6067783E-006  0.6110550E+02  0.7818608E-02  0.1439461E+00
          2   -1    0    0  502    0  0.00000000000E+00  0.00000000000E+00  0.16476806786E+04  0.16476806786E+04  0.00000000000E+00 0. -1.
          1   -1    0    0  501    0 -0.00000000000E+00 -0.00000000000E+00 -0.37046555066E+02  0.37046555066E+02  0.00000000000E+00 0. -1.
         25    2    1    2    0    0 -0.23423702262E+02 -0.59334259494E+01  0.24425517483E+03  0.27544531801E+03  0.12500262962E+03 0.  0.
          2    1    1    2  501    0 -0.24167262331E+02 -0.35256754094E+02  0.13119661882E+01  0.42764664539E+02  0.00000000000E+00 0. -1.
          1    1    1    2  502    0  0.47590964593E+02  0.41190180043E+02  0.13650669825E+04  0.13665172511E+04  0.00000000000E+00 0. -1.
         22    1    3    3    0    0 -0.64198285918E+02  0.26858402377E+02  0.98662436876E+02  0.12073553803E+03  0.00000000000E+00 0.  1.
         22    1    3    3    0    0  0.40774583656E+02 -0.32791828326E+02  0.14559273795E+03  0.15470977998E+03  0.00000000000E+00 0.  1.
</event>
<event>
 7    1  0.6067783E-006  0.2155060E+03  0.7818608E-02  0.1274864E+00
          2   -1    0    0  502    0  0.00000000000E+00  0.00000000000E+00  0.15448963578E+04  0.15448963578E+04  0.00000000000E+00 0. -1.
          1   -1    0    0  501    0 -0.00000000000E+00 -0.00000000000E+00 -0.67059331652E+03  0.67059331652E+03  0.00000000000E+00 0. -1.
         25    2    1    2    0    0 -0.76678424778E+02  0.16115010159E+03  0.11612416561E+03  0.24689684482E+03  0.12499717626E+03 0.  0.
          2    1    1    2  501    0  0.67419184191E+02 -0.20913867774E+03 -0.58480243193E+03  0.62472251226E+03  0.00000000000E+00 0. -1.
          1    1    1    2  502    0  0.92592405867E+01  0.47988576154E+02  0.13429813076E+04  0.13438703172E+04  0.00000000000E+00 0. -1.
         22    1    3    3    0    0 -0.10747900397E+03  0.12611640494E+03  0.65828557899E+02  0.17829885844E+03  0.00000000000E+00 0. -1.
         22    1    3    3    0    0  0.30800579187E+02  0.35033696653E+02  0.50295607712E+02  0.68597986374E+02  0.00000000000E+00 0. -1.
</event>
<event>
 7    1  0.6067783E-006  0.5321715E+02  0.7818608E-02  0.1477930E+00
          2   -1    0    0  502    0  0.00000000000E+00  0.00000000000E+00  0.27203186768E+04  0.27203186768E+04  0.00000000000E+00 0. -1.
          1   -1    0    0  501    0 -0.00000000000E+00 -0.00000000000E+00 -0.29707972337E+02  0.29707972337E+02  0.00000000000E+00 0. -1.
         25    2    1    2    0    0  0.20989574219E+02 -0.14107985587E+02  0.14089809096E+04  0.14147403354E+04  0.12499366158E+03 0.  0.
          2    1    1    2  501    0 -0.53757062664E+02 -0.32778006601E+01  0.74250486698E+00  0.53862018872E+02  0.00000000000E+00 0. -1.
          1    1    1    2  502    0  0.32767488445E+02  0.17385786247E+02  0.12808872900E+04  0.12814242949E+04  0.00000000000E+00 0. -1.
         22    1    3    3    0    0  0.61811790076E+02  0.27940191863E+02  0.66304857062E+03  0.66650938381E+03  0.00000000000E+00 0.  1.
         22    1    3    3    0    0 -0.40822215857E+02 -0.42048177449E+02  0.74593233900E+03  0.74823095158E+03  0.00000000000E+00 0.  1.
</event>
<event>
 7    1  0.6067783E-006  0.5827339E+02  0.7818608E-02  0.1502054E+00
          2   -1    0    0  502    0  0.00000000000E+00  0.00000000000E+00  0.49793302196E+03  0.49793302196E+03  0.00000000000E+00 0. -1.
          1   -1    0    0  501    0 -0.00000000000E+00 -0.00000000000E+00 -0.11942301203E+03  0.11942301203E+03  0.00000000000E+00 0. -1.
         25    2    1    2    0    0 -0.37436745094E+01  0.74580035589E+02  0.20094365212E+03  0.24815694472E+03  0.12500928397E+03 0.  0.
          2    1    1    2  501    0 -0.17295990584E+02 -0.55155953064E+02 -0.86252504534E+02  0.10383075164E+03  0.00000000000E+00 0. -1.
          1    1    1    2  502    0  0.21039665094E+02 -0.19424082525E+02  0.26381886234E+03  0.26536833763E+03  0.00000000000E+00 0. -1.
         22    1    3    3    0    0 -0.27409829994E+02  0.26173860245E+02 -0.22250537915E+01  0.37964728431E+02  0.00000000000E+00 0. -1.
         22    1    3    3    0    0  0.23666155485E+02  0.48406175344E+02  0.20316870591E+03  0.21019221629E+03  0.00000000000E+00 0. -1.
</event>
<event>
 7    1  0.6067783E-006  0.2646076E+03  0.7818608E-02  0.1349664E+00
          2   -1    0    0  502    0  0.00000000000E+00  0.00000000000E+00  0.12447286510E+04  0.12447286510E+04  0.00000000000E+00 0. -1.
          1   -1    0    0  501    0 -0.00000000000E+00 -0.00000000000E+00 -0.15241877895E+03  0.15241877895E+03  0.00000000000E+00 0. -1.
         25    2    1    2    0    0 -0.12476599592E+03 -0.22281614346E+03  0.73762136823E+03  0.79052099272E+03  0.12499827814E+03 0.  0.
          2    1    1    2  501    0  0.11477699860E+03  0.24040555933E+03  0.15515463882E+02  0.26685074852E+03  0.00000000000E+00 0. -1.
          1    1    1    2  502    0  0.99889973186E+01 -0.17589415873E+02  0.33917303991E+03  0.33977568868E+03  0.00000000000E+00 0. -1.
         22    1    3    3    0    0 -0.22732564054E+02 -0.69283154183E+02  0.39285182332E+03  0.39956160978E+03  0.00000000000E+00 0.  1.
         22    1    3    3    0    0 -0.10203343186E+03 -0.15353298928E+03  0.34476954491E+03  0.39095938294E+03  0.00000000000E+00 0.  1.
</event>
<event>
 7    1  0.6067783E-006  0.6611632E+02  0.7818608E-02  0.1452562E+00
          2   -1    0    0  502    0  0.00000000000E+00  0.00000000000E+00  0.57693595147E+03  0.57693595147E+03  0.00000000000E+00 0. -1.
          1   -1    0    0  501    0 -0.00000000000E+00 -0.00000000000E+00 -0.29987622696E+03  0.29987622696E+03  0.00000000000E+00 0. -1.
         25    2    1    2    0    0 -0.78685049113E+02  0.52230450248E+02  0.36470407983E+02  0.16085761898E+03  0.12500290412E+03 0.  0.
          2    1    1    2  501    0  0.43008616419E+02 -0.48701768370E+02 -0.23255139901E+03  0.24145756668E+03  0.00000000000E+00 0. -1.
          1    1    1    2  502    0  0.35676432694E+02 -0.35286818774E+01  0.47314071554E+03  0.47449699277E+03  0.00000000000E+00 0. -1.
         22    1    3    3    0    0  0.54151201821E+01  0.21363164234E+02 -0.38287230980E+02  0.44177147585E+02  0.00000000000E+00 0. -1.
         22    1    3    3    0    0 -0.84100169295E+02  0.30867286014E+02  0.74757638963E+02  0.11668047139E+03  0.00000000000E+00 0. -1.
</event>
<event>
 7    1  0.6067783E-006  0.9690830E+02  0.7818608E-02  0.1417015E+00
          2   -1    0    0  502    0  0.00000000000E+00  0.00000000000E+00  0.57375518272E+03  0.57375518272E+03  0.00000000000E+00 0. -1.
          1   -1    0    0  501    0 -0.00000000000E+00 -0.00000000000E+00 -0.21852315019E+04  0.21852315019E+04  0.00000000000E+00 0. -1.
         25    2    1    2    0    0 -0.37615313714E+02 -0.11846671349E+03 -0.19234413682E+01  0.17628885855E+03  0.12499915197E+03 0.  0.
          2    1    1    2  501    0  0.42256913092E+02  0.86839693355E+02 -0.20944864806E+04  0.20967118057E+04  0.00000000000E+00 0. -1.
          1    1    1    2  502    0 -0.46415993777E+01  0.31627020132E+02  0.48493360277E+03  0.48598602032E+03  0.00000000000E+00 0. -1.
         22    1    3    3    0    0 -0.15381111250E+02 -0.47386488516E+02  0.61021157444E+02  0.78775881670E+02  0.00000000000E+00 0. -1.
         22    1    3    3    0    0 -0.22234202464E+02 -0.71080224971E+02 -0.62944598812E+02  0.97512976883E+02  0.00000000000E+00 0. -1.
</event>
<event>
 7    1  0.6067783E-006  0.9997235E+02  0.7818608E-02  0.1352528E+00
          2   -1    0    0  502    0  0.00000000000E+00  0.00000000000E+00  0.26364693639E+04  0.26364693639E+04  0.00000000000E+00 0. -1.
          1   -1    0    0  501    0 -0.00000000000E+00 -0.00000000000E+00 -0.24103226666E+02  0.24103226666E+02  0.00000000000E+00 0. -1.
         25    2    1    2    0    0 -0.42081750865E+02 -0.59256516508E+02  0.14256959543E+04  0.14330095829E+04  0.12500120915E+03 0.  0.
          2    1    1    2  501    0 -0.29346957013E+02 -0.43228560964E+02  0.22798254041E+02  0.57006251904E+02  0.00000000000E+00 0. -1.
          1    1    1    2  502    0  0.71428707877E+02  0.10248507747E+03  0.11638719289E+04  0.11705567557E+04  0.00000000000E+00 0. -1.
         22    1    3    3    0    0 -0.58010093454E+02 -0.34492064143E+02  0.32566747181E+03  0.33258709480E+03  0.00000000000E+00 0.  1.
         22    1    3    3    0    0  0.15928342589E+02 -0.24764452365E+02  0.11000284824E+04  0.11004224881E+04  0.00000000000E+00 0.  1.
</event>
<event>
 7    1  0.7985563E-006  0.1563459E+03  0.7818608E-02  0.1319943E+00
          2   -1    0    0  502    0  0.00000000000E+00  0.00000000000E+00  0.17268405686E+04  0.17268405686E+04  0.00000000000E+00 0. -1.
          1   -1    0    0  501    0 -0.00000000000E+00 -0.00000000000E+00 -0.15953573999E+04  0.15953573999E+04  0.00000000000E+00 0. -1.
         25    2    1    2    0    0 -0.75736906745E+02 -0.84523633232E+02 -0.83835775527E+02  0.18850544417E+03  0.12500216640E+03 0.  0.
          2    1    1    2  501    0 -0.24357635948E+02 -0.37098377725E+02 -0.14551435349E+04  0.14558201439E+04  0.00000000000E+00 0. -1.
          1    1    1    2  502    0  0.10009454269E+03  0.12162201096E+03  0.16704624791E+04  0.16778723805E+04  0.00000000000E+00 0. -1.
         22    1    3    3    0    0  0.22704905945E+02  0.12498208416E+02  0.16808955538E+01  0.25971972922E+02  0.00000000000E+00 0.  1.
         22    1    3    3    0    0 -0.98441812690E+02 -0.97021841648E+02 -0.85516671081E+02  0.16253347125E+03  0.00000000000E+00 0.  1.
</event>
<event>
 7    1  0.6067783E-006  0.4242321E+02  0.7818608E-02  0.1575479E+00
          2   -1    0    0  502    0  0.00000000000E+00  0.00000000000E+00  0.65828800603E+03  0.65828800603E+03  0.00000000000E+00 0. -1.
          1   -1    0    0  501    0 -0.00000000000E+00 -0.00000000000E+00 -0.11431132474E+04  0.11431132474E+04  0.00000000000E+00 0. -1.
         25    2    1    2    0    0 -0.54483791617E+01  0.19987732713E+02  0.25242595818E+03  0.28243986725E+03  0.12499687978E+03 0.  0.
          2    1    1    2  501    0 -0.45255759734E+01 -0.42215894009E+02 -0.11273266193E+04  0.11281258658E+04  0.00000000000E+00 0. -1.
          1    1    1    2  502    0  0.99739551351E+01  0.22228161297E+02  0.39007541972E+03  0.39083552040E+03  0.00000000000E+00 0. -1.
         22    1    3    3    0    0  0.55907292065E+01  0.51017413298E+02  0.24274569920E+03  0.24811188443E+03  0.00000000000E+00 0.  1.
         22    1    3    3    0    0 -0.11039108368E+02 -0.31029680585E+02  0.96802589792E+01  0.34327982823E+02  0.00000000000E+00 0.  1.
</event>
<event>
 7    1  0.6067783E-006  0.4666094E+02  0.7818608E-02  0.1478607E+00
          2   -1    0    0  502    0  0.00000000000E+00  0.00000000000E+00  0.35624476382E+03  0.35624476382E+03  0.00000000000E+00 0. -1.
          1   -1    0    0  501    0 -0.00000000000E+00 -0.00000000000E+00 -0.38531380473E+03  0.38531380473E+03  0.00000000000E+00 0. -1.
         25    2    1    2    0    0 -0.15677548523E+02  0.12626093648E+02 -0.24102535884E+02  0.12888268764E+03  0.12499844467E+03 0.  0.
          2    1    1    2  501    0 -0.82661606520E+01 -0.47258910711E+02 -0.30548139360E+03  0.30922583316E+03  0.00000000000E+00 0. -1.
          1    1    1    2  502    0  0.23943709175E+02  0.34632817063E+02  0.30051488857E+03  0.30345004775E+03  0.00000000000E+00 0. -1.
         22    1    3    3    0    0  0.35532328101E+02  0.63675809999E+01 -0.57163589754E+02  0.67607458328E+02  0.00000000000E+00 0.  1.
         22    1    3    3    0    0 -0.51209876624E+02  0.62585126478E+01  0.33061053870E+02  0.61275229313E+02  0.00000000000E+00 0.  1.
</event>
<event>
 7    1  0.6067783E-006  0.9023733E+02  0.7818608E-02  0.1322352E+00
          2   -1    0    0  502    0  0.00000000000E+00  0.00000000000E+00  0.64626094502E+02  0.64626094502E+02  0.00000000000E+00 0. -1.
          1   -1    0    0  501    0 -0.00000000000E+00 -0.00000000000E+00 -0.27115831536E+04  0.27115831536E+04  0.00000000000E+00 0. -1.
         25    2    1    2    0    0  0.23175245074E+02 -0.18786427848E+02 -0.26405769952E+03  0.29366892540E+03  0.12499978886E+03 0.  0.
          2    1    1    2  501    0  0.74426364237E+02 -0.11165386807E+02 -0.23791889035E+04  0.23803789169E+04  0.00000000000E+00 0. -1.
          1    1    1    2  502    0 -0.97601609311E+02  0.29951814654E+02 -0.37104560446E+01  0.10216140575E+03  0.00000000000E+00 0. -1.
         22    1    3    3    0    0 -0.35379385041E+02 -0.24905927523E+02 -0.30834866824E+02  0.53129983283E+02  0.00000000000E+00 0.  1.
         22    1    3    3    0    0  0.58554630115E+02  0.61194996747E+01 -0.23322283269E+03  0.24053894211E+03  0.00000000000E+00 0.  1.
</event>
<event>
 7    1  0.6067783E-006  0.5574265E+02  0.7818608E-02  0.1447424E+00
          2   -1    0    0  502    0  0.00000000000E+00  0.00000000000E+00  0.62085347764E+03  0.62085347764E+03  0.00000000000E+00 0. -1.
          1   -1    0    0  501    0 -0.00000000000E+00 -0.00000000000E+00 -0.13047547069E+04  0.13047547069E+04  0.00000000000E+00 0. -1.
         25    2    1    2    0    0  0.43400011537E+02 -0.43408908290E+02 -0.24012094083E+03  0.27758115754E+03  0.12500135388E+03 0.  0.
          2    1    1    2  501    0  0.12390666667E+02  0.42388713171E+02 -0.10441431189E+04  0.10450766404E+04  0.00000000000E+00 0. -1.
          1    1    1    2  502    0 -0.55790678204E+02  0.10201951188E+01  0.60036283043E+03  0.60295038663E+03  0.00000000000E+00 0. -1.
         22    1    3    3    0    0  0.58667171982E+02  0.27384558532E+02 -0.13748753241E+03  0.15196898592E+03  0.00000000000E+00 0.  1.
         22    1    3    3    0    0 -0.15267160445E+02 -0.70793466821E+02 -0.10263340842E+03  0.12561217161E+03  0.00000000000E+00 0.  1.
</event>
<event>
 7    1  0.6067783E-006  0.5220424E+02  0.7818608E-02  0.1457848E+00
          2   -1    0    0  502    0  0.00000000000E+00  0.00000000000E+00  0.29497753358E+03  0.29497753358E+03  0.00000000000E+00 0. -1.
          1   -1    0    0  501    0 -0.00000000000E+00 -0.00000000000E+00 -0.46578600439E+03  0.46578600439E+03  0.00000000000E+00 0. -1.
         25    2    1    2    0    0  0.23989755815E+02  0.43861314885E+02  0.64124094177E+02  0.14911473253E+03  0.12499592264E+03 0.  0.
          2    1    1    2  501    0  0.19413587278E+02 -0.48792926783E+02 -0.41909724282E+03  0.42237440265E+03  0.00000000000E+00 0. -1.
          1    1    1    2  502    0 -0.43403343093E+02  0.49316118986E+01  0.18416467784E+03  0.18927440279E+03  0.00000000000E+00 0. -1.
         22    1    3    3    0    0  0.36514717935E+02 -0.36199533723E+02  0.12113165942E+02  0.52824801531E+02  0.00000000000E+00 0.  1.
         22    1    3    3    0    0 -0.12524962120E+02  0.80060848608E+02  0.52010928235E+02  0.96289930999E+02  0.00000000000E+00 0.  1.
</event>
<event>
 7    1  0.6067783E-006  0.6341080E+02  0.7818608E-02  0.1389208E+00
          2   -1    0    0  502    0  0.00000000000E+00  0.00000000000E+00  0.10077267026E+04  0.10077267026E+04  0.00000000000E+00 0. -1.
          1   -1    0    0  501    0 -0.00000000000E+00 -0.00000000000E+00 -0.10126637252E+04  0.10126637252E+04  0.00000000000E+00 0. -1.
         25    2    1    2    0    0 -0.29548513481E+02  0.40510335450E+02  0.47927214309E+02  0.14295431188E+03  0.12499886194E+03 0.  0.
          2    1    1    2  501    0 -0.34057279760E+02 -0.50395302547E+02 -0.96305411155E+03  0.96497295640E+03  0.00000000000E+00 0. -1.
          1    1    1    2  502    0  0.63605793242E+02  0.98849670967E+01  0.91018987468E+03  0.91246315952E+03  0.00000000000E+00 0. -1.
         22    1    3    3    0    0 -0.16087338023E+02  0.39374250639E+02  0.89580304779E+02  0.99165342042E+02  0.00000000000E+00 0.  1.
         22    1    3    3    0    0 -0.13461175459E+02  0.11360848114E+01 -0.41653090470E+02  0.43788969834E+02  0.00000000000E+00 0.  1.
</event>
<event>
 7    1  0.6067783E-006  0.5045869E+02  0.7818608E-02  0.1530217E+00
          2   -1    0    0  502    0  0.00000000000E+00  0.00000000000E+00  0.79212763116E+02  0.79212763116E+02  0.00000000000E+00 0. -1.
          1   -1    0    0  501    0 -0.00000000000E+00 -0.00000000000E+00 -0.10456978898E+04  0.10456978898E+04  0.00000000000E+00 0. -1.
         25    2    1    2    0    0  0.66480900765E+02 -0.16669353896E+02 -0.25300194468E+03  0.29039978927E+03  0.12499790426E+03 0.  0.
          2    1    1    2  501    0 -0.41436654747E+02  0.27700463204E+02 -0.77005566165E+03  0.77166704871E+03  0.00000000000E+00 0. -1.
          1    1    1    2  502    0 -0.25044246018E+02 -0.11031109308E+02  0.56572479612E+02  0.62843814975E+02  0.00000000000E+00 0. -1.
         22    1    3    3    0    0  0.39902905229E+02 -0.70416325848E+02 -0.12304751890E+03  0.14727998065E+03  0.00000000000E+00 0.  1.
         22    1    3    3    0    0  0.26577995536E+02  0.53746971952E+02 -0.12995442578E+03  0.14311980862E+03  0.00000000000E+00 0.  1.
</event>
<event>
 7    1  0.6067783E-006  0.6810153E+02  0.7818608E-02  0.1419744E+00
          2   -1    0    0  502    0  0.00000000000E+00  0.00000000000E+00  0.86038696050E+03  0.86038696050E+03  0.00000000000E+00 0. -1.
          1   -1    0    0  501    0 -0.00000000000E+00 -0.00000000000E+00 -0.36024970177E+03  0.36024970177E+03  0.00000000000E+00 0. -1.
         25    2    1    2    0    0  0.67099793485E+02  0.88330094222E+02 -0.13273754435E+03  0.21342791279E+03  0.12501052135E+03 0.  0.
          2    1    1    2  501    0 -0.33261758748E+02 -0.29622637545E+02 -0.18309273452E+03  0.18843246717E+03  0.00000000000E+00 0. -1.
          1    1    1    2  502    0 -0.33838034737E+02 -0.58707456677E+02  0.81596753760E+03  0.81877628231E+03  0.00000000000E+00 0. -1.
         22    1    3    3    0    0  0.46560806870E+02  0.19976590660E+02 -0.13271296483E+03  0.14205528481E+03  0.00000000000E+00 0. -1.
         22    1    3    3    0    0  0.20538986615E+02  0.68353503562E+02 -0.24579527225E-01  0.71372627979E+02  0.00000000000E+00 0. -1.
</event>
<event>
 7    1  0.6067783E-006  0.7374510E+02  0.7818608E-02  0.1449699E+00
          2   -1    0    0  502    0  0.00000000000E+00  0.00000000000E+00  0.38979719526E+03  0.38979719526E+03  0.00000000000E+00 0. -1.
          1   -1    0    0  501    0 -0.00000000000E+00 -0.00000000000E+00 -0.70431874811E+03  0.70431874811E+03  0.00000000000E+00 0. -1.
         25    2    1    2    0    0  0.42208578003E+02  0.89041367547E+02  0.28913677971E+03  0.33005377913E+03  0.12500196218E+03 0.  0.
          2    1    1    2  501    0 -0.47080374567E+02 -0.56579121855E+02 -0.67842534640E+03  0.68240655722E+03  0.00000000000E+00 0. -1.
          1    1    1    2  502    0  0.48717965639E+01 -0.32462245692E+02  0.74767013847E+02  0.81655607013E+02  0.00000000000E+00 0. -1.
         22    1    3    3    0    0  0.28172988329E+02  0.71212292795E+02  0.29647461128E+03  0.30620598141E+03  0.00000000000E+00 0.  1.
         22    1    3    3    0    0  0.14035589674E+02  0.17829074751E+02 -0.73378315754E+01  0.23847797723E+02  0.00000000000E+00 0.  1.
</event>
<event>
 7    1  0.6067783E-006  0.8376812E+02  0.7818608E-02  0.1338621E+00
          2   -1    0    0  502    0  0.00000000000E+00  0.00000000000E+00  0.22654635941E+04  0.22654635941E+04  0.00000000000E+00 0. -1.
          1   -1    0    0  501    0 -0.00000000000E+00 -0.00000000000E+00 -0.20655980789E+03  0.20655980789E+03  0.00000000000E+00 0. -1.
         25    2    1    2    0    0  0.40808782115E+02 -0.85272968632E+02  0.17912144804E+02  0.15774213493E+03  0.12499960129E+03 0.  0.
          2    1    1    2  501    0  0.29314218314E+02  0.80757512121E+02 -0.12251362684E+03  0.14963518277E+03  0.00000000000E+00 0. -1.
          1    1    1    2  502    0 -0.70123000429E+02  0.45154565110E+01  0.21635052682E+04  0.21646460843E+04  0.00000000000E+00 0. -1.
         22    1    3    3    0    0  0.33950608904E+02 -0.10104586442E+03 -0.26733500714E+02  0.10989809199E+03  0.00000000000E+00 0. -1.
         22    1    3    3    0    0  0.68581732115E+01  0.15772895790E+02  0.44645645518E+02  0.47844042942E+02  0.00000000000E+00 0. -1.
</event>
<event>
 7    1  0.6067783E-006  0.2381168E+03  0.7818608E-02  0.1163828E+00
          2   -1    0    0  502    0  0.00000000000E+00  0.00000000000E+00  0.13469037349E+04  0.13469037349E+04  0.00000000000E+00 0. -1.
          1   -1    0    0  501    0 -0.00000000000E+00 -0.00000000000E+00 -0.44198810522E+03  0.44198810522E+03  0.00000000000E+00 0. -1.
         25    2    1    2    0    0  0.24451960323E+03 -0.26992902296E+03 -0.14576854526E+03  0.41173379415E+03  0.12499893863E+03 0.  0.
          2    1    1    2  501    0 -0.57895620931E+02  0.13014793277E+03 -0.11828997831E+03  0.18515643736E+03  0.00000000000E+00 0. -1.
          1    1    1    2  502    0 -0.18662398230E+03  0.13978109019E+03  0.11689741532E+04  0.11920016086E+04  0.00000000000E+00 0. -1.
         22    1    3    3    0    0  0.81136747560E+02 -0.18042590211E+03 -0.89466237371E+02  0.21711951913E+03  0.00000000000E+00 0.  1.
         22    1    3    3    0    0  0.16338285567E+03 -0.89503120849E+02 -0.56302307885E+02  0.19461427502E+03  0.00000000000E+00 0.  1.
</event>
<event>
 7    1  0.6067783E-006  0.3266073E+02  0.7818608E-02  0.1596343E+00
          2   -1    0    0  502    0  0.00000000000E+00  0.00000000000E+00  0.18766373521E+04  0.18766373521E+04  0.00000000000E+00 0. -1.
          1   -1    0    0  501    0 -0.00000000000E+00 -0.00000000000E+00 -0.54031564804E+03  0.54031564804E+03  0.00000000000E+00 0. -1.
         25    2    1    2    0    0  0.48402484925E+02  0.21223999534E+02 -0.23289594365E+03  0.26955990303E+03  0.12501504728E+03 0.  0.
          2    1    1    2  501    0 -0.31903032573E+02  0.12098751197E+01 -0.28810157490E+03  0.28986511474E+03  0.00000000000E+00 0. -1.
          1    1    1    2  502    0 -0.16499452352E+02 -0.22433874654E+02  0.18573192226E+04  0.18575279824E+04  0.00000000000E+00 0. -1.
         22    1    3    3    0    0  0.49149506106E+02  0.55771945024E+02 -0.22075111747E+03  0.23293183481E+03  0.00000000000E+00 0. -1.
         22    1    3    3    0    0 -0.74702118169E+00 -0.34547945489E+02 -0.12144826178E+02  0.36628068214E+02  0.00000000000E+00 0. -1.
</event>
<event>
 7    1  0.6067783E-006  0.1112987E+03  0.7818608E-02  0.1279413E+00
          2   -1    0    0  502    0  0.00000000000E+00  0.00000000000E+00  0.90219353670E+03  0.90219353670E+03  0.00000000000E+00 0. -1.
          1   -1    0    0  501    0 -0.00000000000E+00 -0.00000000000E+00 -0.23140129291E+03  0.23140129291E+03  0.00000000000E+00 0. -1.
         25    2    1    2    0    0  0.59359068163E+01 -0.54579601449E+02 -0.10255343880E+02  0.13691127671E+03  0.12500143090E+03 0.  0.
          2    1    1    2  501    0  0.29911052165E+02  0.13779380108E+03 -0.12326349615E+03  0.18728505584E+03  0.00000000000E+00 0. -1.
          1    1    1    2  502    0 -0.35846958982E+02 -0.83214199632E+02  0.80431108382E+03  0.80939849706E+03  0.00000000000E+00 0. -1.
         22    1    3    3    0    0 -0.37386019492E+02  0.18414807315E+02  0.20735441466E+02  0.46548663941E+02  0.00000000000E+00 0. -1.
         22    1    3    3    0    0  0.43321926308E+02 -0.72994408764E+02 -0.30990785346E+02  0.90362612768E+02  0.00000000000E+00 0. -1.
</event>
<event>
 7    1  0.1225427E-005  0.5844748E+02  0.7818608E-02  0.1411857E+00
          2   -1    0    0  502    0  0.00000000000E+00  0.00000000000E+00  0.19725451562E+04  0.19725451562E+04  0.00000000000E+00 0. -1.
          1   -1    0    0  501    0 -0.00000000000E+00 -0.00000000000E+00 -0.11915853612E+04  0.11915853612E+04  0.00000000000E+00 0. -1.
         25    2    1    2    0    0 -0.51905160337E+02  0.61529353909E+02 -0.82220275966E+02  0.16989689890E+03  0.12499910165E+03 0.  0.
          2    1    1    2  501    0 -0.61548584839E+01 -0.54818782841E+02 -0.10643695677E+04  0.10657980850E+04  0.00000000000E+00 0. -1.
          1    1    1    2  502    0  0.58060018821E+02 -0.67105710681E+01  0.19275496386E+04  0.19284355335E+04  0.00000000000E+00 0. -1.
         22    1    3    3    0    0 -0.77081019481E+02  0.75382142623E+02 -0.89648401273E+02  0.14021692780E+03  0.00000000000E+00 0. -1.
         22    1    3    3    0    0  0.25175859144E+02 -0.13852788714E+02  0.74281253069E+01  0.29679971098E+02  0.00000000000E+00 0. -1.
</event>
<event>
 7    1  0.6067783E-006  0.7553676E+02  0.7818608E-02  0.1399158E+00
          2   -1    0    0  502    0  0.00000000000E+00  0.00000000000E+00  0.22215613876E+04  0.22215613876E+04  0.00000000000E+00 0. -1.
          1   -1    0    0  501    0 -0.00000000000E+00 -0.00000000000E+00 -0.36137156464E+03  0.36137156464E+03  0.00000000000E+00 0. -1.
         25    2    1    2    0    0 -0.60852942530E+02  0.99167525059E+02  0.43885475310E+03  0.47090986182E+03  0.12500129998E+03 0.  0.
          2    1    1    2  501    0  0.96447867171E+01 -0.46163050926E+02 -0.34296105002E+03  0.34618828838E+03  0.00000000000E+00 0. -1.
          1    1    1    2  502    0  0.51208155813E+02 -0.53004474132E+02  0.17642961199E+04  0.17658348021E+04  0.00000000000E+00 0. -1.
         22    1    3    3    0    0  0.13262966241E+02  0.94623281638E+02  0.27146212384E+03  0.28778665080E+03  0.00000000000E+00 0. -1.
         22    1    3    3    0    0 -0.74115908771E+02  0.45442434208E+01  0.16739262926E+03  0.18312321102E+03  0.00000000000E+00 0. -1.
</event>
<event>
 7    1  0.6067783E-006  0.7607849E+02  0.7818608E-02  0.1376087E+00
          2   -1    0    0  502    0  0.00000000000E+00  0.00000000000E+00  0.66273390836E+03  0.66273390836E+03  0.00000000000E+00 0. -1.
          1   -1    0    0  501    0 -0.00000000000E+00 -0.00000000000E+00 -0.12101471763E+03  0.12101471763E+03  0.00000000000E+00 0. -1.
         25    2    1    2    0    0  0.14016073616E+02  0.12397468662E+03  0.28422628284E+03  0.33462793250E+03  0.12500040043E+03 0.  0.
          2    1    1    2  501    0  0.10534958175E+02 -0.73200089601E+02 -0.78836966322E+02  0.10809489220E+03  0.00000000000E+00 0. -1.
          1    1    1    2  502    0 -0.24551031791E+02 -0.50774597020E+02  0.33632987421E+03  0.34102580130E+03  0.00000000000E+00 0. -1.
         22    1    3    3    0    0 -0.47943324695E+02  0.24778583103E+02  0.53716192627E+02  0.76144401723E+02  0.00000000000E+00 0. -1.
         22    1    3    3    0    0  0.61959398311E+02  0.99196103518E+02  0.23051009021E+03  0.25848353077E+03  0.00000000000E+00 0. -1.
</event>
<event>
 7    1  0.6067783E-006  0.4421950E+02  0.7818608E-02  0.1579906E+00
          2   -1    0    0  502    0  0.00000000000E+00  0.00000000000E+00  0.12536947317E+04  0.12536947317E+04  0.00000000000E+00 0. -1.
          1   -1    0    0  501    0 -0.00000000000E+00 -0.00000000000E+00 -0.11469864458E+04  0.11469864458E+04  0.00000000000E+00 0. -1.
         25    2    1    2    0    0  0.39434126522E+02 -0.71595224669E+01  0.62247016148E+03  0.63616129750E+03  0.12500314159E+03 0.  0.
          2    1    1    2  501    0 -0.33332406422E+02  0.29067249948E+02 -0.11395046956E+04  0.11403626202E+04  0.00000000000E+00 0. -1.
          1    1    1    2  502    0 -0.61017200995E+01 -0.21907727481E+02  0.62374281995E+03  0.62415725980E+03  0.00000000000E+00 0. -1.
         22    1    3    3    0    0  0.57706721661E+02 -0.44253008021E+02  0.52871239738E+03  0.53369016628E+03  0.00000000000E+00 0. -1.
         22    1    3    3    0    0 -0.18272595139E+02  0.37093485555E+02  0.93757764102E+02  0.10247113122E+03  0.00000000000E+00 0. -1.
</event>
<event>
 7    1  0.6067783E-006  0.1984851E+03  0.7818608E-02  0.1227051E+00
          2   -1    0    0  502    0  0.00000000000E+00  0.00000000000E+00  0.68155945471E+03  0.68155945471E+03  0.00000000000E+00 0. -1.
          1   -1    0    0  501    0 -0.00000000000E+00 -0.00000000000E+00 -0.21845756919E+03  0.21845756919E+03  0.00000000000E+00 0. -1.
         25    2    1    2    0    0  0.94997942584E+02 -0.25223932600E+03  0.10528338012E+03  0.31521031110E+03  0.12499465356E+03 0.  0.
          2    1    1    2  501    0 -0.42716236536E+02  0.74067935850E+02 -0.75065848735E+02  0.11377881011E+03  0.00000000000E+00 0. -1.
          1    1    1    2  502    0 -0.52281706048E+02  0.17817139015E+03  0.43288435414E+03  0.47102790269E+03  0.00000000000E+00 0. -1.
         22    1    3    3    0    0  0.21940621542E+02  0.97851499852E+01  0.15164346530E+01  0.24071551839E+02  0.00000000000E+00 0. -1.
         22    1    3    3    0    0  0.73057321041E+02 -0.26202447598E+03  0.10376694547E+03  0.29113875926E+03  0.00000000000E+00 0. -1.
</event>
<event>
 7    1  0.6067783E-006  0.1382875E+03  0.7818608E-02  0.1259482E+00
          2   -1    0    0  502    0  0.00000000000E+00  0.00000000000E+00  0.52604831799E+03  0.52604831799E+03  0.00000000000E+00 0. -1.
          1   -1    0    0  501    0 -0.00000000000E+00 -0.00000000000E+00 -0.85504999006E+03  0.85504999006E+03  0.00000000000E+00 0. -1.
         25    2    1    2    0    0 -0.16144623610E+03  0.48357752771E+02 -0.56262596946E+02  0.21724304601E+03  0.12500280725E+03 0.  0.
          2    1    1    2  501    0  0.28363917410E+02 -0.83767625859E+02 -0.70482630340E+03  0.71035318322E+03  0.00000000000E+00 0. -1.
          1    1    1    2  502    0  0.13308231869E+03  0.35409873088E+02  0.43208722827E+03  0.45350207882E+03  0.00000000000E+00 0. -1.
         22    1    3    3    0    0 -0.14040502054E+03 -0.14759413382E+02 -0.23642528213E+02  0.14314460946E+03  0.00000000000E+00 0.  1.
         22    1    3    3    0    0 -0.21041215563E+02  0.63117166153E+02 -0.32620068733E+02  0.74098436554E+02  0.00000000000E+00 0.  1.
</event>
<event>
 7    1  0.6067783E-006  0.8770236E+02  0.7818608E-02  0.1399936E+00
          2   -1    0    0  502    0  0.00000000000E+00  0.00000000000E+00  0.92446515565E+03  0.92446515565E+03  0.00000000000E+00 0. -1.
          1   -1    0    0  501    0 -0.00000000000E+00 -0.00000000000E+00 -0.79046814391E+03  0.79046814391E+03  0.00000000000E+00 0. -1.
         25    2    1    2    0    0 -0.12302044376E+03 -0.35595635652E+01  0.23030719336E+03  0.28950566804E+03  0.12500171375E+03 0.  0.
          2    1    1    2  501    0  0.39383059307E+02 -0.88651292305E+01 -0.75763978470E+03  0.75871447807E+03  0.00000000000E+00 0. -1.
          1    1    1    2  502    0  0.83637384456E+02  0.12424692796E+02  0.66132960308E+03  0.66671315344E+03  0.00000000000E+00 0. -1.
         22    1    3    3    0    0 -0.67955795948E+02  0.46266595250E+02  0.54438003395E+02  0.98600630082E+02  0.00000000000E+00 0. -1.
         22    1    3    3    0    0 -0.55064647815E+02 -0.49826158816E+02  0.17586918996E+03  0.19090503796E+03  0.00000000000E+00 0. -1.
</event>
<event>
 7    1  0.6067783E-006  0.5870485E+02  0.7818608E-02  0.1499619E+00
          2   -1    0    0  502    0  0.00000000000E+00  0.00000000000E+00  0.13311991077E+03  0.13311991077E+03  0.00000000000E+00 0. -1.
          1   -1    0    0  501    0 -0.00000000000E+00 -0.00000000000E+00 -0.45718341099E+03  0.45718341099E+03  0.00000000000E+00 0. -1.
         25    2    1    2    0    0  0.18357446097E+02  0.31949998767E+02 -0.66097707626E+02  0.14612736219E+03  0.12500600297E+03 0.  0.
          2    1    1    2  501    0 -0.46558779280E+02 -0.38282084587E+02 -0.34615875678E+03  0.35136750394E+03  0.00000000000E+00 0. -1.
          1    1    1    2  502    0  0.28201333183E+02  0.63320858199E+01  0.88192964189E+02  0.92808455630E+02  0.00000000000E+00 0. -1.
         22    1    3    3    0    0  0.11948433786E+02  0.69050623131E+02 -0.20779647396E-01  0.70076772590E+02  0.00000000000E+00 0. -1.
         22    1    3    3    0    0  0.64090123117E+01 -0.37100624364E+02 -0.66076927978E+02  0.76050589597E+02  0.00000000000E+00 0. -1.
</event>
<event>
 7    1  0.6067783E-006  0.6544264E+02  0.7818608E-02  0.1510421E+00
          2   -1    0    0  502    0  0.00000000000E+00  0.00000000000E+00  0.41144932871E+03  0.41144932871E+03  0.00000000000E+00 0. -1.
          1   -1    0    0  501    0 -0.00000000000E+00 -0.00000000000E+00 -0.36501314045E+03  0.36501314045E+03  0.00000000000E+00 0. -1.
         25    2    1    2    0    0 -0.28061676303E+02  0.47160039494E+02  0.84825470170E+02  0.16071936887E+03  0.12499531246E+03 0.  0.
          2    1    1    2  501    0  0.51381551608E+02 -0.41137271270E+02 -0.32324131333E+03  0.32987465131E+03  0.00000000000E+00 0. -1.
          1    1    1    2  502    0 -0.23319875305E+02 -0.60227682243E+01  0.28485203142E+03  0.28586844899E+03  0.00000000000E+00 0. -1.
         22    1    3    3    0    0 -0.30842381530E+02  0.76086389160E+02  0.12850649297E+02  0.83099520463E+02  0.00000000000E+00 0. -1.
         22    1    3    3    0    0  0.27807052271E+01 -0.28926349665E+02  0.71974820874E+02  0.77619848404E+02  0.00000000000E+00 0. -1.
</event>
<event>
 7    1  0.6067783E-006  0.5158040E+02  0.7818608E-02  0.1496583E+00
          2   -1    0    0  502    0  0.00000000000E+00  0.00000000000E+00  0.12062792868E+04  0.12062792868E+04  0.00000000000E+00 0. -1.
          1   -1    0    0  501    0 -0.00000000000E+00 -0.00000000000E+00 -0.12205829293E+03  0.12205829293E+03  0.00000000000E+00 0. -1.
         25    2    1    2    0    0 -0.12185012281E+02 -0.82776176529E+02  0.59169953857E+02  0.16163649586E+03  0.12499961372E+03 0.  0.
          2    1    1    2  501    0 -0.18963436840E+01  0.33537404093E+02 -0.66207548693E+02  0.74241451337E+02  0.00000000000E+00 0. -1.
          1    1    1    2  502    0  0.14081355965E+02  0.49238772436E+02  0.10912585887E+04  0.10924596326E+04  0.00000000000E+00 0. -1.
         22    1    3    3    0    0  0.36862015224E+02  0.41785203306E+01 -0.12046416510E+02  0.39004927244E+02  0.00000000000E+00 0. -1.
         22    1    3    3    0    0 -0.49047027505E+02 -0.86954696859E+02  0.71216370367E+02  0.12263156862E+03  0.00000000000E+00 0. -1.
</event>
<event>
 7    1  0.6067783E-006  0.1905779E+03  0.7818608E-02  0.1280545E+00
          2   -1    0    0  502    0  0.00000000000E+00  0.00000000000E+00  0.63032209782E+03  0.63032209782E+03  0.00000000000E+00 0. -1.
          1   -1    0    0  501    0 -0.00000000000E+00 -0.00000000000E+00 -0.82846753753E+03  0.82846753753E+03  0.00000000000E+00 0. -1.
         25    2    1    2    0    0 -0.14218206561E+03  0.13704499794E+03 -0.12009873905E+03  0.26276495194E+03  0.12499856641E+03 0.  0.
          2    1    1    2  501    0  0.97141636049E+02 -0.16372207210E+03 -0.62152725468E+03  0.65002887832E+03  0.00000000000E+00 0. -1.
          1    1    1    2  502    0  0.45040429562E+02  0.26677074154E+02  0.54348055401E+03  0.54599580509E+03  0.00000000000E+00 0. -1.
         22    1    3    3    0    0 -0.11755429806E+03  0.16086662206E+03 -0.98475311155E+02  0.22224866702E+03  0.00000000000E+00 0.  1.
         22    1    3    3    0    0 -0.24627767549E+02 -0.23821624113E+02 -0.21623427893E+02  0.40516284920E+02  0.00000000000E+00 0.  1.
</event>
<event>
 7    1  0.6067783E-006  0.4923959E+02  0.7818608E-02  0.1476338E+00
          2   -1    0    0  502    0  0.00000000000E+00  0.00000000000E+00  0.79416087772E+03  0.79416087772E+03  0.00000000000E+00 0. -1.
          1   -1    0    0  501    0 -0.00000000000E+00 -0.00000000000E+00 -0.32836958373E+03  0.32836958373E+03  0.00000000000E+00 0. -1.
         25    2    1    2    0    0 -0.28155169713E+02 -0.37897029152E+02  0.41201956567E+02  0.13983607581E+03  0.12501051345E+03 0.  0.
          2    1    1    2  501    0  0.39182662415E+02 -0.10425328752E+02 -0.27670040777E+03  0.27965529528E+03  0.00000000000E+00 0. -1.
          1    1    1    2  502    0 -0.11027492702E+02  0.48322357904E+02  0.70128974519E+03  0.70303909036E+03  0.00000000000E+00 0. -1.
         22    1    3    3    0    0  0.16533814538E+02  0.36516467551E+02 -0.67818934184E+01  0.40654809112E+02  0.00000000000E+00 0.  1.
         22    1    3    3    0    0 -0.44688984251E+02 -0.74413496703E+02  0.47983849985E+02  0.99181266701E+02  0.00000000000E+00 0.  1.
</event>
<event>
 7    1  0.6067783E-006  0.1641104E+03  0.7818608E-02  0.1278977E+00
          2   -1    0    0  502    0  0.00000000000E+00  0.00000000000E+00  0.14183249369E+04  0.14183249369E+04  0.00000000000E+00 0. -1.
          1   -1    0    0  501    0 -0.00000000000E+00 -0.00000000000E+00 -0.97671857641E+03  0.97671857641E+03  0.00000000000E+00 0. -1.
         25    2    1    2    0    0 -0.12696811472E+03  0.11442081113E+03 -0.53867509020E+02  0.21849436746E+03  0.12500022363E+03 0.  0.
          2    1    1    2  501    0 -0.26461701228E+02 -0.55742855627E+02 -0.83434470034E+03  0.83662331224E+03  0.00000000000E+00 0. -1.
          1    1    1    2  502    0  0.15342981595E+03 -0.58677955500E+02  0.13298185699E+04  0.13399258336E+04  0.00000000000E+00 0. -1.
         22    1    3    3    0    0 -0.12182504622E+03  0.31106285842E+02 -0.15702916675E+02  0.12671039617E+03  0.00000000000E+00 0. -1.
         22    1    3    3    0    0 -0.51430685090E+01  0.83314525285E+02 -0.38164592346E+02  0.91783971292E+02  0.00000000000E+00 0. -1.
</event>
<event>
 7    1  0.6067783E-006  0.7068228E+02  0.7818608E-02  0.1389144E+00
          2   -1    0    0  502    0  0.00000000000E+00  0.00000000000E+00  0.21569039756E+04  0.21569039756E+04  0.00000000000E+00 0. -1.
          1   -1    0    0  501    0 -0.00000000000E+00 -0.00000000000E+00 -0.22029040438E+03  0.22029040438E+03  0.00000000000E+00 0. -1.
         25    2    1    2    0    0 -0.25792325704E+02 -0.86471241136E+02  0.31953003321E+03  0.35477722993E+03  0.12499968457E+03 0.  0.
          2    1    1    2  501    0 -0.24872391873E+02  0.66131171833E+02 -0.19608556896E+03  0.20842628941E+03  0.00000000000E+00 0. -1.
          1    1    1    2  502    0  0.50664717577E+02  0.20340069303E+02  0.18131691070E+04  0.18139908607E+04  0.00000000000E+00 0. -1.
         22    1    3    3    0    0 -0.69068342301E+02 -0.51393324380E+02  0.12047485302E+03  0.14807396770E+03  0.00000000000E+00 0. -1.
         22    1    3    3    0    0  0.43276016597E+02 -0.35077916756E+02  0.19905518019E+03  0.20670326223E+03  0.00000000000E+00 0. -1.
</event>
<event>
 7    1  0.6067783E-006  0.1742578E+03  0.7818608E-02  0.1260656E+00
          2   -1    0    0  502    0  0.00000000000E+00  0.00000000000E+00  0.25565323933E+04  0.25565323933E+04  0.00000000000E+00 0. -1.
          1   -1    0    0  501    0 -0.00000000000E+00 -0.00000000000E+00 -0.17944199975E+03  0.17944199975E+03  0.00000000000E+00 0. -1.
         25    2    1    2    0    0 -0.17869003323E+03 -0.41612789430E+02 -0.49719204820E+01  0.22205825603E+03  0.12499358727E+03 0.  0.
          2    1    1    2  501    0  0.64984240237E+01  0.69073445850E+02 -0.43635117506E+02  0.81959709103E+02  0.00000000000E+00 0. -1.
          1    1    1    2  502    0  0.17219160921E+03 -0.27460656420E+02  0.24256974315E+04  0.24319564279E+04  0.00000000000E+00 0. -1.
         22    1    3    3    0    0 -0.16954834145E+03 -0.73920284207E+02 -0.18446685187E+02  0.18587933909E+03  0.00000000000E+00 0.  1.
         22    1    3    3    0    0 -0.91416917773E+01  0.32307494777E+02  0.13474764705E+02  0.36178916943E+02  0.00000000000E+00 0.  1.
</event>
<event>
 7    1  0.6067783E-006  0.8109840E+02  0.7818608E-02  0.1456758E+00
          2   -1    0    0  502    0  0.00000000000E+00  0.00000000000E+00  0.44800788615E+03  0.44800788615E+03  0.00000000000E+00 0. -1.
          1   -1    0    0  501    0 -0.00000000000E+00 -0.00000000000E+00 -0.19037575147E+03  0.19037575147E+03  0.00000000000E+00 0. -1.
         25    2    1    2    0    0  0.47666025351E+02 -0.34593106337E+02  0.12493114393E+02  0.13874442695E+03  0.12500082050E+03 0.  0.
          2    1    1    2  501    0  0.72571359978E+01 -0.27398769935E+02 -0.12098681769E+03  0.12426249906E+03  0.00000000000E+00 0. -1.
          1    1    1    2  502    0 -0.54923161349E+02  0.61991876272E+02  0.36612583799E+03  0.37537671161E+03  0.00000000000E+00 0. -1.
         22    1    3    3    0    0  0.85433878305E+01  0.27796784643E+02 -0.39172459190E+02  0.48786599298E+02  0.00000000000E+00 0.  1.
         22    1    3    3    0    0  0.39122637521E+02 -0.62389890980E+02  0.51665573583E+02  0.89957827657E+02  0.00000000000E+00 0.  1.
</event>
<event>
 7    1  0.6067783E-006  0.7840563E+02  0.7818608E-02  0.1375848E+00
          2   -1    0    0  502    0  0.00000000000E+00  0.00000000000E+00  0.17661978028E+03  0.17661978028E+03  0.00000000000E+00 0. -1.
          1   -1    0    0  501    0 -0.00000000000E+00 -0.00000000000E+00 -0.22627872981E+03  0.22627872981E+03  0.00000000000E+00 0. -1.
         25    2    1    2    0    0  0.78730156121E+02 -0.26963973494E+02 -0.53859599222E+02  0.15953456793E+03  0.12499971434E+03 0.  0.
          2    1    1    2  501    0 -0.76223373072E+02 -0.27811003637E+02 -0.98092739375E+02  0.12730137487E+03  0.00000000000E+00 0. -1.
          1    1    1    2  502    0 -0.25067830490E+01  0.54774977131E+02  0.10229338907E+03  0.11606256730E+03  0.00000000000E+00 0. -1.
         22    1    3    3    0    0  0.28637702830E+02  0.49796895294E+02 -0.30067077093E+02  0.64837318954E+02  0.00000000000E+00 0.  1.
         22    1    3    3    0    0  0.50092453291E+02 -0.76760868788E+02 -0.23792522130E+02  0.94697248973E+02  0.00000000000E+00 0.  1.
</event>
<event>
 7    1  0.6067783E-006  0.1672173E+03  0.7818608E-02  0.1289410E+00
          2   -1    0    0  502    0  0.00000000000E+00  0.00000000000E+00  0.10071436091E+04  0.10071436091E+04  0.00000000000E+00 0. -1.
          1   -1    0    0  501    0 -0.00000000000E+00 -0.00000000000E+00 -0.42570445645E+03  0.42570445645E+03  0.00000000000E+00 0. -1.
         25    2    1    2    0    0  0.12513000131E+03 -0.17131807907E+03 -0.30761923489E+02  0.24814926617E+03  0.12499744366E+03 0.  0.
          2    1    1    2  501    0 -0.86173307342E+02  0.13267556570E+03 -0.26346516995E+03  0.30731505074E+03  0.00000000000E+00 0. -1.
          1    1    1    2  502    0 -0.38956693969E+02  0.38642513369E+02  0.87566624608E+03  0.87738374863E+03  0.00000000000E+00 0. -1.
         22    1    3    3    0    0 -0.94806745890E+01 -0.81706553522E+02 -0.26373085631E+02  0.86379301484E+02  0.00000000000E+00 0.  1.
         22    1    3    3    0    0  0.13461067590E+03 -0.89611525545E+02 -0.43888378577E+01  0.16176996469E+03  0.00000000000E+00 0.  1.
</event>
<event>
 7    1  0.6067783E-006  0.8651793E+02  0.7818608E-02  0.1331506E+00
          2   -1    0    0  502    0  0.00000000000E+00  0.00000000000E+00  0.52772100012E+03  0.52772100012E+03  0.00000000000E+00 0. -1.
          1   -1    0    0  501    0 -0.00000000000E+00 -0.00000000000E+00 -0.69998300011E+03  0.69998300011E+03  0.00000000000E+00 0. -1.
         25    2    1    2    0    0 -0.38159153933E+02 -0.15211046813E+03 -0.22707325768E+03  0.30295645723E+03  0.12500654014E+03 0.  0.
          2    1    1    2  501    0  0.26478391296E+02  0.67377932623E+02 -0.42817199869E+03  0.43424895103E+03  0.00000000000E+00 0. -1.
          1    1    1    2  502    0  0.11680762636E+02  0.84732535510E+02  0.48298325638E+03  0.49049859198E+03  0.00000000000E+00 0. -1.
         22    1    3    3    0    0 -0.37035033330E+02 -0.97622991316E+02 -0.46427501585E+02  0.11426878415E+03  0.00000000000E+00 0.  1.
         22    1    3    3    0    0 -0.11241206022E+01 -0.54487476817E+02 -0.18064575610E+03  0.18868767308E+03  0.00000000000E+00 0.  1.
</event>
<event>
 7    1  0.6067783E-006  0.1779192E+03  0.7818608E-02  0.1266667E+00
          2   -1    0    0  502    0  0.00000000000E+00  0.00000000000E+00  0.18309381223E+04  0.18309381223E+04  0.00000000000E+00 0. -1.
          1   -1    0    0  501    0 -0.00000000000E+00 -0.00000000000E+00 -0.99815246416E+02  0.99815246416E+02  0.00000000000E+00 0. -1.
         25    2    1    2    0    0 -0.15152011026E+03  0.15132807653E+03  0.53776317963E+03  0.59217624672E+03  0.12499975705E+03 0.  0.
          2    1    1    2  501    0  0.14854028583E+03 -0.87321669830E+02  0.31756214350E+02  0.17520772725E+03  0.00000000000E+00 0. -1.
          1    1    1    2  502    0  0.29798244312E+01 -0.64006406701E+02  0.11616034819E+04  0.11633693948E+04  0.00000000000E+00 0. -1.
         22    1    3    3    0    0 -0.23307225424E+02  0.61697487071E+02  0.58959418550E+02  0.88464793582E+02  0.00000000000E+00 0.  1.
         22    1    3    3    0    0 -0.12821288484E+03  0.89630589460E+02  0.47880376108E+03  0.50371145314E+03  0.00000000000E+00 0.  1.
</event>
<event>
 7    1  0.6067783E-006  0.6207190E+02  0.7818608E-02  0.1423418E+00
          2   -1    0    0  502    0  0.00000000000E+00  0.00000000000E+00  0.23135251861E+04  0.23135251861E+04  0.00000000000E+00 0. -1.
          1   -1    0    0  501    0 -0.00000000000E+00 -0.00000000000E+00 -0.85619151524E+03  0.85619151524E+03  0.00000000000E+00 0. -1.
         25    2    1    2    0    0 -0.47506508444E+02 -0.69871534977E+02  0.35196513212E+03  0.38294006876E+03  0.12499896915E+03 0.  0.
          2    1    1    2  501    0  0.46815825378E+02  0.80843920258E+01 -0.83954180705E+03  0.84088496519E+03  0.00000000000E+00 0. -1.
          1    1    1    2  502    0  0.69068306541E+00  0.61787142951E+02  0.19449103457E+04  0.19458916673E+04  0.00000000000E+00 0. -1.
         22    1    3    3    0    0 -0.66142990597E+02 -0.77423337915E+02  0.34780572948E+03  0.36240597942E+03  0.00000000000E+00 0.  1.
         22    1    3    3    0    0  0.18636482153E+02  0.75518029385E+01  0.41594026382E+01  0.20534089339E+02  0.00000000000E+00 0.  1.
</event>
<event>
 7    1  0.6067783E-006  0.1564782E+03  0.7818608E-02  0.1293978E+00
          2   -1    0    0  502    0  0.00000000000E+00  0.00000000000E+00  0.22302629638E+04  0.22302629638E+04  0.00000000000E+00 0. -1.
          1   -1    0    0  501    0 -0.00000000000E+00 -0.00000000000E+00 -0.61301316049E+03  0.61301316049E+03  0.00000000000E+00 0. -1.
         25    2    1    2    0    0  0.13013952078E+03  0.11053784726E+02  0.16808574820E+01  0.18081777963E+03  0.12503504758E+03 0.  0.
          2    1    1    2  501    0  0.22098662669E+02 -0.51659689549E+02 -0.51902490524E+03  0.52205739788E+03  0.00000000000E+00 0. -1.
          1    1    1    2  502    0 -0.15223818345E+03  0.40605904823E+02  0.21345938511E+04  0.21404009468E+04  0.00000000000E+00 0. -1.
         22    1    3    3    0    0  0.78625150868E+02 -0.44858972581E+02 -0.34177925962E+02  0.96759353001E+02  0.00000000000E+00 0. -1.
         22    1    3    3    0    0  0.51514369912E+02  0.55912757307E+02  0.35858783444E+02  0.84058426628E+02  0.00000000000E+00 0. -1.
</event>
<event>
 7    1  0.6067783E-006  0.6809344E+02  0.7818608E-02  0.1474413E+00
          2   -1    0    0  502    0  0.00000000000E+00  0.00000000000E+00  0.20446712058E+03  0.20446712058E+03  0.00000000000E+00 0. -1.
          1   -1    0    0  501    0 -0.00000000000E+00 -0.00000000000E+00 -0.83178215878E+03  0.83178215878E+03  0.00000000000E+00 0. -1.
         25    2    1    2    0    0 -0.44495259313E+01  0.82006569974E+02 -0.22756031860E+03  0.27230975240E+03  0.12499610734E+03 0.  0.
          2    1    1    2  501    0 -0.22307582994E+02 -0.19643320988E+02 -0.57512748439E+03  0.57589505261E+03  0.00000000000E+00 0. -1.
          1    1    1    2  502    0  0.26757108926E+02 -0.62363248986E+02  0.17537276479E+03  0.18804447434E+03  0.00000000000E+00 0. -1.
         22    1    3    3    0    0  0.49786090249E+02  0.46555787328E+02 -0.17839685944E+03  0.19097522240E+03  0.00000000000E+00 0. -1.
         22    1    3    3    0    0 -0.54235616181E+02  0.35450782646E+02 -0.49163459165E+02  0.81334529997E+02  0.00000000000E+00 0. -1.
</event>
<event>
 7    1  0.6067783E-006  0.1815421E+03  0.7818608E-02  0.1252756E+00
          2   -1    0    0  502    0  0.00000000000E+00  0.00000000000E+00  0.24442391750E+04  0.24442391750E+04  0.00000000000E+00 0. -1.
          1   -1    0    0  501    0 -0.00000000000E+00 -0.00000000000E+00 -0.22212579204E+04  0.22212579204E+04  0.00000000000E+00 0. -1.
         25    2    1    2    0    0 -0.13271499980E+03  0.18729756545E+03  0.15269070429E+03  0.30270996984E+03  0.12500090187E+03 0.  0.
          2    1    1    2  501    0  0.13911663957E+03 -0.11558141925E+03 -0.21418510952E+04  0.21494740328E+04  0.00000000000E+00 0. -1.
          1    1    1    2  502    0 -0.64016397666E+01 -0.71716146203E+02  0.22121416455E+04  0.22133130927E+04  0.00000000000E+00 0. -1.
         22    1    3    3    0    0 -0.88574152604E+02  0.12018015308E+03  0.24299003247E+02  0.15125835932E+03  0.00000000000E+00 0.  1.
         22    1    3    3    0    0 -0.44140847197E+02  0.67117412368E+02  0.12839170104E+03  0.15145161052E+03  0.00000000000E+00 0.  1.
</event>
<event>
 7    1  0.6067783E-006  0.6565190E+02  0.7818608E-02  0.1403183E+00
          2   -1    0    0  502    0  0.00000000000E+00  0.00000000000E+00  0.44697311918E+03  0.44697311918E+03  0.00000000000E+00 0. -1.
          1   -1    0    0  501    0 -0.00000000000E+00 -0.00000000000E+00 -0.49278506267E+03  0.49278506267E+03  0.00000000000E+00 0. -1.
         25    2    1    2    0    0  0.30877225251E+02  0.94125215885E+02  0.15065571850E+03  0.21939802002E+03  0.12500154547E+03 0.  0.
          2    1    1    2  501    0  0.14629009563E+02 -0.50484858809E+02 -0.45307844997E+03  0.45611710198E+03  0.00000000000E+00 0. -1.
          1    1    1    2  502    0 -0.45506234814E+02 -0.43640357077E+02  0.25661078798E+03  0.26424305985E+03  0.00000000000E+00 0. -1.
         22    1    3    3    0    0  0.73308965480E+02  0.45981177952E+02  0.49759286494E+02  0.99822140520E+02  0.00000000000E+00 0. -1.
         22    1    3    3    0    0 -0.42431740230E+02  0.48144037933E+02  0.10089643201E+03  0.11957587950E+03  0.00000000000E+00 0. -1.
</event>
<event>
 7    1  0.6067783E-006  0.4193669E+02  0.7818608E-02  0.1609805E+00
          2   -1    0    0  502    0  0.00000000000E+00  0.00000000000E+00  0.61989112643E+03  0.61989112643E+03  0.00000000000E+00 0. -1.
          1   -1    0    0  501    0 -0.00000000000E+00 -0.00000000000E+00 -0.81824463804E+03  0.81824463804E+03  0.00000000000E+00 0. -1.
         25    2    1    2    0    0 -0.19452959053E+02 -0.13109351401E+02  0.69550122257E+02  0.14495535309E+03  0.12499824868E+03 0.  0.
          2    1    1    2  501    0 -0.19802732587E+02 -0.28544644973E+01 -0.77953765902E+03  0.77979436906E+03  0.00000000000E+00 0. -1.
          1    1    1    2  502    0  0.39255691640E+02  0.15963815898E+02  0.51163402516E+03  0.51338604231E+03  0.00000000000E+00 0. -1.
         22    1    3    3    0    0  0.27535391694E+02  0.40528882876E+02  0.52144210725E+02  0.71552825626E+02  0.00000000000E+00 0.  1.
         22    1    3    3    0    0 -0.46988350747E+02 -0.53638234277E+02  0.17405911532E+02  0.73402527467E+02  0.00000000000E+00 0.  1.
</event>
<event>
 7    1  0.6067783E-006  0.6320146E+02  0.7818608E-02  0.1411095E+00
          2   -1    0    0  502    0  0.00000000000E+00  0.00000000000E+00  0.29840699945E+03  0.29840699945E+03  0.00000000000E+00 0. -1.
          1   -1    0    0  501    0 -0.00000000000E+00 -0.00000000000E+00 -0.29958722017E+03  0.29958722017E+03  0.00000000000E+00 0. -1.
         25    2    1    2    0    0 -0.39711104136E+02 -0.15715173051E+02  0.35307955214E+02  0.13673364524E+03  0.12500199831E+03 0.  0.
          2    1    1    2  501    0  0.18360635071E+02  0.62380311698E+02 -0.24140817931E+03  0.25001265017E+03  0.00000000000E+00 0. -1.
          1    1    1    2  502    0  0.21350469065E+02 -0.46665138647E+02  0.20492000339E+03  0.21124792421E+03  0.00000000000E+00 0. -1.
         22    1    3    3    0    0 -0.58382436541E+02 -0.33987005647E+02  0.67349626702E+02  0.95391811316E+02  0.00000000000E+00 0. -1.
         22    1    3    3    0    0  0.18671332405E+02  0.18271832596E+02 -0.32041671488E+02  0.41341833921E+02  0.00000000000E+00 0. -1.
</event>
<event>
 7    1  0.6067783E-006  0.1922482E+03  0.7818608E-02  0.1323836E+00
          2   -1    0    0  502    0  0.00000000000E+00  0.00000000000E+00  0.22445661286E+04  0.22445661286E+04  0.00000000000E+00 0. -1.
          1   -1    0    0  501    0 -0.00000000000E+00 -0.00000000000E+00 -0.38874234267E+03  0.38874234267E+03  0.00000000000E+00 0. -1.
         25    2    1    2    0    0 -0.44611694102E+02  0.15914237263E+03  0.14542268751E+03  0.25316016100E+03  0.12500324419E+03 0.  0.
          2    1    1    2  501    0  0.35932633212E+02 -0.19290663526E+03 -0.30596472528E+03  0.36348113730E+03  0.00000000000E+00 0. -1.
          1    1    1    2  502    0  0.86790608893E+01  0.33764262624E+02  0.20163658237E+04  0.20166671730E+04  0.00000000000E+00 0. -1.
         22    1    3    3    0    0 -0.32671178828E+01  0.37935618318E+02  0.11554471986E+03  0.12165676095E+03  0.00000000000E+00 0. -1.
         22    1    3    3    0    0 -0.41344576219E+02  0.12120675432E+03  0.29877967648E+02  0.13150340005E+03  0.00000000000E+00 0. -1.
</event>
<event>
 7    1  0.6067783E-006  0.1787713E+03  0.7818608E-02  0.1169188E+00
          2   -1    0    0  502    0  0.00000000000E+00  0.00000000000E+00  0.51658670630E+03  0.51658670630E+03  0.00000000000E+00 0. -1.
          1   -1    0    0  501    0 -0.00000000000E+00 -0.00000000000E+00 -0.40028602423E+03  0.40028602423E+03  0.00000000000E+00 0. -1.
         25    2    1    2    0    0 -0.41680629587E+02 -0.10069599331E+03 -0.24155823901E+01  0.16585920862E+03  0.12500593624E+03 0.  0.
          2    1    1    2  501    0 -0.16996814131E+03  0.54135546080E+02 -0.25962679411E+03  0.31500142639E+03  0.00000000000E+00 0. -1.
          1    1    1    2  502    0  0.21164877090E+03  0.46560447230E+02  0.37834305857E+03  0.43601209552E+03  0.00000000000E+00 0. -1.
         22    1    3    3    0    0 -0.59469540359E+01 -0.65342784577E+02 -0.60357453891E+02  0.89151937718E+02  0.00000000000E+00 0.  1.
         22    1    3    3    0    0 -0.35733675551E+02 -0.35353208733E+02  0.57941871501E+02  0.76707270901E+02  0.00000000000E+00 0.  1.
</event>
<event>
 7    1  0.6067783E-006  0.3837123E+02  0.7818608E-02  0.1539766E+00
          2   -1    0    0  502    0  0.00000000000E+00  0.00000000000E+00  0.80095508198E+02  0.80095508198E+02  0.00000000000E+00 0. -1.
          1   -1    0    0  501    0 -0.00000000000E+00 -0.00000000000E+00 -0.30587449127E+04  0.30587449127E+04  0.00000000000E+00 0. -1.
         25    2    1    2    0    0 -0.34619380467E+02 -0.92063415026E+01 -0.85351063346E+03  0.86335895971E+03  0.12500013462E+03 0.  0.
          2    1    1    2  501    0  0.14314825787E+02  0.36232557878E+02 -0.21963283321E+04  0.21966738162E+04  0.00000000000E+00 0. -1.
          1    1    1    2  502    0  0.20304554680E+02 -0.27026216375E+02  0.71189561022E+02  0.78807645003E+02  0.00000000000E+00 0. -1.
         22    1    3    3    0    0  0.38016144392E+02 -0.21755260924E+02 -0.51789813130E+03  0.51974704715E+03  0.00000000000E+00 0. -1.
         22    1    3    3    0    0 -0.72635524859E+02  0.12548919421E+02 -0.33561250216E+03  0.34361191256E+03  0.00000000000E+00 0. -1.
</event>
<event>
 7    1  0.6067783E-006  0.6014363E+02  0.7818608E-02  0.1448584E+00
          2   -1    0    0  502    0  0.00000000000E+00  0.00000000000E+00  0.75759043853E+03  0.75759043853E+03  0.00000000000E+00 0. -1.
          1   -1    0    0  501    0 -0.00000000000E+00 -0.00000000000E+00 -0.81097359142E+02  0.81097359142E+02  0.00000000000E+00 0. -1.
         25    2    1    2    0    0 -0.52375630915E+02 -0.55549623095E+02  0.44395794797E+03  0.46749624968E+03  0.12500046622E+03 0.  0.
          2    1    1    2  501    0  0.40552051920E+02 -0.15510693526E+01 -0.60257491177E+02  0.72648743788E+02  0.00000000000E+00 0. -1.
          1    1    1    2  502    0  0.11823578996E+02  0.57100692448E+02  0.29279262259E+03  0.29854280421E+03  0.00000000000E+00 0. -1.
         22    1    3    3    0    0 -0.15671675953E+02 -0.92794859855E+01 -0.13743783587E+01  0.18264698279E+02  0.00000000000E+00 0.  1.
         22    1    3    3    0    0 -0.36703954962E+02 -0.46270137109E+02  0.44533232633E+03  0.44923155140E+03  0.00000000000E+00 0.  1.
</event>
<event>
 7    1  0.6067783E-006  0.6825999E+02  0.7818608E-02  0.1481203E+00
          2   -1    0    0  502    0  0.00000000000E+00  0.00000000000E+00  0.11552795256E+04  0.11552795256E+04  0.00000000000E+00 0. -1.
          1   -1    0    0  501    0 -0.00000000000E+00 -0.00000000000E+00 -0.42266326325E+02  0.42266326325E+02  0.00000000000E+00 0. -1.
         25    2    1    2    0    0  0.85902344353E+02 -0.34284903841E+02  0.44219860770E+03  0.46874271125E+03  0.12500181321E+03 0.  0.
          2    1    1    2  501    0 -0.22836761245E+02  0.16643614195E+02 -0.20172584119E+02  0.34719745214E+02  0.00000000000E+00 0. -1.
          1    1    1    2  502    0 -0.63065583108E+02  0.17641289646E+02  0.69098717572E+03  0.69408339548E+03  0.00000000000E+00 0. -1.
         22    1    3    3    0    0  0.10628470953E+03 -0.50962143616E+02  0.41268131644E+03  0.42918463218E+03  0.00000000000E+00 0.  1.
         22    1    3    3    0    0 -0.20382365178E+02  0.16677239775E+02  0.29517291261E+02  0.39558079076E+02  0.00000000000E+00 0.  1.
</event>
<event>
 7    1  0.6067783E-006  0.1217132E+03  0.7818608E-02  0.1322081E+00
          2   -1    0    0  502    0  0.00000000000E+00  0.00000000000E+00  0.81032696021E+02  0.81032696021E+02  0.00000000000E+00 0. -1.
          1   -1    0    0  501    0 -0.00000000000E+00 -0.00000000000E+00 -0.10606064849E+04  0.10606064849E+04  0.00000000000E+00 0. -1.
         25    2    1    2    0    0 -0.42113021939E+02  0.11215105536E+03 -0.58192229474E+03  0.60713315067E+03  0.12500295873E+03 0.  0.
          2    1    1    2  501    0  0.54996692819E+02  0.10182528066E+02 -0.40729597093E+03  0.41111838689E+03  0.00000000000E+00 0. -1.
          1    1    1    2  502    0 -0.12883670879E+02 -0.12233358342E+03  0.96444767711E+01  0.12338764339E+03  0.00000000000E+00 0. -1.
         22    1    3    3    0    0  0.32697675271E+02  0.62328299153E+02 -0.14650170911E+03  0.16253216794E+03  0.00000000000E+00 0.  1.
         22    1    3    3    0    0 -0.74810697210E+02  0.49822756203E+02 -0.43542058563E+03  0.44460098273E+03  0.00000000000E+00 0.  1.
</event>
<event>
 7    1  0.6067783E-006  0.7580004E+02  0.7818608E-02  0.1401148E+00
          2   -1    0    0  502    0  0.00000000000E+00  0.00000000000E+00  0.23431017671E+03  0.23431017671E+03  0.00000000000E+00 0. -1.
          1   -1    0    0  501    0 -0.00000000000E+00 -0.00000000000E+00 -0.67840623953E+03  0.67840623953E+03  0.00000000000E+00 0. -1.
         25    2    1    2    0    0  0.45048037705E+02  0.63380238440E+01  0.18645443757E+02  0.13432518971E+03  0.12500443101E+03 0.  0.
          2    1    1    2  501    0 -0.69615378627E+02  0.32861253413E+02 -0.61472323333E+03  0.61952466981E+03  0.00000000000E+00 0. -1.
          1    1    1    2  502    0  0.24567340922E+02 -0.39199277257E+02  0.15198172674E+03  0.15886655671E+03  0.00000000000E+00 0. -1.
         22    1    3    3    0    0  0.36340652060E+02  0.63647549079E+02  0.21217394199E+02  0.76300926026E+02  0.00000000000E+00 0. -1.
         22    1    3    3    0    0  0.87073856456E+01 -0.57309525235E+02 -0.25719504426E+01  0.58024263688E+02  0.00000000000E+00 0. -1.
</event>
<event>
 7    1  0.6067783E-006  0.1060158E+03  0.7818608E-02  0.1374463E+00
          2   -1    0    0  502    0  0.00000000000E+00  0.00000000000E+00  0.13450041899E+04  0.13450041899E+04  0.00000000000E+00 0. -1.
          1   -1    0    0  501    0 -0.00000000000E+00 -0.00000000000E+00 -0.76842613847E+02  0.76842613847E+02  0.00000000000E+00 0. -1.
         25    2    1    2    0    0  0.10707042862E+03 -0.71801362200E+02  0.34073648535E+03  0.38515692474E+03  0.12499996772E+03 0.  0.
          2    1    1    2  501    0 -0.66710592377E+02  0.79108804075E+02 -0.47710469128E+01  0.10359183803E+03  0.00000000000E+00 0. -1.
          1    1    1    2  502    0 -0.40359836247E+02 -0.73074418750E+01  0.93219613766E+03  0.93309804102E+03  0.00000000000E+00 0. -1.
         22    1    3    3    0    0  0.10555566364E+03 -0.84942676445E+02  0.34548463346E+03  0.37110226134E+03  0.00000000000E+00 0. -1.
         22    1    3    3    0    0  0.15147649787E+01  0.13141314245E+02 -0.47481481126E+01  0.14054663409E+02  0.00000000000E+00 0. -1.
</event>
<event>
 7    1  0.6067783E-006  0.8420265E+02  0.7818608E-02  0.1407204E+00
          2   -1    0    0  502    0  0.00000000000E+00  0.00000000000E+00  0.19398417971E+04  0.19398417971E+04  0.00000000000E+00 0. -1.
          1   -1    0    0  501    0 -0.00000000000E+00 -0.00000000000E+00 -0.72407648524E+03  0.72407648524E+03  0.00000000000E+00 0. -1.
         25    2    1    2    0    0 -0.11984884992E+03  0.30597293038E+01  0.37125133996E+03  0.40966481102E+03  0.12499836479E+03 0.  0.
          2    1    1    2  501    0  0.82397307995E+02 -0.16252128403E+02 -0.70211234781E+03  0.70711752700E+03  0.00000000000E+00 0. -1.
          1    1    1    2  502    0  0.37451541928E+02  0.13192399099E+02  0.15466263197E+04  0.15471359443E+04  0.00000000000E+00 0. -1.
         22    1    3    3    0    0 -0.13182931049E+03  0.22059122676E+02  0.22506460488E+03  0.26176258015E+03  0.00000000000E+00 0.  1.
         22    1    3    3    0    0  0.11980460572E+02 -0.18999393372E+02  0.14618673507E+03  0.14790223087E+03  0.00000000000E+00 0.  1.
</event>
<event>
 7    1  0.6067783E-006  0.1596240E+03  0.7818608E-02  0.1359797E+00
          2   -1    0    0  502    0  0.00000000000E+00  0.00000000000E+00  0.16463030950E+04  0.16463030950E+04  0.00000000000E+00 0. -1.
          1   -1    0    0  501    0 -0.00000000000E+00 -0.00000000000E+00 -0.47440839804E+03  0.47440839804E+03  0.00000000000E+00 0. -1.
         25    2    1    2    0    0  0.41061375447E+02 -0.14505038484E+03 -0.95977091218E+02  0.21808797508E+03  0.12500044857E+03 0.  0.
          2    1    1    2  501    0  0.30699458470E+02  0.21353795776E+01 -0.31258518760E+03  0.31409634844E+03  0.00000000000E+00 0. -1.
          1    1    1    2  502    0 -0.71760833916E+02  0.14291500526E+03  0.15804569758E+04  0.15885271695E+04  0.00000000000E+00 0. -1.
         22    1    3    3    0    0 -0.13196942812E+01 -0.13828604024E+03 -0.10572633561E+03  0.17407707649E+03  0.00000000000E+00 0. -1.
         22    1    3    3    0    0  0.42381069728E+02 -0.67643446019E+01  0.97492443878E+01  0.44010898597E+02  0.00000000000E+00 0. -1.
</event>
<event>
 7    1  0.6067783E-006  0.1805331E+03  0.7818608E-02  0.1348555E+00
          2   -1    0    0  502    0  0.00000000000E+00  0.00000000000E+00  0.83424702440E+03  0.83424702440E+03  0.00000000000E+00 0. -1.
          1   -1    0    0  501    0 -0.00000000000E+00 -0.00000000000E+00 -0.24081717013E+03  0.24081717013E+03  0.00000000000E+00 0. -1.
         25    2    1    2    0    0 -0.31722410197E+02 -0.18030695096E+03  0.41289140196E+03  0.46863849348E+03  0.12500327949E+03 0.  0.
          2    1    1    2  501    0  0.59920772779E+02  0.17027318852E+03 -0.17394571741E+03  0.25068021530E+03  0.00000000000E+00 0. -1.
          1    1    1    2  502    0 -0.28198362582E+02  0.10033762447E+02  0.35448416973E+03  0.35574548575E+03  0.00000000000E+00 0. -1.
         22    1    3    3    0    0 -0.62714035243E+02 -0.16494722533E+03  0.27716732069E+03  0.32857626363E+03  0.00000000000E+00 0. -1.
         22    1    3    3    0    0  0.30991625046E+02 -0.15359725629E+02  0.13572408127E+03  0.14006222985E+03  0.00000000000E+00 0. -1.
</event>
<event>
 7    1  0.6067783E-006  0.9089441E+02  0.7818608E-02  0.1312111E+00
          2   -1    0    0  502    0  0.00000000000E+00  0.00000000000E+00  0.77098301867E+03  0.77098301867E+03  0.00000000000E+00 0. -1.
          1   -1    0    0  501    0 -0.00000000000E+00 -0.00000000000E+00 -0.10639492330E+04  0.10639492330E+04  0.00000000000E+00 0. -1.
         25    2    1    2    0    0  0.26347684036E+02 -0.42893368656E+02 -0.32153033386E+03  0.34862610397E+03  0.12499745299E+03 0.  0.
          2    1    1    2  501    0 -0.73960517645E+02 -0.35190762632E+02 -0.72379211794E+03  0.72841168164E+03  0.00000000000E+00 0. -1.
          1    1    1    2  502    0  0.47612833609E+02  0.78084131288E+02  0.75235623752E+03  0.75789446601E+03  0.00000000000E+00 0. -1.
         22    1    3    3    0    0  0.18918348346E+02 -0.46082155332E+02 -0.33182105029E+03  0.33553938422E+03  0.00000000000E+00 0.  1.
         22    1    3    3    0    0  0.74293356903E+01  0.31887866765E+01  0.10290716434E+02  0.13086719757E+02  0.00000000000E+00 0.  1.
</event>
<event>
 7    1  0.6067783E-006  0.6661766E+02  0.7818608E-02  0.1498535E+00
          2   -1    0    0  502    0  0.00000000000E+00  0.00000000000E+00  0.16606342297E+03  0.16606342297E+03  0.00000000000E+00 0. -1.
          1   -1    0    0  501    0 -0.00000000000E+00 -0.00000000000E+00 -0.93782397432E+03  0.93782397432E+03  0.00000000000E+00 0. -1.
         25    2    1    2    0    0 -0.39000914232E+02 -0.44551346104E+02 -0.21948458061E+03  0.25943039076E+03  0.12499901111E+03 0.  0.
          2    1    1    2  501    0  0.22084500122E+02  0.63846881584E+02 -0.69559034551E+03  0.69886341885E+03  0.00000000000E+00 0. -1.
          1    1    1    2  502    0  0.16916414109E+02 -0.19295535479E+02  0.14331437477E+03  0.14559358767E+03  0.00000000000E+00 0. -1.
         22    1    3    3    0    0 -0.39122927446E+02 -0.17390671346E+02 -0.22719687861E+03  0.23119571915E+03  0.00000000000E+00 0.  1.
         22    1    3    3    0    0  0.12201321488E+00 -0.27160674759E+02  0.77122980070E+01  0.28234671613E+02  0.00000000000E+00 0.  1.
</event>
<event>
 7    1  0.6067783E-006  0.8700970E+02  0.7818608E-02  0.1358507E+00
          2   -1    0    0  502    0  0.00000000000E+00  0.00000000000E+00  0.50514031757E+02  0.50514031757E+02  0.00000000000E+00 0. -1.
          1   -1    0    0  501    0 -0.00000000000E+00 -0.00000000000E+00 -0.91923904323E+03  0.91923904323E+03  0.00000000000E+00 0. -1.
         25    2    1    2    0    0 -0.33474211890E+02 -0.20633959898E+02 -0.19406420564E+03  0.23418122128E+03  0.12503457653E+03 0.  0.
          2    1    1    2  501    0  0.69509908877E+02  0.64890586139E+02 -0.67172710503E+03  0.67842443885E+03  0.00000000000E+00 0. -1.
          1    1    1    2  502    0 -0.36035696987E+02 -0.44256626241E+02 -0.29337008029E+01  0.57147414850E+02  0.00000000000E+00 0. -1.
         22    1    3    3    0    0  0.44578177434E+02  0.52109955443E+01 -0.97644423832E+02  0.10746535201E+03  0.00000000000E+00 0.  1.
         22    1    3    3    0    0 -0.78052389323E+02 -0.25844955442E+02 -0.96419781808E+02  0.12671586927E+03  0.00000000000E+00 0.  1.
</event>
<event>
 7    1  0.6067783E-006  0.8228910E+02  0.7818608E-02  0.1338454E+00
          2   -1    0    0  502    0  0.00000000000E+00  0.00000000000E+00  0.25000013461E+04  0.25000013461E+04  0.00000000000E+00 0. -1.
          1   -1    0    0  501    0 -0.00000000000E+00 -0.00000000000E+00 -0.11718382499E+03  0.11718382499E+03  0.00000000000E+00 0. -1.
         25    2    1    2    0    0  0.41599255516E+02 -0.51987394720E+02  0.11888713704E+02  0.14212340585E+03  0.12499813482E+03 0.  0.
          2    1    1    2  501    0 -0.85930992535E+02 -0.17339315059E+02 -0.13948080563E+02  0.88765625532E+02  0.00000000000E+00 0. -1.
          1    1    1    2  502    0  0.44331737019E+02  0.69326709779E+02  0.23848768880E+04  0.23862961397E+04  0.00000000000E+00 0. -1.
         22    1    3    3    0    0 -0.29671792672E+02 -0.11930446899E+02 -0.35375313433E+02  0.47688191873E+02  0.00000000000E+00 0.  1.
         22    1    3    3    0    0  0.71271048187E+02 -0.40056947821E+02  0.47264027137E+02  0.94435213981E+02  0.00000000000E+00 0.  1.
</event>
<event>
 7    1  0.6067783E-006  0.6348619E+02  0.7818608E-02  0.1393065E+00
          2   -1    0    0  502    0  0.00000000000E+00  0.00000000000E+00  0.92257577975E+03  0.92257577975E+03  0.00000000000E+00 0. -1.
          1   -1    0    0  501    0 -0.00000000000E+00 -0.00000000000E+00 -0.80634160184E+03  0.80634160184E+03  0.00000000000E+00 0. -1.
         25    2    1    2    0    0 -0.43804324722E+02 -0.98525783601E+02  0.76769925449E+02  0.18205432823E+03  0.12499603224E+03 0.  0.
          2    1    1    2  501    0  0.46702276243E+02  0.35892363592E+02 -0.75130578691E+03  0.75361113966E+03  0.00000000000E+00 0. -1.
          1    1    1    2  502    0 -0.28979515213E+01  0.62633420008E+02  0.79077003937E+03  0.79325191370E+03  0.00000000000E+00 0. -1.
         22    1    3    3    0    0 -0.40586828675E+02 -0.97063351071E-01 -0.18884390629E+02  0.44765168297E+02  0.00000000000E+00 0.  1.
         22    1    3    3    0    0 -0.32174960467E+01 -0.98428720250E+02  0.95654316078E+02  0.13728915993E+03  0.00000000000E+00 0.  1.
</event>
<event>
 7    1  0.6067783E-006  0.3995224E+02  0.7818608E-02  0.1527898E+00
          2   -1    0    0  502    0  0.00000000000E+00  0.00000000000E+00  0.13451857687E+04  0.13451857687E+04  0.00000000000E+00 0. -1.
          1   -1    0    0  501    0 -0.00000000000E+00 -0.00000000000E+00 -0.57091547458E+03  0.57091547458E+03  0.00000000000E+00 0. -1.
         25    2    1    2    0    0 -0.18720060179E+02 -0.54733384275E+02 -0.48997182308E+03  0.50896331533E+03  0.12500033972E+03 0.  0.
          2    1    1    2  501    0  0.30878834441E+02  0.16680343258E+02 -0.66820173506E+02  0.75476299956E+02  0.00000000000E+00 0. -1.
          1    1    1    2  502    0 -0.12158774262E+02  0.38053041018E+02  0.13310622907E+04  0.13316616280E+04  0.00000000000E+00 0. -1.
         22    1    3    3    0    0 -0.29077382905E+01 -0.20773053953E+02 -0.37592851165E+01  0.21309785008E+02  0.00000000000E+00 0.  1.
         22    1    3    3    0    0 -0.15812321889E+02 -0.33960330322E+02 -0.48621253797E+03  0.48765353032E+03  0.00000000000E+00 0.  1.
</event>
<event>
 7    1  0.6067783E-006  0.2796699E+03  0.7818608E-02  0.1263180E+00
          2   -1    0    0  502    0  0.00000000000E+00  0.00000000000E+00  0.31100248370E+03  0.31100248370E+03  0.00000000000E+00 0. -1.
          1   -1    0    0  501    0 -0.00000000000E+00 -0.00000000000E+00 -0.11258709297E+04  0.11258709297E+04  0.00000000000E+00 0. -1.
         25    2    1    2    0    0  0.24291716368E+03  0.13138563432E+03  0.14115814649E+03  0.33439788660E+03  0.12500156370E+03 0.  0.
          2    1    1    2  501    0 -0.71905125729E+01  0.41555360206E+02 -0.73438757828E+03  0.73559748951E+03  0.00000000000E+00 0. -1.
          1    1    1    2  502    0 -0.23572665110E+03 -0.17294099453E+03 -0.22163901424E+03  0.36687803731E+03  0.00000000000E+00 0. -1.
         22    1    3    3    0    0  0.36099996595E+02 -0.24926727254E+02  0.18746056614E+02  0.47707086730E+02  0.00000000000E+00 0. -1.
         22    1    3    3    0    0  0.20681716708E+03  0.15631236158E+03  0.12241208988E+03  0.28669079987E+03  0.00000000000E+00 0. -1.
</event>
<event>
 7    1  0.6067783E-006  0.9661193E+02  0.7818608E-02  0.1444647E+00
          2   -1    0    0  502    0  0.00000000000E+00  0.00000000000E+00  0.31207932138E+03  0.31207932138E+03  0.00000000000E+00 0. -1.
          1   -1    0    0  501    0 -0.00000000000E+00 -0.00000000000E+00 -0.36937463599E+03  0.36937463599E+03  0.00000000000E+00 0. -1.
         25    2    1    2    0    0  0.64617917903E+02 -0.10330825251E+03 -0.26109977660E+03  0.31407879888E+03  0.12499731283E+03 0.  0.
          2    1    1    2  501    0 -0.15073037117E+02  0.21197812792E+02 -0.71373500549E+02  0.75965257162E+02  0.00000000000E+00 0. -1.
          1    1    1    2  502    0 -0.49544880787E+02  0.82110439723E+02  0.27517796254E+03  0.29140990133E+03  0.00000000000E+00 0. -1.
         22    1    3    3    0    0  0.38992679231E+02 -0.49850485267E+02 -0.24443970551E+03  0.25250003871E+03  0.00000000000E+00 0.  1.
         22    1    3    3    0    0  0.25625238673E+02 -0.53457767247E+02 -0.16660071087E+02  0.61578760175E+02  0.00000000000E+00 0.  1.
</event>
<event>
 7    1  0.6067783E-006  0.1294473E+03  0.7818608E-02  0.1381956E+00
          2   -1    0    0  502    0  0.00000000000E+00  0.00000000000E+00  0.63419083022E+03  0.63419083022E+03  0.00000000000E+00 0. -1.
          1   -1    0    0  501    0 -0.00000000000E+00 -0.00000000000E+00 -0.12121653520E+04  0.12121653520E+04  0.00000000000E+00 0. -1.
         25    2    1    2    0    0 -0.69179404692E+02  0.78495198867E+02 -0.10930175173E+03  0.19626335577E+03  0.12500058243E+03 0.  0.
          2    1    1    2  501    0  0.72944732952E+02 -0.10986518316E+03 -0.10548516024E+04  0.10630631193E+04  0.00000000000E+00 0. -1.
          1    1    1    2  502    0 -0.37653282601E+01  0.31369984296E+02  0.58617883233E+03  0.58702970715E+03  0.00000000000E+00 0. -1.
         22    1    3    3    0    0 -0.63022760757E+02  0.15388330577E+02 -0.11558486924E+03  0.13254633563E+03  0.00000000000E+00 0. -1.
         22    1    3    3    0    0 -0.61566439351E+01  0.63106868290E+02  0.62831175136E+01  0.63717020140E+02  0.00000000000E+00 0. -1.
</event>
<event>
 7    1  0.6067783E-006  0.1616281E+03  0.7818608E-02  0.1310828E+00
          2   -1    0    0  502    0  0.00000000000E+00  0.00000000000E+00  0.24694329277E+04  0.24694329277E+04  0.00000000000E+00 0. -1.
          1   -1    0    0  501    0 -0.00000000000E+00 -0.00000000000E+00 -0.17081251761E+03  0.17081251761E+03  0.00000000000E+00 0. -1.
         25    2    1    2    0    0 -0.61577199712E+02 -0.11749453609E+03  0.66971402393E+03  0.69407382792E+03  0.12499954883E+03 0.  0.
          2    1    1    2  501    0  0.10784012103E+03  0.12308419487E+03 -0.11603544787E+03  0.20060766659E+03  0.00000000000E+00 0. -1.
          1    1    1    2  502    0 -0.46262921316E+02 -0.55896587757E+01  0.17449418341E+04  0.17455639508E+04  0.00000000000E+00 0. -1.
         22    1    3    3    0    0 -0.67824649127E+02 -0.73242573514E+02  0.21358779387E+03  0.23576344775E+03  0.00000000000E+00 0. -1.
         22    1    3    3    0    0  0.62474494154E+01 -0.44251962579E+02  0.45612623007E+03  0.45831038017E+03  0.00000000000E+00 0. -1.
</event>
<event>
 7    1  0.6067783E-006  0.8718889E+02  0.7818608E-02  0.1436175E+00
          2   -1    0    0  502    0  0.00000000000E+00  0.00000000000E+00  0.71013067088E+03  0.71013067088E+03  0.00000000000E+00 0. -1.
          1   -1    0    0  501    0 -0.00000000000E+00 -0.00000000000E+00 -0.55867603681E+03  0.55867603681E+03  0.00000000000E+00 0. -1.
         25    2    1    2    0    0 -0.53717436080E+01  0.11523356413E+03 -0.28281319323E+02  0.17243240227E+03  0.12500188158E+03 0.  0.
          2    1    1    2  501    0 -0.26663683756E+01 -0.85600451286E+02 -0.45394343313E+03  0.46195149882E+03  0.00000000000E+00 0. -1.
          1    1    1    2  502    0  0.80381119835E+01 -0.29633112848E+02  0.63367938652E+03  0.63442280659E+03  0.00000000000E+00 0. -1.
         22    1    3    3    0    0  0.21815130383E+02 -0.84773251703E+00  0.32077325599E+02  0.38801718798E+02  0.00000000000E+00 0. -1.
         22    1    3    3    0    0 -0.27186873991E+02  0.11608129665E+03 -0.60358644922E+02  0.13363068348E+03  0.00000000000E+00 0. -1.
</event>
<event>
 7    1  0.6067783E-006  0.7379420E+02  0.7818608E-02  0.1477357E+00
          2   -1    0    0  502    0  0.00000000000E+00  0.00000000000E+00  0.11312127345E+03  0.11312127345E+03  0.00000000000E+00 0. -1.
          1   -1    0    0  501    0 -0.00000000000E+00 -0.00000000000E+00 -0.42356682617E+03  0.42356682617E+03  0.00000000000E+00 0. -1.
         25    2    1    2    0    0  0.18932016312E+02  0.69799653083E+02 -0.11325340840E+03  0.18352594714E+03  0.12500010379E+03 0.  0.
          2    1    1    2  501    0 -0.44034360759E+02 -0.60243991574E+02 -0.26759760940E+03  0.27780720654E+03  0.00000000000E+00 0. -1.
          1    1    1    2  502    0  0.25102344447E+02 -0.95556615083E+01  0.70405465085E+02  0.75354945938E+02  0.00000000000E+00 0. -1.
         22    1    3    3    0    0 -0.48896321261E+02  0.55129360229E+02 -0.45882896936E+02  0.86806317877E+02  0.00000000000E+00 0. -1.
         22    1    3    3    0    0  0.67828337573E+02  0.14670292854E+02 -0.67370511466E+02  0.96719629267E+02  0.00000000000E+00 0. -1.
</event>
<event>
 7    1  0.6067783E-006  0.1139923E+03  0.7818608E-02  0.1355834E+00
          2   -1    0    0  502    0  0.00000000000E+00  0.00000000000E+00  0.85646272189E+03  0.85646272189E+03  0.00000000000E+00 0. -1.
          1   -1    0    0  501    0 -0.00000000000E+00 -0.00000000000E+00 -0.54249985264E+03  0.54249985264E+03  0.00000000000E+00 0. -1.
         25    2    1    2    0    0 -0.21313719121E+02  0.72468371283E+02  0.37785718850E+02  0.15086566632E+03  0.12500699687E+03 0.  0.
          2    1    1    2  501    0 -0.30254146849E+02  0.32710414317E+02 -0.48042179927E+03  0.48248356430E+03  0.00000000000E+00 0. -1.
          1    1    1    2  502    0  0.51567865969E+02 -0.10517878560E+03  0.75659894966E+03  0.76561334391E+03  0.00000000000E+00 0. -1.
         22    1    3    3    0    0 -0.45864422720E+02 -0.16644992475E+02 -0.49294102207E+01  0.49039781107E+02  0.00000000000E+00 0.  1.
         22    1    3    3    0    0  0.24550703600E+02  0.89113363758E+02  0.42715129071E+02  0.10182588521E+03  0.00000000000E+00 0.  1.
</event>
<event>
 7    1  0.6067783E-006  0.6422055E+02  0.7818608E-02  0.1493267E+00
          2   -1    0    0  502    0  0.00000000000E+00  0.00000000000E+00  0.14503013342E+03  0.14503013342E+03  0.00000000000E+00 0. -1.
          1   -1    0    0  501    0 -0.00000000000E+00 -0.00000000000E+00 -0.23584265104E+04  0.23584265104E+04  0.00000000000E+00 0. -1.
         25    2    1    2    0    0 -0.33836512546E+02  0.28296472384E+02 -0.19843556978E+03  0.23863720965E+03  0.12500177017E+03 0.  0.
          2    1    1    2  501    0  0.32755496705E+02 -0.55880909128E+02 -0.21378685914E+04  0.21388496237E+04  0.00000000000E+00 0. -1.
          1    1    1    2  502    0  0.10810158411E+01  0.27584436744E+02  0.12290778419E+03  0.12596981051E+03  0.00000000000E+00 0. -1.
         22    1    3    3    0    0  0.16838019361E+02 -0.91627422210E+01 -0.16721577900E+03  0.16831099634E+03  0.00000000000E+00 0. -1.
         22    1    3    3    0    0 -0.50674531907E+02  0.37459214605E+02 -0.31219790779E+02  0.70326213314E+02  0.00000000000E+00 0. -1.
</event>
<event>
 7    1  0.6067783E-006  0.1015102E+03  0.7818608E-02  0.1332663E+00
          2   -1    0    0  502    0  0.00000000000E+00  0.00000000000E+00  0.89527827263E+03  0.89527827263E+03  0.00000000000E+00 0. -1.
          1   -1    0    0  501    0 -0.00000000000E+00 -0.00000000000E+00 -0.41680245290E+03  0.41680245290E+03  0.00000000000E+00 0. -1.
         25    2    1    2    0    0 -0.13000426329E+03  0.58878503543E+02 -0.14367331316E+03  0.23798349454E+03  0.12500534431E+03 0.  0.
          2    1    1    2  501    0  0.93548259476E+02 -0.98724183797E+01 -0.21502347710E+03  0.23469946144E+03  0.00000000000E+00 0. -1.
          1    1    1    2  502    0  0.36456003813E+02 -0.49006085164E+02  0.83717260999E+03  0.83939776955E+03  0.00000000000E+00 0. -1.
         22    1    3    3    0    0 -0.77718802775E+02 -0.30471850883E+02 -0.44398287571E+02  0.94551329659E+02  0.00000000000E+00 0. -1.
         22    1    3    3    0    0 -0.52285460515E+02  0.89350354426E+02 -0.99275025589E+02  0.14343216488E+03  0.00000000000E+00 0. -1.
</event>
<event>
 7    1  0.6067783E-006  0.1276710E+03  0.7818608E-02  0.1271954E+00
          2   -1    0    0  502    0  0.00000000000E+00  0.00000000000E+00  0.65789017235E+03  0.65789017235E+03  0.00000000000E+00 0. -1.
          1   -1    0    0  501    0 -0.00000000000E+00 -0.00000000000E+00 -0.26990906205E+03  0.26990906205E+03  0.00000000000E+00 0. -1.
         25    2    1    2    0    0  0.43290427454E+02 -0.49431544859E+02  0.21945179547E+02  0.14291434214E+03  0.12500151819E+03 0.  0.
          2    1    1    2  501    0 -0.72505462663E+02  0.12908141961E+03 -0.17956421402E+03  0.23272808589E+03  0.00000000000E+00 0. -1.
          1    1    1    2  502    0  0.29215035209E+02 -0.79649874750E+02  0.54560014478E+03  0.55215680636E+03  0.00000000000E+00 0. -1.
         22    1    3    3    0    0  0.81036270171E+02 -0.36676565944E+01  0.20059031077E+02  0.83562512623E+02  0.00000000000E+00 0. -1.
         22    1    3    3    0    0 -0.37745842717E+02 -0.45763888265E+02  0.18861484707E+01  0.59351829522E+02  0.00000000000E+00 0. -1.
</event>
<event>
 7    1  0.6067783E-006  0.1023919E+03  0.7818608E-02  0.1280267E+00
          2   -1    0    0  502    0  0.00000000000E+00  0.00000000000E+00  0.14380829890E+04  0.14380829890E+04  0.00000000000E+00 0. -1.
          1   -1    0    0  501    0 -0.00000000000E+00 -0.00000000000E+00 -0.74234083061E+03  0.74234083061E+03  0.00000000000E+00 0. -1.
         25    2    1    2    0    0 -0.72608654531E+02  0.50797859059E+02  0.81856813155E+03  0.83278491196E+03  0.12499793759E+03 0.  0.
          2    1    1    2  501    0 -0.59280253066E+02 -0.77649015993E+02 -0.72451914105E+03  0.73107558011E+03  0.00000000000E+00 0. -1.
          1    1    1    2  502    0  0.13188890760E+03  0.26851156934E+02  0.60169316794E+03  0.61656332758E+03  0.00000000000E+00 0. -1.
         22    1    3    3    0    0 -0.49407822583E+02  0.60642264313E+02  0.79312268387E+03  0.79697064490E+03  0.00000000000E+00 0.  1.
         22    1    3    3    0    0 -0.23200831948E+02 -0.98444052541E+01  0.25445447682E+02  0.35814267068E+02  0.00000000000E+00 0.  1.
</event>
<event>
 7    1  0.6067783E-006  0.5804925E+02  0.7818608E-02  0.1423450E+00
          2   -1    0    0  502    0  0.00000000000E+00  0.00000000000E+00  0.92895920607E+02  0.92895920607E+02  0.00000000000E+00 0. -1.
          1   -1    0    0  501    0 -0.00000000000E+00 -0.00000000000E+00 -0.22668743189E+03  0.22668743189E+03  0.00000000000E+00 0. -1.
         25    2    1    2    0    0  0.89717493399E+02  0.14548423414E+02 -0.88549084999E+02  0.17812010356E+03  0.12499978238E+03 0.  0.
          2    1    1    2  501    0 -0.42094219636E+02 -0.32196996157E+02 -0.67662593815E+02  0.85946474564E+02  0.00000000000E+00 0. -1.
          1    1    1    2  502    0 -0.47623273763E+02  0.17648572744E+02  0.22420167533E+02  0.55516774366E+02  0.00000000000E+00 0. -1.
         22    1    3    3    0    0  0.27242155884E+02  0.26641184515E+02 -0.10558015920E+03  0.11224552457E+03  0.00000000000E+00 0.  1.
         22    1    3    3    0    0  0.62475337515E+02 -0.12092761102E+02  0.17031074203E+02  0.65874578991E+02  0.00000000000E+00 0.  1.
</event>
<event>
 7    1  0.6067783E-006  0.2072409E+03  0.7818608E-02  0.1169190E+00
          2   -1    0    0  502    0  0.00000000000E+00  0.00000000000E+00  0.65413960792E+02  0.65413960792E+02  0.00000000000E+00 0. -1.
          1   -1    0    0  501    0 -0.00000000000E+00 -0.00000000000E+00 -0.17817294188E+04  0.17817294188E+04  0.00000000000E+00 0. -1.
         25    2    1    2    0    0 -0.17811444721E+02 -0.26228403905E+02 -0.58926259396E+03  0.60320838201E+03  0.12499908299E+03 0.  0.
          2    1    1    2  501    0  0.16087256358E+03 -0.13064771462E+03 -0.93485240012E+03  0.95754781450E+03  0.00000000000E+00 0. -1.
          1    1    1    2  502    0 -0.14306111886E+03  0.15687611853E+03 -0.19220046389E+03  0.28638718304E+03  0.00000000000E+00 0. -1.
         22    1    3    3    0    0 -0.30254961514E+01 -0.63586692643E+02 -0.51368956605E+03  0.51761896350E+03  0.00000000000E+00 0.  1.
         22    1    3    3    0    0 -0.14785948569E+02  0.37358288739E+02 -0.75573027915E+02  0.85589418509E+02  0.00000000000E+00 0.  1.
</event>
<event>
 7    1  0.6067783E-006  0.1108999E+03  0.7818608E-02  0.1278674E+00
          2   -1    0    0  502    0  0.00000000000E+00  0.00000000000E+00  0.41424065069E+03  0.41424065069E+03  0.00000000000E+00 0. -1.
          1   -1    0    0  501    0 -0.00000000000E+00 -0.00000000000E+00 -0.76699281319E+03  0.76699281319E+03  0.00000000000E+00 0. -1.
         25    2    1    2    0    0  0.24292026009E+02 -0.13608786197E+03 -0.34452932513E+03  0.39171575735E+03  0.12502307778E+03 0.  0.
          2    1    1    2  501    0 -0.81824270396E+02  0.41118578946E+02 -0.38550660465E+03  0.39623388420E+03  0.00000000000E+00 0. -1.
          1    1    1    2  502    0  0.57532244387E+02  0.94969283027E+02  0.37728376727E+03  0.39328382233E+03  0.00000000000E+00 0. -1.
         22    1    3    3    0    0  0.39683716877E+02 -0.13104664952E+02 -0.24312047554E+02  0.48348787834E+02  0.00000000000E+00 0.  1.
         22    1    3    3    0    0 -0.15391690869E+02 -0.12298319702E+03 -0.32021727757E+03  0.34336696951E+03  0.00000000000E+00 0.  1.
</event>
<event>
 7    1  0.6067783E-006  0.7846180E+02  0.7818608E-02  0.1419543E+00
          2   -1    0    0  502    0  0.00000000000E+00  0.00000000000E+00  0.18462066630E+04  0.18462066630E+04  0.00000000000E+00 0. -1.
          1   -1    0    0  501    0 -0.00000000000E+00 -0.00000000000E+00 -0.15569238634E+03  0.15569238634E+03  0.00000000000E+00 0. -1.
         25    2    1    2    0    0  0.78802413382E+01 -0.11518547568E+03  0.16549101501E+02  0.17096153476E+03  0.12499672634E+03 0.  0.
          2    1    1    2  501    0  0.56156051474E+01  0.38309746535E+02 -0.72785806657E+02  0.82443588905E+02  0.00000000000E+00 0. -1.
          1    1    1    2  502    0 -0.13495846486E+02  0.76875729148E+02  0.17467509818E+04  0.17484939257E+04  0.00000000000E+00 0. -1.
         22    1    3    3    0    0 -0.40867896674E+02 -0.62305114137E+02 -0.35149549020E+02  0.82386910505E+02  0.00000000000E+00 0.  1.
         22    1    3    3    0    0  0.48748138012E+02 -0.52880361546E+02  0.51698650521E+02  0.88574624259E+02  0.00000000000E+00 0.  1.
</event>
<event>
 7    1  0.6067783E-006  0.4583080E+02  0.7818608E-02  0.1530770E+00
          2   -1    0    0  502    0  0.00000000000E+00  0.00000000000E+00  0.36418131526E+02  0.36418131526E+02  0.00000000000E+00 0. -1.
          1   -1    0    0  501    0 -0.00000000000E+00 -0.00000000000E+00 -0.19021394005E+04  0.19021394005E+04  0.00000000000E+00 0. -1.
         25    2    1    2    0    0  0.32289568361E+02  0.48576036449E+02 -0.27390421092E+03  0.30667162855E+03  0.12498689314E+03 0.  0.
          2    1    1    2  501    0 -0.24102452129E+01 -0.45676147836E+02 -0.16000927552E+04  0.16007463712E+04  0.00000000000E+00 0. -1.
          1    1    1    2  502    0 -0.29879323148E+02 -0.28998886131E+01  0.82756971389E+01  0.31139532252E+02  0.00000000000E+00 0. -1.
         22    1    3    3    0    0  0.68492290880E+02  0.40032652685E+02 -0.94191279356E+02  0.12314952009E+03  0.00000000000E+00 0. -1.
         22    1    3    3    0    0 -0.36202722519E+02  0.85433837646E+01 -0.17971293157E+03  0.18352210847E+03  0.00000000000E+00 0. -1.
</event>
<event>
 7    1  0.6067783E-006  0.1903863E+03  0.7818608E-02  0.1338438E+00
          2   -1    0    0  502    0  0.00000000000E+00  0.00000000000E+00  0.23793989173E+04  0.23793989173E+04  0.00000000000E+00 0. -1.
          1   -1    0    0  501    0 -0.00000000000E+00 -0.00000000000E+00 -0.12991142370E+04  0.12991142370E+04  0.00000000000E+00 0. -1.
         25    2    1    2    0    0 -0.17760607469E+03  0.74450552869E+02  0.23014920424E+03  0.32508781943E+03  0.12500652600E+03 0.  0.
          2    1    1    2  501    0  0.16133606616E+02  0.26431364098E+02 -0.12471404606E+04  0.12475248449E+04  0.00000000000E+00 0. -1.
          1    1    1    2  502    0  0.16147246807E+03 -0.10088191697E+03  0.20972759367E+04  0.21059004900E+04  0.00000000000E+00 0. -1.
         22    1    3    3    0    0 -0.18684691330E+03  0.70619095893E+02  0.16473743371E+03  0.25891552248E+03  0.00000000000E+00 0.  1.
         22    1    3    3    0    0  0.92408386098E+01  0.38314569759E+01  0.65411770529E+02  0.66172296957E+02  0.00000000000E+00 0.  1.
</event>
<event>
 7    1  0.6067783E-006  0.1284567E+03  0.7818608E-02  0.1288874E+00
          2   -1    0    0  502    0  0.00000000000E+00  0.00000000000E+00  0.93955985763E+02  0.93955985763E+02  0.00000000000E+00 0. -1.
          1   -1    0    0  501    0 -0.00000000000E+00 -0.00000000000E+00 -0.18591397668E+04  0.18591397668E+04  0.00000000000E+00 0. -1.
         25    2    1    2    0    0 -0.64180255171E+02  0.68528446949E+01 -0.13040573804E+03  0.19182735198E+03  0.12500403922E+03 0.  0.
          2    1    1    2  501    0  0.13367152505E+03  0.11160134577E+02 -0.16740670685E+04  0.16794323967E+04  0.00000000000E+00 0. -1.
          1    1    1    2  502    0 -0.69491269881E+02 -0.18012979271E+02  0.39289025486E+02  0.81836003907E+02  0.00000000000E+00 0. -1.
         22    1    3    3    0    0 -0.29523592296E+02 -0.35611778948E+02 -0.12895013479E+03  0.13699627208E+03  0.00000000000E+00 0.  1.
         22    1    3    3    0    0 -0.34656662875E+02  0.42464623643E+02 -0.14556032545E+01  0.54831079906E+02  0.00000000000E+00 0.  1.
</event>
<event>
 7    1  0.6067783E-006  0.1271486E+03  0.7818608E-02  0.1380057E+00
          2   -1    0    0  502    0  0.00000000000E+00  0.00000000000E+00  0.13243054983E+04  0.13243054983E+04  0.00000000000E+00 0. -1.
          1   -1    0    0  501    0 -0.00000000000E+00 -0.00000000000E+00 -0.55862110159E+03  0.55862110159E+03  0.00000000000E+00 0. -1.
         25    2    1    2    0    0 -0.96017349894E+01 -0.10999753152E+03  0.39290162882E+03  0.42683328791E+03  0.12499326177E+03 0.  0.
          2    1    1    2  501    0  0.24563155566E+02 -0.21536569441E+02 -0.53636450581E+03  0.53735840510E+03  0.00000000000E+00 0. -1.
          1    1    1    2  502    0 -0.14961420577E+02  0.13153410096E+03  0.90914727374E+03  0.91873490691E+03  0.00000000000E+00 0. -1.
         22    1    3    3    0    0  0.12596877467E+02 -0.10367310758E+03  0.14964504107E+03  0.18248406197E+03  0.00000000000E+00 0. -1.
         22    1    3    3    0    0 -0.22198612457E+02 -0.63244239309E+01  0.24325658775E+03  0.24434922594E+03  0.00000000000E+00 0. -1.
</event>
<event>
 7    1  0.6067783E-006  0.2285004E+03  0.7818608E-02  0.1234056E+00
          2   -1    0    0  502    0  0.00000000000E+00  0.00000000000E+00  0.91381159440E+03  0.91381159440E+03  0.00000000000E+00 0. -1.
          1   -1    0    0  501    0 -0.00000000000E+00 -0.00000000000E+00 -0.38916422305E+03  0.38916422305E+03  0.00000000000E+00 0. -1.
         25    2    1    2    0    0 -0.27583257209E+03  0.50538132147E+02  0.14515605375E+03  0.33960924558E+03  0.12500579631E+03 0.  0.
          2    1    1    2  501    0  0.67097747021E+02  0.16489606095E+02 -0.26956792580E+03  0.27828201772E+03  0.00000000000E+00 0. -1.
          1    1    1    2  502    0  0.20873482507E+03 -0.67027738242E+02  0.64905924340E+03  0.68508455415E+03  0.00000000000E+00 0. -1.
         22    1    3    3    0    0 -0.11457438052E+01 -0.17123344099E+02  0.29199622751E+02  0.33869449520E+02  0.00000000000E+00 0.  1.
         22    1    3    3    0    0 -0.27468682829E+03  0.67661476246E+02  0.11595643100E+03  0.30573979606E+03  0.00000000000E+00 0.  1.
</event>
<event>
 7    1  0.6067783E-006  0.1455117E+03  0.7818608E-02  0.1251279E+00
          2   -1    0    0  502    0  0.00000000000E+00  0.00000000000E+00  0.15726468793E+04  0.15726468793E+04  0.00000000000E+00 0. -1.
          1   -1    0    0  501    0 -0.00000000000E+00 -0.00000000000E+00 -0.10056897978E+03  0.10056897978E+03  0.00000000000E+00 0. -1.
         25    2    1    2    0    0 -0.18130823085E+03  0.12764973267E+02  0.94684789344E+03  0.97220467456E+03  0.12500150722E+03 0.  0.
          2    1    1    2  501    0  0.61494174042E+02 -0.67294767061E+02 -0.54711051364E+02  0.10631753504E+03  0.00000000000E+00 0. -1.
          1    1    1    2  502    0  0.11981405681E+03  0.54529793794E+02  0.57994105744E+03  0.59469364948E+03  0.00000000000E+00 0. -1.
         22    1    3    3    0    0 -0.77573361879E+02 -0.51491818857E+02  0.30633894540E+03  0.32017586316E+03  0.00000000000E+00 0. -1.
         22    1    3    3    0    0 -0.10373486897E+03  0.64256792124E+02  0.64050894804E+03  0.65202881140E+03  0.00000000000E+00 0. -1.
</event>
<event>
 7    1  0.6067783E-006  0.8397457E+02  0.7818608E-02  0.1360538E+00
          2   -1    0    0  502    0  0.00000000000E+00  0.00000000000E+00  0.11396782637E+04  0.11396782637E+04  0.00000000000E+00 0. -1.
          1   -1    0    0  501    0 -0.00000000000E+00 -0.00000000000E+00 -0.19086372168E+03  0.19086372168E+03  0.00000000000E+00 0. -1.
         25    2    1    2    0    0  0.94010442090E+02  0.75810372517E+01 -0.10527758918E+03  0.18869041482E+03  0.12500106605E+03 0.  0.
          2    1    1    2  501    0 -0.23399533979E+02 -0.53215907248E+02 -0.22239023560E+02  0.62241827926E+02  0.00000000000E+00 0. -1.
          1    1    1    2  502    0 -0.70610908111E+02  0.45634869996E+02  0.10763311548E+04  0.10796097427E+04  0.00000000000E+00 0. -1.
         22    1    3    3    0    0 -0.17332992688E+02 -0.30150566731E+02 -0.70339525216E+01  0.35481908035E+02  0.00000000000E+00 0. -1.
         22    1    3    3    0    0  0.11134343478E+03  0.37731603982E+02 -0.98243636659E+02  0.15320850678E+03  0.00000000000E+00 0. -1.
</event>
<event>
 7    1  0.6067783E-006  0.8886425E+02  0.7818608E-02  0.1439666E+00
          2   -1    0    0  502    0  0.00000000000E+00  0.00000000000E+00  0.13907462526E+03  0.13907462526E+03  0.00000000000E+00 0. -1.
          1   -1    0    0  501    0 -0.00000000000E+00 -0.00000000000E+00 -0.76643620205E+03  0.76643620205E+03  0.00000000000E+00 0. -1.
         25    2    1    2    0    0 -0.82436297912E+02  0.59027994070E+02 -0.41101556387E+03  0.44140544320E+03  0.12499969699E+03 0.  0.
          2    1    1    2  501    0  0.79946031767E+02 -0.29786746700E+02 -0.33303166026E+03  0.34378584178E+03  0.00000000000E+00 0. -1.
          1    1    1    2  502    0  0.24902661448E+01 -0.29241247370E+02  0.11668564733E+03  0.12031954233E+03  0.00000000000E+00 0. -1.
         22    1    3    3    0    0 -0.50017796459E+02  0.41157612511E+02 -0.39631833482E+03  0.40157683144E+03  0.00000000000E+00 0. -1.
         22    1    3    3    0    0 -0.32418501453E+02  0.17870381559E+02 -0.14697229047E+02  0.39828611766E+02  0.00000000000E+00 0. -1.
</event>
<event>
 7    1  0.6067783E-006  0.3277019E+02  0.7818608E-02  0.1575161E+00
          2   -1    0    0  502    0  0.00000000000E+00  0.00000000000E+00  0.16511094013E+04  0.16511094013E+04  0.00000000000E+00 0. -1.
          1   -1    0    0  501    0 -0.00000000000E+00 -0.00000000000E+00 -0.19796974445E+03  0.19796974445E+03  0.00000000000E+00 0. -1.
         25    2    1    2    0    0 -0.17025629468E+02 -0.11177624426E+02  0.71481654663E+02  0.14543084012E+03  0.12500276380E+03 0.  0.
          2    1    1    2  501    0  0.27407601689E+02 -0.18670692615E+02 -0.15912363174E+03  0.16254261463E+03  0.00000000000E+00 0. -1.
          1    1    1    2  502    0 -0.10381972221E+02  0.29848317041E+02  0.15407816339E+04  0.15411056910E+04  0.00000000000E+00 0. -1.
         22    1    3    3    0    0 -0.45698186275E+02 -0.61169021354E+01  0.96560613964E+02  0.10700323775E+03  0.00000000000E+00 0. -1.
         22    1    3    3    0    0  0.28672556806E+02 -0.50607222905E+01 -0.25078959301E+02  0.38427602365E+02  0.00000000000E+00 0. -1.
</event>
<event>
 7    1  0.6067783E-006  0.4512046E+02  0.7818608E-02  0.1485372E+00
          2   -1    0    0  502    0  0.00000000000E+00  0.00000000000E+00  0.27501308018E+04  0.27501308018E+04  0.00000000000E+00 0. -1.
          1   -1    0    0  501    0 -0.00000000000E+00 -0.00000000000E+00 -0.72189375360E+02  0.72189375360E+02  0.00000000000E+00 0. -1.
         25    2    1    2    0    0  0.12165092641E+02  0.95450753691E+01  0.11377264292E+04  0.11446771999E+04  0.12500146493E+03 0.  0.
          2    1    1    2  501    0 -0.13080535217E+02  0.39400645469E+02 -0.62035246275E+02  0.74645047025E+02  0.00000000000E+00 0. -1.
          1    1    1    2  502    0  0.91544257598E+00 -0.48945720838E+02  0.16022502434E+04  0.16029979302E+04  0.00000000000E+00 0. -1.
         22    1    3    3    0    0  0.20841897496E+02  0.15732043037E+02  0.11325122449E+04  0.11328132533E+04  0.00000000000E+00 0.  1.
         22    1    3    3    0    0 -0.86768048551E+01 -0.61869676677E+01  0.52141842979E+01  0.11863946616E+02  0.00000000000E+00 0.  1.
</event>
<event>
 7    1  0.6067783E-006  0.4464179E+02  0.7818608E-02  0.1533691E+00
          2   -1    0    0  502    0  0.00000000000E+00  0.00000000000E+00  0.42600807852E+04  0.42600807852E+04  0.00000000000E+00 0. -1.
          1   -1    0    0  501    0 -0.00000000000E+00 -0.00000000000E+00 -0.23128166937E+03  0.23128166937E+03  0.00000000000E+00 0. -1.
         25    2    1    2    0    0  0.60500060377E+01 -0.40149706727E+02  0.19641901683E+04  0.19685823868E+04  0.12499997957E+03 0.  0.
          2    1    1    2  501    0  0.28576741499E+02  0.98685416075E+01 -0.22785636219E+03  0.22985330117E+03  0.00000000000E+00 0. -1.
          1    1    1    2  502    0 -0.34626747537E+02  0.30281165120E+02  0.22924653098E+04  0.22929267666E+04  0.00000000000E+00 0. -1.
         22    1    3    3    0    0  0.22533667720E+02  0.38494606437E+02  0.43457699834E+03  0.43686012451E+03  0.00000000000E+00 0.  1.
         22    1    3    3    0    0 -0.16483661682E+02 -0.78644313164E+02  0.15296131699E+04  0.15317222623E+04  0.00000000000E+00 0.  1.
</event>
<event>
 7    1  0.6067783E-006  0.6357602E+02  0.7818608E-02  0.1398646E+00
          2   -1    0    0  502    0  0.00000000000E+00  0.00000000000E+00  0.82955460757E+02  0.82955460757E+02  0.00000000000E+00 0. -1.
          1   -1    0    0  501    0 -0.00000000000E+00 -0.00000000000E+00 -0.90481559293E+03  0.90481559293E+03  0.00000000000E+00 0. -1.
         25    2    1    2    0    0  0.52568586526E+02  0.24051069539E+02 -0.48920294924E+02  0.14614871583E+03  0.12499736656E+03 0.  0.
          2    1    1    2  501    0 -0.49604753071E+02  0.39765295930E+02 -0.77509776508E+03  0.77770074947E+03  0.00000000000E+00 0. -1.
          1    1    1    2  502    0 -0.29638334549E+01 -0.63816365469E+02  0.21579278266E+01  0.63921588395E+02  0.00000000000E+00 0. -1.
         22    1    3    3    0    0  0.20780853134E+02  0.73370032008E+02 -0.42024606859E+02  0.87069357615E+02  0.00000000000E+00 0. -1.
         22    1    3    3    0    0  0.31787733392E+02 -0.49318962469E+02 -0.68956880646E+01  0.59079358215E+02  0.00000000000E+00 0. -1.
</event>
<event>
 7    1  0.6067783E-006  0.1563205E+03  0.7818608E-02  0.1322616E+00
          2   -1    0    0  502    0  0.00000000000E+00  0.00000000000E+00  0.11013935018E+04  0.11013935018E+04  0.00000000000E+00 0. -1.
          1   -1    0    0  501    0 -0.00000000000E+00 -0.00000000000E+00 -0.92490964667E+02  0.92490964667E+02  0.00000000000E+00 0. -1.
         25    2    1    2    0    0  0.12042784967E+03  0.38772508521E+02  0.12470269101E+03  0.21721426692E+03  0.12500040886E+03 0.  0.
          2    1    1    2  501    0  0.21460571659E+02  0.37655870479E+02 -0.27174154000E+02  0.51156185971E+02  0.00000000000E+00 0. -1.
          1    1    1    2  502    0 -0.14188842133E+03 -0.76428379001E+02  0.91137400015E+03  0.92551401361E+03  0.00000000000E+00 0. -1.
         22    1    3    3    0    0  0.14191537454E+03  0.35116643377E+02  0.78060350633E+02  0.16573041517E+03  0.00000000000E+00 0.  1.
         22    1    3    3    0    0 -0.21487524870E+02  0.36558651438E+01  0.46642340377E+02  0.51483851748E+02  0.00000000000E+00 0.  1.
</event>
<event>
 7    1  0.6067783E-006  0.1250154E+03  0.7818608E-02  0.1297892E+00
          2   -1    0    0  502    0  0.00000000000E+00  0.00000000000E+00  0.76347862149E+03  0.76347862149E+03  0.00000000000E+00 0. -1.
          1   -1    0    0  501    0 -0.00000000000E+00 -0.00000000000E+00 -0.21047367761E+03  0.21047367761E+03  0.00000000000E+00 0. -1.
         25    2    1    2    0    0  0.13041555331E+03 -0.92398028210E+02  0.70610266286E+02  0.21484976206E+03  0.12501599254E+03 0.  0.
          2    1    1    2  501    0 -0.99965479557E+01  0.67080430394E+02 -0.12346863682E+03  0.14086951192E+03  0.00000000000E+00 0. -1.
          1    1    1    2  502    0 -0.12041900535E+03  0.25317597817E+02  0.60586331441E+03  0.61823302512E+03  0.00000000000E+00 0. -1.
         22    1    3    3    0    0  0.13419640124E+03 -0.10993007008E+03  0.83734160152E+02  0.19262581341E+03  0.00000000000E+00 0.  1.
         22    1    3    3    0    0 -0.37808479339E+01  0.17532041874E+02 -0.13123893865E+02  0.22223948649E+02  0.00000000000E+00 0.  1.
</event>
<event>
 7    1  0.6067783E-006  0.9570420E+02  0.7818608E-02  0.1327124E+00
          2   -1    0    0  502    0  0.00000000000E+00  0.00000000000E+00  0.20551740433E+04  0.20551740433E+04  0.00000000000E+00 0. -1.
          1   -1    0    0  501    0 -0.00000000000E+00 -0.00000000000E+00 -0.24590468430E+03  0.24590468430E+03  0.00000000000E+00 0. -1.
         25    2    1    2    0    0  0.46511958235E+02 -0.17442220964E+02 -0.99386970838E+01  0.13487698847E+03  0.12500172394E+03 0.  0.
          2    1    1    2  501    0 -0.76717146690E+02  0.78387715215E+02 -0.15551773796E+03  0.19030481158E+03  0.00000000000E+00 0. -1.
          1    1    1    2  502    0  0.30205188455E+02 -0.60945494250E+02  0.19747257941E+04  0.19758969276E+04  0.00000000000E+00 0. -1.
         22    1    3    3    0    0  0.71836789229E+02 -0.39666415254E+02 -0.38559234673E+02  0.90668425399E+02  0.00000000000E+00 0.  1.
         22    1    3    3    0    0 -0.25324830994E+02  0.22224194289E+02  0.28620537589E+02  0.44208563068E+02  0.00000000000E+00 0.  1.
</event>
<event>
 7    1  0.6067783E-006  0.9223034E+02  0.7818608E-02  0.1339628E+00
          2   -1    0    0  502    0  0.00000000000E+00  0.00000000000E+00  0.34883833109E+04  0.34883833109E+04  0.00000000000E+00 0. -1.
          1   -1    0    0  501    0 -0.00000000000E+00 -0.00000000000E+00 -0.28466589045E+03  0.28466589045E+03  0.00000000000E+00 0. -1.
         25    2    1    2    0    0  0.13101606281E+03 -0.57790597200E+02  0.10924498446E+03  0.21923590116E+03  0.12499980755E+03 0.  0.
          2    1    1    2  501    0 -0.67761179220E+02  0.58956590668E+02 -0.22057549979E+03  0.23816172677E+03  0.00000000000E+00 0. -1.
          1    1    1    2  502    0 -0.63254883589E+02 -0.11659934683E+01  0.33150479358E+04  0.33156515734E+04  0.00000000000E+00 0. -1.
         22    1    3    3    0    0  0.14348145888E+02  0.37042470766E+02  0.22134799430E+02  0.45474864229E+02  0.00000000000E+00 0. -1.
         22    1    3    3    0    0  0.11666791692E+03 -0.94833067966E+02  0.87110185032E+02  0.17376103693E+03  0.00000000000E+00 0. -1.
</event>
<event>
 7    1  0.6067783E-006  0.7404099E+02  0.7818608E-02  0.1416295E+00
          2   -1    0    0  502    0  0.00000000000E+00  0.00000000000E+00  0.18915368439E+04  0.18915368439E+04  0.00000000000E+00 0. -1.
          1   -1    0    0  501    0 -0.00000000000E+00 -0.00000000000E+00 -0.28767894641E+03  0.28767894641E+03  0.00000000000E+00 0. -1.
         25    2    1    2    0    0 -0.64821949857E+02  0.63867332202E+01  0.21902207234E+03  0.26045762534E+03  0.12499932352E+03 0.  0.
          2    1    1    2  501    0 -0.98006599130E+00 -0.42060292135E+02 -0.26444951573E+03  0.26777523237E+03  0.00000000000E+00 0. -1.
          1    1    1    2  502    0  0.65802015848E+02  0.35673558915E+02  0.16492853409E+04  0.16509829326E+04  0.00000000000E+00 0. -1.
         22    1    3    3    0    0 -0.24196011593E+02  0.32308440385E+02  0.45291805073E+01  0.40617678087E+02  0.00000000000E+00 0. -1.
         22    1    3    3    0    0 -0.40625938264E+02 -0.25921707165E+02  0.21449289183E+03  0.21983994725E+03  0.00000000000E+00 0. -1.
</event>
<event>
 7    1  0.6067783E-006  0.4966971E+02  0.7818608E-02  0.1481301E+00
          2   -1    0    0  502    0  0.00000000000E+00  0.00000000000E+00  0.45292871017E+02  0.45292871017E+02  0.00000000000E+00 0. -1.
          1   -1    0    0  501    0 -0.00000000000E+00 -0.00000000000E+00 -0.75658754589E+03  0.75658754589E+03  0.00000000000E+00 0. -1.
         25    2    1    2    0    0 -0.11919826265E+02  0.95105954564E+01 -0.19946093006E+03  0.23588432733E+03  0.12499687827E+03 0.  0.
          2    1    1    2  501    0 -0.29831406511E+02  0.24821922044E+02 -0.51045083823E+03  0.51192391903E+03  0.00000000000E+00 0. -1.
          1    1    1    2  502    0  0.41751232776E+02 -0.34332517500E+02 -0.13829065805E+01  0.54072170539E+02  0.00000000000E+00 0. -1.
         22    1    3    3    0    0 -0.35950714094E+02 -0.43387726622E+02 -0.14765543240E+03  0.15804137238E+03  0.00000000000E+00 0.  1.
         22    1    3    3    0    0  0.24030887829E+02  0.52898322078E+02 -0.51805497660E+02  0.77842954957E+02  0.00000000000E+00 0.  1.
</event>
<event>
 7    1  0.6067783E-006  0.5813598E+02  0.7818608E-02  0.1420997E+00
          2   -1    0    0  502    0  0.00000000000E+00  0.00000000000E+00  0.22218041836E+04  0.22218041836E+04  0.00000000000E+00 0. -1.
          1   -1    0    0  501    0 -0.00000000000E+00 -0.00000000000E+00 -0.15925512384E+02  0.15925512384E+02  0.00000000000E+00 0. -1.
         25    2    1    2    0    0  0.38108649229E+01  0.96691811053E+02  0.53953476312E+03  0.56221567207E+03  0.12499948917E+03 0.  0.
          2    1    1    2  501    0  0.22584478888E+02 -0.46478879154E+02  0.16074864429E+03  0.16885044132E+03  0.00000000000E+00 0. -1.
          1    1    1    2  502    0 -0.26395343811E+02 -0.50212931899E+02  0.15055952638E+04  0.15066635826E+04  0.00000000000E+00 0. -1.
         22    1    3    3    0    0 -0.15257030716E+02  0.12355019227E+03  0.44613155610E+03  0.46317468880E+03  0.00000000000E+00 0.  1.
         22    1    3    3    0    0  0.19067895639E+02 -0.26858381219E+02  0.93403207018E+02  0.99040983270E+02  0.00000000000E+00 0.  1.
</event>
<event>
 7    1  0.6067783E-006  0.9625921E+02  0.7818608E-02  0.1339291E+00
          2   -1    0    0  502    0  0.00000000000E+00  0.00000000000E+00  0.22535897965E+04  0.22535897965E+04  0.00000000000E+00 0. -1.
          1   -1    0    0  501    0 -0.00000000000E+00 -0.00000000000E+00 -0.42889769942E+03  0.42889769942E+03  0.00000000000E+00 0. -1.
         25    2    1    2    0    0 -0.10807334865E+03 -0.73227003684E+02 -0.33241777218E+02  0.18377219320E+03  0.12500064193E+03 0.  0.
          2    1    1    2  501    0  0.47790500071E+02  0.81104283417E+02 -0.31304111049E+03  0.32688923742E+03  0.00000000000E+00 0. -1.
          1    1    1    2  502    0  0.60282848583E+02 -0.78772797329E+01  0.21709749848E+04  0.21718260653E+04  0.00000000000E+00 0. -1.
         22    1    3    3    0    0  0.75749034785E+00  0.20107643851E+02  0.22283256280E+02  0.30023901200E+02  0.00000000000E+00 0. -1.
         22    1    3    3    0    0 -0.10883083900E+03 -0.93334647534E+02 -0.55525033498E+02  0.15374829200E+03  0.00000000000E+00 0. -1.
</event>
<event>
 7    1  0.6067783E-006  0.1586806E+03  0.7818608E-02  0.1295440E+00
          2   -1    0    0  502    0  0.00000000000E+00  0.00000000000E+00  0.24819633862E+04  0.24819633862E+04  0.00000000000E+00 0. -1.
          1   -1    0    0  501    0 -0.00000000000E+00 -0.00000000000E+00 -0.24542060046E+03  0.24542060046E+03  0.00000000000E+00 0. -1.
         25    2    1    2    0    0 -0.12770324410E+03 -0.48668864022E+02  0.28983734896E+03  0.34395916135E+03  0.12500175577E+03 0.  0.
          2    1    1    2  501    0  0.12408752245E+03  0.10320942928E+03 -0.18813748746E+03  0.24788225775E+03  0.00000000000E+00 0. -1.
          1    1    1    2  502    0  0.36157216457E+01 -0.54540565255E+02  0.21348429242E+04  0.21355425676E+04  0.00000000000E+00 0. -1.
         22    1    3    3    0    0 -0.11656174827E+03 -0.61774094259E+02  0.29726585780E+03  0.32522249322E+03  0.00000000000E+00 0. -1.
         22    1    3    3    0    0 -0.11141495822E+02  0.13105230237E+02 -0.74285088460E+01  0.18736668124E+02  0.00000000000E+00 0. -1.
</event>
<event>
 7    1  0.6067783E-006  0.6243157E+02  0.7818608E-02  0.1419218E+00
          2   -1    0    0  502    0  0.00000000000E+00  0.00000000000E+00  0.10395210278E+04  0.10395210278E+04  0.00000000000E+00 0. -1.
          1   -1    0    0  501    0 -0.00000000000E+00 -0.00000000000E+00 -0.44667467652E+03  0.44667467652E+03  0.00000000000E+00 0. -1.
         25    2    1    2    0    0  0.93489297695E+02  0.26666235173E+02  0.15138964598E+03  0.21907770294E+03  0.12499951253E+03 0.  0.
          2    1    1    2  501    0 -0.61298339084E+02  0.99873835521E+01 -0.40979251964E+03  0.41447212615E+03  0.00000000000E+00 0. -1.
          1    1    1    2  502    0 -0.32190958611E+02 -0.36653618725E+02  0.85124922496E+03  0.85264587525E+03  0.00000000000E+00 0. -1.
         22    1    3    3    0    0 -0.23540718181E+02  0.19113947178E+02  0.37881454610E+01  0.30559097422E+02  0.00000000000E+00 0. -1.
         22    1    3    3    0    0  0.11703001588E+03  0.75522879949E+01  0.14760150052E+03  0.18851860552E+03  0.00000000000E+00 0. -1.
</event>
<event>
 7    1  0.6067783E-006  0.7786588E+02  0.7818608E-02  0.1381412E+00
          2   -1    0    0  502    0  0.00000000000E+00  0.00000000000E+00  0.13923371777E+03  0.13923371777E+03  0.00000000000E+00 0. -1.
          1   -1    0    0  501    0 -0.00000000000E+00 -0.00000000000E+00 -0.24785379544E+03  0.24785379544E+03  0.00000000000E+00 0. -1.
         25    2    1    2    0    0  0.38552235216E+02 -0.10419884396E+02 -0.14722863569E+03  0.19722365641E+03  0.12500420253E+03 0.  0.
          2    1    1    2  501    0  0.17021932426E+02 -0.49936621117E+02 -0.47454039058E+02  0.70959834660E+02  0.00000000000E+00 0. -1.
          1    1    1    2  502    0 -0.55574167643E+02  0.60356505513E+02  0.86062597076E+02  0.11890402215E+03  0.00000000000E+00 0. -1.
         22    1    3    3    0    0  0.83592734249E+02 -0.15223926039E+02 -0.10708194976E+03  0.13669695354E+03  0.00000000000E+00 0.  1.
         22    1    3    3    0    0 -0.45040499032E+02  0.48040416434E+01 -0.40146685932E+02  0.60526702872E+02  0.00000000000E+00 0.  1.
</event>
<event>
 7    1  0.6067783E-006  0.1332389E+03  0.7818608E-02  0.1373637E+00
          2   -1    0    0  502    0  0.00000000000E+00  0.00000000000E+00  0.34121554025E+03  0.34121554025E+03  0.00000000000E+00 0. -1.
          1   -1    0    0  501    0 -0.00000000000E+00 -0.00000000000E+00 -0.54958731594E+03  0.54958731594E+03  0.00000000000E+00 0. -1.
         25    2    1    2    0    0  0.62873707374E+02 -0.12351124445E+03 -0.17556152717E+03  0.25623189024E+03  0.12499920467E+03 0.  0.
          2    1    1    2  501    0 -0.32295732318E+02 -0.60540526118E+01 -0.31807746436E+03  0.31977013496E+03  0.00000000000E+00 0. -1.
          1    1    1    2  502    0 -0.30577975057E+02  0.12956529706E+03  0.28526721584E+03  0.31480083100E+03  0.00000000000E+00 0. -1.
         22    1    3    3    0    0  0.19642310268E+02  0.46910469301E+01  0.13100796540E+02  0.24071916084E+02  0.00000000000E+00 0. -1.
         22    1    3    3    0    0  0.43231397106E+02 -0.12820229138E+03 -0.18866232371E+03  0.23215997415E+03  0.00000000000E+00 0. -1.
</event>
<event>
 7    1  0.6067783E-006  0.1543207E+03  0.7818608E-02  0.1197769E+00
          2   -1    0    0  502    0  0.00000000000E+00  0.00000000000E+00  0.16395358742E+04  0.16395358742E+04  0.00000000000E+00 0. -1.
          1   -1    0    0  501    0 -0.00000000000E+00 -0.00000000000E+00 -0.39517533543E+03  0.39517533543E+03  0.00000000000E+00 0. -1.
         25    2    1    2    0    0  0.64475127661E+01 -0.84704090473E+02 -0.28581183840E+03  0.32330994031E+03  0.12499822869E+03 0.  0.
          2    1    1    2  501    0  0.14382993104E+03  0.43110252460E+02 -0.21702927358E+02  0.15171209571E+03  0.00000000000E+00 0. -1.
          1    1    1    2  502    0 -0.15027744381E+03  0.41593838013E+02  0.15518753046E+04  0.15596891736E+04  0.00000000000E+00 0. -1.
         22    1    3    3    0    0 -0.23845247444E+02 -0.18925299710E+02 -0.22966794083E+03  0.23167677018E+03  0.00000000000E+00 0.  1.
         22    1    3    3    0    0  0.30292760210E+02 -0.65778790762E+02 -0.56143897565E+02  0.91633170136E+02  0.00000000000E+00 0.  1.
</event>
<event>
 7    1  0.6067783E-006  0.7797777E+02  0.7818608E-02  0.1393411E+00
          2   -1    0    0  502    0  0.00000000000E+00  0.00000000000E+00  0.14083934478E+03  0.14083934478E+03  0.00000000000E+00 0. -1.
          1   -1    0    0  501    0 -0.00000000000E+00 -0.00000000000E+00 -0.17855741448E+04  0.17855741448E+04  0.00000000000E+00 0. -1.
         25    2    1    2    0    0 -0.15965993808E+02 -0.75623757021E+02 -0.34728552375E+03  0.37710242794E+03  0.12500056226E+03 0.  0.
          2    1    1    2  501    0  0.47668593906E+02  0.38323419625E+01 -0.14107084616E+04  0.14115188080E+04  0.00000000000E+00 0. -1.
          1    1    1    2  502    0 -0.31702600098E+02  0.71791415058E+02  0.11325918528E+03  0.13779225370E+03  0.00000000000E+00 0. -1.
         22    1    3    3    0    0 -0.62800969362E+02 -0.81195688834E+01 -0.17809961489E+03  0.18902212034E+03  0.00000000000E+00 0. -1.
         22    1    3    3    0    0  0.46834975554E+02 -0.67504188137E+02 -0.16918590886E+03  0.18808030760E+03  0.00000000000E+00 0. -1.
</event>
<event>
 7    1  0.6067783E-006  0.8676180E+02  0.7818608E-02  0.1368899E+00
          2   -1    0    0  502    0  0.00000000000E+00  0.00000000000E+00  0.20860184037E+04  0.20860184037E+04  0.00000000000E+00 0. -1.
          1   -1    0    0  501    0 -0.00000000000E+00 -0.00000000000E+00 -0.30228145134E+03  0.30228145134E+03  0.00000000000E+00 0. -1.
         25    2    1    2    0    0  0.67388799404E+02  0.59210180504E+02  0.53820739304E+03  0.55976690857E+03  0.12499879298E+03 0.  0.
          2    1    1    2  501    0 -0.45524062670E+02  0.26098233379E+02 -0.28786647942E+03  0.29261009559E+03  0.00000000000E+00 0. -1.
          1    1    1    2  502    0 -0.21864736734E+02 -0.85308413883E+02  0.15333960387E+04  0.15359228508E+04  0.00000000000E+00 0. -1.
         22    1    3    3    0    0 -0.25378241907E+02  0.54487452476E+02  0.24098962415E+03  0.24837257616E+03  0.00000000000E+00 0. -1.
         22    1    3    3    0    0  0.92767041312E+02  0.47227280275E+01  0.29721776889E+03  0.31139433241E+03  0.00000000000E+00 0. -1.
</event>
<event>
 7    1  0.6067783E-006  0.8858720E+02  0.7818608E-02  0.1356433E+00
          2   -1    0    0  502    0  0.00000000000E+00  0.00000000000E+00  0.15579163103E+03  0.15579163103E+03  0.00000000000E+00 0. -1.
          1   -1    0    0  501    0 -0.00000000000E+00 -0.00000000000E+00 -0.72102202075E+03  0.72102202075E+03  0.00000000000E+00 0. -1.
         25    2    1    2    0    0  0.65306751071E+02  0.84898694796E+02 -0.84730444819E+02  0.18514134064E+03  0.12500123048E+03 0.  0.
          2    1    1    2  501    0 -0.82889558361E+02 -0.30631185277E+02 -0.57474985304E+03  0.58150351844E+03  0.00000000000E+00 0. -1.
          1    1    1    2  502    0  0.17582807289E+02 -0.54267509519E+02  0.94249908135E+02  0.11016879270E+03  0.00000000000E+00 0. -1.
         22    1    3    3    0    0  0.91737691323E+01  0.75843462990E+02 -0.10040207361E+03  0.12616245600E+03  0.00000000000E+00 0. -1.
         22    1    3    3    0    0  0.56132981939E+02  0.90552318059E+01  0.15671628795E+02  0.58978884641E+02  0.00000000000E+00 0. -1.
</event>
<event>
 7    1  0.6067783E-006  0.8899264E+02  0.7818608E-02  0.1461752E+00
          2   -1    0    0  502    0  0.00000000000E+00  0.00000000000E+00  0.13697027906E+04  0.13697027906E+04  0.00000000000E+00 0. -1.
          1   -1    0    0  501    0 -0.00000000000E+00 -0.00000000000E+00 -0.44496363113E+03  0.44496363113E+03  0.00000000000E+00 0. -1.
         25    2    1    2    0    0  0.49497675036E+02 -0.46612427538E+02  0.52248952082E+03  0.54151948682E+03  0.12500126803E+03 0.  0.
          2    1    1    2  501    0 -0.53764443007E+02  0.71152408029E+02 -0.43069438348E+03  0.43983057245E+03  0.00000000000E+00 0. -1.
          1    1    1    2  502    0  0.42667679708E+01 -0.24539980491E+02  0.83294402213E+03  0.83331636247E+03  0.00000000000E+00 0. -1.
         22    1    3    3    0    0  0.29321238092E+02 -0.82753602049E+02  0.44589835101E+03  0.45445927550E+03  0.00000000000E+00 0. -1.
         22    1    3    3    0    0  0.20176436945E+02  0.36141174511E+02  0.76591169810E+02  0.87060211324E+02  0.00000000000E+00 0. -1.
</event>
<event>
 7    1  0.6067783E-006  0.1017792E+03  0.7818608E-02  0.1340348E+00
          2   -1    0    0  502    0  0.00000000000E+00  0.00000000000E+00  0.39170744750E+03  0.39170744750E+03  0.00000000000E+00 0. -1.
          1   -1    0    0  501    0 -0.00000000000E+00 -0.00000000000E+00 -0.19750212627E+04  0.19750212627E+04  0.00000000000E+00 0. -1.
         25    2    1    2    0    0 -0.59886967446E+02  0.19244844579E+01 -0.10497938108E+04  0.10589062528E+04  0.12500101755E+03 0.  0.
          2    1    1    2  501    0 -0.28358456026E+02  0.49414486431E+02 -0.91303729421E+03  0.91481314710E+03  0.00000000000E+00 0. -1.
          1    1    1    2  502    0  0.88245423472E+02 -0.51338970889E+02  0.37951728985E+03  0.39300931031E+03  0.00000000000E+00 0. -1.
         22    1    3    3    0    0 -0.52912037013E+02 -0.45360004741E+02 -0.31773092668E+03  0.32528472983E+03  0.00000000000E+00 0. -1.
         22    1    3    3    0    0 -0.69749304337E+01  0.47284489199E+02 -0.73206288416E+03  0.73362152295E+03  0.00000000000E+00 0. -1.
</event>
<event>
 7    1  0.6067783E-006  0.1424318E+03  0.7818608E-02  0.1245097E+00
          2   -1    0    0  502    0  0.00000000000E+00  0.00000000000E+00  0.15920721860E+04  0.15920721860E+04  0.00000000000E+00 0. -1.
          1   -1    0    0  501    0 -0.00000000000E+00 -0.00000000000E+00 -0.20289146762E+03  0.20289146762E+03  0.00000000000E+00 0. -1.
         25    2    1    2    0    0  0.18417973501E+02  0.23095303910E+03  0.44094570395E+03  0.51355310029E+03  0.12500057986E+03 0.  0.
          2    1    1    2  501    0 -0.76618580156E+01 -0.98785802379E+02 -0.14749524842E+03  0.17768564131E+03  0.00000000000E+00 0. -1.
          1    1    1    2  502    0 -0.10756115485E+02 -0.13216723672E+03  0.10957302629E+04  0.11037249120E+04  0.00000000000E+00 0. -1.
         22    1    3    3    0    0  0.69691110136E+02  0.94411655564E+02  0.19126655397E+03  0.22439542376E+03  0.00000000000E+00 0.  1.
         22    1    3    3    0    0 -0.51273136635E+02  0.13654138354E+03  0.24967914998E+03  0.28915767653E+03  0.00000000000E+00 0.  1.
</event>
<event>
 7    1  0.6067783E-006  0.1701549E+03  0.7818608E-02  0.1341322E+00
          2   -1    0    0  502    0  0.00000000000E+00  0.00000000000E+00  0.12819508267E+04  0.12819508267E+04  0.00000000000E+00 0. -1.
          1   -1    0    0  501    0 -0.00000000000E+00 -0.00000000000E+00 -0.25747214635E+03  0.25747214635E+03  0.00000000000E+00 0. -1.
         25    2    1    2    0    0  0.16299134814E+03  0.42503652585E+02  0.76847165733E+02  0.22339798798E+03  0.12501373565E+03 0.  0.
          2    1    1    2  501    0 -0.15398195494E+03 -0.75073714774E+02 -0.14404828043E+03  0.22382227814E+03  0.00000000000E+00 0. -1.
          1    1    1    2  502    0 -0.90093932016E+01  0.32570062189E+02  0.10916797950E+04  0.10922027069E+04  0.00000000000E+00 0. -1.
         22    1    3    3    0    0  0.12264102264E+00  0.30793058767E+02 -0.16884936610E+02  0.35118778358E+02  0.00000000000E+00 0. -1.
         22    1    3    3    0    0  0.16286870712E+03  0.11710593818E+02  0.93732102343E+02  0.18827920962E+03  0.00000000000E+00 0. -1.
</event>
<event>
 7    1  0.6067783E-006  0.1370399E+03  0.7818608E-02  0.1265283E+00
          2   -1    0    0  502    0  0.00000000000E+00  0.00000000000E+00  0.43983264461E+03  0.43983264461E+03  0.00000000000E+00 0. -1.
          1   -1    0    0  501    0 -0.00000000000E+00 -0.00000000000E+00 -0.26857467748E+04  0.26857467748E+04  0.00000000000E+00 0. -1.
         25    2    1    2    0    0 -0.71676144598E+02  0.17844449664E+03 -0.13708940896E+03  0.26720186173E+03  0.12499368294E+03 0.  0.
          2    1    1    2  501    0  0.71965506854E+02 -0.43936445252E+02 -0.24707899343E+04  0.24722282146E+04  0.00000000000E+00 0. -1.
          1    1    1    2  502    0 -0.28936225626E+00 -0.13450805139E+03  0.36196521314E+03  0.38614934306E+03  0.00000000000E+00 0. -1.
         22    1    3    3    0    0 -0.49187579496E+02  0.83460021459E+02 -0.13917164303E+03  0.16956927606E+03  0.00000000000E+00 0. -1.
         22    1    3    3    0    0 -0.22488565103E+02  0.94984475181E+02  0.20822340720E+01  0.97632585669E+02  0.00000000000E+00 0. -1.
</event>
<event>
 7    1  0.6067783E-006  0.6310649E+02  0.7818608E-02  0.1391107E+00
          2   -1    0    0  502    0  0.00000000000E+00  0.00000000000E+00  0.12324346481E+03  0.12324346481E+03  0.00000000000E+00 0. -1.
          1   -1    0    0  501    0 -0.00000000000E+00 -0.00000000000E+00 -0.11194541088E+04  0.11194541088E+04  0.00000000000E+00 0. -1.
         25    2    1    2    0    0  0.31673409347E+02 -0.18640660496E+02 -0.23281874492E+03  0.26679573126E+03  0.12499886059E+03 0.  0.
          2    1    1    2  501    0  0.49204916926E+01  0.66432112295E+02 -0.85972917775E+03  0.86230603376E+03  0.00000000000E+00 0. -1.
          1    1    1    2  502    0 -0.36593901039E+02 -0.47791451799E+02  0.96337278703E+02  0.11359580858E+03  0.00000000000E+00 0. -1.
         22    1    3    3    0    0  0.27667373129E+02  0.27062661684E+02 -0.10933542346E+02  0.40217080221E+02  0.00000000000E+00 0.  1.
         22    1    3    3    0    0  0.40060362177E+01 -0.45703322179E+02 -0.22188520257E+03  0.22657865104E+03  0.00000000000E+00 0.  1.
</event>
<event>
 7    1  0.6067783E-006  0.1831306E+03  0.7818608E-02  0.1170985E+00
          2   -1    0    0  502    0  0.00000000000E+00  0.00000000000E+00  0.94615879123E+03  0.94615879123E+03  0.00000000000E+00 0. -1.
          1   -1    0    0  501    0 -0.00000000000E+00 -0.00000000000E+00 -0.12794614648E+04  0.12794614648E+04  0.00000000000E+00 0. -1.
         25    2    1    2    0    0  0.52630446995E+02  0.21111403024E+03 -0.11904109804E+03  0.27770740782E+03  0.12494608285E+03 0.  0.
          2    1    1    2  501    0 -0.15963156145E+03 -0.60165833285E+02 -0.10643433178E+04  0.10779280407E+04  0.00000000000E+00 0. -1.
          1    1    1    2  502    0  0.10700111446E+03 -0.15094819696E+03  0.85008174226E+03  0.86998480745E+03  0.00000000000E+00 0. -1.
         22    1    3    3    0    0 -0.41200584531E+02  0.56950473641E+02 -0.29303944223E+02  0.76154880085E+02  0.00000000000E+00 0.  1.
         22    1    3    3    0    0  0.93831031526E+02  0.15416355660E+03 -0.89737153814E+02  0.20155252774E+03  0.00000000000E+00 0.  1.
</event>
<event>
 7    1  0.6067783E-006  0.2120158E+03  0.7818608E-02  0.1221295E+00
          2   -1    0    0  502    0  0.00000000000E+00  0.00000000000E+00  0.36731490878E+04  0.36731490878E+04  0.00000000000E+00 0. -1.
          1   -1    0    0  501    0 -0.00000000000E+00 -0.00000000000E+00 -0.10996089572E+03  0.10996089572E+03  0.00000000000E+00 0. -1.
         25    2    1    2    0    0  0.72096309048E+02 -0.18022401331E+03  0.59731148698E+03  0.64037841498E+03  0.12499971658E+03 0.  0.
          2    1    1    2  501    0 -0.76325693890E+02 -0.37401292221E+02 -0.63153503450E+02  0.10589066628E+03  0.00000000000E+00 0. -1.
          1    1    1    2  502    0  0.42293848418E+01  0.21762530553E+03  0.30290302085E+04  0.30368409022E+04  0.00000000000E+00 0. -1.
         22    1    3    3    0    0  0.53784255706E+02 -0.18671726366E+03  0.42905032944E+03  0.47099922283E+03  0.00000000000E+00 0. -1.
         22    1    3    3    0    0  0.18312053342E+02  0.64932503556E+01  0.16826115754E+03  0.16937919215E+03  0.00000000000E+00 0. -1.
</event>
<event>
 7    1  0.6067783E-006  0.1055245E+03  0.7818608E-02  0.1388374E+00
          2   -1    0    0  502    0  0.00000000000E+00  0.00000000000E+00  0.10039064828E+04  0.10039064828E+04  0.00000000000E+00 0. -1.
          1   -1    0    0  501    0 -0.00000000000E+00 -0.00000000000E+00 -0.20628691604E+03  0.20628691604E+03  0.00000000000E+00 0. -1.
         25    2    1    2    0    0  0.60470959937E+02  0.67072136830E+02  0.26841047145E+03  0.30955457136E+03  0.12499777170E+03 0.  0.
          2    1    1    2  501    0 -0.41092667806E+02 -0.98352294377E+02 -0.16989641390E+03  0.20056563169E+03  0.00000000000E+00 0. -1.
          1    1    1    2  502    0 -0.19378292132E+02  0.31280157547E+02  0.69910550916E+03  0.70007319575E+03  0.00000000000E+00 0. -1.
         22    1    3    3    0    0 -0.20316182141E+02  0.61700301939E+02  0.17079565125E+03  0.18273157636E+03  0.00000000000E+00 0. -1.
         22    1    3    3    0    0  0.80787142078E+02  0.53718348914E+01  0.97614820206E+02  0.12682299499E+03  0.00000000000E+00 0. -1.
</event>
<event>
 7    1  0.6067783E-006  0.7952702E+02  0.7818608E-02  0.1399126E+00
          2   -1    0    0  502    0  0.00000000000E+00  0.00000000000E+00  0.14968025423E+04  0.14968025423E+04  0.00000000000E+00 0. -1.
          1   -1    0    0  501    0 -0.00000000000E+00 -0.00000000000E+00 -0.87931806028E+03  0.87931806028E+03  0.00000000000E+00 0. -1.
         25    2    1    2    0    0  0.68025976420E+01  0.61198268265E+02  0.13458071034E+03  0.19372327857E+03  0.12500095075E+03 0.  0.
          2    1    1    2  501    0  0.36966025370E+02 -0.70779322588E+02 -0.84749290346E+03  0.85124639262E+03  0.00000000000E+00 0. -1.
          1    1    1    2  502    0 -0.43768623012E+02  0.95810543228E+01  0.13303966752E+04  0.13311509314E+04  0.00000000000E+00 0. -1.
         22    1    3    3    0    0  0.39218311261E+02 -0.19315025782E+02  0.80082929949E+02  0.91238269538E+02  0.00000000000E+00 0.  1.
         22    1    3    3    0    0 -0.32415713619E+02  0.80513294047E+02  0.54497780391E+02  0.10248500903E+03  0.00000000000E+00 0.  1.
</event>
<event>
 7    1  0.6067783E-006  0.5434019E+02  0.7818608E-02  0.1531810E+00
          2   -1    0    0  502    0  0.00000000000E+00  0.00000000000E+00  0.52304041107E+02  0.52304041107E+02  0.00000000000E+00 0. -1.
          1   -1    0    0  501    0 -0.00000000000E+00 -0.00000000000E+00 -0.88007799906E+03  0.88007799906E+03  0.00000000000E+00 0. -1.
         25    2    1    2    0    0 -0.16956884215E+02 -0.42338475918E+02 -0.86004569472E+02  0.15843552372E+03  0.12499978696E+03 0.  0.
          2    1    1    2  501    0 -0.50619392677E+01  0.54482877180E+02 -0.74637868253E+03  0.74838168394E+03  0.00000000000E+00 0. -1.
          1    1    1    2  502    0  0.22018823483E+02 -0.12144401263E+02  0.46092940394E+01  0.25564832508E+02  0.00000000000E+00 0. -1.
         22    1    3    3    0    0 -0.52400615633E+02  0.85592107079E+01 -0.86768734628E+00  0.53102142028E+02  0.00000000000E+00 0.  1.
         22    1    3    3    0    0  0.35443731418E+02 -0.50897686626E+02 -0.85136882126E+02  0.10533338169E+03  0.00000000000E+00 0.  1.
</event>
<event>
 7    1  0.6067783E-006  0.1418721E+03  0.7818608E-02  0.1421877E+00
          2   -1    0    0  502    0  0.00000000000E+00  0.00000000000E+00  0.99427879764E+03  0.99427879764E+03  0.00000000000E+00 0. -1.
          1   -1    0    0  501    0 -0.00000000000E+00 -0.00000000000E+00 -0.10063095892E+04  0.10063095892E+04  0.00000000000E+00 0. -1.
         25    2    1    2    0    0  0.12893866887E+03  0.72635513437E+02  0.32574853629E+03  0.37899622765E+03  0.12499973416E+03 0.  0.
          2    1    1    2  501    0 -0.11272405991E+03 -0.86031949745E+02 -0.97437986350E+03  0.98464426493E+03  0.00000000000E+00 0. -1.
          1    1    1    2  502    0 -0.16214608965E+02  0.13396436308E+02  0.63660053563E+03  0.63694789427E+03  0.00000000000E+00 0. -1.
         22    1    3    3    0    0  0.13357903355E+03  0.19318048876E+02  0.18983072892E+03  0.23292112583E+03  0.00000000000E+00 0.  1.
         22    1    3    3    0    0 -0.46403646830E+01  0.53317464561E+02  0.13591780737E+03  0.14607510182E+03  0.00000000000E+00 0.  1.
</event>
<event>
 7    1  0.6067783E-006  0.5310566E+02  0.7818608E-02  0.1464299E+00
          2   -1    0    0  502    0  0.00000000000E+00  0.00000000000E+00  0.92347541980E+03  0.92347541980E+03  0.00000000000E+00 0. -1.
          1   -1    0    0  501    0 -0.00000000000E+00 -0.00000000000E+00 -0.27717624186E+02  0.27717624186E+02  0.00000000000E+00 0. -1.
         25    2    1    2    0    0 -0.11562529111E+02  0.47756222568E+02  0.68913725716E+03  0.70210316678E+03  0.12499739490E+03 0.  0.
          2    1    1    2  501    0  0.40384746881E+02  0.69499054088E+01  0.89105021785E+01  0.41935975187E+02  0.00000000000E+00 0. -1.
          1    1    1    2  502    0 -0.28822217769E+02 -0.54706127977E+02  0.19771003627E+03  0.20715390201E+03  0.00000000000E+00 0. -1.
         22    1    3    3    0    0 -0.15890176353E+02 -0.26628458829E+02  0.46236418959E+03  0.46340286613E+03  0.00000000000E+00 0. -1.
         22    1    3    3    0    0  0.43276472412E+01  0.74384681397E+02  0.22677306757E+03  0.23870030065E+03  0.00000000000E+00 0. -1.
</event>
<event>
 7    1  0.6067783E-006  0.1020852E+03  0.7818608E-02  0.1353430E+00
          2   -1    0    0  502    0  0.00000000000E+00  0.00000000000E+00  0.66988163184E+02  0.66988163184E+02  0.00000000000E+00 0. -1.
          1   -1    0    0  501    0 -0.00000000000E+00 -0.00000000000E+00 -0.12124771100E+04  0.12124771100E+04  0.00000000000E+00 0. -1.
         25    2    1    2    0    0 -0.78288501554E+02 -0.12925372966E+02 -0.66268805396E+02  0.16221103247E+03  0.12499883897E+03 0.  0.
          2    1    1    2  501    0  0.98111041149E+02 -0.33822707734E+02 -0.10565700767E+04  0.10616544066E+04  0.00000000000E+00 0. -1.
          1    1    1    2  502    0 -0.19822539595E+02  0.46748080700E+02 -0.22650064671E+02  0.55599834125E+02  0.00000000000E+00 0. -1.
         22    1    3    3    0    0  0.91056777943E+01 -0.58122911143E+01  0.30065503232E+02  0.31947309443E+02  0.00000000000E+00 0. -1.
         22    1    3    3    0    0 -0.87394179348E+02 -0.71130818522E+01 -0.96334308628E+02  0.13026372302E+03  0.00000000000E+00 0. -1.
</event>
<event>
 7    1  0.6067783E-006  0.7242212E+02  0.7818608E-02  0.1409343E+00
          2   -1    0    0  502    0  0.00000000000E+00  0.00000000000E+00  0.70453906454E+03  0.70453906454E+03  0.00000000000E+00 0. -1.
          1   -1    0    0  501    0 -0.00000000000E+00 -0.00000000000E+00 -0.21130535475E+03  0.21130535475E+03  0.00000000000E+00 0. -1.
         25    2    1    2    0    0 -0.39329843820E+02 -0.31308534451E+02  0.32842903588E+03  0.35499011870E+03  0.12500116727E+03 0.  0.
          2    1    1    2  501    0 -0.41677409282E+02  0.18003708510E+02 -0.19068187478E+03  0.19601203365E+03  0.00000000000E+00 0. -1.
          1    1    1    2  502    0  0.81007253103E+02  0.13304825941E+02  0.35548654869E+03  0.36484226694E+03  0.00000000000E+00 0. -1.
         22    1    3    3    0    0 -0.55273904924E+02 -0.37800444462E+02  0.73305099394E+02  0.99286030056E+02  0.00000000000E+00 0.  1.
         22    1    3    3    0    0  0.15944061104E+02  0.64919100111E+01  0.25512393649E+03  0.25570408865E+03  0.00000000000E+00 0.  1.
</event>
<event>
 7    1  0.6067783E-006  0.6553516E+02  0.7818608E-02  0.1488583E+00
          2   -1    0    0  502    0  0.00000000000E+00  0.00000000000E+00  0.10557540855E+04  0.10557540855E+04  0.00000000000E+00 0. -1.
          1   -1    0    0  501    0 -0.00000000000E+00 -0.00000000000E+00 -0.17867813477E+04  0.17867813477E+04  0.00000000000E+00 0. -1.
         25    2    1    2    0    0 -0.92231133852E+02 -0.70661816086E+01  0.41989874534E+03  0.44776770518E+03  0.12499779394E+03 0.  0.
          2    1    1    2  501    0  0.65489578332E+02 -0.10566417266E+01 -0.17719275121E+04  0.17731376454E+04  0.00000000000E+00 0. -1.
          1    1    1    2  502    0  0.26741555520E+02  0.81228233353E+01  0.62100150450E+03  0.62163008264E+03  0.00000000000E+00 0. -1.
         22    1    3    3    0    0 -0.10177389191E+03 -0.48645132864E+02  0.30917985031E+03  0.32911465155E+03  0.00000000000E+00 0.  1.
         22    1    3    3    0    0  0.95427580627E+01  0.41578951255E+02  0.11071889503E+03  0.11865305363E+03  0.00000000000E+00 0.  1.
</event>
<event>
 7    1  0.6067783E-006  0.1389036E+03  0.7818608E-02  0.1225676E+00
          2   -1    0    0  502    0  0.00000000000E+00  0.00000000000E+00  0.71133177318E+03  0.71133177318E+03  0.00000000000E+00 0. -1.
          1   -1    0    0  501    0 -0.00000000000E+00 -0.00000000000E+00 -0.39365109030E+03  0.39365109030E+03  0.00000000000E+00 0. -1.
         25    2    1    2    0    0  0.11023092909E+03 -0.93956791266E+02  0.28158835843E+03  0.34043430829E+03  0.12499911320E+03 0.  0.
          2    1    1    2  501    0  0.41886501748E+02  0.11664446093E+03 -0.33803652178E+03  0.36004041350E+03  0.00000000000E+00 0. -1.
          1    1    1    2  502    0 -0.15211743084E+03 -0.22687669663E+02  0.37412884622E+03  0.40450814170E+03  0.00000000000E+00 0. -1.
         22    1    3    3    0    0  0.13757068008E+03 -0.88011291226E+02  0.23835254804E+03  0.28893531553E+03  0.00000000000E+00 0.  1.
         22    1    3    3    0    0 -0.27339750991E+02 -0.59455000399E+01  0.43235810394E+02  0.51498992761E+02  0.00000000000E+00 0.  1.
</event>
<event>
 7    1  0.6067783E-006  0.7168596E+02  0.7818608E-02  0.1515309E+00
          2   -1    0    0  502    0  0.00000000000E+00  0.00000000000E+00  0.11824793348E+04  0.11824793348E+04  0.00000000000E+00 0. -1.
          1   -1    0    0  501    0 -0.00000000000E+00 -0.00000000000E+00 -0.38940173373E+03  0.38940173373E+03  0.00000000000E+00 0. -1.
         25    2    1    2    0    0 -0.51063784463E+02 -0.20243424384E+02  0.27845243535E+03  0.31013159357E+03  0.12501416025E+03 0.  0.
          2    1    1    2  501    0 -0.11663164530E+02 -0.17791694253E+02 -0.37174282766E+03  0.37235104902E+03  0.00000000000E+00 0. -1.
          1    1    1    2  502    0  0.62726948993E+02  0.38035118637E+02  0.88636799341E+03  0.88939842598E+03  0.00000000000E+00 0. -1.
         22    1    3    3    0    0 -0.31367013780E+02  0.51913543163E+02  0.14444881129E+03  0.15666641184E+03  0.00000000000E+00 0.  1.
         22    1    3    3    0    0 -0.19696770683E+02 -0.72156967547E+02  0.13400362406E+03  0.15346518173E+03  0.00000000000E+00 0.  1.
</event>
<event>
 7    1  0.6067783E-006  0.3679034E+02  0.7818608E-02  0.1561098E+00
          2   -1    0    0  502    0  0.00000000000E+00  0.00000000000E+00  0.13345654573E+04  0.13345654573E+04  0.00000000000E+00 0. -1.
          1   -1    0    0  501    0 -0.00000000000E+00 -0.00000000000E+00 -0.59713877506E+03  0.59713877506E+03  0.00000000000E+00 0. -1.
         25    2    1    2    0    0 -0.65689173476E+02  0.33632517147E+01  0.62939008184E+03  0.64504516492E+03  0.12500004278E+03 0.  0.
          2    1    1    2  501    0  0.35543497341E+02 -0.94001324363E+01 -0.58839834218E+03  0.58954585214E+03  0.00000000000E+00 0. -1.
          1    1    1    2  502    0  0.30145676135E+02  0.60368807216E+01  0.69643494254E+03  0.69711321527E+03  0.00000000000E+00 0. -1.
         22    1    3    3    0    0  0.35870411577E+02 -0.32980412330E+01  0.10907168953E+03  0.11486599566E+03  0.00000000000E+00 0. -1.
         22    1    3    3    0    0 -0.10155958505E+03  0.66612929477E+01  0.52031839231E+03  0.53017916926E+03  0.00000000000E+00 0. -1.
</event>
<event>
 7    1  0.6067783E-006  0.1014648E+03  0.7818608E-02  0.1381238E+00
          2   -1    0    0  502    0  0.00000000000E+00  0.00000000000E+00  0.35277743145E+04  0.35277743145E+04  0.00000000000E+00 0. -1.
          1   -1    0    0  501    0 -0.00000000000E+00 -0.00000000000E+00 -0.58872626617E+02  0.58872626617E+02  0.00000000000E+00 0. -1.
         25    2    1    2    0    0  0.18887743723E+02  0.85150611292E+02  0.27833609954E+03  0.31734015733E+03  0.12500567059E+03 0.  0.
          2    1    1    2  501    0  0.40504517409E+02 -0.18104929320E+01 -0.27898519287E+02  0.49216066417E+02  0.00000000000E+00 0. -1.
          1    1    1    2  502    0 -0.59392261133E+02 -0.83340118360E+02  0.32184641076E+04  0.32200907173E+04  0.00000000000E+00 0. -1.
         22    1    3    3    0    0 -0.27488437252E+02  0.10000322827E+03  0.18715421399E+03  0.21396952975E+03  0.00000000000E+00 0. -1.
         22    1    3    3    0    0  0.46376180976E+02 -0.14852616981E+02  0.91181885557E+02  0.10337062758E+03  0.00000000000E+00 0. -1.
</event>
<event>
 7    1  0.6067783E-006  0.1107777E+03  0.7818608E-02  0.1430380E+00
          2   -1    0    0  502    0  0.00000000000E+00  0.00000000000E+00  0.14006836544E+03  0.14006836544E+03  0.00000000000E+00 0. -1.
          1   -1    0    0  501    0 -0.00000000000E+00 -0.00000000000E+00 -0.38512250951E+03  0.38512250951E+03  0.00000000000E+00 0. -1.
         25    2    1    2    0    0 -0.67788619824E+02 -0.10325197714E+03 -0.52836983445E+02  0.18350301753E+03  0.12500137143E+03 0.  0.
          2    1    1    2  501    0  0.42735883337E+02  0.10013370671E+03 -0.25323869817E+03  0.27565005567E+03  0.00000000000E+00 0. -1.
          1    1    1    2  502    0  0.25052736487E+02  0.31182704287E+01  0.61021537544E+02  0.66037801752E+02  0.00000000000E+00 0. -1.
         22    1    3    3    0    0 -0.63842944844E+02 -0.13194592598E+03 -0.40930102506E+02  0.15218712915E+03  0.00000000000E+00 0.  1.
         22    1    3    3    0    0 -0.39456749799E+01  0.28693948836E+02 -0.11906880939E+02  0.31315888372E+02  0.00000000000E+00 0.  1.
</event>
<event>
 7    1  0.6067783E-006  0.1082449E+03  0.7818608E-02  0.1380966E+00
          2   -1    0    0  502    0  0.00000000000E+00  0.00000000000E+00  0.25565456894E+04  0.25565456894E+04  0.00000000000E+00 0. -1.
          1   -1    0    0  501    0 -0.00000000000E+00 -0.00000000000E+00 -0.11212766775E+03  0.11212766775E+03  0.00000000000E+00 0. -1.
         25    2    1    2    0    0 -0.93556693341E+02  0.22522043994E+02  0.42532602137E+03  0.45364025469E+03  0.12500863522E+03 0.  0.
          2    1    1    2  501    0  0.17436581098E+01  0.38049522108E+02 -0.92782280691E+02  0.10029635131E+03  0.00000000000E+00 0. -1.
          1    1    1    2  502    0  0.91813035231E+02 -0.60571566102E+02  0.21118742809E+04  0.21147367511E+04  0.00000000000E+00 0. -1.
         22    1    3    3    0    0 -0.32078509095E-01 -0.38143874956E+02  0.18256362205E+03  0.18650585064E+03  0.00000000000E+00 0. -1.
         22    1    3    3    0    0 -0.93524614832E+02  0.60665918950E+02  0.24276239932E+03  0.26713440404E+03  0.00000000000E+00 0. -1.
</event>
<event>
 7    1  0.6067783E-006  0.5994576E+02  0.7818608E-02  0.1458217E+00
          2   -1    0    0  502    0  0.00000000000E+00  0.00000000000E+00  0.12451269937E+04  0.12451269937E+04  0.00000000000E+00 0. -1.
          1   -1    0    0  501    0 -0.00000000000E+00 -0.00000000000E+00 -0.17419037435E+03  0.17419037435E+03  0.00000000000E+00 0. -1.
         25    2    1    2    0    0  0.17574056334E+02  0.14277129104E+02  0.76907299548E+01  0.12726783966E+03  0.12500108724E+03 0.  0.
          2    1    1    2  501    0  0.25669128559E+02  0.27937235403E+02 -0.11045745195E+03  0.11679144649E+03  0.00000000000E+00 0. -1.
          1    1    1    2  502    0 -0.43243184893E+02 -0.42214364507E+02  0.11737033413E+04  0.11752580819E+04  0.00000000000E+00 0. -1.
         22    1    3    3    0    0 -0.31865197128E+00 -0.51722408988E+02 -0.17182455702E+02  0.54502714745E+02  0.00000000000E+00 0.  1.
         22    1    3    3    0    0  0.17892708305E+02  0.65999538092E+02  0.24873185657E+02  0.72765124913E+02  0.00000000000E+00 0.  1.
</event>
<event>
 7    1  0.6067783E-006  0.9949384E+02  0.7818608E-02  0.1287912E+00
          2   -1    0    0  502    0  0.00000000000E+00  0.00000000000E+00  0.22065243624E+03  0.22065243624E+03  0.00000000000E+00 0. -1.
          1   -1    0    0  501    0 -0.00000000000E+00 -0.00000000000E+00 -0.26435729331E+03  0.26435729331E+03  0.00000000000E+00 0. -1.
         25    2    1    2    0    0  0.32108811215E+02  0.26086078828E+01  0.63924988164E+02  0.14404613500E+03  0.12500041722E+03 0.  0.
          2    1    1    2  501    0 -0.39622716509E+02  0.96601098904E+02 -0.18667585824E+03  0.21389158007E+03  0.00000000000E+00 0. -1.
          1    1    1    2  502    0  0.75139052948E+01 -0.99209706787E+02  0.79046013004E+02  0.12707201449E+03  0.00000000000E+00 0. -1.
         22    1    3    3    0    0  0.37090957754E+02 -0.14432267381E+02 -0.29124491401E+02  0.49318003693E+02  0.00000000000E+00 0. -1.
         22    1    3    3    0    0 -0.49821465393E+01  0.17040875264E+02  0.93049479565E+02  0.94728131308E+02  0.00000000000E+00 0. -1.
</event>
<event>
 7    1  0.6067783E-006  0.1364602E+03  0.7818608E-02  0.1230070E+00
          2   -1    0    0  502    0  0.00000000000E+00  0.00000000000E+00  0.17766096376E+04  0.17766096376E+04  0.00000000000E+00 0. -1.
          1   -1    0    0  501    0 -0.00000000000E+00 -0.00000000000E+00 -0.67473631754E+03  0.67473631754E+03  0.00000000000E+00 0. -1.
         25    2    1    2    0    0 -0.18885512561E+02 -0.15386997425E+03  0.21786809845E+03  0.29516527003E+03  0.12499358682E+03 0.  0.
          2    1    1    2  501    0  0.11284452849E+03  0.78360003849E+02 -0.62624011981E+03  0.64113248668E+03  0.00000000000E+00 0. -1.
          1    1    1    2  502    0 -0.93959015931E+02  0.75509970397E+02  0.15102453415E+04  0.15150481985E+04  0.00000000000E+00 0. -1.
         22    1    3    3    0    0  0.16500915576E+02  0.16030914422E+02  0.43170467276E+02  0.48917887086E+02  0.00000000000E+00 0.  1.
         22    1    3    3    0    0 -0.35386428137E+02 -0.16990088867E+03  0.17469763118E+03  0.24624738294E+03  0.00000000000E+00 0.  1.
</event>
<event>
 7    1  0.6067783E-006  0.8111713E+02  0.7818608E-02  0.1487931E+00
          2   -1    0    0  502    0  0.00000000000E+00  0.00000000000E+00  0.12217490288E+04  0.12217490288E+04  0.00000000000E+00 0. -1.
          1   -1    0    0  501    0 -0.00000000000E+00 -0.00000000000E+00 -0.27416936808E+02  0.27416936808E+02  0.00000000000E+00 0. -1.
         25    2    1    2    0    0  0.40906197023E+02  0.44668572474E+02  0.79065677210E+03  0.80276476408E+03  0.12499814742E+03 0.  0.
          2    1    1    2  501    0 -0.55805643377E+02 -0.61771165109E+02  0.61561556788E+02  0.10353633153E+03  0.00000000000E+00 0. -1.
          1    1    1    2  502    0  0.14899446353E+02  0.17102592635E+02  0.34211376306E+03  0.34286486996E+03  0.00000000000E+00 0. -1.
         22    1    3    3    0    0 -0.92579883626E+01  0.70742673023E+02  0.58991303939E+03  0.59421177216E+03  0.00000000000E+00 0. -1.
         22    1    3    3    0    0  0.50164185386E+02 -0.26074100549E+02  0.20074373271E+03  0.20855299192E+03  0.00000000000E+00 0. -1.
</event>
<event>
 7    1  0.6067783E-006  0.5229345E+02  0.7818608E-02  0.1455197E+00
          2   -1    0    0  502    0  0.00000000000E+00  0.00000000000E+00  0.46666295135E+03  0.46666295135E+03  0.00000000000E+00 0. -1.
          1   -1    0    0  501    0 -0.00000000000E+00 -0.00000000000E+00 -0.73360318439E+02  0.73360318439E+02  0.00000000000E+00 0. -1.
         25    2    1    2    0    0 -0.12535103435E+02 -0.22151040513E+02  0.20447397131E+03  0.24100196256E+03  0.12499817438E+03 0.  0.
          2    1    1    2  501    0 -0.44142329140E+02  0.53065029367E+01 -0.41745383330E+02  0.60986729906E+02  0.00000000000E+00 0. -1.
          1    1    1    2  502    0  0.56677432574E+02  0.16844537576E+02  0.23057404493E+03  0.23803457733E+03  0.00000000000E+00 0. -1.
         22    1    3    3    0    0 -0.43016300934E+02  0.23730456663E+01  0.12182401275E+02  0.44771021796E+02  0.00000000000E+00 0. -1.
         22    1    3    3    0    0  0.30481197500E+02 -0.24524086179E+02  0.19229157004E+03  0.19623094076E+03  0.00000000000E+00 0. -1.
</event>
<event>
 7    1  0.6067783E-006  0.3689220E+02  0.7818608E-02  0.1556363E+00
          2   -1    0    0  502    0  0.00000000000E+00  0.00000000000E+00  0.80389799332E+03  0.80389799332E+03  0.00000000000E+00 0. -1.
          1   -1    0    0  501    0 -0.00000000000E+00 -0.00000000000E+00 -0.22996045241E+04  0.22996045241E+04  0.00000000000E+00 0. -1.
         25    2    1    2    0    0 -0.60712117667E+02  0.31284677929E+02  0.15886628672E+03  0.21337165429E+03  0.12499709394E+03 0.  0.
          2    1    1    2  501    0  0.33784896147E+02 -0.14756753360E+02 -0.22717982150E+04  0.22720973374E+04  0.00000000000E+00 0. -1.
          1    1    1    2  502    0  0.26927221520E+02 -0.16527924569E+02  0.61722539752E+03  0.61803352570E+03  0.00000000000E+00 0. -1.
         22    1    3    3    0    0 -0.37233932535E+02 -0.26127786344E+02  0.14197746741E+03  0.14908597588E+03  0.00000000000E+00 0. -1.
         22    1    3    3    0    0 -0.23478185132E+02  0.57412464272E+02  0.16888819307E+02  0.64285678409E+02  0.00000000000E+00 0. -1.
</event>
<event>
 7    1  0.6067783E-006  0.1816055E+03  0.7818608E-02  0.1252075E+00
          2   -1    0    0  502    0  0.00000000000E+00  0.00000000000E+00  0.46932784479E+03  0.46932784479E+03  0.00000000000E+00 0. -1.
          1   -1    0    0  501    0 -0.00000000000E+00 -0.00000000000E+00 -0.57365303017E+03  0.57365303017E+03  0.00000000000E+00 0. -1.
         25    2    1    2    0    0 -0.14664178137E+03 -0.57072295917E+02 -0.90403135502E+02  0.22036039974E+03  0.12499967944E+03 0.  0.
          2    1    1    2  501    0  0.11616364961E+02 -0.71528260651E+02 -0.39328614875E+03  0.39990652259E+03  0.00000000000E+00 0. -1.
          1    1    1    2  502    0  0.13502541641E+03  0.12860055657E+03  0.37936409888E+03  0.42271395263E+03  0.00000000000E+00 0. -1.
         22    1    3    3    0    0 -0.15673763123E+03 -0.79873427949E+02 -0.76732892529E+02  0.19192286558E+03  0.00000000000E+00 0. -1.
         22    1    3    3    0    0  0.10095849859E+02  0.22801132032E+02 -0.13670242973E+02  0.28437534163E+02  0.00000000000E+00 0. -1.
</event>
<event>
 7    1  0.6067783E-006  0.2251308E+03  0.7818608E-02  0.1270604E+00
          2   -1    0    0  502    0  0.00000000000E+00  0.00000000000E+00  0.20934367930E+04  0.20934367930E+04  0.00000000000E+00 0. -1.
          1   -1    0    0  501    0 -0.00000000000E+00 -0.00000000000E+00 -0.32722107102E+03  0.32722107102E+03  0.00000000000E+00 0. -1.
         25    2    1    2    0    0 -0.16360249121E+03 -0.93262289145E+02  0.98491955826E+02  0.24655395549E+03  0.12499823158E+03 0.  0.
          2    1    1    2  501    0  0.20739520795E+03  0.11466416995E+03 -0.19734878757E+03  0.30839453320E+03  0.00000000000E+00 0. -1.
          1    1    1    2  502    0 -0.43792716738E+02 -0.21401880801E+02  0.18650725537E+04  0.18657093754E+04  0.00000000000E+00 0. -1.
         22    1    3    3    0    0 -0.13048645994E+03 -0.12404989154E+03  0.86672882500E+02  0.19981811825E+03  0.00000000000E+00 0. -1.
         22    1    3    3    0    0 -0.33116031272E+02  0.30787602395E+02  0.11819073326E+02  0.46735837242E+02  0.00000000000E+00 0. -1.
</event>
<event>
 7    1  0.6067783E-006  0.5094753E+02  0.7818608E-02  0.1518823E+00
          2   -1    0    0  502    0  0.00000000000E+00  0.00000000000E+00  0.23560207128E+04  0.23560207128E+04  0.00000000000E+00 0. -1.
          1   -1    0    0  501    0 -0.00000000000E+00 -0.00000000000E+00 -0.15477583775E+04  0.15477583775E+04  0.00000000000E+00 0. -1.
         25    2    1    2    0    0 -0.22008879555E+02 -0.76686067779E+02  0.11666734356E+03  0.18867732709E+03  0.12499088340E+03 0.  0.
          2    1    1    2  501    0  0.10433761817E+02  0.27310107027E+02 -0.15113201713E+04  0.15116029126E+04  0.00000000000E+00 0. -1.
          1    1    1    2  502    0  0.11575117738E+02  0.49375960751E+02  0.22029151630E+04  0.22034988506E+04  0.00000000000E+00 0. -1.
         22    1    3    3    0    0 -0.54935969192E+02 -0.15808883623E+02  0.10348092930E+03  0.11822091288E+03  0.00000000000E+00 0.  1.
         22    1    3    3    0    0  0.32927089636E+02 -0.60877184155E+02  0.13186414258E+02  0.70456414212E+02  0.00000000000E+00 0.  1.
</event>
<event>
 7    1  0.6067783E-006  0.1278727E+03  0.7818608E-02  0.1342611E+00
          2   -1    0    0  502    0  0.00000000000E+00  0.00000000000E+00  0.57831538743E+03  0.57831538743E+03  0.00000000000E+00 0. -1.
          1   -1    0    0  501    0 -0.00000000000E+00 -0.00000000000E+00 -0.71333334100E+03  0.71333334100E+03  0.00000000000E+00 0. -1.
         25    2    1    2    0    0  0.34992387076E+02  0.96154694926E+02  0.18372143778E+03  0.24464082159E+03  0.12500148951E+03 0.  0.
          2    1    1    2  501    0  0.37977446906E+02  0.23135458060E+02 -0.66868234015E+03  0.67015938994E+03  0.00000000000E+00 0. -1.
          1    1    1    2  502    0 -0.72969833981E+02 -0.11929015299E+03  0.34994294881E+03  0.37684851690E+03  0.00000000000E+00 0. -1.
         22    1    3    3    0    0 -0.48186332827E+01  0.33938530344E+02  0.16488928003E+03  0.16841471948E+03  0.00000000000E+00 0. -1.
         22    1    3    3    0    0  0.39811020358E+02  0.62216164582E+02  0.18832157744E+02  0.76226102108E+02  0.00000000000E+00 0. -1.
</event>
<event>
 7    1  0.6067783E-006  0.2421073E+03  0.7818608E-02  0.1257124E+00
          2   -1    0    0  502    0  0.00000000000E+00  0.00000000000E+00  0.11729351038E+04  0.11729351038E+04  0.00000000000E+00 0. -1.
          1   -1    0    0  501    0 -0.00000000000E+00 -0.00000000000E+00 -0.20580086925E+03  0.20580086925E+03  0.00000000000E+00 0. -1.
         25    2    1    2    0    0  0.12919556852E+03  0.17340890940E+03  0.82508650631E+02  0.26304829051E+03  0.12499832369E+03 0.  0.
          2    1    1    2  501    0 -0.17259197818E+03 -0.20151388984E+03  0.38636906141E+02  0.26812058714E+03  0.00000000000E+00 0. -1.
          1    1    1    2  502    0  0.43396409654E+02  0.28104980443E+02  0.84598867779E+03  0.84756709542E+03  0.00000000000E+00 0. -1.
         22    1    3    3    0    0  0.10172317466E+03  0.15180510112E+03  0.10536648423E+02  0.18303937814E+03  0.00000000000E+00 0. -1.
         22    1    3    3    0    0  0.27472393866E+02  0.21603808274E+02  0.71972002208E+02  0.80008912369E+02  0.00000000000E+00 0. -1.
</event>
<event>
 7    1  0.6067783E-006  0.2599080E+02  0.7818608E-02  0.1674279E+00
          2   -1    0    0  502    0  0.00000000000E+00  0.00000000000E+00  0.17419512230E+03  0.17419512230E+03  0.00000000000E+00 0. -1.
          1   -1    0    0  501    0 -0.00000000000E+00 -0.00000000000E+00 -0.47214805540E+03  0.47214805540E+03  0.00000000000E+00 0. -1.
         25    2    1    2    0    0 -0.25698470780E+02 -0.32684921368E+02 -0.23552468895E+03  0.26986606873E+03  0.12500840156E+03 0.  0.
          2    1    1    2  501    0  0.21176066280E+02  0.71368634683E+01 -0.21780535119E+03  0.21894869630E+03  0.00000000000E+00 0. -1.
          1    1    1    2  502    0  0.45224044997E+01  0.25548057900E+02  0.15537710705E+03  0.15752841267E+03  0.00000000000E+00 0. -1.
         22    1    3    3    0    0  0.11770622672E+02 -0.64151851017E+02 -0.19722349273E+03  0.20772846129E+03  0.00000000000E+00 0.  1.
         22    1    3    3    0    0 -0.37469093452E+02  0.31466929649E+02 -0.38301196224E+02  0.62137607436E+02  0.00000000000E+00 0.  1.
</event>
<event>
 7    1  0.6067783E-006  0.4691152E+02  0.7818608E-02  0.1526493E+00
          2   -1    0    0  502    0  0.00000000000E+00  0.00000000000E+00  0.11417415233E+04  0.11417415233E+04  0.00000000000E+00 0. -1.
          1   -1    0    0  501    0 -0.00000000000E+00 -0.00000000000E+00 -0.17519806523E+03  0.17519806523E+03  0.00000000000E+00 0. -1.
         25    2    1    2    0    0  0.75823866600E+01  0.64409797361E+02  0.45154889425E+02  0.14788709891E+03  0.12500206159E+03 0.  0.
          2    1    1    2  501    0 -0.24446901055E+02 -0.39394688159E+02 -0.11926594232E+03  0.12796076517E+03  0.00000000000E+00 0. -1.
          1    1    1    2  502    0  0.16864514395E+02 -0.25015109202E+02  0.10406545110E+04  0.10410917244E+04  0.00000000000E+00 0. -1.
         22    1    3    3    0    0 -0.54654045482E+02  0.35318100895E+02 -0.10737487117E+01  0.65081378863E+02  0.00000000000E+00 0.  1.
         22    1    3    3    0    0  0.62236432142E+02  0.29091696466E+02  0.46228638136E+02  0.82805720050E+02  0.00000000000E+00 0.  1.
</event>
<event>
 7    1  0.6067783E-006  0.3818474E+02  0.7818608E-02  0.1545937E+00
          2   -1    0    0  502    0  0.00000000000E+00  0.00000000000E+00  0.11897635944E+04  0.11897635944E+04  0.00000000000E+00 0. -1.
          1   -1    0    0  501    0 -0.00000000000E+00 -0.00000000000E+00 -0.18966312297E+03  0.18966312297E+03  0.00000000000E+00 0. -1.
         25    2    1    2    0    0  0.33441785116E+02  0.59258433732E+02  0.14085823267E+03  0.20024036881E+03  0.12500099452E+03 0.  0.
          2    1    1    2  501    0 -0.25974263547E+02 -0.27487746030E+02 -0.15747141209E+03  0.16194901721E+03  0.00000000000E+00 0. -1.
          1    1    1    2  502    0 -0.74675215691E+01 -0.31770687701E+02  0.10167136509E+04  0.10172373314E+04  0.00000000000E+00 0. -1.
         22    1    3    3    0    0  0.11783196081E+01 -0.38248217206E+02  0.51102241031E+02  0.63841629013E+02  0.00000000000E+00 0. -1.
         22    1    3    3    0    0  0.32263465508E+02  0.97506650938E+02  0.89755991642E+02  0.13639873980E+03  0.00000000000E+00 0. -1.
</event>
<event>
 7    1  0.6067783E-006  0.1069214E+03  0.7818608E-02  0.1326318E+00
          2   -1    0    0  502    0  0.00000000000E+00  0.00000000000E+00  0.39892311993E+02  0.39892311993E+02  0.00000000000E+00 0. -1.
          1   -1    0    0  501    0 -0.00000000000E+00 -0.00000000000E+00 -0.30576156968E+04  0.30576156968E+04  0.00000000000E+00 0. -1.
         25    2    1    2    0    0 -0.18086479496E+02 -0.70595766878E+02 -0.16962871381E+03  0.22295662001E+03  0.12499948326E+03 0.  0.
          2    1    1    2  501    0 -0.33754055670E+02  0.10334626792E+03 -0.27830026184E+04  0.27851253763E+04  0.00000000000E+00 0. -1.
          1    1    1    2  502    0  0.51840535166E+02 -0.32750501038E+02 -0.65092052519E+02  0.89426012467E+02  0.00000000000E+00 0. -1.
         22    1    3    3    0    0 -0.55469407460E+02 -0.58172817082E+02 -0.44718548507E+02  0.91981956882E+02  0.00000000000E+00 0.  1.
         22    1    3    3    0    0  0.37382927964E+02 -0.12422949796E+02 -0.12491016531E+03  0.13097466313E+03  0.00000000000E+00 0.  1.
</event>
<event>
 7    1  0.6067783E-006  0.9632357E+02  0.7818608E-02  0.1354512E+00
          2   -1    0    0  502    0  0.00000000000E+00  0.00000000000E+00  0.14008167053E+04  0.14008167053E+04  0.00000000000E+00 0. -1.
          1   -1    0    0  501    0 -0.00000000000E+00 -0.00000000000E+00 -0.13777426701E+04  0.13777426701E+04  0.00000000000E+00 0. -1.
         25    2    1    2    0    0  0.73777119158E+02  0.12702310886E+03  0.13642249218E+03  0.23624979552E+03  0.12499974406E+03 0.  0.
          2    1    1    2  501    0 -0.36953363835E+02 -0.88456698585E+02 -0.13255118217E+04  0.13289739381E+04  0.00000000000E+00 0. -1.
          1    1    1    2  502    0 -0.36823755323E+02 -0.38566410280E+02  0.12121633647E+04  0.12133356418E+04  0.00000000000E+00 0. -1.
         22    1    3    3    0    0 -0.26374402863E+02  0.75949853021E+02  0.54006946480E+02  0.96854218124E+02  0.00000000000E+00 0. -1.
         22    1    3    3    0    0  0.10015152202E+03  0.51073255843E+02  0.82415545699E+02  0.13939557740E+03  0.00000000000E+00 0. -1.
</event>
<event>
 7    1  0.6067783E-006  0.6538315E+02  0.7818608E-02  0.1513872E+00
          2   -1    0    0  502    0  0.00000000000E+00  0.00000000000E+00  0.46347064747E+03  0.46347064747E+03  0.00000000000E+00 0. -1.
          1   -1    0    0  501    0 -0.00000000000E+00 -0.00000000000E+00 -0.84076411774E+02  0.84076411774E+02  0.00000000000E+00 0. -1.
         25    2    1    2    0    0 -0.66368451825E+02  0.16728421316E+02  0.29406343498E+03  0.32677630159E+03  0.12499934405E+03 0.  0.
          2    1    1    2  501    0  0.14124537432E+01 -0.23508879992E+02 -0.58360829776E+02  0.62933686657E+02  0.00000000000E+00 0. -1.
          1    1    1    2  502    0  0.64955998082E+02  0.67804586760E+01  0.14369163050E+03  0.15783707100E+03  0.00000000000E+00 0. -1.
         22    1    3    3    0    0 -0.52176557127E+02  0.42945390453E+02  0.58639340270E+02  0.89472185075E+02  0.00000000000E+00 0.  1.
         22    1    3    3    0    0 -0.14191894698E+02 -0.26216969137E+02  0.23542409471E+03  0.23730411652E+03  0.00000000000E+00 0.  1.
</event>
<event>
 7    1  0.6067783E-006  0.1058928E+03  0.7818608E-02  0.1348466E+00
          2   -1    0    0  502    0  0.00000000000E+00  0.00000000000E+00  0.90188518178E+03  0.90188518178E+03  0.00000000000E+00 0. -1.
          1   -1    0    0  501    0 -0.00000000000E+00 -0.00000000000E+00 -0.22686418002E+03  0.22686418002E+03  0.00000000000E+00 0. -1.
         25    2    1    2    0    0  0.20128507944E+02 -0.60850654334E+02  0.12015235293E+03  0.18485280845E+03  0.12500405558E+03 0.  0.
          2    1    1    2  501    0 -0.60117132938E+02  0.92609489560E+02 -0.17788541615E+03  0.20936525144E+03  0.00000000000E+00 0. -1.
          1    1    1    2  502    0  0.39988624994E+02 -0.31758835226E+02  0.73275406498E+03  0.73453130192E+03  0.00000000000E+00 0. -1.
         22    1    3    3    0    0  0.16130483301E+02 -0.99086685149E+02  0.98905193282E+02  0.14092764428E+03  0.00000000000E+00 0.  1.
         22    1    3    3    0    0  0.39980246427E+01  0.38236030815E+02  0.21247159652E+02  0.43925164164E+02  0.00000000000E+00 0.  1.
</event>
<event>
 7    1  0.6067783E-006  0.1459407E+03  0.7818608E-02  0.1300451E+00
          2   -1    0    0  502    0  0.00000000000E+00  0.00000000000E+00  0.94984676314E+03  0.94984676314E+03  0.00000000000E+00 0. -1.
          1   -1    0    0  501    0 -0.00000000000E+00 -0.00000000000E+00 -0.23526235718E+03  0.23526235718E+03  0.00000000000E+00 0. -1.
         25    2    1    2    0    0 -0.10256620073E+03  0.97431977777E+02 -0.11534456900E+02  0.18911980138E+03  0.12498175768E+03 0.  0.
          2    1    1    2  501    0  0.62814346787E+02 -0.13792044117E+03 -0.91085806289E+02  0.17681717779E+03  0.00000000000E+00 0. -1.
          1    1    1    2  502    0  0.39751853947E+02  0.40488463395E+02  0.81720466914E+03  0.81917214114E+03  0.00000000000E+00 0. -1.
         22    1    3    3    0    0  0.16788579443E+02  0.24323163956E+02 -0.36478631537E+02  0.46948517158E+02  0.00000000000E+00 0.  1.
         22    1    3    3    0    0 -0.11935478018E+03  0.73108813821E+02  0.24944174637E+02  0.14217128422E+03  0.00000000000E+00 0.  1.
</event>
<event>
 7    1  0.6067783E-006  0.7090617E+02  0.7818608E-02  0.1471661E+00
          2   -1    0    0  502    0  0.00000000000E+00  0.00000000000E+00  0.61256737480E+03  0.61256737480E+03  0.00000000000E+00 0. -1.
          1   -1    0    0  501    0 -0.00000000000E+00 -0.00000000000E+00 -0.71258212646E+02  0.71258212646E+02  0.00000000000E+00 0. -1.
         25    2    1    2    0    0 -0.94712008269E+02  0.24221109730E+02  0.28317919088E+03  0.32461156755E+03  0.12500075588E+03 0.  0.
          2    1    1    2  501    0  0.67253304614E+02 -0.14555890734E+02 -0.26028208984E+02  0.73568665881E+02  0.00000000000E+00 0. -1.
          1    1    1    2  502    0  0.27458703655E+02 -0.96652189963E+01  0.28415818026E+03  0.28564535402E+03  0.00000000000E+00 0. -1.
         22    1    3    3    0    0 -0.11804350615E+02 -0.56023248718E+01 -0.11274542301E+02  0.17258158694E+02  0.00000000000E+00 0.  1.
         22    1    3    3    0    0 -0.82907657654E+02  0.29823434602E+02  0.29445373319E+03  0.30735340886E+03  0.00000000000E+00 0.  1.
</event>
<event>
 7    1  0.6067783E-006  0.1289114E+03  0.7818608E-02  0.1298226E+00
          2   -1    0    0  502    0  0.00000000000E+00  0.00000000000E+00  0.16062711954E+04  0.16062711954E+04  0.00000000000E+00 0. -1.
          1   -1    0    0  501    0 -0.00000000000E+00 -0.00000000000E+00 -0.57742774631E+03  0.57742774631E+03  0.00000000000E+00 0. -1.
         25    2    1    2    0    0 -0.16068993265E+03 -0.68032932421E+02  0.29845817579E+03  0.36763100209E+03  0.12500214657E+03 0.  0.
          2    1    1    2  501    0  0.64395166820E+02 -0.12348022681E+02 -0.53775583407E+03  0.54173845003E+03  0.00000000000E+00 0. -1.
          1    1    1    2  502    0  0.96294765825E+02  0.80380955102E+02  0.12681411074E+04  0.12743294896E+04  0.00000000000E+00 0. -1.
         22    1    3    3    0    0 -0.16197317987E+03 -0.49313427720E+02  0.30408307445E+03  0.34804258549E+03  0.00000000000E+00 0. -1.
         22    1    3    3    0    0  0.12832472250E+01 -0.18719504701E+02 -0.56248986540E+01  0.19588416591E+02  0.00000000000E+00 0. -1.
</event>
<event>
 7    1  0.6067783E-006  0.1229533E+03  0.7818608E-02  0.1403311E+00
          2   -1    0    0  502    0  0.00000000000E+00  0.00000000000E+00  0.10681659679E+04  0.10681659679E+04  0.00000000000E+00 0. -1.
          1   -1    0    0  501    0 -0.00000000000E+00 -0.00000000000E+00 -0.31334623816E+03  0.31334623816E+03  0.00000000000E+00 0. -1.
         25    2    1    2    0    0  0.11532116053E+03  0.54804037087E+02 -0.23029876922E+03  0.29148757420E+03  0.12500012105E+03 0.  0.
          2    1    1    2  501    0 -0.11167647528E+03 -0.27004563254E+02  0.10909060284E+02  0.11541182419E+03  0.00000000000E+00 0. -1.
          1    1    1    2  502    0 -0.36446852564E+01 -0.27799473833E+02  0.97420943867E+03  0.97461280766E+03  0.00000000000E+00 0. -1.
         22    1    3    3    0    0  0.90834391838E+02  0.14385454348E+02 -0.49150462221E+02  0.10427653607E+03  0.00000000000E+00 0. -1.
         22    1    3    3    0    0  0.24486768696E+02  0.40418582739E+02 -0.18114830700E+03  0.18721103814E+03  0.00000000000E+00 0. -1.
</event>
<event>
 7    1  0.6067783E-006  0.5857572E+02  0.7818608E-02  0.1459134E+00
          2   -1    0    0  502    0  0.00000000000E+00  0.00000000000E+00  0.35165941932E+03  0.35165941932E+03  0.00000000000E+00 0. -1.
          1   -1    0    0  501    0 -0.00000000000E+00 -0.00000000000E+00 -0.73733079120E+02  0.73733079120E+02  0.00000000000E+00 0. -1.
         25    2    1    2    0    0  0.54581422845E+02 -0.21003011632E+02  0.14054466013E+03  0.19697804440E+03  0.12500916073E+03 0.  0.
          2    1    1    2  501    0 -0.57364037719E+02 -0.17464938192E+02 -0.22424756618E+02  0.64019736011E+02  0.00000000000E+00 0. -1.
          1    1    1    2  502    0  0.27826148744E+01  0.38467949824E+02  0.15980643669E+03  0.16439471803E+03  0.00000000000E+00 0. -1.
         22    1    3    3    0    0  0.14723436038E+02 -0.41438276544E+02 -0.54075420250E+01  0.44307469376E+02  0.00000000000E+00 0. -1.
         22    1    3    3    0    0  0.39857986807E+02  0.20435264912E+02  0.14595220215E+03  0.15267057502E+03  0.00000000000E+00 0. -1.
</event>
<event>
 7    1  0.6067783E-006  0.2336528E+03  0.7818608E-02  0.1346037E+00
          2   -1    0    0  502    0  0.00000000000E+00  0.00000000000E+00  0.13633905743E+04  0.13633905743E+04  0.00000000000E+00 0. -1.
          1   -1    0    0  501    0 -0.00000000000E+00 -0.00000000000E+00 -0.77888341954E+02  0.77888341954E+02  0.00000000000E+00 0. -1.
         25    2    1    2    0    0 -0.10371736169E+03 -0.22905755549E+03  0.75142711806E+03  0.80217935234E+03  0.12499737888E+03 0.  0.
          2    1    1    2  501    0  0.96166608366E+02  0.20666632746E+03  0.19723313465E+03  0.30142975446E+03  0.00000000000E+00 0. -1.
          1    1    1    2  502    0  0.75507533253E+01  0.22391228025E+02  0.33684197967E+03  0.33766980948E+03  0.00000000000E+00 0. -1.
         22    1    3    3    0    0 -0.10738980880E+03 -0.23432908240E+03  0.63151456323E+03  0.68209481266E+03  0.00000000000E+00 0. -1.
         22    1    3    3    0    0  0.36724471050E+01  0.52715269149E+01  0.11991255483E+03  0.12008453968E+03  0.00000000000E+00 0. -1.
</event>
<event>
 7    1  0.6067783E-006  0.1971400E+03  0.7818608E-02  0.1286495E+00
          2   -1    0    0  502    0  0.00000000000E+00  0.00000000000E+00  0.71067415524E+03  0.71067415524E+03  0.00000000000E+00 0. -1.
          1   -1    0    0  501    0 -0.00000000000E+00 -0.00000000000E+00 -0.11334243781E+04  0.11334243781E+04  0.00000000000E+00 0. -1.
         25    2    1    2    0    0  0.14776762790E+02 -0.23339326647E+03  0.97879879431E+02  0.28265318784E+03  0.12498633624E+03 0.  0.
          2    1    1    2  501    0  0.15119252781E+02  0.45383071707E+02 -0.10230499465E+04  0.10241676660E+04  0.00000000000E+00 0. -1.
          1    1    1    2  502    0 -0.29896015571E+02  0.18801019477E+03  0.50241984419E+03  0.53727767953E+03  0.00000000000E+00 0. -1.
         22    1    3    3    0    0  0.70700252567E+01 -0.13327658857E+03  0.12039941644E+03  0.17974608145E+03  0.00000000000E+00 0.  1.
         22    1    3    3    0    0  0.77067375333E+01 -0.10011667790E+03 -0.22519537014E+02  0.10290710639E+03  0.00000000000E+00 0.  1.
</event>
<event>
 7    1  0.6067783E-006  0.8778354E+02  0.7818608E-02  0.1428023E+00
          2   -1    0    0  502    0  0.00000000000E+00  0.00000000000E+00  0.33857534522E+03  0.33857534522E+03  0.00000000000E+00 0. -1.
          1   -1    0    0  501    0 -0.00000000000E+00 -0.00000000000E+00 -0.44036916514E+03  0.44036916514E+03  0.00000000000E+00 0. -1.
         25    2    1    2    0    0 -0.10816654120E+03  0.25833878651E+02 -0.14661818347E+02  0.16795587249E+03  0.12500726486E+03 0.  0.
          2    1    1    2  501    0  0.30421538144E+02  0.11247155717E+02 -0.34118897752E+03  0.34272713181E+03  0.00000000000E+00 0. -1.
          1    1    1    2  502    0  0.77745003052E+02 -0.37081034368E+02  0.25405697594E+03  0.26826150606E+03  0.00000000000E+00 0. -1.
         22    1    3    3    0    0 -0.57746841511E+02  0.72008646921E+02  0.14848735233E+02  0.93490255503E+02  0.00000000000E+00 0.  1.
         22    1    3    3    0    0 -0.50419699686E+02 -0.46174768271E+02 -0.29510553579E+02  0.74465616991E+02  0.00000000000E+00 0.  1.
</event>
<event>
 7    1  0.6067783E-006  0.5350870E+02  0.7818608E-02  0.1510497E+00
          2   -1    0    0  502    0  0.00000000000E+00  0.00000000000E+00  0.89639217166E+03  0.89639217166E+03  0.00000000000E+00 0. -1.
          1   -1    0    0  501    0 -0.00000000000E+00 -0.00000000000E+00 -0.16284175593E+03  0.16284175593E+03  0.00000000000E+00 0. -1.
         25    2    1    2    0    0 -0.27699128956E+02 -0.24840655655E+02  0.24400989152E+02  0.13268367947E+03  0.12500100243E+03 0.  0.
          2    1    1    2  501    0  0.12263980895E+02 -0.26765818190E+02 -0.10580127854E+03  0.10982133122E+03  0.00000000000E+00 0. -1.
          1    1    1    2  502    0  0.15435148061E+02  0.51606473844E+02  0.81495070511E+03  0.81672891689E+03  0.00000000000E+00 0. -1.
         22    1    3    3    0    0 -0.41830943558E+02  0.41376831525E+02 -0.46176752197E+01  0.59018581400E+02  0.00000000000E+00 0.  1.
         22    1    3    3    0    0  0.14131814602E+02 -0.66217487180E+02  0.29018664372E+02  0.73665098074E+02  0.00000000000E+00 0.  1.
</event>
<event>
 7    1  0.6067783E-006  0.1096165E+03  0.7818608E-02  0.1265689E+00
          2   -1    0    0  502    0  0.00000000000E+00  0.00000000000E+00  0.15051849063E+03  0.15051849063E+03  0.00000000000E+00 0. -1.
          1   -1    0    0  501    0 -0.00000000000E+00 -0.00000000000E+00 -0.16390288990E+04  0.16390288990E+04  0.00000000000E+00 0. -1.
         25    2    1    2    0    0 -0.10447435521E+03 -0.14422173452E+03 -0.39877374867E+02  0.22120279230E+03  0.12500268274E+03 0.  0.
          2    1    1    2  501    0  0.10136364139E+03  0.39272430869E+02 -0.14588123395E+04  0.14628569149E+04  0.00000000000E+00 0. -1.
          1    1    1    2  502    0  0.31107138184E+01  0.10494930365E+03  0.10179305963E+02  0.10548768244E+03  0.00000000000E+00 0. -1.
         22    1    3    3    0    0 -0.18417328211E+00 -0.86945759950E+02  0.18155903676E+02  0.88821370916E+02  0.00000000000E+00 0. -1.
         22    1    3    3    0    0 -0.10429018193E+03 -0.57275974570E+02 -0.58033278544E+02  0.13238142139E+03  0.00000000000E+00 0. -1.
</event>
<event>
 7    1  0.6067783E-006  0.7451634E+02  0.7818608E-02  0.1345488E+00
          2   -1    0    0  502    0  0.00000000000E+00  0.00000000000E+00  0.37028695621E+03  0.37028695621E+03  0.00000000000E+00 0. -1.
          1   -1    0    0  501    0 -0.00000000000E+00 -0.00000000000E+00 -0.16932342519E+04  0.16932342519E+04  0.00000000000E+00 0. -1.
         25    2    1    2    0    0  0.11630762707E+02 -0.12705132872E+02 -0.12872557249E+03  0.18025500491E+03  0.12499959495E+03 0.  0.
          2    1    1    2  501    0 -0.68334711278E+02 -0.35640982251E+02 -0.15337357513E+04  0.15356709502E+04  0.00000000000E+00 0. -1.
          1    1    1    2  502    0  0.56703948571E+02  0.48346115123E+02  0.33951402812E+03  0.34759525302E+03  0.00000000000E+00 0. -1.
         22    1    3    3    0    0  0.18110394915E+02 -0.51019942894E+02 -0.96409132857E+01  0.54990619072E+02  0.00000000000E+00 0.  1.
         22    1    3    3    0    0 -0.64796322079E+01  0.38314810022E+02 -0.11908465921E+03  0.12526438584E+03  0.00000000000E+00 0.  1.
</event>
<event>
 7    1  0.6067783E-006  0.7313487E+02  0.7818608E-02  0.1472394E+00
          2   -1    0    0  502    0  0.00000000000E+00  0.00000000000E+00  0.90970406701E+02  0.90970406701E+02  0.00000000000E+00 0. -1.
          1   -1    0    0  501    0 -0.00000000000E+00 -0.00000000000E+00 -0.97911921312E+03  0.97911921312E+03  0.00000000000E+00 0. -1.
         25    2    1    2    0    0 -0.57819465099E+02 -0.80110853655E+01 -0.13015455849E+03  0.18966122070E+03  0.12499560596E+03 0.  0.
          2    1    1    2  501    0 -0.16466130465E+02  0.22739988955E+02 -0.79544658690E+03  0.79594190313E+03  0.00000000000E+00 0. -1.
          1    1    1    2  502    0  0.74285595564E+02 -0.14728903590E+02  0.37452338974E+02  0.84486495985E+02  0.00000000000E+00 0. -1.
         22    1    3    3    0    0 -0.72918565417E+02  0.12189403313E+02 -0.19903899435E+02  0.76562810478E+02  0.00000000000E+00 0.  1.
         22    1    3    3    0    0  0.15099100318E+02 -0.20200488679E+02 -0.11025065906E+03  0.11309841023E+03  0.00000000000E+00 0.  1.
</event>
<event>
 7    1  0.6067783E-006  0.1098990E+03  0.7818608E-02  0.1273057E+00
          2   -1    0    0  502    0  0.00000000000E+00  0.00000000000E+00  0.11100614512E+04  0.11100614512E+04  0.00000000000E+00 0. -1.
          1   -1    0    0  501    0 -0.00000000000E+00 -0.00000000000E+00 -0.50828251523E+03  0.50828251523E+03  0.00000000000E+00 0. -1.
         25    2    1    2    0    0 -0.32856441590E+02  0.34490847544E+02 -0.62578185643E+02  0.14768959889E+03  0.12500809567E+03 0.  0.
          2    1    1    2  501    0  0.10013582453E+03  0.52407179000E+02 -0.39232122063E+03  0.40827642097E+03  0.00000000000E+00 0. -1.
          1    1    1    2  502    0 -0.67279382938E+02 -0.86898026544E+02  0.10566783423E+04  0.10623779466E+04  0.00000000000E+00 0. -1.
         22    1    3    3    0    0 -0.66964279826E+02 -0.16803066547E+02 -0.17113960491E+02  0.71129779008E+02  0.00000000000E+00 0. -1.
         22    1    3    3    0    0  0.34107838237E+02  0.51293914091E+02 -0.45464225152E+02  0.76559819884E+02  0.00000000000E+00 0. -1.
</event>
<event>
 7    1  0.6067783E-006  0.3147281E+02  0.7818608E-02  0.1587174E+00
          2   -1    0    0  502    0  0.00000000000E+00  0.00000000000E+00  0.15985104677E+04  0.15985104677E+04  0.00000000000E+00 0. -1.
          1   -1    0    0  501    0 -0.00000000000E+00 -0.00000000000E+00 -0.15372270757E+03  0.15372270757E+03  0.00000000000E+00 0. -1.
         25    2    1    2    0    0 -0.46639251993E+02  0.35333597274E+02  0.10667879380E+04  0.10756787657E+04  0.12499847751E+03 0.  0.
          2    1    1    2  501    0  0.17509055928E+02 -0.26108333573E+02 -0.14717327704E+03  0.15049314136E+03  0.00000000000E+00 0. -1.
          1    1    1    2  502    0  0.29130196066E+02 -0.92252637006E+01  0.52517309921E+03  0.52606126825E+03  0.00000000000E+00 0. -1.
         22    1    3    3    0    0  0.30009185673E+02  0.37766061846E+02  0.65759818289E+03  0.65936499512E+03  0.00000000000E+00 0. -1.
         22    1    3    3    0    0 -0.76648437667E+02 -0.24324645719E+01  0.40918975509E+03  0.41631377055E+03  0.00000000000E+00 0. -1.
</event>
<event>
 7    1  0.6067783E-006  0.1279013E+03  0.7818608E-02  0.1347462E+00
          2   -1    0    0  502    0  0.00000000000E+00  0.00000000000E+00  0.42294915143E+03  0.42294915143E+03  0.00000000000E+00 0. -1.
          1   -1    0    0  501    0 -0.00000000000E+00 -0.00000000000E+00 -0.12210517054E+03  0.12210517054E+03  0.00000000000E+00 0. -1.
         25    2    1    2    0    0  0.10305864145E+03  0.27795960071E+02  0.12305147809E+03  0.20531792793E+03  0.12498034364E+03 0.  0.
          2    1    1    2  501    0 -0.13648693599E+03 -0.13191903434E+01 -0.19507803099E+02  0.13788030440E+03  0.00000000000E+00 0. -1.
          1    1    1    2  502    0  0.33428294543E+02 -0.26476769728E+02  0.19730030591E+03  0.20185608963E+03  0.00000000000E+00 0. -1.
         22    1    3    3    0    0  0.83314820888E+01  0.41928946238E+02 -0.75007195988E+01  0.43401738686E+02  0.00000000000E+00 0.  1.
         22    1    3    3    0    0  0.94727159363E+02 -0.14132986167E+02  0.13055219769E+03  0.16191618925E+03  0.00000000000E+00 0.  1.
</event>
<event>
 7    1  0.6067783E-006  0.1294037E+03  0.7818608E-02  0.1254836E+00
          2   -1    0    0  502    0  0.00000000000E+00  0.00000000000E+00  0.67601944569E+03  0.67601944569E+03  0.00000000000E+00 0. -1.
          1   -1    0    0  501    0 -0.00000000000E+00 -0.00000000000E+00 -0.15761331334E+04  0.15761331334E+04  0.00000000000E+00 0. -1.
         25    2    1    2    0    0  0.30291598216E+02  0.21335991914E+03  0.20304098337E+03  0.32138870287E+03  0.12500008554E+03 0.  0.
          2    1    1    2  501    0 -0.53160282143E+02 -0.11709212556E+03 -0.15082689730E+04  0.15137410203E+04  0.00000000000E+00 0. -1.
          1    1    1    2  502    0  0.22868683927E+02 -0.96267793583E+02  0.40511430192E+03  0.41702285598E+03  0.00000000000E+00 0. -1.
         22    1    3    3    0    0  0.27316161705E+02  0.14629519185E+03  0.54687222484E+02  0.15855329751E+03  0.00000000000E+00 0.  1.
         22    1    3    3    0    0  0.29754365105E+01  0.67064727290E+02  0.14835376088E+03  0.16283540536E+03  0.00000000000E+00 0.  1.
</event>
<event>
 7    1  0.6067783E-006  0.7276517E+02  0.7818608E-02  0.1393816E+00
          2   -1    0    0  502    0  0.00000000000E+00  0.00000000000E+00  0.59541135532E+03  0.59541135532E+03  0.00000000000E+00 0. -1.
          1   -1    0    0  501    0 -0.00000000000E+00 -0.00000000000E+00 -0.17432778020E+03  0.17432778020E+03  0.00000000000E+00 0. -1.
         25    2    1    2    0    0  0.34462002620E+01 -0.60321686711E+02  0.29756250690E+03  0.32835869380E+03  0.12500161640E+03 0.  0.
          2    1    1    2  501    0  0.47468850810E+02  0.56186952722E+02 -0.14790717416E+03  0.16518715937E+03  0.00000000000E+00 0. -1.
          1    1    1    2  502    0 -0.50915051072E+02  0.41347339896E+01  0.27142824238E+03  0.27619328234E+03  0.00000000000E+00 0. -1.
         22    1    3    3    0    0 -0.34974772328E+02 -0.19803716083E+02  0.19367519041E+02  0.44615273886E+02  0.00000000000E+00 0. -1.
         22    1    3    3    0    0  0.38420972590E+02 -0.40517970629E+02  0.27819498786E+03  0.28374341992E+03  0.00000000000E+00 0. -1.
</event>
<event>
 7    1  0.6067783E-006  0.3119460E+03  0.7818608E-02  0.1194049E+00
          2   -1    0    0  502    0  0.00000000000E+00  0.00000000000E+00  0.23061456306E+04  0.23061456306E+04  0.00000000000E+00 0. -1.
          1   -1    0    0  501    0 -0.00000000000E+00 -0.00000000000E+00 -0.23759531254E+04  0.23759531254E+04  0.00000000000E+00 0. -1.
         25    2    1    2    0    0  0.14384824997E+03 -0.29374951846E+03  0.20345290001E+04  0.20644402410E+04  0.12499663211E+03 0.  0.
          2    1    1    2  501    0 -0.27154598503E+02  0.72442860967E+02 -0.22992223732E+04  0.23005236060E+04  0.00000000000E+00 0. -1.
          1    1    1    2  502    0 -0.11669365147E+03  0.22130665749E+03  0.19488587832E+03  0.31713490900E+03  0.00000000000E+00 0. -1.
         22    1    3    3    0    0  0.12652616199E+03 -0.29544761263E+03  0.17424910246E+04  0.17718840629E+04  0.00000000000E+00 0. -1.
         22    1    3    3    0    0  0.17322087975E+02  0.16980941794E+01  0.29203797546E+03  0.29255617813E+03  0.00000000000E+00 0. -1.
</event>
<event>
 7    1  0.6067783E-006  0.4804254E+02  0.7818608E-02  0.1531417E+00
          2   -1    0    0  502    0  0.00000000000E+00  0.00000000000E+00  0.15278947053E+03  0.15278947053E+03  0.00000000000E+00 0. -1.
          1   -1    0    0  501    0 -0.00000000000E+00 -0.00000000000E+00 -0.89250389071E+03  0.89250389071E+03  0.00000000000E+00 0. -1.
         25    2    1    2    0    0 -0.37348365552E+02  0.46954851170E+00  0.90744983866E+02  0.15892015659E+03  0.12500337271E+03 0.  0.
          2    1    1    2  501    0  0.39168058525E+02  0.27988187184E+02 -0.85028246498E+03  0.85164414264E+03  0.00000000000E+00 0. -1.
          1    1    1    2  502    0 -0.18196929736E+01 -0.28457735696E+02  0.19823060935E+02  0.34729062013E+02  0.00000000000E+00 0. -1.
         22    1    3    3    0    0 -0.14833460881E+02  0.60494277123E+02  0.25068808346E+02  0.67141896594E+02  0.00000000000E+00 0. -1.
         22    1    3    3    0    0 -0.22514904671E+02 -0.60024728611E+02  0.65676175520E+02  0.91778259998E+02  0.00000000000E+00 0. -1.
</event>
<event>
 7    1  0.6067783E-006  0.1515864E+03  0.7818608E-02  0.1394660E+00
          2   -1    0    0  502    0  0.00000000000E+00  0.00000000000E+00  0.59137991002E+03  0.59137991002E+03  0.00000000000E+00 0. -1.
          1   -1    0    0  501    0 -0.00000000000E+00 -0.00000000000E+00 -0.21136798539E+04  0.21136798539E+04  0.00000000000E+00 0. -1.
         25    2    1    2    0    0  0.13020737448E+03 -0.74772373147E+01 -0.78481719795E+03  0.80534006035E+03  0.12499883665E+03 0.  0.
          2    1    1    2  501    0  0.21601694388E+02  0.11251407495E+02 -0.13085653375E+04  0.13087919887E+04  0.00000000000E+00 0. -1.
          1    1    1    2  502    0 -0.15180906887E+03 -0.37741701800E+01  0.57108259156E+03  0.59092771481E+03  0.00000000000E+00 0. -1.
         22    1    3    3    0    0  0.41425584484E+02  0.25083746164E+02 -0.75165189767E+02  0.89415206337E+02  0.00000000000E+00 0.  1.
         22    1    3    3    0    0  0.88781789997E+02 -0.32560983479E+02 -0.70965200818E+03  0.71592485402E+03  0.00000000000E+00 0.  1.
</event>
<event>
 7    1  0.6067783E-006  0.7940575E+02  0.7818608E-02  0.1344414E+00
          2   -1    0    0  502    0  0.00000000000E+00  0.00000000000E+00  0.57320978351E+03  0.57320978351E+03  0.00000000000E+00 0. -1.
          1   -1    0    0  501    0 -0.00000000000E+00 -0.00000000000E+00 -0.26963931801E+03  0.26963931801E+03  0.00000000000E+00 0. -1.
         25    2    1    2    0    0 -0.31043673858E+02 -0.11336410412E+02  0.23406320338E+03  0.26739964668E+03  0.12499905592E+03 0.  0.
          2    1    1    2  501    0 -0.70247881718E+02 -0.60557092919E+01 -0.23957140823E+03  0.24973164826E+03  0.00000000000E+00 0. -1.
          1    1    1    2  502    0  0.10129155558E+03  0.17392119704E+02  0.30907867035E+03  0.32571780658E+03  0.00000000000E+00 0. -1.
         22    1    3    3    0    0  0.18830184174E+02  0.18365459613E+02  0.19651144815E+03  0.19826400378E+03  0.00000000000E+00 0.  1.
         22    1    3    3    0    0 -0.49873858032E+02 -0.29701870025E+02  0.37551755235E+02  0.69135642901E+02  0.00000000000E+00 0.  1.
</event>
<event>
 7    1  0.6067783E-006  0.9619180E+02  0.7818608E-02  0.1326607E+00
          2   -1    0    0  502    0  0.00000000000E+00  0.00000000000E+00  0.57449013017E+03  0.57449013017E+03  0.00000000000E+00 0. -1.
          1   -1    0    0  501    0 -0.00000000000E+00 -0.00000000000E+00 -0.73447592893E+02  0.73447592893E+02  0.00000000000E+00 0. -1.
         25    2    1    2    0    0  0.46196078254E+01 -0.14428544767E+03  0.18945840792E+03  0.26899759310E+03  0.12500234229E+03 0.  0.
          2    1    1    2  501    0 -0.27167864012E+02  0.80148911877E+02  0.30825290143E+02  0.90067415986E+02  0.00000000000E+00 0. -1.
          1    1    1    2  502    0  0.22548256186E+02  0.64136535794E+02  0.28075883921E+03  0.28887271397E+03  0.00000000000E+00 0. -1.
         22    1    3    3    0    0  0.47653635801E+02 -0.28881707644E+02  0.10741261460E+03  0.12100616438E+03  0.00000000000E+00 0.  1.
         22    1    3    3    0    0 -0.43034027975E+02 -0.11540374003E+03  0.82045793317E+02  0.14799142873E+03  0.00000000000E+00 0.  1.
</event>
<event>
 7    1  0.6067783E-006  0.9403023E+02  0.7818608E-02  0.1474022E+00
          2   -1    0    0  502    0  0.00000000000E+00  0.00000000000E+00  0.90868922118E+03  0.90868922118E+03  0.00000000000E+00 0. -1.
          1   -1    0    0  501    0 -0.00000000000E+00 -0.00000000000E+00 -0.10416142811E+04  0.10416142811E+04  0.00000000000E+00 0. -1.
         25    2    1    2    0    0  0.28997166585E+01  0.73249079669E+02 -0.24887266705E+03  0.28798672322E+03  0.12499964929E+03 0.  0.
          2    1    1    2  501    0  0.68472876955E+01  0.20469804262E+02 -0.77053671105E+03  0.77083897236E+03  0.00000000000E+00 0. -1.
          1    1    1    2  502    0 -0.97470043540E+01 -0.93718883931E+02  0.88648431822E+03  0.89147780665E+03  0.00000000000E+00 0. -1.
         22    1    3    3    0    0  0.41570829825E+02  0.42796472601E+02 -0.22593970228E+03  0.23368444755E+03  0.00000000000E+00 0. -1.
         22    1    3    3    0    0 -0.38671113166E+02  0.30452607068E+02 -0.22932964764E+02  0.54302275676E+02  0.00000000000E+00 0. -1.
</event>
<event>
 7    1  0.6067783E-006  0.8114567E+02  0.7818608E-02  0.1423965E+00
          2   -1    0    0  502    0  0.00000000000E+00  0.00000000000E+00  0.55995251408E+03  0.55995251408E+03  0.00000000000E+00 0. -1.
          1   -1    0    0  501    0 -0.00000000000E+00 -0.00000000000E+00 -0.14698746984E+03  0.14698746984E+03  0.00000000000E+00 0. -1.
         25    2    1    2    0    0  0.58926928891E+02  0.32712085393E+02  0.12537990000E+03  0.18944017810E+03  0.12499999310E+03 0.  0.
          2    1    1    2  501    0 -0.48534082280E+02 -0.67377507667E+02 -0.99005852137E+02  0.12921859169E+03  0.00000000000E+00 0. -1.
          1    1    1    2  502    0 -0.10392846611E+02  0.34665422275E+02  0.38659099637E+03  0.38828121412E+03  0.00000000000E+00 0. -1.
         22    1    3    3    0    0  0.15540971311E+02  0.35764324565E+02 -0.15527727004E+02  0.41972836535E+02  0.00000000000E+00 0. -1.
         22    1    3    3    0    0  0.43385957580E+02 -0.30522391723E+01  0.14090762701E+03  0.14746734157E+03  0.00000000000E+00 0. -1.
</event>
<event>
 7    1  0.6067783E-006  0.9445488E+02  0.7818608E-02  0.1311662E+00
          2   -1    0    0  502    0  0.00000000000E+00  0.00000000000E+00  0.17498075624E+04  0.17498075624E+04  0.00000000000E+00 0. -1.
          1   -1    0    0  501    0 -0.00000000000E+00 -0.00000000000E+00 -0.20258447446E+02  0.20258447446E+02  0.00000000000E+00 0. -1.
         25    2    1    2    0    0  0.17177973924E+01 -0.49738324683E+02  0.81729348690E+03  0.82829425485E+03  0.12500350842E+03 0.  0.
          2    1    1    2  501    0 -0.56727052335E+02 -0.75523282380E+02  0.44422901238E+03  0.45415981778E+03  0.00000000000E+00 0. -1.
          1    1    1    2  502    0  0.55009254943E+02  0.12526160706E+03  0.46802661565E+03  0.48761193719E+03  0.00000000000E+00 0. -1.
         22    1    3    3    0    0 -0.10965550928E+02 -0.35654471651E+02  0.80464265444E+03  0.80550685037E+03  0.00000000000E+00 0. -1.
         22    1    3    3    0    0  0.12683348321E+02 -0.14083853032E+02  0.12650832465E+02  0.22787404479E+02  0.00000000000E+00 0. -1.
</event>
<event>
 7    1  0.6067783E-006  0.2394562E+03  0.7818608E-02  0.1300495E+00
          2   -1    0    0  502    0  0.00000000000E+00  0.00000000000E+00  0.77527249965E+03  0.77527249965E+03  0.00000000000E+00 0. -1.
          1   -1    0    0  501    0 -0.00000000000E+00 -0.00000000000E+00 -0.51081516826E+03  0.51081516826E+03  0.00000000000E+00 0. -1.
         25    2    1    2    0    0  0.22500795840E+03 -0.51813009041E+02 -0.87210892951E+02  0.27666533322E+03  0.12499919003E+03 0.  0.
          2    1    1    2  501    0 -0.24321512438E+03  0.22428949105E+02 -0.28299301075E+03  0.37382040958E+03  0.00000000000E+00 0. -1.
          1    1    1    2  502    0  0.18207165980E+02  0.29384059935E+02  0.63466123509E+03  0.63560192511E+03  0.00000000000E+00 0. -1.
         22    1    3    3    0    0  0.21043996903E+03 -0.54124591254E+01 -0.87654019458E+02  0.22802960862E+03  0.00000000000E+00 0. -1.
         22    1    3    3    0    0  0.14567989370E+02 -0.46400549915E+02  0.44312650666E+00  0.48635724605E+02  0.00000000000E+00 0. -1.
</event>
<event>
 7    1  0.6067783E-006  0.1060607E+03  0.7818608E-02  0.1331354E+00
          2   -1    0    0  502    0  0.00000000000E+00  0.00000000000E+00  0.46971950690E+03  0.46971950690E+03  0.00000000000E+00 0. -1.
          1   -1    0    0  501    0 -0.00000000000E+00 -0.00000000000E+00 -0.10212706157E+04  0.10212706157E+04  0.00000000000E+00 0. -1.
         25    2    1    2    0    0 -0.48019747320E+02 -0.48380928866E+02 -0.57325838759E+02  0.15348682534E+03  0.12500137340E+03 0.  0.
          2    1    1    2  501    0 -0.56575746261E+02  0.17201940430E+02 -0.90782309162E+03  0.90974693597E+03  0.00000000000E+00 0. -1.
          1    1    1    2  502    0  0.10459549358E+03  0.31178988436E+02  0.41359782159E+03  0.42775636128E+03  0.00000000000E+00 0. -1.
         22    1    3    3    0    0 -0.51180646302E+02  0.28396493748E+02 -0.48738530329E+02  0.76166027543E+02  0.00000000000E+00 0. -1.
         22    1    3    3    0    0  0.31608989816E+01 -0.76777422613E+02 -0.85873084294E+01  0.77320797794E+02  0.00000000000E+00 0. -1.
</event>
<event>
 7    1  0.6067783E-006  0.5703150E+02  0.7818608E-02  0.1551030E+00
          2   -1    0    0  502    0  0.00000000000E+00  0.00000000000E+00  0.87610199938E+03  0.87610199938E+03  0.00000000000E+00 0. -1.
          1   -1    0    0  501    0 -0.00000000000E+00 -0.00000000000E+00 -0.61158957053E+02  0.61158957053E+02  0.00000000000E+00 0. -1.
         25    2    1    2    0    0 -0.32312829700E+02  0.34708608926E+02  0.40935185836E+03  0.43063028488E+03  0.12499876724E+03 0.  0.
          2    1    1    2  501    0  0.21977921097E+02 -0.53157837873E+02 -0.33808910093E+02  0.66722013944E+02  0.00000000000E+00 0. -1.
          1    1    1    2  502    0  0.10334908603E+02  0.18449228947E+02  0.43940009406E+03  0.43990865761E+03  0.00000000000E+00 0. -1.
         22    1    3    3    0    0  0.14439233642E+02  0.71397148030E+02  0.19385032947E+03  0.20708451040E+03  0.00000000000E+00 0.  1.
         22    1    3    3    0    0 -0.46752063342E+02 -0.36688539105E+02  0.21550152890E+03  0.22354577447E+03  0.00000000000E+00 0.  1.
</event>
<event>
 7    1  0.6067783E-006  0.1170622E+03  0.7818608E-02  0.1313949E+00
          2   -1    0    0  502    0  0.00000000000E+00  0.00000000000E+00  0.31587531291E+03  0.31587531291E+03  0.00000000000E+00 0. -1.
          1   -1    0    0  501    0 -0.00000000000E+00 -0.00000000000E+00 -0.35698984740E+03  0.35698984740E+03  0.00000000000E+00 0. -1.
         25    2    1    2    0    0 -0.11452187373E+03  0.10217804485E+03  0.61138268202E+02  0.20716842574E+03  0.12500102550E+03 0.  0.
          2    1    1    2  501    0  0.62339973925E+02 -0.51179590124E+01 -0.26326025852E+03  0.27058904185E+03  0.00000000000E+00 0. -1.
          1    1    1    2  502    0  0.52181899800E+02 -0.97060085833E+02  0.16100745582E+03  0.19510769272E+03  0.00000000000E+00 0. -1.
         22    1    3    3    0    0 -0.12099067359E+03  0.99471892983E+02  0.11517105480E+02  0.15705427186E+03  0.00000000000E+00 0.  1.
         22    1    3    3    0    0  0.64687998693E+01  0.27061518618E+01  0.49621162722E+02  0.50114153884E+02  0.00000000000E+00 0.  1.
</event>
<event>
 7    1  0.6067783E-006  0.1126614E+03  0.7818608E-02  0.1314652E+00
          2   -1    0    0  502    0  0.00000000000E+00  0.00000000000E+00  0.18239439426E+04  0.18239439426E+04  0.00000000000E+00 0. -1.
          1   -1    0    0  501    0 -0.00000000000E+00 -0.00000000000E+00 -0.14331852109E+03  0.14331852109E+03  0.00000000000E+00 0. -1.
         25    2    1    2    0    0 -0.11845478359E+03  0.20060976642E+02  0.27952759721E+03  0.32892988639E+03  0.12500085606E+03 0.  0.
          2    1    1    2  501    0  0.84939984070E+02 -0.75266321414E+02 -0.90612126047E+02  0.14522526440E+03  0.00000000000E+00 0. -1.
          1    1    1    2  502    0  0.33514799521E+02  0.55205344772E+02  0.14917099504E+04  0.14931073129E+04  0.00000000000E+00 0. -1.
         22    1    3    3    0    0 -0.10418141859E+03 -0.37699153880E+02  0.15087036699E+03  0.18718136077E+03  0.00000000000E+00 0. -1.
         22    1    3    3    0    0 -0.14273364996E+02  0.57760130521E+02  0.12865723022E+03  0.14174852562E+03  0.00000000000E+00 0. -1.
</event>
<event>
 7    1  0.6067783E-006  0.1596323E+03  0.7818608E-02  0.1191077E+00
          2   -1    0    0  502    0  0.00000000000E+00  0.00000000000E+00  0.17773627249E+04  0.17773627249E+04  0.00000000000E+00 0. -1.
          1   -1    0    0  501    0 -0.00000000000E+00 -0.00000000000E+00 -0.83045625733E+03  0.83045625733E+03  0.00000000000E+00 0. -1.
         25    2    1    2    0    0  0.67726835413E+02 -0.70844718589E+02  0.30713140122E+02  0.16178670793E+03  0.12500297397E+03 0.  0.
          2    1    1    2  501    0  0.69539203969E+02  0.15233392139E+03 -0.75189839589E+03  0.77031975325E+03  0.00000000000E+00 0. -1.
          1    1    1    2  502    0 -0.13726603938E+03 -0.81489202804E+02  0.16680917234E+04  0.16757125211E+04  0.00000000000E+00 0. -1.
         22    1    3    3    0    0  0.12998899389E+02 -0.59922896503E+02 -0.38862400155E+02  0.72594841803E+02  0.00000000000E+00 0. -1.
         22    1    3    3    0    0  0.54727936025E+02 -0.10921822086E+02  0.69575540277E+02  0.89191866131E+02  0.00000000000E+00 0. -1.
</event>
<event>
 7    1  0.6067783E-006  0.3482275E+02  0.7818608E-02  0.1623505E+00
          2   -1    0    0  502    0  0.00000000000E+00  0.00000000000E+00  0.89025894914E+03  0.89025894914E+03  0.00000000000E+00 0. -1.
          1   -1    0    0  501    0 -0.00000000000E+00 -0.00000000000E+00 -0.75556714588E+03  0.75556714588E+03  0.00000000000E+00 0. -1.
         25    2    1    2    0    0  0.44647434833E+02 -0.13685476976E+02 -0.42056646533E+03  0.44122790786E+03  0.12500091679E+03 0.  0.
          2    1    1    2  501    0 -0.33702521405E+02 -0.56599893169E+01 -0.32362976871E+03  0.32542913610E+03  0.00000000000E+00 0. -1.
          1    1    1    2  502    0 -0.10944913428E+02  0.19345466293E+02  0.87888803731E+03  0.87916905105E+03  0.00000000000E+00 0. -1.
         22    1    3    3    0    0  0.82381974953E+02 -0.34441808149E+02 -0.30882235511E+03  0.32147204383E+03  0.00000000000E+00 0. -1.
         22    1    3    3    0    0 -0.37734540120E+02  0.20756331173E+02 -0.11174411022E+03  0.11975586404E+03  0.00000000000E+00 0. -1.
</event>
<event>
 7    1  0.6067783E-006  0.7998812E+02  0.7818608E-02  0.1402595E+00
          2   -1    0    0  502    0  0.00000000000E+00  0.00000000000E+00  0.84250720886E+02  0.84250720886E+02  0.00000000000E+00 0. -1.
          1   -1    0    0  501    0 -0.00000000000E+00 -0.00000000000E+00 -0.18998489940E+04  0.18998489940E+04  0.00000000000E+00 0. -1.
         25    2    1    2    0    0  0.73013400039E+02 -0.24815022152E+02 -0.15343847352E+03  0.21240381301E+03  0.12500109086E+03 0.  0.
          2    1    1    2  501    0  0.71408572763E+01  0.42748987816E+02 -0.16856968712E+04  0.16862539576E+04  0.00000000000E+00 0. -1.
          1    1    1    2  502    0 -0.80154257315E+02 -0.17933965664E+02  0.23537071694E+02  0.85441944231E+02  0.00000000000E+00 0. -1.
         22    1    3    3    0    0  0.28590618978E+02 -0.22462618496E+01  0.18007829134E+02  0.33863713558E+02  0.00000000000E+00 0. -1.
         22    1    3    3    0    0  0.44422781061E+02 -0.22568760302E+02 -0.17144630265E+03  0.17854009945E+03  0.00000000000E+00 0. -1.
</event>
<event>
 7    1  0.6067783E-006  0.1742162E+03  0.7818608E-02  0.1241338E+00
          2   -1    0    0  502    0  0.00000000000E+00  0.00000000000E+00  0.11422888248E+03  0.11422888248E+03  0.00000000000E+00 0. -1.
          1   -1    0    0  501    0 -0.00000000000E+00 -0.00000000000E+00 -0.12541177029E+04  0.12541177029E+04  0.00000000000E+00 0. -1.
         25    2    1    2    0    0  0.14784597749E+03 -0.44099527439E+02 -0.73005667535E+03  0.75657813582E+03  0.12499809993E+03 0.  0.
          2    1    1    2  501    0  0.26815024811E+02  0.79752867755E+02 -0.42463621137E+03  0.43289199285E+03  0.00000000000E+00 0. -1.
          1    1    1    2  502    0 -0.17466100231E+03 -0.35653340316E+02  0.14804066258E+02  0.17887645675E+03  0.00000000000E+00 0. -1.
         22    1    3    3    0    0  0.16489081738E+03 -0.57597967240E+02 -0.67858681877E+03  0.70070434428E+03  0.00000000000E+00 0.  1.
         22    1    3    3    0    0 -0.17044839885E+02  0.13498439800E+02 -0.51469856579E+02  0.55873791531E+02  0.00000000000E+00 0.  1.
</event>
<event>
 7    1  0.6067783E-006  0.1085102E+03  0.7818608E-02  0.1405376E+00
          2   -1    0    0  502    0  0.00000000000E+00  0.00000000000E+00  0.12398896548E+04  0.12398896548E+04  0.00000000000E+00 0. -1.
          1   -1    0    0  501    0 -0.00000000000E+00 -0.00000000000E+00 -0.63692130109E+02  0.63692130109E+02  0.00000000000E+00 0. -1.
         25    2    1    2    0    0 -0.85310050632E+02  0.18461522264E+02  0.20109471626E+03  0.25235351592E+03  0.12499831817E+03 0.  0.
          2    1    1    2  501    0  0.11169861741E+03 -0.35214256013E+02  0.52925419212E+02  0.12852130157E+03  0.00000000000E+00 0. -1.
          1    1    1    2  502    0 -0.26388566777E+02  0.16752733748E+02  0.92217738925E+03  0.92270696745E+03  0.00000000000E+00 0. -1.
         22    1    3    3    0    0 -0.32915490786E+02 -0.30175984495E+02  0.16752494108E+03  0.17337423527E+03  0.00000000000E+00 0.  1.
         22    1    3    3    0    0 -0.52394559845E+02  0.48637506760E+02  0.33569775179E+02  0.78979280642E+02  0.00000000000E+00 0.  1.
</event>
<event>
 7    1  0.6067783E-006  0.1185731E+03  0.7818608E-02  0.1385172E+00
          2   -1    0    0  502    0  0.00000000000E+00  0.00000000000E+00  0.21572853764E+04  0.21572853764E+04  0.00000000000E+00 0. -1.
          1   -1    0    0  501    0 -0.00000000000E+00 -0.00000000000E+00 -0.66748505733E+03  0.66748505733E+03  0.00000000000E+00 0. -1.
         25    2    1    2    0    0 -0.11040843985E+03 -0.92385514769E+02  0.98497886550E+03  0.10032614092E+04  0.12499993154E+03 0.  0.
          2    1    1    2  501    0  0.76881291278E+02  0.90106185391E+02 -0.65277027101E+03  0.66342963780E+03  0.00000000000E+00 0. -1.
          1    1    1    2  502    0  0.33527148572E+02  0.22793293778E+01  0.11575917246E+04  0.11580793867E+04  0.00000000000E+00 0. -1.
         22    1    3    3    0    0  0.17397590971E+02 -0.54679878195E+02  0.30384903661E+03  0.30921966674E+03  0.00000000000E+00 0. -1.
         22    1    3    3    0    0 -0.12780603082E+03 -0.37705636574E+02  0.68112982889E+03  0.69404174251E+03  0.00000000000E+00 0. -1.
</event>
<event>
 7    1  0.6067783E-006  0.5618853E+02  0.7818608E-02  0.1432504E+00
          2   -1    0    0  502    0  0.00000000000E+00  0.00000000000E+00  0.73874526368E+03  0.73874526368E+03  0.00000000000E+00 0. -1.
          1   -1    0    0  501    0 -0.00000000000E+00 -0.00000000000E+00 -0.39213152169E+03  0.39213152169E+03  0.00000000000E+00 0. -1.
         25    2    1    2    0    0  0.19181762355E+02 -0.47093109598E+02  0.36631006147E+02  0.13983032757E+03  0.12499995568E+03 0.  0.
          2    1    1    2  501    0 -0.55167098781E+02  0.13864808031E+02 -0.33722458036E+03  0.34198839058E+03  0.00000000000E+00 0. -1.
          1    1    1    2  502    0  0.35985336426E+02  0.33228301567E+02  0.64720731621E+03  0.64905806722E+03  0.00000000000E+00 0. -1.
         22    1    3    3    0    0  0.38679553587E+02 -0.10217766852E+02  0.73809015466E+02  0.83954043317E+02  0.00000000000E+00 0.  1.
         22    1    3    3    0    0 -0.19497791232E+02 -0.36875342745E+02 -0.37178009318E+02  0.55876284257E+02  0.00000000000E+00 0.  1.
</event>
<event>
 7    1  0.6067783E-006  0.7826254E+02  0.7818608E-02  0.1374008E+00
          2   -1    0    0  502    0  0.00000000000E+00  0.00000000000E+00  0.46188615611E+04  0.46188615611E+04  0.00000000000E+00 0. -1.
          1   -1    0    0  501    0 -0.00000000000E+00 -0.00000000000E+00 -0.59452031263E+03  0.59452031263E+03  0.00000000000E+00 0. -1.
         25    2    1    2    0    0 -0.12795845311E+03 -0.39464420681E+02 -0.96724993077E+02  0.20714958243E+03  0.12499767596E+03 0.  0.
          2    1    1    2  501    0  0.53427215825E+02  0.15992002822E+02 -0.44049023127E+03  0.44400659386E+03  0.00000000000E+00 0. -1.
          1    1    1    2  502    0  0.74531237280E+02  0.23472417859E+02  0.45615564728E+04  0.45622256975E+04  0.00000000000E+00 0. -1.
         22    1    3    3    0    0 -0.98196327253E+02 -0.49745697000E+02 -0.50233747895E+01  0.11019250133E+03  0.00000000000E+00 0.  1.
         22    1    3    3    0    0 -0.29762125852E+02  0.10281276319E+02 -0.91701618288E+02  0.96957081096E+02  0.00000000000E+00 0.  1.
</event>
<event>
 7    1  0.6067783E-006  0.4907376E+02  0.7818608E-02  0.1504138E+00
          2   -1    0    0  502    0  0.00000000000E+00  0.00000000000E+00  0.76557544234E+03  0.76557544234E+03  0.00000000000E+00 0. -1.
          1   -1    0    0  501    0 -0.00000000000E+00 -0.00000000000E+00 -0.23723214091E+03  0.23723214091E+03  0.00000000000E+00 0. -1.
         25    2    1    2    0    0  0.40280189174E+02  0.70768766513E+02  0.16897995920E+03  0.22540996586E+03  0.12499885658E+03 0.  0.
          2    1    1    2  501    0 -0.16173098068E+02 -0.29361948480E+02 -0.20665442768E+03  0.20935554828E+03  0.00000000000E+00 0. -1.
          1    1    1    2  502    0 -0.24107091107E+02 -0.41406818033E+02  0.56601776991E+03  0.56804206910E+03  0.00000000000E+00 0. -1.
         22    1    3    3    0    0 -0.21954318152E+02  0.53923916381E+01 -0.10183048536E+02  0.24794443945E+02  0.00000000000E+00 0. -1.
         22    1    3    3    0    0  0.62234507326E+02  0.65376374875E+02  0.17916300773E+03  0.20061552192E+03  0.00000000000E+00 0. -1.
</event>
<event>
 7    1  0.6067783E-006  0.1014687E+03  0.7818608E-02  0.1351834E+00
          2   -1    0    0  502    0  0.00000000000E+00  0.00000000000E+00  0.69317985702E+03  0.69317985702E+03  0.00000000000E+00 0. -1.
          1   -1    0    0  501    0 -0.00000000000E+00 -0.00000000000E+00 -0.35671155115E+03  0.35671155115E+03  0.00000000000E+00 0. -1.
         25    2    1    2    0    0 -0.20747029121E+02  0.15033452855E+03  0.32019677068E+03  0.37574154213E+03  0.12499929933E+03 0.  0.
          2    1    1    2  501    0  0.18769423154E+02 -0.98589065817E+02 -0.31925143314E+03  0.33465440787E+03  0.00000000000E+00 0. -1.
          1    1    1    2  502    0  0.19776059675E+01 -0.51745462736E+02  0.33552296834E+03  0.33949545818E+03  0.00000000000E+00 0. -1.
         22    1    3    3    0    0 -0.96651461601E+01  0.16230258214E+03  0.21641662617E+03  0.27068745686E+03  0.00000000000E+00 0. -1.
         22    1    3    3    0    0 -0.11081882961E+02 -0.11968053585E+02  0.10378014451E+03  0.10505408527E+03  0.00000000000E+00 0. -1.
</event>
<event>
 7    1  0.6067783E-006  0.1965745E+03  0.7818608E-02  0.1374142E+00
          2   -1    0    0  502    0  0.00000000000E+00  0.00000000000E+00  0.10411636677E+04  0.10411636677E+04  0.00000000000E+00 0. -1.
          1   -1    0    0  501    0 -0.00000000000E+00 -0.00000000000E+00 -0.46604883476E+03  0.46604883476E+03  0.00000000000E+00 0. -1.
         25    2    1    2    0    0 -0.18208123059E+03 -0.10842962857E+03 -0.33610753846E+03  0.41654011601E+03  0.12500732760E+03 0.  0.
          2    1    1    2  501    0  0.21700684893E+02 -0.45813410812E+01 -0.78560624650E+02  0.81631367478E+02  0.00000000000E+00 0. -1.
          1    1    1    2  502    0  0.16038054570E+03  0.11301096965E+03  0.98978299603E+03  0.10090410190E+04  0.00000000000E+00 0. -1.
         22    1    3    3    0    0 -0.11437822147E+03 -0.12129552358E+03 -0.28703209412E+03  0.33193735048E+03  0.00000000000E+00 0. -1.
         22    1    3    3    0    0 -0.67703009122E+02  0.12865895013E+02 -0.49075444334E+02  0.84602765530E+02  0.00000000000E+00 0. -1.
</event>
<event>
 7    1  0.6067783E-006  0.1508674E+03  0.7818608E-02  0.1329442E+00
          2   -1    0    0  502    0  0.00000000000E+00  0.00000000000E+00  0.63006194501E+02  0.63006194501E+02  0.00000000000E+00 0. -1.
          1   -1    0    0  501    0 -0.00000000000E+00 -0.00000000000E+00 -0.12597246497E+04  0.12597246497E+04  0.00000000000E+00 0. -1.
         25    2    1    2    0    0 -0.72723108351E+02 -0.89014447806E+02 -0.66980487349E+03  0.69099633878E+03  0.12500059700E+03 0.  0.
          2    1    1    2  501    0 -0.27579677657E+02 -0.32040409244E+02 -0.45822978448E+03  0.46017579448E+03  0.00000000000E+00 0. -1.
          1    1    1    2  502    0  0.10030278601E+03  0.12105485705E+03 -0.68683797229E+02  0.17155871094E+03  0.00000000000E+00 0. -1.
         22    1    3    3    0    0  0.60637374584E+01  0.77605590264E+01 -0.18780726485E+00  0.98504040493E+01  0.00000000000E+00 0. -1.
         22    1    3    3    0    0 -0.78786845809E+02 -0.96775006833E+02 -0.66961706622E+03  0.68114593473E+03  0.00000000000E+00 0. -1.
</event>
<event>
 7    1  0.6067783E-006  0.7697349E+02  0.7818608E-02  0.1374235E+00
          2   -1    0    0  502    0  0.00000000000E+00  0.00000000000E+00  0.58675967775E+03  0.58675967775E+03  0.00000000000E+00 0. -1.
          1   -1    0    0  501    0 -0.00000000000E+00 -0.00000000000E+00 -0.15059083992E+04  0.15059083992E+04  0.00000000000E+00 0. -1.
         25    2    1    2    0    0  0.22954963838E+02 -0.55923068285E+01  0.12174700950E+03  0.17607652819E+03  0.12498962036E+03 0.  0.
          2    1    1    2  501    0 -0.61175868772E+02  0.47334654297E+02 -0.14758976533E+04  0.14779231846E+04  0.00000000000E+00 0. -1.
          1    1    1    2  502    0  0.38220904934E+02 -0.41742347469E+02  0.43500192245E+03  0.43866836412E+03  0.00000000000E+00 0. -1.
         22    1    3    3    0    0 -0.44144320203E+02 -0.32240024556E+02  0.58896191356E+02  0.80354847681E+02  0.00000000000E+00 0. -1.
         22    1    3    3    0    0  0.67099284041E+02  0.26647717728E+02  0.62850818142E+02  0.95721680512E+02  0.00000000000E+00 0. -1.
</event>
<event>
 7    1  0.6067783E-006  0.8907097E+02  0.7818608E-02  0.1377896E+00
          2   -1    0    0  502    0  0.00000000000E+00  0.00000000000E+00  0.28495361361E+04  0.28495361361E+04  0.00000000000E+00 0. -1.
          1   -1    0    0  501    0 -0.00000000000E+00 -0.00000000000E+00 -0.55450271282E+03  0.55450271282E+03  0.00000000000E+00 0. -1.
         25    2    1    2    0    0  0.11114272749E+03 -0.14406499075E+01  0.44523451099E+03  0.47561915797E+03  0.12500012920E+03 0.  0.
          2    1    1    2  501    0 -0.31042410612E+02 -0.35904745539E+02 -0.53744682986E+03  0.53953857780E+03  0.00000000000E+00 0. -1.
          1    1    1    2  502    0 -0.80100316882E+02  0.37345395446E+02  0.23872457422E+04  0.23888811132E+04  0.00000000000E+00 0. -1.
         22    1    3    3    0    0  0.99183399084E+02 -0.53837336226E+02  0.28100877620E+03  0.30282294782E+03  0.00000000000E+00 0.  1.
         22    1    3    3    0    0  0.11959328411E+02  0.52396686319E+02  0.16422573479E+03  0.17279621015E+03  0.00000000000E+00 0.  1.
</event>
<event>
 7    1  0.6067783E-006  0.3608242E+03  0.7818608E-02  0.1289806E+00
          2   -1    0    0  502    0  0.00000000000E+00  0.00000000000E+00  0.17960996237E+04  0.17960996237E+04  0.00000000000E+00 0. -1.
          1   -1    0    0  501    0 -0.00000000000E+00 -0.00000000000E+00 -0.83902115373E+03  0.83902115373E+03  0.00000000000E+00 0. -1.
         25    2    1    2    0    0  0.13550183565E+03 -0.34487763773E+03  0.72074104573E+03  0.81999676825E+03  0.12500284985E+03 0.  0.
          2    1    1    2  501    0  0.12361102971E+02  0.22114782346E+02 -0.75845605229E+03  0.75887907055E+03  0.00000000000E+00 0. -1.
          1    1    1    2  502    0 -0.14786293862E+03  0.32276285538E+03  0.99479347651E+03  0.10562449386E+04  0.00000000000E+00 0. -1.
         22    1    3    3    0    0  0.12634735287E+03 -0.16290399379E+03  0.33431864192E+03  0.39277260483E+03  0.00000000000E+00 0. -1.
         22    1    3    3    0    0  0.91544827755E+01 -0.18197364394E+03  0.38642240380E+03  0.42722416341E+03  0.00000000000E+00 0. -1.
</event>
<event>
 7    1  0.6067783E-006  0.3122533E+02  0.7818608E-02  0.1627027E+00
          2   -1    0    0  502    0  0.00000000000E+00  0.00000000000E+00  0.14151035271E+03  0.14151035271E+03  0.00000000000E+00 0. -1.
          1   -1    0    0  501    0 -0.00000000000E+00 -0.00000000000E+00 -0.17935006957E+03  0.17935006957E+03  0.00000000000E+00 0. -1.
         25    2    1    2    0    0  0.21675607916E+02  0.31953804748E+01  0.16334899541E+00  0.12690510311E+03  0.12499934430E+03 0.  0.
          2    1    1    2  501    0  0.26638755000E+01 -0.24137671648E+02 -0.11130815125E+03  0.11392641467E+03  0.00000000000E+00 0. -1.
          1    1    1    2  502    0 -0.24339483416E+02  0.20942291174E+02  0.73305085386E+02  0.80028904503E+02  0.00000000000E+00 0. -1.
         22    1    3    3    0    0 -0.44972770117E+02 -0.28349588759E+02  0.67132750304E+00  0.53166718118E+02  0.00000000000E+00 0. -1.
         22    1    3    3    0    0  0.66648378033E+02  0.31544969234E+02 -0.50797850763E+00  0.73738384988E+02  0.00000000000E+00 0. -1.
</event>
<event>
 7    1  0.8083511E-006  0.4762377E+02  0.7818608E-02  0.1502853E+00
          2   -1    0    0  502    0  0.00000000000E+00  0.00000000000E+00  0.11950139562E+04  0.11950139562E+04  0.00000000000E+00 0. -1.
          1   -1    0    0  501    0 -0.00000000000E+00 -0.00000000000E+00 -0.83324237064E+03  0.83324237064E+03  0.00000000000E+00 0. -1.
         25    2    1    2    0    0 -0.33324375898E+02 -0.19179834225E+02 -0.39040608267E+03  0.41172898778E+03  0.12500187968E+03 0.  0.
          2    1    1    2  501    0  0.14057697689E+02  0.48216212494E+02 -0.43045818270E+03  0.43337820557E+03  0.00000000000E+00 0. -1.
          1    1    1    2  502    0  0.19266678208E+02 -0.29036378268E+02  0.11826358510E+04  0.11831491335E+04  0.00000000000E+00 0. -1.
         22    1    3    3    0    0 -0.61271952596E+02  0.23230892700E+02 -0.12126523927E+03  0.13783753047E+03  0.00000000000E+00 0.  1.
         22    1    3    3    0    0  0.27947576699E+02 -0.42410726926E+02 -0.26914084341E+03  0.27389145732E+03  0.00000000000E+00 0.  1.
</event>
<event>
 7    1  0.6067783E-006  0.5354422E+02  0.7818608E-02  0.1465638E+00
          2   -1    0    0  502    0  0.00000000000E+00  0.00000000000E+00  0.24697791290E+03  0.24697791290E+03  0.00000000000E+00 0. -1.
          1   -1    0    0  501    0 -0.00000000000E+00 -0.00000000000E+00 -0.54523245067E+03  0.54523245067E+03  0.00000000000E+00 0. -1.
         25    2    1    2    0    0 -0.18980500135E+02 -0.20582534474E+01  0.15849473186E+03  0.20275884780E+03  0.12500429809E+03 0.  0.
          2    1    1    2  501    0  0.39294262632E+02  0.36808295426E+02 -0.51546174955E+03  0.51826605613E+03  0.00000000000E+00 0. -1.
          1    1    1    2  502    0 -0.20313762497E+02 -0.34750041979E+02  0.58712479929E+02  0.71185459637E+02  0.00000000000E+00 0. -1.
         22    1    3    3    0    0 -0.48833030471E+02  0.28476468502E+02  0.23585212147E+02  0.61252235513E+02  0.00000000000E+00 0. -1.
         22    1    3    3    0    0  0.29852530336E+02 -0.30534721949E+02  0.13490951971E+03  0.14150661229E+03  0.00000000000E+00 0. -1.
</event>
<event>
 7    1  0.6067783E-006  0.2615947E+03  0.7818608E-02  0.1283682E+00
          2   -1    0    0  502    0  0.00000000000E+00  0.00000000000E+00  0.48095620930E+03  0.48095620930E+03  0.00000000000E+00 0. -1.
          1   -1    0    0  501    0 -0.00000000000E+00 -0.00000000000E+00 -0.22211659300E+04  0.22211659300E+04  0.00000000000E+00 0. -1.
         25    2    1    2    0    0  0.25833438432E+03  0.93691342241E+01 -0.29001839339E+03  0.40812049974E+03  0.12500895569E+03 0.  0.
          2    1    1    2  501    0  0.24389211444E+01 -0.36938572276E+02 -0.18311459227E+04  0.18315200782E+04  0.00000000000E+00 0. -1.
          1    1    1    2  502    0 -0.26077330546E+03  0.27569438052E+02  0.38095459547E+03  0.46248156133E+03  0.00000000000E+00 0. -1.
         22    1    3    3    0    0  0.21136586322E+03  0.52812042939E+02 -0.18833569586E+03  0.28798433004E+03  0.00000000000E+00 0. -1.
         22    1    3    3    0    0  0.46968521096E+02 -0.43442908715E+02 -0.10168269753E+03  0.12013616969E+03  0.00000000000E+00 0. -1.
</event>
<event>
 7    1  0.6067783E-006  0.4808830E+02  0.7818608E-02  0.1507500E+00
          2   -1    0    0  502    0  0.00000000000E+00  0.00000000000E+00  0.79214245400E+03  0.79214245400E+03  0.00000000000E+00 0. -1.
          1   -1    0    0  501    0 -0.00000000000E+00 -0.00000000000E+00 -0.14048100355E+03  0.14048100355E+03  0.00000000000E+00 0. -1.
         25    2    1    2    0    0  0.45243675703E+02  0.15753317596E+02  0.28359500769E+03  0.31360199834E+03  0.12499971109E+03 0.  0.
          2    1    1    2  501    0 -0.24222845037E+02 -0.41751619835E+02 -0.12024250437E+03  0.12956930130E+03  0.00000000000E+00 0. -1.
          1    1    1    2  502    0 -0.21020830666E+02  0.25998302238E+02  0.48830894713E+03  0.48945215791E+03  0.00000000000E+00 0. -1.
         22    1    3    3    0    0  0.69572099346E+02  0.30174128746E+02  0.27310486390E+03  0.28343786222E+03  0.00000000000E+00 0. -1.
         22    1    3    3    0    0 -0.24328423643E+02 -0.14420811150E+02  0.10490143784E+02  0.30164136119E+02  0.00000000000E+00 0. -1.
</event>
<event>
 7    1  0.6067783E-006  0.1378701E+03  0.7818608E-02  0.1295790E+00
          2   -1    0    0  502    0  0.00000000000E+00  0.00000000000E+00  0.14300221602E+04  0.14300221602E+04  0.00000000000E+00 0. -1.
          1   -1    0    0  501    0 -0.00000000000E+00 -0.00000000000E+00 -0.66447091629E+02  0.66447091629E+02  0.00000000000E+00 0. -1.
         25    2    1    2    0    0  0.12380151043E+03  0.95862913687E+00  0.15085153876E+03  0.23177217793E+03  0.12503768537E+03 0.  0.
          2    1    1    2  501    0  0.24607561164E+01 -0.62658795673E+02  0.23138350169E+02  0.66839832768E+02  0.00000000000E+00 0. -1.
          1    1    1    2  502    0 -0.12626226654E+03  0.61700166536E+02  0.11895851796E+04  0.11978572411E+04  0.00000000000E+00 0. -1.
         22    1    3    3    0    0  0.10512911508E+03 -0.61553704010E+01  0.30307975327E+02  0.10958372503E+03  0.00000000000E+00 0. -1.
         22    1    3    3    0    0  0.18672395344E+02  0.71139995379E+01  0.12054356343E+03  0.12218845290E+03  0.00000000000E+00 0. -1.
</event>
<event>
 7    1  0.6067783E-006  0.2290729E+03  0.7818608E-02  0.1330748E+00
          2   -1    0    0  502    0  0.00000000000E+00  0.00000000000E+00  0.25448924278E+04  0.25448924278E+04  0.00000000000E+00 0. -1.
          1   -1    0    0  501    0 -0.00000000000E+00 -0.00000000000E+00 -0.74438990631E+03  0.74438990631E+03  0.00000000000E+00 0. -1.
         25    2    1    2    0    0 -0.89100573000E+02  0.23612399735E+03  0.50686408576E+03  0.57985273691E+03  0.12499816334E+03 0.  0.
          2    1    1    2  501    0  0.92335538038E+02 -0.20878997990E+03 -0.68939123530E+03  0.72620891112E+03  0.00000000000E+00 0. -1.
          1    1    1    2  502    0 -0.32349650374E+01 -0.27334017449E+02  0.19830296710E+04  0.19832206860E+04  0.00000000000E+00 0. -1.
         22    1    3    3    0    0 -0.43496260677E+02  0.79192454492E+02  0.31560412561E+03  0.32828239923E+03  0.00000000000E+00 0. -1.
         22    1    3    3    0    0 -0.45604312323E+02  0.15693154286E+03  0.19125996015E+03  0.25157033768E+03  0.00000000000E+00 0. -1.
</event>
<event>
 7    1  0.6067783E-006  0.1941164E+03  0.7818608E-02  0.1376861E+00
          2   -1    0    0  502    0  0.00000000000E+00  0.00000000000E+00  0.10041323277E+04  0.10041323277E+04  0.00000000000E+00 0. -1.
          1   -1    0    0  501    0 -0.00000000000E+00 -0.00000000000E+00 -0.20565386694E+03  0.20565386694E+03  0.00000000000E+00 0. -1.
         25    2    1    2    0    0 -0.42386020564E+02 -0.18658885498E+03  0.15743574247E+02  0.22909790152E+03  0.12500405116E+03 0.  0.
          2    1    1    2  501    0 -0.21763036681E+02  0.29645667970E+01 -0.86866016615E+02  0.89599795002E+02  0.00000000000E+00 0. -1.
          1    1    1    2  502    0  0.64149057245E+02  0.18362428818E+03  0.86960090312E+03  0.89108849811E+03  0.00000000000E+00 0. -1.
         22    1    3    3    0    0 -0.76360032451E+02 -0.65764859574E+02 -0.89824461964E+01  0.10117586496E+03  0.00000000000E+00 0. -1.
         22    1    3    3    0    0  0.33974011887E+02 -0.12082399541E+03  0.24726020443E+02  0.12792203656E+03  0.00000000000E+00 0. -1.
</event>
<event>
 7    1  0.6067783E-006  0.1533448E+03  0.7818608E-02  0.1204284E+00
          2   -1    0    0  502    0  0.00000000000E+00  0.00000000000E+00  0.22541109164E+04  0.22541109164E+04  0.00000000000E+00 0. -1.
          1   -1    0    0  501    0 -0.00000000000E+00 -0.00000000000E+00 -0.53940379681E+02  0.53940379681E+02  0.00000000000E+00 0. -1.
         25    2    1    2    0    0  0.31062136234E+00 -0.51891525468E+02  0.25951186819E+03  0.29268492340E+03  0.12500091101E+03 0.  0.
          2    1    1    2  501    0 -0.15173652865E+03 -0.22150457345E+02  0.14253070658E+03  0.20935524642E+03  0.00000000000E+00 0. -1.
          1    1    1    2  502    0  0.15142590729E+03  0.74041982813E+02  0.17981279620E+04  0.18060111263E+04  0.00000000000E+00 0. -1.
         22    1    3    3    0    0 -0.17636939537E+02  0.25214394611E+02  0.17178014470E+03  0.17451431301E+03  0.00000000000E+00 0. -1.
         22    1    3    3    0    0  0.17947560899E+02 -0.77105920079E+02  0.87731723491E+02  0.11817061039E+03  0.00000000000E+00 0. -1.
</event>
<event>
 7    1  0.6067783E-006  0.8513559E+02  0.7818608E-02  0.1400905E+00
          2   -1    0    0  502    0  0.00000000000E+00  0.00000000000E+00  0.12183662147E+04  0.12183662147E+04  0.00000000000E+00 0. -1.
          1   -1    0    0  501    0 -0.00000000000E+00 -0.00000000000E+00 -0.65735440161E+03  0.65735440161E+03  0.00000000000E+00 0. -1.
         25    2    1    2    0    0  0.24504363400E+02  0.48070377656E+02 -0.16822514044E+03  0.21640718799E+03  0.12498459146E+03 0.  0.
          2    1    1    2  501    0 -0.60483708860E+02 -0.68282819170E+02 -0.46020375455E+03  0.46915702929E+03  0.00000000000E+00 0. -1.
          1    1    1    2  502    0  0.35979345460E+02  0.20212441514E+02  0.11894407081E+04  0.11901563990E+04  0.00000000000E+00 0. -1.
         22    1    3    3    0    0 -0.30209399852E+02  0.69584468947E+01  0.38339976151E+01  0.31236634907E+02  0.00000000000E+00 0. -1.
         22    1    3    3    0    0  0.54713763252E+02  0.41111930762E+02 -0.17205913805E+03  0.18517055308E+03  0.00000000000E+00 0. -1.
</event>
<event>
 7    1  0.6067783E-006  0.5554121E+02  0.7818608E-02  0.1537692E+00
          2   -1    0    0  502    0  0.00000000000E+00  0.00000000000E+00  0.94957323524E+02  0.94957323524E+02  0.00000000000E+00 0. -1.
          1   -1    0    0  501    0 -0.00000000000E+00 -0.00000000000E+00 -0.99853587767E+03  0.99853587767E+03  0.00000000000E+00 0. -1.
         25    2    1    2    0    0  0.17676697002E+02 -0.74882624550E+02  0.25030807077E+02  0.14890017472E+03  0.12499939061E+03 0.  0.
          2    1    1    2  501    0 -0.20551990652E+02  0.51386276196E+02 -0.91619232833E+03  0.91786236234E+03  0.00000000000E+00 0. -1.
          1    1    1    2  502    0  0.28752936504E+01  0.23496348353E+02 -0.12417032896E+02  0.26730664142E+02  0.00000000000E+00 0. -1.
         22    1    3    3    0    0  0.36641452965E+02 -0.49522154943E+02 -0.42140684533E+02  0.74638309188E+02  0.00000000000E+00 0.  1.
         22    1    3    3    0    0 -0.18964755963E+02 -0.25360469607E+02  0.67171491610E+02  0.74261865533E+02  0.00000000000E+00 0.  1.
</event>
<event>
 7    1  0.6067783E-006  0.4970437E+02  0.7818608E-02  0.1460809E+00
          2   -1    0    0  502    0  0.00000000000E+00  0.00000000000E+00  0.91620102810E+03  0.91620102810E+03  0.00000000000E+00 0. -1.
          1   -1    0    0  501    0 -0.00000000000E+00 -0.00000000000E+00 -0.13197542032E+04  0.13197542032E+04  0.00000000000E+00 0. -1.
         25    2    1    2    0    0  0.50145855495E+02  0.63119690681E+02 -0.14342474359E+02  0.14942800151E+03  0.12499727552E+03 0.  0.
          2    1    1    2  501    0 -0.42606962821E+02 -0.14173058832E+02 -0.12367386870E+04  0.12375535580E+04  0.00000000000E+00 0. -1.
          1    1    1    2  502    0 -0.75388926744E+01 -0.48946631849E+02  0.84752798635E+03  0.84897367175E+03  0.00000000000E+00 0. -1.
         22    1    3    3    0    0  0.13717533513E+02 -0.10739743083E+02 -0.54921893129E+02  0.57618809013E+02  0.00000000000E+00 0. -1.
         22    1    3    3    0    0  0.36428321982E+02  0.73859433764E+02  0.40579418770E+02  0.91809192492E+02  0.00000000000E+00 0. -1.
</event>
<event>
 7    1  0.6067783E-006  0.1031087E+03  0.7818608E-02  0.1375726E+00
          2   -1    0    0  502    0  0.00000000000E+00  0.00000000000E+00  0.46454457932E+02  0.46454457932E+02  0.00000000000E+00 0. -1.
          1   -1    0    0  501    0 -0.00000000000E+00 -0.00000000000E+00 -0.24837316250E+04  0.24837316250E+04  0.00000000000E+00 0. -1.
         25    2    1    2    0    0  0.10600568722E+03  0.79155503959E+02 -0.26978543601E+03  0.32544230920E+03  0.12500286240E+03 0.  0.
          2    1    1    2  501    0 -0.38059676459E+02 -0.17130237277E+02 -0.20710087066E+04  0.20714292280E+04  0.00000000000E+00 0. -1.
          1    1    1    2  502    0 -0.67946010760E+02 -0.62025266682E+02 -0.96483024511E+02  0.13331454573E+03  0.00000000000E+00 0. -1.
         22    1    3    3    0    0  0.10988136593E+03  0.10380070898E+03 -0.25502104856E+03  0.29645275673E+03  0.00000000000E+00 0. -1.
         22    1    3    3    0    0 -0.38756787073E+01 -0.24645205022E+02 -0.14764387450E+02  0.28989552476E+02  0.00000000000E+00 0. -1.
</event>
<event>
 7    1  0.6067783E-006  0.1430099E+03  0.7818608E-02  0.1407768E+00
          2   -1    0    0  502    0  0.00000000000E+00  0.00000000000E+00  0.62568433592E+03  0.62568433592E+03  0.00000000000E+00 0. -1.
          1   -1    0    0  501    0 -0.00000000000E+00 -0.00000000000E+00 -0.55366639091E+03  0.55366639091E+03  0.00000000000E+00 0. -1.
         25    2    1    2    0    0 -0.85750231376E+02 -0.13969152213E+03  0.18826678652E+03  0.27917111629E+03  0.12500122290E+03 0.  0.
          2    1    1    2  501    0  0.67736926612E+02  0.12495077975E+03 -0.49791550701E+03  0.51780386316E+03  0.00000000000E+00 0. -1.
          1    1    1    2  502    0  0.18013304764E+02  0.14740742386E+02  0.38166666550E+03  0.38237574738E+03  0.00000000000E+00 0. -1.
         22    1    3    3    0    0  0.23209646110E+02  0.62155684359E+01  0.21227760751E+02  0.32061484527E+02  0.00000000000E+00 0.  1.
         22    1    3    3    0    0 -0.10895987749E+03 -0.14590709057E+03  0.16703902577E+03  0.24710963176E+03  0.00000000000E+00 0.  1.
</event>
<event>
 7    1  0.6067783E-006  0.1316642E+03  0.7818608E-02  0.1420181E+00
          2   -1    0    0  502    0  0.00000000000E+00  0.00000000000E+00  0.79487677368E+03  0.79487677368E+03  0.00000000000E+00 0. -1.
          1   -1    0    0  501    0 -0.00000000000E+00 -0.00000000000E+00 -0.81579585257E+02  0.81579585257E+02  0.00000000000E+00 0. -1.
         25    2    1    2    0    0  0.12168941513E+03 -0.83994480736E+02  0.35192740749E+03  0.40167025970E+03  0.12499084303E+03 0.  0.
          2    1    1    2  501    0 -0.15707324685E+02  0.16747266657E+02 -0.44433222910E+02  0.50015020618E+02  0.00000000000E+00 0. -1.
          1    1    1    2  502    0 -0.10598209045E+03  0.67247214079E+02  0.40580300385E+03  0.42477107861E+03  0.00000000000E+00 0. -1.
         22    1    3    3    0    0  0.13681226688E+03 -0.33456273608E+02  0.25840931984E+03  0.29429966903E+03  0.00000000000E+00 0.  1.
         22    1    3    3    0    0 -0.15122851743E+02 -0.50538207128E+02  0.93518087646E+02  0.10737059067E+03  0.00000000000E+00 0.  1.
</event>
<event>
 7    1  0.6067783E-006  0.2374013E+03  0.7818608E-02  0.1293869E+00
          2   -1    0    0  502    0  0.00000000000E+00  0.00000000000E+00  0.81693401730E+03  0.81693401730E+03  0.00000000000E+00 0. -1.
          1   -1    0    0  501    0 -0.00000000000E+00 -0.00000000000E+00 -0.31037252507E+03  0.31037252507E+03  0.00000000000E+00 0. -1.
         25    2    1    2    0    0 -0.24385396741E+03  0.97073358683E+02  0.36655459028E+02  0.29301904525E+03  0.12501417445E+03 0.  0.
          2    1    1    2  501    0  0.19847187566E+02 -0.31312509899E+02 -0.15909559289E+03  0.16335786424E+03  0.00000000000E+00 0. -1.
          1    1    1    2  502    0  0.22400677984E+03 -0.65760848784E+02  0.62900162610E+03  0.67092963288E+03  0.00000000000E+00 0. -1.
         22    1    3    3    0    0 -0.82578142404E+02 -0.13544736234E+02 -0.26055196874E+02  0.87644068634E+02  0.00000000000E+00 0. -1.
         22    1    3    3    0    0 -0.16127582501E+03  0.11061809492E+03  0.62710655903E+02  0.20537497661E+03  0.00000000000E+00 0. -1.
</event>
<event>
 7    1  0.6067783E-006  0.4770358E+02  0.7818608E-02  0.1475689E+00
          2   -1    0    0  502    0  0.00000000000E+00  0.00000000000E+00  0.18861487264E+04  0.18861487264E+04  0.00000000000E+00 0. -1.
          1   -1    0    0  501    0 -0.00000000000E+00 -0.00000000000E+00 -0.41690248948E+03  0.41690248948E+03  0.00000000000E+00 0. -1.
         25    2    1    2    0    0 -0.17285609517E+02  0.84273403413E+02  0.95793394449E+02  0.17944947810E+03  0.12499976780E+03 0.  0.
          2    1    1    2  501    0  0.20105139721E+02 -0.36926358280E+02 -0.37357328209E+03  0.37593186839E+03  0.00000000000E+00 0. -1.
          1    1    1    2  502    0 -0.28195302034E+01 -0.47347045133E+02  0.17470261245E+04  0.17476698693E+04  0.00000000000E+00 0. -1.
         22    1    3    3    0    0 -0.68841741751E+02  0.69295727760E+02  0.55704648998E+02  0.11244594796E+03  0.00000000000E+00 0.  1.
         22    1    3    3    0    0  0.51556132234E+02  0.14977675653E+02  0.40088745451E+02  0.67003530136E+02  0.00000000000E+00 0.  1.
</event>
<event>
 7    1  0.6067783E-006  0.2988294E+02  0.7818608E-02  0.1627574E+00
          2   -1    0    0  502    0  0.00000000000E+00  0.00000000000E+00  0.88256567038E+03  0.88256567038E+03  0.00000000000E+00 0. -1.
          1   -1    0    0  501    0 -0.00000000000E+00 -0.00000000000E+00 -0.34847132237E+03  0.34847132237E+03  0.00000000000E+00 0. -1.
         25    2    1    2    0    0  0.39195541447E+02  0.24968716296E+02 -0.10475799263E+03  0.16958224505E+03  0.12499669417E+03 0.  0.
          2    1    1    2  501    0 -0.13923879646E+02 -0.26048113848E+02 -0.21007975406E+03  0.21214589727E+03  0.00000000000E+00 0. -1.
          1    1    1    2  502    0 -0.25271661801E+02  0.10793975525E+01  0.84893209471E+03  0.84930885043E+03  0.00000000000E+00 0. -1.
         22    1    3    3    0    0 -0.43993748729E+02  0.14664127918E+02 -0.20412458237E+02  0.50667100036E+02  0.00000000000E+00 0.  1.
         22    1    3    3    0    0  0.83189290176E+02  0.10304588378E+02 -0.84345534395E+02  0.11891514501E+03  0.00000000000E+00 0.  1.
</event>
<event>
 7    1  0.6067783E-006  0.6082414E+02  0.7818608E-02  0.1422336E+00
          2   -1    0    0  502    0  0.00000000000E+00  0.00000000000E+00  0.14680481645E+04  0.14680481645E+04  0.00000000000E+00 0. -1.
          1   -1    0    0  501    0 -0.00000000000E+00 -0.00000000000E+00 -0.53083804279E+03  0.53083804279E+03  0.00000000000E+00 0. -1.
         25    2    1    2    0    0 -0.34460025164E+02  0.89855823861E+02  0.10037914434E+04  0.10161122921E+04  0.12500146315E+03 0.  0.
          2    1    1    2  501    0  0.31886701769E+02 -0.37056081455E+02 -0.52200669920E+03  0.52429086292E+03  0.00000000000E+00 0. -1.
          1    1    1    2  502    0  0.25733233957E+01 -0.52799742406E+02  0.45542537744E+03  0.45848305226E+03  0.00000000000E+00 0. -1.
         22    1    3    3    0    0 -0.26017162653E+02 -0.28426461930E+02  0.20893464823E+03  0.21245856942E+03  0.00000000000E+00 0.  1.
         22    1    3    3    0    0 -0.84428625114E+01  0.11828228579E+03  0.79485679520E+03  0.80365372266E+03  0.00000000000E+00 0.  1.
</event>
<event>
 7    1  0.6067783E-006  0.8858436E+02  0.7818608E-02  0.1331069E+00
          2   -1    0    0  502    0  0.00000000000E+00  0.00000000000E+00  0.13733795267E+03  0.13733795267E+03  0.00000000000E+00 0. -1.
          1   -1    0    0  501    0 -0.00000000000E+00 -0.00000000000E+00 -0.18495115614E+04  0.18495115614E+04  0.00000000000E+00 0. -1.
         25    2    1    2    0    0  0.14744938254E+02 -0.17382923821E+02 -0.15542979897E+00  0.12706015934E+03  0.12499872274E+03 0.  0.
          2    1    1    2  501    0 -0.16219145731E+02  0.88344627059E+02 -0.17674503718E+04  0.17697312368E+04  0.00000000000E+00 0. -1.
          1    1    1    2  502    0  0.14742074772E+01 -0.70961703238E+02  0.55432192807E+02  0.90058117977E+02  0.00000000000E+00 0. -1.
         22    1    3    3    0    0  0.34166057957E+02 -0.66187674066E+02 -0.17989261761E+01  0.74507475128E+02  0.00000000000E+00 0.  1.
         22    1    3    3    0    0 -0.19421119703E+02  0.48804750245E+02  0.16434963771E+01  0.52552684207E+02  0.00000000000E+00 0.  1.
</event>
<event>
 7    1  0.6067783E-006  0.5343631E+02  0.7818608E-02  0.1437509E+00
          2   -1    0    0  502    0  0.00000000000E+00  0.00000000000E+00  0.65979262472E+02  0.65979262472E+02  0.00000000000E+00 0. -1.
          1   -1    0    0  501    0 -0.00000000000E+00 -0.00000000000E+00 -0.82023881436E+03  0.82023881436E+03  0.00000000000E+00 0. -1.
         25    2    1    2    0    0 -0.18042485884E+02  0.79449473373E+01 -0.32929509824E+03  0.35277313989E+03  0.12499989206E+03 0.  0.
          2    1    1    2  501    0  0.36429722194E+02  0.42228238783E+02 -0.46395555460E+03  0.46729552261E+03  0.00000000000E+00 0. -1.
          1    1    1    2  502    0 -0.18387236310E+02 -0.50173186120E+02  0.38991100944E+02  0.66149414339E+02  0.00000000000E+00 0. -1.
         22    1    3    3    0    0 -0.20647226456E+02 -0.17398402616E+02 -0.32596297305E+03  0.32707930563E+03  0.00000000000E+00 0. -1.
         22    1    3    3    0    0  0.26047405718E+01  0.25343349953E+02 -0.33321251874E+01  0.25693834252E+02  0.00000000000E+00 0. -1.
</event>
<event>
 7    1  0.6067783E-006  0.7643604E+02  0.7818608E-02  0.1488862E+00
          2   -1    0    0  502    0  0.00000000000E+00  0.00000000000E+00  0.51962502266E+03  0.51962502266E+03  0.00000000000E+00 0. -1.
          1   -1    0    0  501    0 -0.00000000000E+00 -0.00000000000E+00 -0.14265855890E+04  0.14265855890E+04  0.00000000000E+00 0. -1.
         25    2    1    2    0    0 -0.44411870491E+02 -0.54842153388E+02  0.14773096498E+03  0.20598905994E+03  0.12500791483E+03 0.  0.
          2    1    1    2  501    0  0.27232098062E+02  0.71479731489E+02 -0.13959910760E+04  0.13980851274E+04  0.00000000000E+00 0. -1.
          1    1    1    2  502    0  0.17179772429E+02 -0.16637578101E+02  0.34129954473E+03  0.34213642428E+03  0.00000000000E+00 0. -1.
         22    1    3    3    0    0 -0.30602403552E+02 -0.83158543705E+02  0.46707164757E+02  0.10016690938E+03  0.00000000000E+00 0.  1.
         22    1    3    3    0    0 -0.13809466939E+02  0.28316390317E+02  0.10102380023E+03  0.10582215056E+03  0.00000000000E+00 0.  1.
</event>
<event>
 7    1  0.6067783E-006  0.3128896E+03  0.7818608E-02  0.1146791E+00
          2   -1    0    0  502    0  0.00000000000E+00  0.00000000000E+00  0.62356885753E+03  0.62356885753E+03  0.00000000000E+00 0. -1.
          1   -1    0    0  501    0 -0.00000000000E+00 -0.00000000000E+00 -0.11870880793E+04  0.11870880793E+04  0.00000000000E+00 0. -1.
         25    2    1    2    0    0 -0.18326448248E+03  0.23396401270E+03  0.18496650431E+03  0.37171251501E+03  0.12503022163E+03 0.  0.
          2    1    1    2  501    0  0.94212742744E+02  0.93022657992E+02 -0.10051450866E+04  0.10138273526E+04  0.00000000000E+00 0. -1.
          1    1    1    2  502    0  0.89051739732E+02 -0.32698667070E+03  0.25665936054E+03  0.42511706919E+03  0.00000000000E+00 0. -1.
         22    1    3    3    0    0 -0.14167009578E+03  0.91258241454E+02  0.64713680891E+02  0.18051687779E+03  0.00000000000E+00 0. -1.
         22    1    3    3    0    0 -0.41594386692E+02  0.14270577125E+03  0.12025282341E+03  0.19119563722E+03  0.00000000000E+00 0. -1.
</event>
<event>
 7    1  0.6067783E-006  0.1339825E+03  0.7818608E-02  0.1329096E+00
          2   -1    0    0  502    0  0.00000000000E+00  0.00000000000E+00  0.59255975366E+03  0.59255975366E+03  0.00000000000E+00 0. -1.
          1   -1    0    0  501    0 -0.00000000000E+00 -0.00000000000E+00 -0.36383805694E+03  0.36383805694E+03  0.00000000000E+00 0. -1.
         25    2    1    2    0    0 -0.10545612055E+01  0.10641620314E+03  0.66793563954E+02  0.17722398157E+03  0.12498575545E+03 0.  0.
          2    1    1    2  501    0 -0.38948880339E+02  0.27621287857E+02 -0.29627349001E+03  0.30009653731E+03  0.00000000000E+00 0. -1.
          1    1    1    2  502    0  0.40003441544E+02 -0.13403749100E+03  0.45820162278E+03  0.47907729172E+03  0.00000000000E+00 0. -1.
         22    1    3    3    0    0  0.21068382494E+02 -0.23027380170E+02  0.33785428140E+01  0.31393495026E+02  0.00000000000E+00 0. -1.
         22    1    3    3    0    0 -0.22122943699E+02  0.12944358331E+03  0.63415021140E+02  0.14583048654E+03  0.00000000000E+00 0. -1.
</event>
<event>
 7    1  0.6067783E-006  0.7054679E+02  0.7818608E-02  0.1398645E+00
          2   -1    0    0  502    0  0.00000000000E+00  0.00000000000E+00  0.14612724843E+04  0.14612724843E+04  0.00000000000E+00 0. -1.
          1   -1    0    0  501    0 -0.00000000000E+00 -0.00000000000E+00 -0.11733526930E+03  0.11733526930E+03  0.00000000000E+00 0. -1.
         25    2    1    2    0    0  0.70939014122E+02 -0.74161456477E+01  0.16971375955E+03  0.22251864328E+03  0.12499777393E+03 0.  0.
          2    1    1    2  501    0 -0.13142257767E+02  0.48968647287E+02 -0.82779290810E+02  0.97072438639E+02  0.00000000000E+00 0. -1.
          1    1    1    2  502    0 -0.57796756354E+02 -0.41552501639E+02  0.12570027462E+04  0.12590166716E+04  0.00000000000E+00 0. -1.
         22    1    3    3    0    0  0.70879786975E+02 -0.18542504065E+02  0.18763095440E+03  0.20142776300E+03  0.00000000000E+00 0. -1.
         22    1    3    3    0    0  0.59227146911E-01  0.11126358418E+02 -0.17917194855E+02  0.21090880280E+02  0.00000000000E+00 0. -1.
</event>
<event>
 7    1  0.7976963E-006  0.1049575E+03  0.7818608E-02  0.1332232E+00
          2   -1    0    0  502    0  0.00000000000E+00  0.00000000000E+00  0.12649783018E+04  0.12649783018E+04  0.00000000000E+00 0. -1.
          1   -1    0    0  501    0 -0.00000000000E+00 -0.00000000000E+00 -0.10090869182E+04  0.10090869182E+04  0.00000000000E+00 0. -1.
         25    2    1    2    0    0  0.39316196679E+01 -0.47690310734E+02 -0.45567203458E+02  0.14139274048E+03  0.12500285461E+03 0.  0.
          2    1    1    2  501    0  0.18755657992E+02 -0.56251765752E+02 -0.91231764000E+03  0.91424258931E+03  0.00000000000E+00 0. -1.
          1    1    1    2  502    0 -0.22687277660E+02  0.10394207649E+03  0.12137762271E+04  0.12184298902E+04  0.00000000000E+00 0. -1.
         22    1    3    3    0    0  0.20906819900E+02 -0.61375564358E+02 -0.78550271903E+02  0.10185381797E+03  0.00000000000E+00 0. -1.
         22    1    3    3    0    0 -0.16975200232E+02  0.13685253624E+02  0.32983068445E+02  0.39538922516E+02  0.00000000000E+00 0. -1.
</event>
<event>
 7    1  0.6067783E-006  0.5651927E+02  0.7818608E-02  0.1513451E+00
          2   -1    0    0  502    0  0.00000000000E+00  0.00000000000E+00  0.95011542481E+03  0.95011542481E+03  0.00000000000E+00 0. -1.
          1   -1    0    0  501    0 -0.00000000000E+00 -0.00000000000E+00 -0.47047227798E+02  0.47047227798E+02  0.00000000000E+00 0. -1.
         25    2    1    2    0    0  0.59187463345E+02 -0.57052657047E+02  0.12970734397E+03  0.19801133360E+03  0.12500532653E+03 0.  0.
          2    1    1    2  501    0 -0.23182805221E+02  0.14459107992E+02  0.38153201844E+01  0.27587405278E+02  0.00000000000E+00 0. -1.
          1    1    1    2  502    0 -0.36004658124E+02  0.42593549055E+02  0.76954553286E+03  0.77156391373E+03  0.00000000000E+00 0. -1.
         22    1    3    3    0    0  0.70219264866E+02 -0.21903570567E+02  0.14137715154E+03  0.15936753289E+03  0.00000000000E+00 0. -1.
         22    1    3    3    0    0 -0.11031801521E+02 -0.35149086480E+02 -0.11669807565E+02  0.38643800716E+02  0.00000000000E+00 0. -1.
</event>
<event>
 7    1  0.6067783E-006  0.5617499E+02  0.7818608E-02  0.1446802E+00
          2   -1    0    0  502    0  0.00000000000E+00  0.00000000000E+00  0.54784018624E+03  0.54784018624E+03  0.00000000000E+00 0. -1.
          1   -1    0    0  501    0 -0.00000000000E+00 -0.00000000000E+00 -0.69741474537E+02  0.69741474537E+02  0.00000000000E+00 0. -1.
         25    2    1    2    0    0  0.18699685432E+02 -0.61238727625E+02  0.15717743987E+03  0.21078424479E+03  0.12500156101E+03 0.  0.
          2    1    1    2  501    0  0.24238053305E+02  0.51515522554E+02 -0.22019368405E+02  0.61042484197E+02  0.00000000000E+00 0. -1.
          1    1    1    2  502    0 -0.42937738737E+02  0.97232050713E+01  0.34294064024E+03  0.34575493178E+03  0.00000000000E+00 0. -1.
         22    1    3    3    0    0  0.34257540428E+02  0.46527042274E+01  0.13528024431E+03  0.13962797440E+03  0.00000000000E+00 0. -1.
         22    1    3    3    0    0 -0.15557854996E+02 -0.65891431853E+02  0.21897195553E+02  0.71156270397E+02  0.00000000000E+00 0. -1.
</event>
<event>
 7    1  0.6067783E-006  0.9597841E+02  0.7818608E-02  0.1299021E+00
          2   -1    0    0  502    0  0.00000000000E+00  0.00000000000E+00  0.15283522236E+04  0.15283522236E+04  0.00000000000E+00 0. -1.
          1   -1    0    0  501    0 -0.00000000000E+00 -0.00000000000E+00 -0.28489251798E+03  0.28489251798E+03  0.00000000000E+00 0. -1.
         25    2    1    2    0    0  0.86825443680E+02  0.38309398715E+01  0.49273614283E+03  0.51572021018E+03  0.12500037986E+03 0.  0.
          2    1    1    2  501    0 -0.49773950229E+02 -0.83014070046E+02 -0.26289267962E+03  0.28014521760E+03  0.00000000000E+00 0. -1.
          1    1    1    2  502    0 -0.37051493451E+02  0.79183130174E+02  0.10136162424E+04  0.10173793138E+04  0.00000000000E+00 0. -1.
         22    1    3    3    0    0 -0.18957087981E+02 -0.27450750339E+02  0.55245035920E+02  0.64536260139E+02  0.00000000000E+00 0. -1.
         22    1    3    3    0    0  0.10578253166E+03  0.31281690211E+02  0.43749110691E+03  0.45118395004E+03  0.00000000000E+00 0. -1.
</event>
<event>
 7    1  0.8965378E-006  0.8528250E+02  0.7818608E-02  0.1378343E+00
          2   -1    0    0  502    0  0.00000000000E+00  0.00000000000E+00  0.19797031297E+04  0.19797031297E+04  0.00000000000E+00 0. -1.
          1   -1    0    0  501    0 -0.00000000000E+00 -0.00000000000E+00 -0.12062221090E+04  0.12062221090E+04  0.00000000000E+00 0. -1.
         25    2    1    2    0    0 -0.16230534271E+02  0.32717165577E+02 -0.20144254586E+02  0.13177299643E+03  0.12499795370E+03 0.  0.
          2    1    1    2  501    0 -0.20297836500E+02  0.45027220890E+02 -0.11287643782E+04  0.11298444469E+04  0.00000000000E+00 0. -1.
          1    1    1    2  502    0  0.36528370771E+02 -0.77744386467E+02  0.19223896535E+04  0.19243077954E+04  0.00000000000E+00 0. -1.
         22    1    3    3    0    0  0.25801440070E+01 -0.79016923284E+01  0.48837756829E+02  0.49540088583E+02  0.00000000000E+00 0.  1.
         22    1    3    3    0    0 -0.18810678278E+02  0.40618857905E+02 -0.68982011415E+02  0.82232907851E+02  0.00000000000E+00 0.  1.
</event>
<event>
 7    1  0.6067783E-006  0.1111056E+03  0.7818608E-02  0.1352686E+00
          2   -1    0    0  502    0  0.00000000000E+00  0.00000000000E+00  0.32764258102E+04  0.32764258102E+04  0.00000000000E+00 0. -1.
          1   -1    0    0  501    0 -0.00000000000E+00 -0.00000000000E+00 -0.62576489003E+03  0.62576489003E+03  0.00000000000E+00 0. -1.
         25    2    1    2    0    0  0.81082798263E+02 -0.13399252822E+02  0.14742638591E+03  0.21003336692E+03  0.12500206320E+03 0.  0.
          2    1    1    2  501    0  0.28583364616E+02  0.37247133593E+02 -0.59251595375E+03  0.59437321032E+03  0.00000000000E+00 0. -1.
          1    1    1    2  502    0 -0.10966616288E+03 -0.23847880770E+02  0.30957504880E+04  0.30977841230E+04  0.00000000000E+00 0. -1.
         22    1    3    3    0    0  0.53455287431E+02 -0.60420435417E+02  0.12959935201E+03  0.15265676798E+03  0.00000000000E+00 0. -1.
         22    1    3    3    0    0  0.27627510832E+02  0.47021182595E+02  0.17827033904E+02  0.57376598934E+02  0.00000000000E+00 0. -1.
</event>
<event>
 7    1  0.6067783E-006  0.1418491E+03  0.7818608E-02  0.1367837E+00
          2   -1    0    0  502    0  0.00000000000E+00  0.00000000000E+00  0.70049705044E+03  0.70049705044E+03  0.00000000000E+00 0. -1.
          1   -1    0    0  501    0 -0.00000000000E+00 -0.00000000000E+00 -0.15769772774E+03  0.15769772774E+03  0.00000000000E+00 0. -1.
         25    2    1    2    0    0  0.12733608206E+03 -0.10761963891E+03  0.12734473424E+03  0.24420963966E+03  0.12500080917E+03 0.  0.
          2    1    1    2  501    0 -0.13685449335E+02  0.29345626924E+02 -0.87049705265E+02  0.92876846037E+02  0.00000000000E+00 0. -1.
          1    1    1    2  502    0 -0.11365063273E+03  0.78274011988E+02  0.50250429373E+03  0.52110829248E+03  0.00000000000E+00 0. -1.
         22    1    3    3    0    0  0.12210192219E+03 -0.10801397576E+03  0.14965067635E+03  0.22129442671E+03  0.00000000000E+00 0. -1.
         22    1    3    3    0    0  0.52341598652E+01  0.39433684786E+00 -0.22305942111E+02  0.22915212949E+02  0.00000000000E+00 0. -1.
</event>
<event>
 7    1  0.6067783E-006  0.6101604E+02  0.7818608E-02  0.1440336E+00
          2   -1    0    0  502    0  0.00000000000E+00  0.00000000000E+00  0.12616178224E+04  0.12616178224E+04  0.00000000000E+00 0. -1.
          1   -1    0    0  501    0 -0.00000000000E+00 -0.00000000000E+00 -0.12564786647E+03  0.12564786647E+03  0.00000000000E+00 0. -1.
         25    2    1    2    0    0  0.98980980131E+02  0.25952946109E+02  0.34572656190E+03  0.38160526989E+03  0.12499974627E+03 0.  0.
          2    1    1    2  501    0 -0.58915862123E+02 -0.11690248258E+02 -0.98786645978E+02  0.11561376275E+03  0.00000000000E+00 0. -1.
          1    1    1    2  502    0 -0.40065118008E+02 -0.14262697852E+02  0.88903003998E+03  0.89004665620E+03  0.00000000000E+00 0. -1.
         22    1    3    3    0    0  0.67652113313E+02 -0.41824847145E+02  0.12101415905E+03  0.14481212989E+03  0.00000000000E+00 0. -1.
         22    1    3    3    0    0  0.31328866817E+02  0.67777793254E+02  0.22471240285E+03  0.23679314000E+03  0.00000000000E+00 0. -1.
</event>
<event>
 7    1  0.6067783E-006  0.6233330E+02  0.7818608E-02  0.1426804E+00
          2   -1    0    0  502    0  0.00000000000E+00  0.00000000000E+00  0.59882124410E+02  0.59882124410E+02  0.00000000000E+00 0. -1.
          1   -1    0    0  501    0 -0.00000000000E+00 -0.00000000000E+00 -0.90347660086E+03  0.90347660086E+03  0.00000000000E+00 0. -1.
         25    2    1    2    0    0  0.21475866498E+02 -0.27824912788E+01 -0.23010018972E+03  0.26275391631E+03  0.12499827250E+03 0.  0.
          2    1    1    2  501    0 -0.66152376754E+02 -0.85942799609E+01 -0.64261986544E+03  0.64607297580E+03  0.00000000000E+00 0. -1.
          1    1    1    2  502    0  0.44676510257E+02  0.11376771240E+02  0.29125578711E+02  0.54531833160E+02  0.00000000000E+00 0. -1.
         22    1    3    3    0    0 -0.49846018414E+02 -0.15720980104E+02 -0.73472642052E+02  0.90166534243E+02  0.00000000000E+00 0. -1.
         22    1    3    3    0    0  0.71321884912E+02  0.12938488825E+02 -0.15662754767E+03  0.17258738207E+03  0.00000000000E+00 0. -1.
</event>
<event>
 7    1  0.6067783E-006  0.9393201E+02  0.7818608E-02  0.1336720E+00
          2   -1    0    0  502    0  0.00000000000E+00  0.00000000000E+00  0.76514568252E+03  0.76514568252E+03  0.00000000000E+00 0. -1.
          1   -1    0    0  501    0 -0.00000000000E+00 -0.00000000000E+00 -0.28237388259E+03  0.28237388259E+03  0.00000000000E+00 0. -1.
         25    2    1    2    0    0  0.58060143002E+02 -0.12442893182E+03 -0.11570675108E+03  0.21878353809E+03  0.12499858005E+03 0.  0.
          2    1    1    2  501    0 -0.55929361335E+02  0.60755652539E+02 -0.98678985817E+02  0.12867355990E+03  0.00000000000E+00 0. -1.
          1    1    1    2  502    0 -0.21307816665E+01  0.63673279285E+02  0.69715753682E+03  0.70006246712E+03  0.00000000000E+00 0. -1.
         22    1    3    3    0    0  0.42918767384E+02 -0.30750835661E+02 -0.11199574725E+03  0.12381713084E+03  0.00000000000E+00 0. -1.
         22    1    3    3    0    0  0.15141375618E+02 -0.93678096163E+02 -0.37110038256E+01  0.94966407248E+02  0.00000000000E+00 0. -1.
</event>
