<event>
 7    1  0.5676357E-006  0.9111255E+02  0.7818608E-02  0.1300211E+00
          2   -1    0    0  502    0  0.00000000000E+00  0.00000000000E+00  0.40953199834E+03  0.40953199834E+03  0.00000000000E+00 0. -1.
          1   -1    0    0  501    0 -0.00000000000E+00 -0.00000000000E+00 -0.17059013062E+03  0.17059013062E+03  0.00000000000E+00 0. -1.
         25    2    1    2    0    0  0.36740030006E+02 -0.48106048503E+02  0.19081012691E+03  0.23600360614E+03  0.12500070349E+03 0.  0.
          2    1    1    2  501    0 -0.33079174999E+02 -0.84867674200E+02 -0.10650187892E+03  0.14014065847E+03  0.00000000000E+00 0. -1.
          1    1    1    2  502    0 -0.36608550065E+01  0.13297372270E+03  0.15463361975E+03  0.20397786435E+03  0.00000000000E+00 0. -1.
         22    1    3    3    0    0 -0.40737728610E+02  0.10008146318E+02  0.53906340615E+02  0.68305337153E+02  0.00000000000E+00 0.  1.
         22    1    3    3    0    0  0.77477758616E+02 -0.58114194821E+02  0.13690378629E+03  0.16769826899E+03  0.00000000000E+00 0.  1.
</event>
<event>
 7    1  0.5676357E-006  0.5242485E+02  0.7818608E-02  0.1522891E+00
          2   -1    0    0  502    0  0.00000000000E+00  0.00000000000E+00  0.46563537251E+03  0.46563537251E+03  0.00000000000E+00 0. -1.
          1   -1    0    0  501    0 -0.00000000000E+00 -0.00000000000E+00 -0.11425988102E+03  0.11425988102E+03  0.00000000000E+00 0. -1.
         25    2    1    2    0    0  0.53339561136E+00 -0.32569629574E+02  0.12105049744E+03  0.17702809859E+03  0.12499863791E+03 0.  0.
          2    1    1    2  501    0 -0.21330430546E+02 -0.17593667825E+02 -0.81648245505E+02  0.86203018560E+02  0.00000000000E+00 0. -1.
          1    1    1    2  502    0  0.20797034935E+02  0.50163297399E+02  0.31197323955E+03  0.31666413637E+03  0.00000000000E+00 0. -1.
         22    1    3    3    0    0 -0.12595265719E+02 -0.22763543725E+02  0.14538293600E+03  0.14769230759E+03  0.00000000000E+00 0.  1.
         22    1    3    3    0    0  0.13128661330E+02 -0.98060858485E+01 -0.24332438555E+02  0.29335791007E+02  0.00000000000E+00 0.  1.
</event>
<event>
 7    1  0.5676357E-006  0.7745854E+02  0.7818608E-02  0.1356315E+00
          2   -1    0    0  502    0  0.00000000000E+00  0.00000000000E+00  0.30300813648E+03  0.30300813648E+03  0.00000000000E+00 0. -1.
          1   -1    0    0  501    0 -0.00000000000E+00 -0.00000000000E+00 -0.57995728892E+03  0.57995728892E+03  0.00000000000E+00 0. -1.
         25    2    1    2    0    0 -0.29468384228E+02 -0.38671974339E+02  0.11962413009E+03  0.17971897759E+03  0.12500028455E+03 0.  0.
          2    1    1    2  501    0  0.30451224225E+02 -0.57771490567E+02 -0.53254888420E+03  0.53653810325E+03  0.00000000000E+00 0. -1.
          1    1    1    2  502    0 -0.98283999676E+00  0.96443464906E+02  0.13597560166E+03  0.16670834456E+03  0.00000000000E+00 0. -1.
         22    1    3    3    0    0 -0.22892365278E+02 -0.80472028236E+02  0.10646610562E+03  0.13540620134E+03  0.00000000000E+00 0. -1.
         22    1    3    3    0    0 -0.65760189503E+01  0.41800053897E+02  0.13158024475E+02  0.44312776252E+02  0.00000000000E+00 0. -1.
</event>
<event>
 7    1  0.5676357E-006  0.1041358E+03  0.7818608E-02  0.1292466E+00
          2   -1    0    0  502    0  0.00000000000E+00  0.00000000000E+00  0.66501048415E+03  0.66501048415E+03  0.00000000000E+00 0. -1.
          1   -1    0    0  501    0 -0.00000000000E+00 -0.00000000000E+00 -0.11042727889E+03  0.11042727889E+03  0.00000000000E+00 0. -1.
         25    2    1    2    0    0  0.12318612440E+03  0.19769754187E+02  0.11712971349E+03  0.21192098099E+03  0.12500187190E+03 0.  0.
          2    1    1    2  501    0 -0.65276180787E+02 -0.82845832335E+02 -0.11841474946E+02  0.10613497182E+03  0.00000000000E+00 0. -1.
          1    1    1    2  502    0 -0.57909943611E+02  0.63076078148E+02  0.44929496673E+03  0.45738181023E+03  0.00000000000E+00 0. -1.
         22    1    3    3    0    0 -0.83130696867E+01 -0.92426801145E+01  0.67138211124E+02  0.68279379437E+02  0.00000000000E+00 0. -1.
         22    1    3    3    0    0  0.13149919408E+03  0.29012434302E+02  0.49991502362E+02  0.14364160156E+03  0.00000000000E+00 0. -1.
</event>
<event>
 7    1  0.5676357E-006  0.4857978E+02  0.7818608E-02  0.1485702E+00
          2   -1    0    0  502    0  0.00000000000E+00  0.00000000000E+00  0.11728737931E+04  0.11728737931E+04  0.00000000000E+00 0. -1.
          1   -1    0    0  501    0 -0.00000000000E+00 -0.00000000000E+00 -0.12142688878E+04  0.12142688878E+04  0.00000000000E+00 0. -1.
         25    2    1    2    0    0 -0.16322447696E+01  0.43945172020E+02 -0.93217458118E+03  0.94154554707E+03  0.12499890015E+03 0.  0.
          2    1    1    2  501    0 -0.36819122411E+02 -0.42755734831E+02 -0.27421890087E+03  0.27996375878E+03  0.00000000000E+00 0. -1.
          1    1    1    2  502    0  0.38451367181E+02 -0.11894371892E+01  0.11649983874E+04  0.11656333750E+04  0.00000000000E+00 0. -1.
         22    1    3    3    0    0 -0.24288101752E+02 -0.24465765027E+02 -0.91354753999E+02  0.97643108427E+02  0.00000000000E+00 0.  1.
         22    1    3    3    0    0  0.22655856983E+02  0.68410937047E+02 -0.84081982718E+03  0.84390243864E+03  0.00000000000E+00 0.  1.
</event>
<event>
 7    1  0.5676357E-006  0.1822910E+03  0.7818608E-02  0.1216733E+00
          2   -1    0    0  502    0  0.00000000000E+00  0.00000000000E+00  0.15590278804E+04  0.15590278804E+04  0.00000000000E+00 0. -1.
          1   -1    0    0  501    0 -0.00000000000E+00 -0.00000000000E+00 -0.35804084780E+03  0.35804084780E+03  0.00000000000E+00 0. -1.
         25    2    1    2    0    0 -0.84233303314E+02  0.24650510915E+02  0.28717583108E+03  0.32526488597E+03  0.12499756402E+03 0.  0.
          2    1    1    2  501    0  0.17666287608E+03 -0.71697577909E+02 -0.30982064728E+03  0.36378448008E+03  0.00000000000E+00 0. -1.
          1    1    1    2  502    0 -0.92429572765E+02  0.47047066994E+02  0.12236318488E+04  0.12280193622E+04  0.00000000000E+00 0. -1.
         22    1    3    3    0    0  0.56989514315E+01  0.29459544221E+02  0.67821127139E+01  0.30762637175E+02  0.00000000000E+00 0. -1.
         22    1    3    3    0    0 -0.89932254746E+02 -0.48090333053E+01  0.28039371837E+03  0.29450224880E+03  0.00000000000E+00 0. -1.
</event>
<event>
 7    1  0.5676357E-006  0.9015010E+02  0.7818608E-02  0.1457041E+00
          2   -1    0    0  502    0  0.00000000000E+00  0.00000000000E+00  0.13707903041E+04  0.13707903041E+04  0.00000000000E+00 0. -1.
          1   -1    0    0  501    0 -0.00000000000E+00 -0.00000000000E+00 -0.12115823102E+03  0.12115823102E+03  0.00000000000E+00 0. -1.
         25    2    1    2    0    0 -0.46231663655E+02  0.49840808977E+02  0.30224323228E+03  0.33406165644E+03  0.12499898351E+03 0.  0.
          2    1    1    2  501    0 -0.13105941280E+02  0.21810237627E+02 -0.10162185739E+03  0.10475902854E+03  0.00000000000E+00 0. -1.
          1    1    1    2  502    0  0.59337604936E+02 -0.71651046604E+02  0.10490106982E+04  0.10531278502E+04  0.00000000000E+00 0. -1.
         22    1    3    3    0    0  0.49676253710E+00 -0.11666374859E+02  0.22333088539E+03  0.22363594399E+03  0.00000000000E+00 0.  1.
         22    1    3    3    0    0 -0.46728426192E+02  0.61507183836E+02  0.78912346893E+02  0.11042571245E+03  0.00000000000E+00 0.  1.
</event>
<event>
 7    1  0.5676357E-006  0.1018706E+03  0.7818608E-02  0.1347229E+00
          2   -1    0    0  502    0  0.00000000000E+00  0.00000000000E+00  0.18727265646E+04  0.18727265646E+04  0.00000000000E+00 0. -1.
          1   -1    0    0  501    0 -0.00000000000E+00 -0.00000000000E+00 -0.13125961945E+03  0.13125961945E+03  0.00000000000E+00 0. -1.
         25    2    1    2    0    0 -0.32142843240E+02 -0.14762433137E+03  0.54768449476E+03  0.58173097062E+03  0.12500604305E+03 0.  0.
          2    1    1    2  501    0  0.34092776872E+02  0.94012561681E+02 -0.91683252561E+02  0.13567054945E+03  0.00000000000E+00 0. -1.
          1    1    1    2  502    0 -0.19499336320E+01  0.53611769692E+02  0.12854657029E+04  0.12865846639E+04  0.00000000000E+00 0. -1.
         22    1    3    3    0    0 -0.62730433946E+02 -0.15012078242E+03  0.49124631547E+03  0.51748845313E+03  0.00000000000E+00 0. -1.
         22    1    3    3    0    0  0.30587590706E+02  0.24964510450E+01  0.56438179290E+02  0.64242517499E+02  0.00000000000E+00 0. -1.
</event>
<event>
 7    1  0.5676357E-006  0.7715318E+02  0.7818608E-02  0.1444357E+00
          2   -1    0    0  502    0  0.00000000000E+00  0.00000000000E+00  0.14272561062E+04  0.14272561062E+04  0.00000000000E+00 0. -1.
          1   -1    0    0  501    0 -0.00000000000E+00 -0.00000000000E+00 -0.89448305876E+03  0.89448305876E+03  0.00000000000E+00 0. -1.
         25    2    1    2    0    0 -0.10542151600E+03  0.20867887834E+02 -0.11973136519E+03  0.20373992049E+03  0.12500076244E+03 0.  0.
          2    1    1    2  501    0  0.72781194776E+02 -0.21024228118E+02 -0.73059626796E+03  0.73451346294E+03  0.00000000000E+00 0. -1.
          1    1    1    2  502    0  0.32640321223E+02  0.15634028417E+00  0.13831006806E+04  0.13834857816E+04  0.00000000000E+00 0. -1.
         22    1    3    3    0    0 -0.12257873096E+03  0.13849053049E+02 -0.52615152764E+02  0.13411075966E+03  0.00000000000E+00 0. -1.
         22    1    3    3    0    0  0.17157214966E+02  0.70188347851E+01 -0.67116212431E+02  0.69629160833E+02  0.00000000000E+00 0. -1.
</event>
<event>
 7    1  0.5676357E-006  0.9118403E+02  0.7818608E-02  0.1354985E+00
          2   -1    0    0  502    0  0.00000000000E+00  0.00000000000E+00  0.16179942400E+04  0.16179942400E+04  0.00000000000E+00 0. -1.
          1   -1    0    0  501    0 -0.00000000000E+00 -0.00000000000E+00 -0.14996229130E+03  0.14996229130E+03  0.00000000000E+00 0. -1.
         25    2    1    2    0    0  0.11553464205E+02 -0.39778487146E+02 -0.88381571023E+02  0.15859423389E+03  0.12500007341E+03 0.  0.
          2    1    1    2  501    0  0.46645607718E+02 -0.31172992973E+02  0.62109636524E+01  0.56445941216E+02  0.00000000000E+00 0. -1.
          1    1    1    2  502    0 -0.58199071923E+02  0.70951480119E+02  0.15502025561E+04  0.15529163562E+04  0.00000000000E+00 0. -1.
         22    1    3    3    0    0 -0.32233305960E+02 -0.67690418379E+02 -0.72498604994E+02  0.10429298385E+03  0.00000000000E+00 0.  1.
         22    1    3    3    0    0  0.43786770165E+02  0.27911931233E+02 -0.15882966029E+02  0.54301250045E+02  0.00000000000E+00 0.  1.
</event>
<event>
 7    1  0.5676357E-006  0.1413822E+03  0.7818608E-02  0.1248315E+00
          2   -1    0    0  502    0  0.00000000000E+00  0.00000000000E+00  0.76395880384E+03  0.76395880384E+03  0.00000000000E+00 0. -1.
          1   -1    0    0  501    0 -0.00000000000E+00 -0.00000000000E+00 -0.24285671606E+03  0.24285671606E+03  0.00000000000E+00 0. -1.
         25    2    1    2    0    0  0.13749572459E+03 -0.15716603396E+03  0.10625477787E+03  0.26555502872E+03  0.12499263556E+03 0.  0.
          2    1    1    2  501    0 -0.16701943082E+02  0.95188784135E+02 -0.13995941448E+03  0.17008379473E+03  0.00000000000E+00 0. -1.
          1    1    1    2  502    0 -0.12079378151E+03  0.61977249821E+02  0.55480672439E+03  0.57117669646E+03  0.00000000000E+00 0. -1.
         22    1    3    3    0    0 -0.33342711924E+01 -0.72992126667E+02  0.60758908191E+01  0.73320422592E+02  0.00000000000E+00 0.  1.
         22    1    3    3    0    0  0.14082999578E+03 -0.84173907289E+02  0.10017888705E+03  0.19223460613E+03  0.00000000000E+00 0.  1.
</event>
<event>
 7    1  0.5676357E-006  0.1337545E+03  0.7818608E-02  0.1308155E+00
          2   -1    0    0  502    0  0.00000000000E+00  0.00000000000E+00  0.68739477203E+03  0.68739477203E+03  0.00000000000E+00 0. -1.
          1   -1    0    0  501    0 -0.00000000000E+00 -0.00000000000E+00 -0.19615612822E+04  0.19615612822E+04  0.00000000000E+00 0. -1.
         25    2    1    2    0    0  0.10269667504E+03  0.57004062648E+02  0.19010934686E+03  0.25605000786E+03  0.12499589007E+03 0.  0.
          2    1    1    2  501    0 -0.13377941039E+03 -0.83990473822E+01 -0.19244584360E+04  0.19291209777E+04  0.00000000000E+00 0. -1.
          1    1    1    2  502    0  0.31082735347E+02 -0.48605015266E+02  0.46018257897E+03  0.46378506869E+03  0.00000000000E+00 0. -1.
         22    1    3    3    0    0 -0.19436349884E+02  0.19035107550E+02  0.34378550276E+00  0.27207080047E+02  0.00000000000E+00 0.  1.
         22    1    3    3    0    0  0.12213302493E+03  0.37968955098E+02  0.18976556136E+03  0.22884292781E+03  0.00000000000E+00 0.  1.
</event>
<event>
 7    1  0.5676357E-006  0.1252632E+03  0.7818608E-02  0.1248645E+00
          2   -1    0    0  502    0  0.00000000000E+00  0.00000000000E+00  0.14647495027E+04  0.14647495027E+04  0.00000000000E+00 0. -1.
          1   -1    0    0  501    0 -0.00000000000E+00 -0.00000000000E+00 -0.26388017343E+03  0.26388017343E+03  0.00000000000E+00 0. -1.
         25    2    1    2    0    0  0.61413779223E+02  0.15137809163E+03  0.20846898700E+03  0.29286739764E+03  0.12500006063E+03 0.  0.
          2    1    1    2  501    0  0.42055646414E+02 -0.11800323487E+03 -0.20131298148E+03  0.23710832408E+03  0.00000000000E+00 0. -1.
          1    1    1    2  502    0 -0.10346942564E+03 -0.33374856760E+02  0.11937133237E+04  0.11986539544E+04  0.00000000000E+00 0. -1.
         22    1    3    3    0    0  0.45454231381E+02  0.57631004964E+02  0.11702416381E+02  0.74326081780E+02  0.00000000000E+00 0.  1.
         22    1    3    3    0    0  0.15959547842E+02  0.93747086669E+02  0.19676657062E+03  0.21854131586E+03  0.00000000000E+00 0.  1.
</event>
<event>
 7    1  0.5769548E-006  0.5268448E+02  0.7818608E-02  0.1438007E+00
          2   -1    0    0  502    0  0.00000000000E+00  0.00000000000E+00  0.30687675081E+04  0.30687675081E+04  0.00000000000E+00 0. -1.
          1   -1    0    0  501    0 -0.00000000000E+00 -0.00000000000E+00 -0.11014128574E+04  0.11014128574E+04  0.00000000000E+00 0. -1.
         25    2    1    2    0    0  0.95254889539E+02 -0.15044114470E+02 -0.17657173246E+03  0.23685931739E+03  0.12499976068E+03 0.  0.
          2    1    1    2  501    0 -0.49067391412E+02 -0.10213366834E+02 -0.89376720928E+03  0.89517135016E+03  0.00000000000E+00 0. -1.
          1    1    1    2  502    0 -0.46187498126E+02  0.25257481304E+02  0.30376935924E+04  0.30381496979E+04  0.00000000000E+00 0. -1.
         22    1    3    3    0    0  0.14840195380E+02 -0.19377299244E+02  0.15276860921E+02  0.28793985561E+02  0.00000000000E+00 0. -1.
         22    1    3    3    0    0  0.80414694159E+02  0.43331847735E+01 -0.19184859339E+03  0.20806533183E+03  0.00000000000E+00 0. -1.
</event>
<event>
 7    1  0.5676357E-006  0.1231090E+03  0.7818608E-02  0.1377420E+00
          2   -1    0    0  502    0  0.00000000000E+00  0.00000000000E+00  0.21557711902E+04  0.21557711902E+04  0.00000000000E+00 0. -1.
          1   -1    0    0  501    0 -0.00000000000E+00 -0.00000000000E+00 -0.22263089846E+02  0.22263089846E+02  0.00000000000E+00 0. -1.
         25    2    1    2    0    0  0.13596516343E+02  0.10877031700E+03  0.71837164676E+03  0.73735278836E+03  0.12496185226E+03 0.  0.
          2    1    1    2  501    0  0.13833641016E+02 -0.12965271165E+03  0.32754093975E+03  0.35253973176E+03  0.00000000000E+00 0. -1.
          1    1    1    2  502    0 -0.27430157358E+02  0.20882394648E+02  0.10875955138E+04  0.10881417599E+04  0.00000000000E+00 0. -1.
         22    1    3    3    0    0  0.33839999756E+02  0.12943985517E+00  0.53110635514E+02  0.62975407445E+02  0.00000000000E+00 0.  1.
         22    1    3    3    0    0 -0.20243483414E+02  0.10864087715E+03  0.66526101125E+03  0.67437738092E+03  0.00000000000E+00 0.  1.
</event>
<event>
 7    1  0.5676357E-006  0.4066824E+02  0.7818608E-02  0.1504960E+00
          2   -1    0    0  502    0  0.00000000000E+00  0.00000000000E+00  0.43045463816E+03  0.43045463816E+03  0.00000000000E+00 0. -1.
          1   -1    0    0  501    0 -0.00000000000E+00 -0.00000000000E+00 -0.14364464860E+04  0.14364464860E+04  0.00000000000E+00 0. -1.
         25    2    1    2    0    0 -0.12398825863E+02  0.48403517509E+02 -0.25159233111E+03  0.28534301251E+03  0.12500120930E+03 0.  0.
          2    1    1    2  501    0  0.36935858766E+02 -0.15927194569E+02 -0.11666298790E+04  0.11673230949E+04  0.00000000000E+00 0. -1.
          1    1    1    2  502    0 -0.24537032903E+02 -0.32476322940E+02  0.41223036229E+03  0.41423501678E+03  0.00000000000E+00 0. -1.
         22    1    3    3    0    0 -0.66015100162E+02  0.20254625519E+02 -0.94960558108E+02  0.11741273739E+03  0.00000000000E+00 0.  1.
         22    1    3    3    0    0  0.53616274299E+02  0.28148891990E+02 -0.15663177300E+03  0.16793027512E+03  0.00000000000E+00 0.  1.
</event>
<event>
 7    1  0.5676357E-006  0.7254866E+02  0.7818608E-02  0.1437503E+00
          2   -1    0    0  502    0  0.00000000000E+00  0.00000000000E+00  0.42929217711E+03  0.42929217711E+03  0.00000000000E+00 0. -1.
          1   -1    0    0  501    0 -0.00000000000E+00 -0.00000000000E+00 -0.18375186725E+04  0.18375186725E+04  0.00000000000E+00 0. -1.
         25    2    1    2    0    0  0.27374468166E+02 -0.37471313992E+02 -0.96371707677E+03  0.97289744172E+03  0.12500146868E+03 0.  0.
          2    1    1    2  501    0  0.36431352290E+02  0.27382699069E+01 -0.86571669031E+03  0.86648723558E+03  0.00000000000E+00 0. -1.
          1    1    1    2  502    0 -0.63805820456E+02  0.34733044085E+02  0.42120727167E+03  0.42742617232E+03  0.00000000000E+00 0. -1.
         22    1    3    3    0    0 -0.28459812282E+01  0.21516031215E+02 -0.72005800269E+03  0.72038501265E+03  0.00000000000E+00 0.  1.
         22    1    3    3    0    0  0.30220449395E+02 -0.58987345207E+02 -0.24365907407E+03  0.25251242907E+03  0.00000000000E+00 0.  1.
</event>
<event>
 7    1  0.5676357E-006  0.3396529E+02  0.7818608E-02  0.1632121E+00
          2   -1    0    0  502    0  0.00000000000E+00  0.00000000000E+00  0.14637410823E+03  0.14637410823E+03  0.00000000000E+00 0. -1.
          1   -1    0    0  501    0 -0.00000000000E+00 -0.00000000000E+00 -0.34620164012E+04  0.34620164012E+04  0.00000000000E+00 0. -1.
         25    2    1    2    0    0  0.20188430481E+02  0.61196560690E+01 -0.11213769477E+04  0.11285228116E+04  0.12502981447E+03 0.  0.
          2    1    1    2  501    0 -0.20562663402E+02 -0.27792491854E+02 -0.23361153187E+04  0.23363711238E+04  0.00000000000E+00 0. -1.
          1    1    1    2  502    0  0.37423292034E+00  0.21672835785E+02  0.14184997334E+03  0.14349657417E+03  0.00000000000E+00 0. -1.
         22    1    3    3    0    0  0.13152618476E+02 -0.15327190321E+02 -0.10882482435E+04  0.10884356451E+04  0.00000000000E+00 0.  1.
         22    1    3    3    0    0  0.70358120056E+01  0.21446846390E+02 -0.33128704176E+02  0.40087166413E+02  0.00000000000E+00 0.  1.
</event>
<event>
 7    1  0.5676357E-006  0.4197383E+02  0.7818608E-02  0.1552891E+00
          2   -1    0    0  502    0  0.00000000000E+00  0.00000000000E+00  0.16591139448E+03  0.16591139448E+03  0.00000000000E+00 0. -1.
          1   -1    0    0  501    0 -0.00000000000E+00 -0.00000000000E+00 -0.95598803363E+03  0.95598803363E+03  0.00000000000E+00 0. -1.
         25    2    1    2    0    0  0.26703967845E+02 -0.21630031907E+02  0.12321745346E+03  0.17884906562E+03  0.12499394888E+03 0.  0.
          2    1    1    2  501    0 -0.41962809158E+02 -0.23134991099E+01 -0.91368924707E+03  0.91465527378E+03  0.00000000000E+00 0. -1.
          1    1    1    2  502    0  0.15258841313E+02  0.23943531017E+02  0.39515446110E+00  0.28395088709E+02  0.00000000000E+00 0. -1.
         22    1    3    3    0    0  0.29852544184E+02 -0.61073522234E+01 -0.18896905190E+02  0.35854806808E+02  0.00000000000E+00 0.  1.
         22    1    3    3    0    0 -0.31485763393E+01 -0.15522679684E+02  0.14211435865E+03  0.14299425881E+03  0.00000000000E+00 0.  1.
</event>
<event>
 7    1  0.5676357E-006  0.1513598E+03  0.7818608E-02  0.1367519E+00
          2   -1    0    0  502    0  0.00000000000E+00  0.00000000000E+00  0.16586081485E+04  0.16586081485E+04  0.00000000000E+00 0. -1.
          1   -1    0    0  501    0 -0.00000000000E+00 -0.00000000000E+00 -0.47199920689E+02  0.47199920689E+02  0.00000000000E+00 0. -1.
         25    2    1    2    0    0  0.12249704689E+02  0.14446770618E+03  0.33099469276E+03  0.38236809643E+03  0.12500760433E+03 0.  0.
          2    1    1    2  501    0  0.15496966184E+02 -0.15695112110E+03  0.27088118944E+03  0.31344924496E+03  0.00000000000E+00 0. -1.
          1    1    1    2  502    0 -0.27746670873E+02  0.12483414923E+02  0.10095323456E+04  0.10099907278E+04  0.00000000000E+00 0. -1.
         22    1    3    3    0    0 -0.41835348936E+02  0.98043886281E+02  0.12440022655E+03  0.16382373584E+03  0.00000000000E+00 0.  1.
         22    1    3    3    0    0  0.54085053624E+02  0.46423819900E+02  0.20659446621E+03  0.21854436059E+03  0.00000000000E+00 0.  1.
</event>
<event>
 7    1  0.5676357E-006  0.3207050E+02  0.7818608E-02  0.1604223E+00
          2   -1    0    0  502    0  0.00000000000E+00  0.00000000000E+00  0.48950241449E+02  0.48950241449E+02  0.00000000000E+00 0. -1.
          1   -1    0    0  501    0 -0.00000000000E+00 -0.00000000000E+00 -0.16794057826E+04  0.16794057826E+04  0.00000000000E+00 0. -1.
         25    2    1    2    0    0 -0.27073107088E+01  0.46703952109E+01 -0.83426811427E+03  0.84359821395E+03  0.12500207182E+03 0.  0.
          2    1    1    2  501    0 -0.19668066623E+02  0.18567609869E+02 -0.83434947347E+03  0.83478777714E+03  0.00000000000E+00 0. -1.
          1    1    1    2  502    0  0.22375377332E+02 -0.23238005080E+02  0.38162046612E+02  0.49970032944E+02  0.00000000000E+00 0. -1.
         22    1    3    3    0    0  0.54263049982E+02  0.67497319256E+01 -0.60028560810E+03  0.60277097539E+03  0.00000000000E+00 0. -1.
         22    1    3    3    0    0 -0.56970360690E+02 -0.20793367147E+01 -0.23398250617E+03  0.24082723856E+03  0.00000000000E+00 0. -1.
</event>
<event>
 7    1  0.5676357E-006  0.7884148E+02  0.7818608E-02  0.1446003E+00
          2   -1    0    0  502    0  0.00000000000E+00  0.00000000000E+00  0.79883831778E+02  0.79883831778E+02  0.00000000000E+00 0. -1.
          1   -1    0    0  501    0 -0.00000000000E+00 -0.00000000000E+00 -0.13859702758E+04  0.13859702758E+04  0.00000000000E+00 0. -1.
         25    2    1    2    0    0  0.51579737156E+02  0.65145271118E+02 -0.27197990626E+03  0.31064911593E+03  0.12500171273E+03 0.  0.
          2    1    1    2  501    0 -0.21898890907E+02 -0.75855542102E+02 -0.10890162783E+04  0.10918745712E+04  0.00000000000E+00 0. -1.
          1    1    1    2  502    0 -0.29680846249E+02  0.10710270984E+02  0.54909740613E+02  0.63330420437E+02  0.00000000000E+00 0. -1.
         22    1    3    3    0    0 -0.70263561700E+01  0.64377699667E+02 -0.22896566001E+03  0.23794774922E+03  0.00000000000E+00 0. -1.
         22    1    3    3    0    0  0.58606093326E+02  0.76757145098E+00 -0.43014246246E+02  0.72701366706E+02  0.00000000000E+00 0. -1.
</event>
<event>
 7    1  0.5676357E-006  0.1466551E+03  0.7818608E-02  0.1379530E+00
          2   -1    0    0  502    0  0.00000000000E+00  0.00000000000E+00  0.11197758326E+04  0.11197758326E+04  0.00000000000E+00 0. -1.
          1   -1    0    0  501    0 -0.00000000000E+00 -0.00000000000E+00 -0.89185852164E+03  0.89185852164E+03  0.00000000000E+00 0. -1.
         25    2    1    2    0    0 -0.13062558049E+03  0.46393097821E+01  0.44900246605E+03  0.48405760470E+03  0.12499593865E+03 0.  0.
          2    1    1    2  501    0  0.14382886290E+03 -0.29833905546E+02 -0.86784663006E+03  0.88019008005E+03  0.00000000000E+00 0. -1.
          1    1    1    2  502    0 -0.13203282407E+02  0.25194595764E+02  0.64676147497E+03  0.64738666949E+03  0.00000000000E+00 0. -1.
         22    1    3    3    0    0 -0.66687718944E+02 -0.45597645953E+02  0.33124527826E+03  0.34095429539E+03  0.00000000000E+00 0.  1.
         22    1    3    3    0    0 -0.63937861547E+02  0.50236955735E+02  0.11775718779E+03  0.14310330931E+03  0.00000000000E+00 0.  1.
</event>
<event>
 7    1  0.5676357E-006  0.9473388E+02  0.7818608E-02  0.1379227E+00
          2   -1    0    0  502    0  0.00000000000E+00  0.00000000000E+00  0.99553127277E+03  0.99553127277E+03  0.00000000000E+00 0. -1.
          1   -1    0    0  501    0 -0.00000000000E+00 -0.00000000000E+00 -0.18278898131E+03  0.18278898131E+03  0.00000000000E+00 0. -1.
         25    2    1    2    0    0 -0.91726052355E+02 -0.70187080469E+02  0.12560225093E+03  0.21151993469E+03  0.12499944954E+03 0.  0.
          2    1    1    2  501    0  0.42980211634E+02 -0.10066477703E+02 -0.13360132685E+03  0.14070517795E+03  0.00000000000E+00 0. -1.
          1    1    1    2  502    0  0.48745840722E+02  0.80253558172E+02  0.82074136738E+03  0.82609514145E+03  0.00000000000E+00 0. -1.
         22    1    3    3    0    0 -0.10959367461E+03 -0.36911428938E+02  0.47988847285E+02  0.12520445904E+03  0.00000000000E+00 0. -1.
         22    1    3    3    0    0  0.17867622254E+02 -0.33275651531E+02  0.77613403646E+02  0.86315475642E+02  0.00000000000E+00 0. -1.
</event>
<event>
 7    1  0.5676357E-006  0.2609546E+03  0.7818608E-02  0.1160436E+00
          2   -1    0    0  502    0  0.00000000000E+00  0.00000000000E+00  0.13563671091E+04  0.13563671091E+04  0.00000000000E+00 0. -1.
          1   -1    0    0  501    0 -0.00000000000E+00 -0.00000000000E+00 -0.16178761710E+03  0.16178761710E+03  0.00000000000E+00 0. -1.
         25    2    1    2    0    0  0.73736805635E+02  0.26637732219E+03  0.32679699886E+03  0.44588735568E+03  0.12500104485E+03 0.  0.
          2    1    1    2  501    0 -0.18486344426E+03 -0.18938583558E+03  0.85106128474E+02  0.27800097274E+03  0.00000000000E+00 0. -1.
          1    1    1    2  502    0  0.11112663862E+03 -0.76991486603E+02  0.78267636467E+03  0.79426639777E+03  0.00000000000E+00 0. -1.
         22    1    3    3    0    0  0.25241868268E+02  0.14695110187E+03  0.84357172274E+02  0.17131231937E+03  0.00000000000E+00 0. -1.
         22    1    3    3    0    0  0.48494937367E+02  0.11942622032E+03  0.24243982658E+03  0.27457503631E+03  0.00000000000E+00 0. -1.
</event>
<event>
 7    1  0.5676357E-006  0.5815665E+02  0.7818608E-02  0.1472174E+00
          2   -1    0    0  502    0  0.00000000000E+00  0.00000000000E+00  0.62025573972E+02  0.62025573972E+02  0.00000000000E+00 0. -1.
          1   -1    0    0  501    0 -0.00000000000E+00 -0.00000000000E+00 -0.11274644969E+04  0.11274644969E+04  0.00000000000E+00 0. -1.
         25    2    1    2    0    0  0.26845579892E+02  0.63599028408E+02 -0.12889902344E+03  0.19236590703E+03  0.12499664943E+03 0.  0.
          2    1    1    2  501    0 -0.34766575632E+02 -0.64620488261E+01 -0.93873325515E+03  0.93939906174E+03  0.00000000000E+00 0. -1.
          1    1    1    2  502    0  0.79209957400E+01 -0.57136979582E+02  0.21933556270E+01  0.57725102149E+02  0.00000000000E+00 0. -1.
         22    1    3    3    0    0 -0.37932086229E+02  0.44454556153E+02 -0.15642276803E+02  0.60495715154E+02  0.00000000000E+00 0.  1.
         22    1    3    3    0    0  0.64777666121E+02  0.19144472255E+02 -0.11325674664E+03  0.13187019188E+03  0.00000000000E+00 0.  1.
</event>
<event>
 7    1  0.5676357E-006  0.1989433E+03  0.7818608E-02  0.1304144E+00
          2   -1    0    0  502    0  0.00000000000E+00  0.00000000000E+00  0.22638620676E+04  0.22638620676E+04  0.00000000000E+00 0. -1.
          1   -1    0    0  501    0 -0.00000000000E+00 -0.00000000000E+00 -0.22652186950E+03  0.22652186950E+03  0.00000000000E+00 0. -1.
         25    2    1    2    0    0 -0.98431462296E+02 -0.15258417235E+03  0.45930418927E+03  0.50946116199E+03  0.12497861765E+03 0.  0.
          2    1    1    2  501    0  0.19697398591E+02 -0.35084518452E+02 -0.19354871697E+03  0.19768666315E+03  0.00000000000E+00 0. -1.
          1    1    1    2  502    0  0.78734063705E+02  0.18766869080E+03  0.17715847259E+04  0.17832361120E+04  0.00000000000E+00 0. -1.
         22    1    3    3    0    0 -0.11071510620E+02  0.16178365040E+02  0.11072716216E+03  0.11244919867E+03  0.00000000000E+00 0. -1.
         22    1    3    3    0    0 -0.87359951677E+02 -0.16876253739E+03  0.34857702711E+03  0.39701196331E+03  0.00000000000E+00 0. -1.
</event>
<event>
 7    1  0.5676357E-006  0.5129163E+02  0.7818608E-02  0.1502257E+00
          2   -1    0    0  502    0  0.00000000000E+00  0.00000000000E+00  0.28468803471E+03  0.28468803471E+03  0.00000000000E+00 0. -1.
          1   -1    0    0  501    0 -0.00000000000E+00 -0.00000000000E+00 -0.11774564050E+04  0.11774564050E+04  0.00000000000E+00 0. -1.
         25    2    1    2    0    0 -0.59257153955E+02  0.56617002943E+02 -0.17122440618E+03  0.22728672644E+03  0.12499825370E+03 0.  0.
          2    1    1    2  501    0  0.31678832595E+02 -0.39445199634E+02 -0.97651533169E+03  0.97782496656E+03  0.00000000000E+00 0. -1.
          1    1    1    2  502    0  0.27578321360E+02 -0.17171803310E+02  0.25497136753E+03  0.25703274674E+03  0.00000000000E+00 0. -1.
         22    1    3    3    0    0 -0.86022142056E+02  0.99460361720E+01 -0.14129919133E+03  0.16572324530E+03  0.00000000000E+00 0. -1.
         22    1    3    3    0    0  0.26764988101E+02  0.46670966771E+02 -0.29925214842E+02  0.61563481146E+02  0.00000000000E+00 0. -1.
</event>
<event>
 7    1  0.5676357E-006  0.7540998E+02  0.7818608E-02  0.1397350E+00
          2   -1    0    0  502    0  0.00000000000E+00  0.00000000000E+00  0.22339625276E+04  0.22339625276E+04  0.00000000000E+00 0. -1.
          1   -1    0    0  501    0 -0.00000000000E+00 -0.00000000000E+00 -0.33978648236E+03  0.33978648236E+03  0.00000000000E+00 0. -1.
         25    2    1    2    0    0 -0.23841296429E+02 -0.34182636040E+02  0.85688245368E+02  0.15717558833E+03  0.12499932060E+03 0.  0.
          2    1    1    2  501    0  0.23186217974E+01  0.76999602374E+02 -0.29888652620E+03  0.30865428932E+03  0.00000000000E+00 0. -1.
          1    1    1    2  502    0  0.21522674632E+02 -0.42816966334E+02  0.21073743261E+04  0.21079191323E+04  0.00000000000E+00 0. -1.
         22    1    3    3    0    0 -0.35508305844E+02 -0.34693205245E+02  0.11519784364E+03  0.12543923410E+03  0.00000000000E+00 0. -1.
         22    1    3    3    0    0  0.11667009415E+02  0.51056920445E+00 -0.29509598268E+02  0.31736354226E+02  0.00000000000E+00 0. -1.
</event>
<event>
 7    1  0.5676357E-006  0.1712177E+03  0.7818608E-02  0.1258895E+00
          2   -1    0    0  502    0  0.00000000000E+00  0.00000000000E+00  0.15157108420E+04  0.15157108420E+04  0.00000000000E+00 0. -1.
          1   -1    0    0  501    0 -0.00000000000E+00 -0.00000000000E+00 -0.26287983703E+04  0.26287983703E+04  0.00000000000E+00 0. -1.
         25    2    1    2    0    0 -0.23362831706E+03 -0.23059612181E+02  0.47939046443E+03  0.54822893585E+03  0.12500324984E+03 0.  0.
          2    1    1    2  501    0  0.17051499484E+03 -0.11265855529E+02 -0.25902721746E+04  0.25959029684E+04  0.00000000000E+00 0. -1.
          1    1    1    2  502    0  0.63113322216E+02  0.34325467710E+02  0.99779418181E+03  0.10003773080E+04  0.00000000000E+00 0. -1.
         22    1    3    3    0    0 -0.23873288882E+02 -0.15279059185E+02  0.18218236649E+03  0.18437407147E+03  0.00000000000E+00 0. -1.
         22    1    3    3    0    0 -0.20975502817E+03 -0.77805529952E+01  0.29720809795E+03  0.36385486438E+03  0.00000000000E+00 0. -1.
</event>
<event>
 7    1  0.5676357E-006  0.1407034E+03  0.7818608E-02  0.1379703E+00
          2   -1    0    0  502    0  0.00000000000E+00  0.00000000000E+00  0.18409596333E+04  0.18409596333E+04  0.00000000000E+00 0. -1.
          1   -1    0    0  501    0 -0.00000000000E+00 -0.00000000000E+00 -0.10410565067E+04  0.10410565067E+04  0.00000000000E+00 0. -1.
         25    2    1    2    0    0  0.12037865265E+03  0.69906689236E+02 -0.93221279786E+03  0.95080161242E+03  0.12500016183E+03 0.  0.
          2    1    1    2  501    0 -0.14337621699E+03 -0.51261964731E+02 -0.41129640032E+02  0.15772183082E+03  0.00000000000E+00 0. -1.
          1    1    1    2  502    0  0.22997564343E+02 -0.18644724505E+02  0.17732455645E+04  0.17734926968E+04  0.00000000000E+00 0. -1.
         22    1    3    3    0    0  0.14386954607E+03  0.58516005967E+02 -0.69425052898E+03  0.71141153085E+03  0.00000000000E+00 0.  1.
         22    1    3    3    0    0 -0.23490893415E+02  0.11390683269E+02 -0.23796226888E+03  0.23939008156E+03  0.00000000000E+00 0.  1.
</event>
<event>
 7    1  0.5676357E-006  0.3453670E+02  0.7818608E-02  0.1564769E+00
          2   -1    0    0  502    0  0.00000000000E+00  0.00000000000E+00  0.61301853434E+03  0.61301853434E+03  0.00000000000E+00 0. -1.
          1   -1    0    0  501    0 -0.00000000000E+00 -0.00000000000E+00 -0.78176041870E+03  0.78176041870E+03  0.00000000000E+00 0. -1.
         25    2    1    2    0    0 -0.10850048444E+02 -0.63812327788E+02  0.85432717615E+02  0.16465468750E+03  0.12499072025E+03 0.  0.
          2    1    1    2  501    0 -0.17570948853E+01  0.34400220541E+02 -0.74122442598E+03  0.74202433399E+03  0.00000000000E+00 0. -1.
          1    1    1    2  502    0  0.12607143330E+02  0.29412107247E+02  0.48704982401E+03  0.48809993155E+03  0.00000000000E+00 0. -1.
         22    1    3    3    0    0  0.41854143273E+02  0.11098526554E+02  0.65859316391E+01  0.43798642631E+02  0.00000000000E+00 0.  1.
         22    1    3    3    0    0 -0.52704191717E+02 -0.74910854342E+02  0.78846785975E+02  0.12085604487E+03  0.00000000000E+00 0.  1.
</event>
<event>
 7    1  0.6292631E-006  0.1163430E+03  0.7818608E-02  0.1309620E+00
          2   -1    0    0  502    0  0.00000000000E+00  0.00000000000E+00  0.77352869062E+03  0.77352869062E+03  0.00000000000E+00 0. -1.
          1   -1    0    0  501    0 -0.00000000000E+00 -0.00000000000E+00 -0.11455021653E+04  0.11455021653E+04  0.00000000000E+00 0. -1.
         25    2    1    2    0    0  0.12601946261E+03  0.28701036325E+02 -0.27504897399E+03  0.32860644541E+03  0.12500241369E+03 0.  0.
          2    1    1    2  501    0 -0.85139762321E+02 -0.79814745852E+02 -0.83818993347E+03  0.84627509555E+03  0.00000000000E+00 0. -1.
          1    1    1    2  502    0 -0.40879700290E+02  0.51113709527E+02  0.74126543276E+03  0.74414931499E+03  0.00000000000E+00 0. -1.
         22    1    3    3    0    0  0.12640835770E+03  0.64619222539E+02 -0.19843765861E+03  0.24399225638E+03  0.00000000000E+00 0. -1.
         22    1    3    3    0    0 -0.38889509331E+00 -0.35918186214E+02 -0.76611315382E+02  0.84614189028E+02  0.00000000000E+00 0. -1.
</event>
<event>
 7    1  0.5676357E-006  0.5891501E+02  0.7818608E-02  0.1506148E+00
          2   -1    0    0  502    0  0.00000000000E+00  0.00000000000E+00  0.12445435646E+04  0.12445435646E+04  0.00000000000E+00 0. -1.
          1   -1    0    0  501    0 -0.00000000000E+00 -0.00000000000E+00 -0.10191818597E+03  0.10191818597E+03  0.00000000000E+00 0. -1.
         25    2    1    2    0    0 -0.33861699705E+02 -0.20868929532E+02  0.41161653639E+03  0.43201140475E+03  0.12499421536E+03 0.  0.
          2    1    1    2  501    0  0.58732332110E+02  0.90368465074E+01 -0.81838248559E+02  0.10113679032E+03  0.00000000000E+00 0. -1.
          1    1    1    2  502    0 -0.24870632405E+02  0.11832083025E+02  0.81284709083E+03  0.81331355553E+03  0.00000000000E+00 0. -1.
         22    1    3    3    0    0 -0.21360700268E+01 -0.23184097128E+02  0.45734273092E+01  0.23727228918E+02  0.00000000000E+00 0. -1.
         22    1    3    3    0    0 -0.31725629678E+02  0.23151675957E+01  0.40704310908E+03  0.40828417583E+03  0.00000000000E+00 0. -1.
</event>
<event>
 7    1  0.7745235E-006  0.8122559E+02  0.7818608E-02  0.1352279E+00
          2   -1    0    0  502    0  0.00000000000E+00  0.00000000000E+00  0.13191991668E+04  0.13191991668E+04  0.00000000000E+00 0. -1.
          1   -1    0    0  501    0 -0.00000000000E+00 -0.00000000000E+00 -0.45238125013E+03  0.45238125013E+03  0.00000000000E+00 0. -1.
         25    2    1    2    0    0  0.28255925014E+02 -0.37195493590E+02 -0.12638708474E+03  0.18379285262E+03  0.12499686174E+03 0.  0.
          2    1    1    2  501    0  0.52377664307E+01  0.92252601988E+02 -0.28928281001E+03  0.30368161113E+03  0.00000000000E+00 0. -1.
          1    1    1    2  502    0 -0.33493691444E+02 -0.55057108398E+02  0.12824878114E+04  0.12841059532E+04  0.00000000000E+00 0. -1.
         22    1    3    3    0    0  0.21490111993E+02 -0.46593265186E+02  0.53129270218E+01  0.51584730955E+02  0.00000000000E+00 0.  1.
         22    1    3    3    0    0  0.67658130207E+01  0.93977715957E+01 -0.13170001176E+03  0.13220812167E+03  0.00000000000E+00 0.  1.
</event>
<event>
 7    1  0.5676357E-006  0.3159678E+02  0.7818608E-02  0.1581300E+00
          2   -1    0    0  502    0  0.00000000000E+00  0.00000000000E+00  0.56152677069E+03  0.56152677069E+03  0.00000000000E+00 0. -1.
          1   -1    0    0  501    0 -0.00000000000E+00 -0.00000000000E+00 -0.70225563348E+03  0.70225563348E+03  0.00000000000E+00 0. -1.
         25    2    1    2    0    0  0.45091583742E+02 -0.16888082880E+02 -0.19530031977E+03  0.23682349335E+03  0.12499877532E+03 0.  0.
          2    1    1    2  501    0 -0.15363757282E+02  0.27561174257E+02 -0.48521960899E+03  0.48624451906E+03  0.00000000000E+00 0. -1.
          1    1    1    2  502    0 -0.29727826460E+02 -0.10673091377E+02  0.53979106597E+03  0.54071439176E+03  0.00000000000E+00 0. -1.
         22    1    3    3    0    0 -0.71687301256E+01 -0.49213500716E+02 -0.15634993182E+03  0.16406907242E+03  0.00000000000E+00 0. -1.
         22    1    3    3    0    0  0.52260313868E+02  0.32325417836E+02 -0.38950387956E+02  0.72754420936E+02  0.00000000000E+00 0. -1.
</event>
<event>
 7    1  0.5676357E-006  0.9862466E+02  0.7818608E-02  0.1312771E+00
          2   -1    0    0  502    0  0.00000000000E+00  0.00000000000E+00  0.44614371505E+03  0.44614371505E+03  0.00000000000E+00 0. -1.
          1   -1    0    0  501    0 -0.00000000000E+00 -0.00000000000E+00 -0.47805167655E+03  0.47805167655E+03  0.00000000000E+00 0. -1.
         25    2    1    2    0    0  0.69546987231E+02 -0.94897590580E+02 -0.27756839026E+02  0.17387656507E+03  0.12498112513E+03 0.  0.
          2    1    1    2  501    0 -0.95982493653E+02  0.24671754763E+02 -0.36681862190E+03  0.37997004611E+03  0.00000000000E+00 0. -1.
          1    1    1    2  502    0  0.26435506423E+02  0.70225835817E+02  0.36266749942E+03  0.37034878041E+03  0.00000000000E+00 0. -1.
         22    1    3    3    0    0  0.82755263540E+02 -0.11851794235E+03 -0.24627448895E+02  0.14663371898E+03  0.00000000000E+00 0.  1.
         22    1    3    3    0    0 -0.13208276309E+02  0.23620351770E+02 -0.31293901315E+01  0.27242846095E+02  0.00000000000E+00 0.  1.
</event>
<event>
 7    1  0.5676357E-006  0.6417632E+02  0.7818608E-02  0.1455313E+00
          2   -1    0    0  502    0  0.00000000000E+00  0.00000000000E+00  0.20775079373E+03  0.20775079373E+03  0.00000000000E+00 0. -1.
          1   -1    0    0  501    0 -0.00000000000E+00 -0.00000000000E+00 -0.14581350238E+04  0.14581350238E+04  0.00000000000E+00 0. -1.
         25    2    1    2    0    0  0.30023903250E+02  0.20709983322E+02  0.12017317220E+03  0.17719423505E+03  0.12500346973E+03 0.  0.
          2    1    1    2  501    0 -0.30002491688E+02 -0.56907360733E+02 -0.14232832494E+04  0.14247363985E+04  0.00000000000E+00 0. -1.
          1    1    1    2  502    0 -0.21411561856E-01  0.36197377411E+02  0.52725847180E+02  0.63955183924E+02  0.00000000000E+00 0. -1.
         22    1    3    3    0    0 -0.15855612126E+02 -0.37072015828E+02  0.87814738117E+02  0.96628996808E+02  0.00000000000E+00 0.  1.
         22    1    3    3    0    0  0.45879515376E+02  0.57781999150E+02  0.32358434079E+02  0.80565238242E+02  0.00000000000E+00 0.  1.
</event>
<event>
 7    1  0.5676357E-006  0.1103183E+03  0.7818608E-02  0.1374842E+00
          2   -1    0    0  502    0  0.00000000000E+00  0.00000000000E+00  0.12163003855E+04  0.12163003855E+04  0.00000000000E+00 0. -1.
          1   -1    0    0  501    0 -0.00000000000E+00 -0.00000000000E+00 -0.30589043712E+03  0.30589043712E+03  0.00000000000E+00 0. -1.
         25    2    1    2    0    0 -0.25256953026E+02 -0.11582109969E+03  0.17842212860E+03  0.24801427762E+03  0.12499674044E+03 0.  0.
          2    1    1    2  501    0 -0.32519455592E+02  0.22056427283E+02 -0.26662691249E+03  0.26950679294E+03  0.00000000000E+00 0. -1.
          1    1    1    2  502    0  0.57776408617E+02  0.93764672407E+02  0.99861473228E+03  0.10046697521E+04  0.00000000000E+00 0. -1.
         22    1    3    3    0    0 -0.57669768598E+02 -0.12354502127E+03  0.15897838209E+03  0.20943567142E+03  0.00000000000E+00 0.  1.
         22    1    3    3    0    0  0.32412815572E+02  0.77239215829E+01  0.19443746508E+02  0.38578606198E+02  0.00000000000E+00 0.  1.
</event>
<event>
 7    1  0.5676357E-006  0.3199800E+02  0.7818608E-02  0.1601188E+00
          2   -1    0    0  502    0  0.00000000000E+00  0.00000000000E+00  0.11858283459E+04  0.11858283459E+04  0.00000000000E+00 0. -1.
          1   -1    0    0  501    0 -0.00000000000E+00 -0.00000000000E+00 -0.62400062733E+03  0.62400062733E+03  0.00000000000E+00 0. -1.
         25    2    1    2    0    0 -0.25568915995E+02  0.49721559899E+02  0.13225485797E+03  0.19037352240E+03  0.12499891036E+03 0.  0.
          2    1    1    2  501    0  0.47540435050E+01 -0.31586435957E+02 -0.59432636534E+03  0.59518411640E+03  0.00000000000E+00 0. -1.
          1    1    1    2  502    0  0.20814872490E+02 -0.18135123943E+02  0.10238992260E+04  0.10242713345E+04  0.00000000000E+00 0. -1.
         22    1    3    3    0    0 -0.15856947672E+02 -0.18758703034E+02 -0.14225464508E+02  0.28384777072E+02  0.00000000000E+00 0.  1.
         22    1    3    3    0    0 -0.97119683224E+01  0.68480262933E+02  0.14648032247E+03  0.16198874532E+03  0.00000000000E+00 0.  1.
</event>
<event>
 7    1  0.5676357E-006  0.1154948E+03  0.7818608E-02  0.1336193E+00
          2   -1    0    0  502    0  0.00000000000E+00  0.00000000000E+00  0.10433608958E+04  0.10433608958E+04  0.00000000000E+00 0. -1.
          1   -1    0    0  501    0 -0.00000000000E+00 -0.00000000000E+00 -0.40759932267E+02  0.40759932267E+02  0.00000000000E+00 0. -1.
         25    2    1    2    0    0  0.56218194686E+02  0.80206265875E+02  0.47815246462E+03  0.50383380929E+03  0.12500078984E+03 0.  0.
          2    1    1    2  501    0 -0.25373438251E+02  0.45450032709E+02  0.14293176328E+02  0.53979734452E+02  0.00000000000E+00 0. -1.
          1    1    1    2  502    0 -0.30844756435E+02 -0.12565629858E+03  0.51015532257E+03  0.52630728431E+03  0.00000000000E+00 0. -1.
         22    1    3    3    0    0  0.30185763754E+02  0.29316145269E+02  0.42066422006E+03  0.42276353053E+03  0.00000000000E+00 0. -1.
         22    1    3    3    0    0  0.26032430932E+02  0.50890120606E+02  0.57488244562E+02  0.81070278760E+02  0.00000000000E+00 0. -1.
</event>
<event>
 7    1  0.5676357E-006  0.5116762E+02  0.7818608E-02  0.1440400E+00
          2   -1    0    0  502    0  0.00000000000E+00  0.00000000000E+00  0.15121502192E+03  0.15121502192E+03  0.00000000000E+00 0. -1.
          1   -1    0    0  501    0 -0.00000000000E+00 -0.00000000000E+00 -0.22274773616E+04  0.22274773616E+04  0.00000000000E+00 0. -1.
         25    2    1    2    0    0  0.54592810122E+01  0.30395488588E+02 -0.11384069345E+03  0.17187248906E+03  0.12500703794E+03 0.  0.
          2    1    1    2  501    0  0.44976451507E+02 -0.25331401778E+02 -0.20790299926E+04  0.20796707123E+04  0.00000000000E+00 0. -1.
          1    1    1    2  502    0 -0.50435732519E+02 -0.50640868099E+01  0.11660834639E+03  0.12714918222E+03  0.00000000000E+00 0. -1.
         22    1    3    3    0    0 -0.22038075895E+02  0.73798026933E+02 -0.74574727546E+02  0.10720641565E+03  0.00000000000E+00 0. -1.
         22    1    3    3    0    0  0.27497356907E+02 -0.43402538345E+02 -0.39265965905E+02  0.64666073408E+02  0.00000000000E+00 0. -1.
</event>
<event>
 7    1  0.5676357E-006  0.6258916E+02  0.7818608E-02  0.1514953E+00
          2   -1    0    0  502    0  0.00000000000E+00  0.00000000000E+00  0.33875893238E+03  0.33875893238E+03  0.00000000000E+00 0. -1.
          1   -1    0    0  501    0 -0.00000000000E+00 -0.00000000000E+00 -0.58189908635E+02  0.58189908635E+02  0.00000000000E+00 0. -1.
         25    2    1    2    0    0 -0.20026437772E+02  0.63291664993E+02  0.97265595372E+02  0.17173453901E+03  0.12500105112E+03 0.  0.
          2    1    1    2  501    0  0.24410512830E+02 -0.81724424434E+00 -0.65587726136E+01  0.25289494320E+02  0.00000000000E+00 0. -1.
          1    1    1    2  502    0 -0.43840750576E+01 -0.62474420749E+02  0.18986220098E+03  0.19992480768E+03  0.00000000000E+00 0. -1.
         22    1    3    3    0    0 -0.44878880226E+00 -0.76005148570E+01  0.97890433302E+02  0.98186079306E+02  0.00000000000E+00 0.  1.
         22    1    3    3    0    0 -0.19577648970E+02  0.70892179850E+02 -0.62483793020E+00  0.73548459709E+02  0.00000000000E+00 0.  1.
</event>
<event>
 7    1  0.5676357E-006  0.6900766E+02  0.7818608E-02  0.1493702E+00
          2   -1    0    0  502    0  0.00000000000E+00  0.00000000000E+00  0.57931669820E+03  0.57931669820E+03  0.00000000000E+00 0. -1.
          1   -1    0    0  501    0 -0.00000000000E+00 -0.00000000000E+00 -0.19743829781E+04  0.19743829781E+04  0.00000000000E+00 0. -1.
         25    2    1    2    0    0  0.41312611990E+02 -0.24944109092E+02 -0.10283213804E+04  0.10370136623E+04  0.12499413595E+03 0.  0.
          2    1    1    2  501    0  0.24985584311E+02  0.56359003112E+01 -0.93946701938E+03  0.93981611142E+03  0.00000000000E+00 0. -1.
          1    1    1    2  502    0 -0.66298196301E+02  0.19308208781E+02  0.57272211991E+03  0.57686990249E+03  0.00000000000E+00 0. -1.
         22    1    3    3    0    0  0.55052270385E+02 -0.80544295235E+01 -0.17977214327E+03  0.18818514767E+03  0.00000000000E+00 0.  1.
         22    1    3    3    0    0 -0.13739658395E+02 -0.16889679568E+02 -0.84854923712E+03  0.84882851466E+03  0.00000000000E+00 0.  1.
</event>
<event>
 7    1  0.7415664E-006  0.8871871E+02  0.7818608E-02  0.1407153E+00
          2   -1    0    0  502    0  0.00000000000E+00  0.00000000000E+00  0.22204338618E+04  0.22204338618E+04  0.00000000000E+00 0. -1.
          1   -1    0    0  501    0 -0.00000000000E+00 -0.00000000000E+00 -0.14802243787E+04  0.14802243787E+04  0.00000000000E+00 0. -1.
         25    2    1    2    0    0 -0.70863431316E+02 -0.81005149727E+02 -0.28759846839E+03  0.33154211290E+03  0.12499533361E+03 0.  0.
          2    1    1    2  501    0  0.33163166234E+02  0.81194213733E+02 -0.11688493760E+04  0.11721352992E+04  0.00000000000E+00 0. -1.
          1    1    1    2  502    0  0.37700265082E+02 -0.18906400558E+00  0.21966573275E+04  0.21969808284E+04  0.00000000000E+00 0. -1.
         22    1    3    3    0    0 -0.67679816268E+02 -0.34910055113E+02 -0.53845459485E+02  0.93266301445E+02  0.00000000000E+00 0.  1.
         22    1    3    3    0    0 -0.31836150481E+01 -0.46095094615E+02 -0.23375300890E+03  0.23827581145E+03  0.00000000000E+00 0.  1.
</event>
<event>
 7    1  0.5676357E-006  0.1476464E+03  0.7818608E-02  0.1316596E+00
          2   -1    0    0  502    0  0.00000000000E+00  0.00000000000E+00  0.49451568342E+03  0.49451568342E+03  0.00000000000E+00 0. -1.
          1   -1    0    0  501    0 -0.00000000000E+00 -0.00000000000E+00 -0.14878514537E+04  0.14878514537E+04  0.00000000000E+00 0. -1.
         25    2    1    2    0    0  0.51061856153E+02  0.89997821247E+02 -0.39212710586E+02  0.16695952976E+03  0.12502370545E+03 0.  0.
          2    1    1    2  501    0 -0.61859708375E+02 -0.13720412067E+03 -0.13792974226E+04  0.13874844050E+04  0.00000000000E+00 0. -1.
          1    1    1    2  502    0  0.10797852222E+02  0.47206299426E+02  0.42517436284E+03  0.42792320238E+03  0.00000000000E+00 0. -1.
         22    1    3    3    0    0  0.77818523018E+02  0.61559689920E+02 -0.66390147456E+02  0.11938580161E+03  0.00000000000E+00 0. -1.
         22    1    3    3    0    0 -0.26756666866E+02  0.28438131326E+02  0.27177436870E+02  0.47573728148E+02  0.00000000000E+00 0. -1.
</event>
<event>
 7    1  0.5676357E-006  0.3851473E+02  0.7818608E-02  0.1539991E+00
          2   -1    0    0  502    0  0.00000000000E+00  0.00000000000E+00  0.44359658699E+02  0.44359658699E+02  0.00000000000E+00 0. -1.
          1   -1    0    0  501    0 -0.00000000000E+00 -0.00000000000E+00 -0.20526813704E+04  0.20526813704E+04  0.00000000000E+00 0. -1.
         25    2    1    2    0    0  0.10723946063E+02 -0.65540068916E+02 -0.16040354743E+03  0.21392662477E+03  0.12499919642E+03 0.  0.
          2    1    1    2  501    0  0.51340311999E+01  0.33234245048E+02 -0.18468029054E+04  0.18471090506E+04  0.00000000000E+00 0. -1.
          1    1    1    2  502    0 -0.15857977263E+02  0.32305823868E+02 -0.11152589020E+01  0.36005353783E+02  0.00000000000E+00 0. -1.
         22    1    3    3    0    0 -0.98091351620E+01 -0.80553686777E+01  0.19881630913E+02  0.23587864357E+02  0.00000000000E+00 0. -1.
         22    1    3    3    0    0  0.20533081225E+02 -0.57484700238E+02 -0.18028517834E+03  0.19033876041E+03  0.00000000000E+00 0. -1.
</event>
<event>
 7    1  0.5676357E-006  0.6985373E+02  0.7818608E-02  0.1415148E+00
          2   -1    0    0  502    0  0.00000000000E+00  0.00000000000E+00  0.32706572048E+03  0.32706572048E+03  0.00000000000E+00 0. -1.
          1   -1    0    0  501    0 -0.00000000000E+00 -0.00000000000E+00 -0.42323631100E+03  0.42323631100E+03  0.00000000000E+00 0. -1.
         25    2    1    2    0    0 -0.26672915954E+02 -0.19973922965E+02 -0.44365159078E+02  0.13675820290E+03  0.12499654665E+03 0.  0.
          2    1    1    2  501    0 -0.46539173743E+01 -0.44749993138E+02 -0.32650430167E+03  0.32958956270E+03  0.00000000000E+00 0. -1.
          1    1    1    2  502    0  0.31326833328E+02  0.64723916103E+02  0.27469887023E+03  0.28395426588E+03  0.00000000000E+00 0. -1.
         22    1    3    3    0    0 -0.33737002979E+02 -0.12489393014E+02 -0.86342763365E+02  0.93537388746E+02  0.00000000000E+00 0.  1.
         22    1    3    3    0    0  0.70640870252E+01 -0.74845299513E+01  0.41977604288E+02  0.43220814151E+02  0.00000000000E+00 0.  1.
</event>
<event>
 7    1  0.5676357E-006  0.1087397E+03  0.7818608E-02  0.1278579E+00
          2   -1    0    0  502    0  0.00000000000E+00  0.00000000000E+00  0.31347026346E+04  0.31347026346E+04  0.00000000000E+00 0. -1.
          1   -1    0    0  501    0 -0.00000000000E+00 -0.00000000000E+00 -0.12577627577E+04  0.12577627577E+04  0.00000000000E+00 0. -1.
         25    2    1    2    0    0 -0.11261687905E+03 -0.16510823616E+02 -0.77198249904E+02  0.18585728683E+03  0.12501276950E+03 0.  0.
          2    1    1    2  501    0  0.59148046859E+02  0.93188457349E+02 -0.11228191911E+04  0.11282311447E+04  0.00000000000E+00 0. -1.
          1    1    1    2  502    0  0.53468832192E+02 -0.76677633733E+02  0.30769573180E+04  0.30783769607E+04  0.00000000000E+00 0. -1.
         22    1    3    3    0    0 -0.72128381927E+02 -0.31967466106E+02  0.18296197722E+02  0.80988722793E+02  0.00000000000E+00 0.  1.
         22    1    3    3    0    0 -0.40488497125E+02  0.15456642489E+02 -0.95494447626E+02  0.10486856404E+03  0.00000000000E+00 0.  1.
</event>
<event>
 7    1  0.5676357E-006  0.4343685E+02  0.7818608E-02  0.1502961E+00
          2   -1    0    0  502    0  0.00000000000E+00  0.00000000000E+00  0.26089224368E+04  0.26089224368E+04  0.00000000000E+00 0. -1.
          1   -1    0    0  501    0 -0.00000000000E+00 -0.00000000000E+00 -0.85416017173E+02  0.85416017173E+02  0.00000000000E+00 0. -1.
         25    2    1    2    0    0  0.14659672215E+01  0.77093812455E+02  0.77108604301E+02  0.16588139774E+03  0.12500118511E+03 0.  0.
          2    1    1    2  501    0 -0.13825911008E+02 -0.35586252549E+02 -0.31918282648E+02  0.49762575826E+02  0.00000000000E+00 0. -1.
          1    1    1    2  502    0  0.12359943786E+02 -0.41507559906E+02  0.24783160979E+04  0.24786944804E+04  0.00000000000E+00 0. -1.
         22    1    3    3    0    0 -0.26121778935E+02  0.61428002136E+02 -0.15039686354E+02  0.68424695445E+02  0.00000000000E+00 0.  1.
         22    1    3    3    0    0  0.27587746156E+02  0.15665810318E+02  0.92148290656E+02  0.97456702292E+02  0.00000000000E+00 0.  1.
</event>
<event>
 7    1  0.5676357E-006  0.5162853E+02  0.7818608E-02  0.1488989E+00
          2   -1    0    0  502    0  0.00000000000E+00  0.00000000000E+00  0.18237151925E+04  0.18237151925E+04  0.00000000000E+00 0. -1.
          1   -1    0    0  501    0 -0.00000000000E+00 -0.00000000000E+00 -0.20020143366E+03  0.20020143366E+03  0.00000000000E+00 0. -1.
         25    2    1    2    0    0  0.18945113395E+02 -0.16772093832E+01  0.38191988128E+03  0.40230545794E+03  0.12500062167E+03 0.  0.
          2    1    1    2  501    0 -0.49190225857E+02 -0.16671644012E+02 -0.18623612360E+03  0.19334300030E+03  0.00000000000E+00 0. -1.
          1    1    1    2  502    0  0.30245112462E+02  0.18348853395E+02  0.14278300012E+04  0.14282681679E+04  0.00000000000E+00 0. -1.
         22    1    3    3    0    0  0.28563019620E+02  0.71708960148E+01  0.11437223835E+02  0.31592371366E+02  0.00000000000E+00 0. -1.
         22    1    3    3    0    0 -0.96179062252E+01 -0.88481053980E+01  0.37048265745E+03  0.37071308658E+03  0.00000000000E+00 0. -1.
</event>
<event>
 7    1  0.5676357E-006  0.7037843E+02  0.7818608E-02  0.1505849E+00
          2   -1    0    0  502    0  0.00000000000E+00  0.00000000000E+00  0.42285295016E+03  0.42285295016E+03  0.00000000000E+00 0. -1.
          1   -1    0    0  501    0 -0.00000000000E+00 -0.00000000000E+00 -0.69419371226E+03  0.69419371226E+03  0.00000000000E+00 0. -1.
         25    2    1    2    0    0 -0.10593679053E+02  0.91529861081E+02  0.70530415990E+02  0.17055212405E+03  0.12499418359E+03 0.  0.
          2    1    1    2  501    0  0.22028452132E+01 -0.70004835338E+02 -0.64183358937E+03  0.64564377636E+03  0.00000000000E+00 0. -1.
          1    1    1    2  502    0  0.83908338402E+01 -0.21525025742E+02  0.29996241128E+03  0.30085076202E+03  0.00000000000E+00 0. -1.
         22    1    3    3    0    0  0.28651511828E+02 -0.19118511603E+02  0.31928958883E+02  0.46966850345E+02  0.00000000000E+00 0. -1.
         22    1    3    3    0    0 -0.39245190882E+02  0.11064837268E+03  0.38601457107E+02  0.12358527370E+03  0.00000000000E+00 0. -1.
</event>
<event>
 7    1  0.5676357E-006  0.4588483E+03  0.7818608E-02  0.1193312E+00
          2   -1    0    0  502    0  0.00000000000E+00  0.00000000000E+00  0.10337121366E+04  0.10337121366E+04  0.00000000000E+00 0. -1.
          1   -1    0    0  501    0 -0.00000000000E+00 -0.00000000000E+00 -0.16340078768E+04  0.16340078768E+04  0.00000000000E+00 0. -1.
         25    2    1    2    0    0 -0.35283789614E+03 -0.32912875191E+03 -0.46147019248E+03  0.67926426188E+03  0.12499953056E+03 0.  0.
          2    1    1    2  501    0  0.51195308112E+02 -0.13803484050E+02 -0.10065130725E+04  0.10079087562E+04  0.00000000000E+00 0. -1.
          1    1    1    2  502    0  0.30164258803E+03  0.34293223596E+03  0.86768752481E+03  0.98054699535E+03  0.00000000000E+00 0. -1.
         22    1    3    3    0    0 -0.23156765886E+03 -0.23544691157E+03 -0.23300536043E+03  0.40416621184E+03  0.00000000000E+00 0. -1.
         22    1    3    3    0    0 -0.12127023728E+03 -0.93681840333E+02 -0.22846483204E+03  0.27509805005E+03  0.00000000000E+00 0. -1.
</event>
<event>
 7    1  0.5676357E-006  0.3934580E+02  0.7818608E-02  0.1588759E+00
          2   -1    0    0  502    0  0.00000000000E+00  0.00000000000E+00  0.59025839161E+03  0.59025839161E+03  0.00000000000E+00 0. -1.
          1   -1    0    0  501    0 -0.00000000000E+00 -0.00000000000E+00 -0.16940814175E+03  0.16940814175E+03  0.00000000000E+00 0. -1.
         25    2    1    2    0    0 -0.70041789288E+01 -0.57601539789E+02  0.11081697677E+03  0.17683167456E+03  0.12498817095E+03 0.  0.
          2    1    1    2  501    0  0.14487169494E+02  0.19392511120E+02 -0.13446913866E+03  0.13663051203E+03  0.00000000000E+00 0. -1.
          1    1    1    2  502    0 -0.74829905654E+01  0.38209028669E+02  0.44450241175E+03  0.44620434676E+03  0.00000000000E+00 0. -1.
         22    1    3    3    0    0  0.36951942077E+02  0.24125031174E+02  0.26666588505E+02  0.51561323634E+02  0.00000000000E+00 0.  1.
         22    1    3    3    0    0 -0.43956121006E+02 -0.81726570963E+02  0.84150388268E+02  0.12527035093E+03  0.00000000000E+00 0.  1.
</event>
<event>
 7    1  0.5676357E-006  0.1093394E+03  0.7818608E-02  0.1271479E+00
          2   -1    0    0  502    0  0.00000000000E+00  0.00000000000E+00  0.23041475536E+04  0.23041475536E+04  0.00000000000E+00 0. -1.
          1   -1    0    0  501    0 -0.00000000000E+00 -0.00000000000E+00 -0.25901004347E+03  0.25901004347E+03  0.00000000000E+00 0. -1.
         25    2    1    2    0    0  0.14617569995E+03  0.64165671609E+01  0.46282836952E+02  0.19792793937E+03  0.12499944238E+03 0.  0.
          2    1    1    2  501    0 -0.83013303037E+02  0.70487520989E+02 -0.16575744017E+03  0.19833110716E+03  0.00000000000E+00 0. -1.
          1    1    1    2  502    0 -0.63162396910E+02 -0.76904088150E+02  0.21646121133E+04  0.21668985505E+04  0.00000000000E+00 0. -1.
         22    1    3    3    0    0  0.13780976024E+03  0.43575098666E+02  0.61285381507E+02  0.15699113741E+03  0.00000000000E+00 0. -1.
         22    1    3    3    0    0  0.83659397119E+01 -0.37158531505E+02 -0.15002544555E+02  0.40936801952E+02  0.00000000000E+00 0. -1.
</event>
<event>
 7    1  0.5676357E-006  0.9196999E+02  0.7818608E-02  0.1454704E+00
          2   -1    0    0  502    0  0.00000000000E+00  0.00000000000E+00  0.40219072053E+03  0.40219072053E+03  0.00000000000E+00 0. -1.
          1   -1    0    0  501    0 -0.00000000000E+00 -0.00000000000E+00 -0.25761383716E+03  0.25761383716E+03  0.00000000000E+00 0. -1.
         25    2    1    2    0    0 -0.43389728590E+02  0.86102980006E+02  0.11285027796E+03  0.19405325256E+03  0.12500035153E+03 0.  0.
          2    1    1    2  501    0  0.18326550186E+02 -0.90043428870E+02 -0.20658151519E+03  0.22609644832E+03  0.00000000000E+00 0. -1.
          1    1    1    2  502    0  0.25063178403E+02  0.39404488634E+01  0.23830812060E+03  0.23965485681E+03  0.00000000000E+00 0. -1.
         22    1    3    3    0    0  0.17297485157E+02  0.87591713236E+02  0.95895266506E+02  0.13102447618E+03  0.00000000000E+00 0. -1.
         22    1    3    3    0    0 -0.60687213747E+02 -0.14887332300E+01  0.16955011453E+02  0.63028776383E+02  0.00000000000E+00 0. -1.
</event>
<event>
 7    1  0.5806383E-006  0.1141368E+03  0.7818608E-02  0.1347475E+00
          2   -1    0    0  502    0  0.00000000000E+00  0.00000000000E+00  0.22001628277E+04  0.22001628277E+04  0.00000000000E+00 0. -1.
          1   -1    0    0  501    0 -0.00000000000E+00 -0.00000000000E+00 -0.71168970459E+03  0.71168970459E+03  0.00000000000E+00 0. -1.
         25    2    1    2    0    0  0.15273841475E+02 -0.87088887569E+02 -0.10040154577E+03  0.18309208791E+03  0.12499791074E+03 0.  0.
          2    1    1    2  501    0  0.22259331204E+02  0.11665722037E+03 -0.56348811067E+03  0.57586737688E+03  0.00000000000E+00 0. -1.
          1    1    1    2  502    0 -0.37533172679E+02 -0.29568332801E+02  0.21523627795E+04  0.21528930675E+04  0.00000000000E+00 0. -1.
         22    1    3    3    0    0 -0.28656891743E+02 -0.69915635679E+02 -0.11144780945E+03  0.13464779162E+03  0.00000000000E+00 0.  1.
         22    1    3    3    0    0  0.43930733218E+02 -0.17173251890E+02  0.11046263681E+02  0.48444296288E+02  0.00000000000E+00 0.  1.
</event>
<event>
 7    1  0.5676357E-006  0.5613639E+02  0.7818608E-02  0.1502163E+00
          2   -1    0    0  502    0  0.00000000000E+00  0.00000000000E+00  0.18563395092E+04  0.18563395092E+04  0.00000000000E+00 0. -1.
          1   -1    0    0  501    0 -0.00000000000E+00 -0.00000000000E+00 -0.41186540761E+03  0.41186540761E+03  0.00000000000E+00 0. -1.
         25    2    1    2    0    0  0.76271399075E+02  0.36685360747E+02  0.77134095166E+03  0.78597314746E+03  0.12499513113E+03 0.  0.
          2    1    1    2  501    0 -0.53037234252E+02 -0.18180440971E+02 -0.40240070979E+03  0.40628783872E+03  0.00000000000E+00 0. -1.
          1    1    1    2  502    0 -0.23234164824E+02 -0.18504919776E+02  0.10755338597E+04  0.10759439306E+04  0.00000000000E+00 0. -1.
         22    1    3    3    0    0  0.37812128141E+02  0.29639864191E+02  0.71918909199E+03  0.72079208418E+03  0.00000000000E+00 0.  1.
         22    1    3    3    0    0  0.38459270934E+02  0.70454965559E+01  0.52151859668E+02  0.65181063273E+02  0.00000000000E+00 0.  1.
</event>
<event>
 7    1  0.5676357E-006  0.5775693E+02  0.7818608E-02  0.1453713E+00
          2   -1    0    0  502    0  0.00000000000E+00  0.00000000000E+00  0.57261108857E+03  0.57261108857E+03  0.00000000000E+00 0. -1.
          1   -1    0    0  501    0 -0.00000000000E+00 -0.00000000000E+00 -0.98430634779E+03  0.98430634779E+03  0.00000000000E+00 0. -1.
         25    2    1    2    0    0  0.86192691677E+02 -0.42050505660E+02  0.32338349661E+02  0.16084977130E+03  0.12501781850E+03 0.  0.
          2    1    1    2  501    0 -0.39515615737E+02  0.97229485949E+01 -0.91790509863E+03  0.91880672054E+03  0.00000000000E+00 0. -1.
          1    1    1    2  502    0 -0.46677075940E+02  0.32327557065E+02  0.47387148976E+03  0.47726094452E+03  0.00000000000E+00 0. -1.
         22    1    3    3    0    0 -0.23923647290E+02 -0.46988130296E+01  0.37190615878E+02  0.44469783594E+02  0.00000000000E+00 0. -1.
         22    1    3    3    0    0  0.11011633897E+03 -0.37351692630E+02 -0.48522662171E+01  0.11637998770E+03  0.00000000000E+00 0. -1.
</event>
<event>
 7    1  0.5676357E-006  0.9694893E+02  0.7818608E-02  0.1434341E+00
          2   -1    0    0  502    0  0.00000000000E+00  0.00000000000E+00  0.27443438276E+04  0.27443438276E+04  0.00000000000E+00 0. -1.
          1   -1    0    0  501    0 -0.00000000000E+00 -0.00000000000E+00 -0.33402591295E+03  0.33402591295E+03  0.00000000000E+00 0. -1.
         25    2    1    2    0    0  0.14188573267E+02 -0.10735251164E+03  0.72453973868E+03  0.74317487165E+03  0.12500071826E+03 0.  0.
          2    1    1    2  501    0 -0.25255693492E+02  0.12081301168E+02 -0.32295850913E+03  0.32416971869E+03  0.00000000000E+00 0. -1.
          1    1    1    2  502    0  0.11067120225E+02  0.95271210470E+02  0.20087366852E+04  0.20110251503E+04  0.00000000000E+00 0. -1.
         22    1    3    3    0    0  0.53245775594E+02 -0.38396880576E+02  0.51469426816E+03  0.51886378052E+03  0.00000000000E+00 0. -1.
         22    1    3    3    0    0 -0.39057202326E+02 -0.68955631062E+02  0.20984547051E+03  0.22431109113E+03  0.00000000000E+00 0. -1.
</event>
<event>
 7    1  0.5676357E-006  0.8642254E+02  0.7818608E-02  0.1393952E+00
          2   -1    0    0  502    0  0.00000000000E+00  0.00000000000E+00  0.97277076039E+02  0.97277076039E+02  0.00000000000E+00 0. -1.
          1   -1    0    0  501    0 -0.00000000000E+00 -0.00000000000E+00 -0.11770475907E+04  0.11770475907E+04  0.00000000000E+00 0. -1.
         25    2    1    2    0    0  0.19462834770E+02 -0.87289853978E+02 -0.17461176818E+03  0.23262123499E+03  0.12500019534E+03 0.  0.
          2    1    1    2  501    0  0.23349470288E+02  0.83692583236E+02 -0.96452008735E+03  0.96842585939E+03  0.00000000000E+00 0. -1.
          1    1    1    2  502    0 -0.42812305058E+02  0.35972707422E+01  0.59361340864E+02  0.73277572356E+02  0.00000000000E+00 0. -1.
         22    1    3    3    0    0 -0.38731462522E+02  0.68909747282E+01 -0.70043256227E+02  0.80334733862E+02  0.00000000000E+00 0.  1.
         22    1    3    3    0    0  0.58194297292E+02 -0.94180828706E+02 -0.10456851195E+03  0.15228650113E+03  0.00000000000E+00 0.  1.
</event>
<event>
 7    1  0.5676357E-006  0.3781586E+02  0.7818608E-02  0.1532373E+00
          2   -1    0    0  502    0  0.00000000000E+00  0.00000000000E+00  0.20425133932E+03  0.20425133932E+03  0.00000000000E+00 0. -1.
          1   -1    0    0  501    0 -0.00000000000E+00 -0.00000000000E+00 -0.12904373815E+03  0.12904373815E+03  0.00000000000E+00 0. -1.
         25    2    1    2    0    0  0.33172211584E+01 -0.58916959101E+02  0.21209849913E+02  0.13984594411E+03  0.12499927330E+03 0.  0.
          2    1    1    2  501    0 -0.23236267421E+02  0.28929408979E+02 -0.61855493138E+02  0.72131386087E+02  0.00000000000E+00 0. -1.
          1    1    1    2  502    0  0.19919046263E+02  0.29987550122E+02  0.11585324440E+03  0.12131774727E+03  0.00000000000E+00 0. -1.
         22    1    3    3    0    0 -0.25532872943E+02 -0.30340174121E+02  0.67489349783E+02  0.78276855459E+02  0.00000000000E+00 0.  1.
         22    1    3    3    0    0  0.28850094102E+02 -0.28576784980E+02 -0.46279499870E+02  0.61569088654E+02  0.00000000000E+00 0.  1.
</event>
<event>
 7    1  0.5676357E-006  0.6697233E+02  0.7818608E-02  0.1410283E+00
          2   -1    0    0  502    0  0.00000000000E+00  0.00000000000E+00  0.98385045209E+03  0.98385045209E+03  0.00000000000E+00 0. -1.
          1   -1    0    0  501    0 -0.00000000000E+00 -0.00000000000E+00 -0.81517237769E+03  0.81517237769E+03  0.00000000000E+00 0. -1.
         25    2    1    2    0    0  0.45146933845E+02 -0.12206947085E+02 -0.98414203354E+02  0.16582505784E+03  0.12500135676E+03 0.  0.
          2    1    1    2  501    0 -0.59476604678E+02 -0.34374015720E+02 -0.68069789869E+03  0.68415544195E+03  0.00000000000E+00 0. -1.
          1    1    1    2  502    0  0.14329670833E+02  0.46580962804E+02  0.94779017644E+03  0.94904232999E+03  0.00000000000E+00 0. -1.
         22    1    3    3    0    0  0.61348693153E+02 -0.33160838626E+02 -0.11505832974E+03  0.13454264236E+03  0.00000000000E+00 0. -1.
         22    1    3    3    0    0 -0.16201759307E+02  0.20953891541E+02  0.16644126384E+02  0.31282415483E+02  0.00000000000E+00 0. -1.
</event>
<event>
 7    1  0.5676357E-006  0.2764780E+03  0.7818608E-02  0.1206478E+00
          2   -1    0    0  502    0  0.00000000000E+00  0.00000000000E+00  0.35146087186E+03  0.35146087186E+03  0.00000000000E+00 0. -1.
          1   -1    0    0  501    0 -0.00000000000E+00 -0.00000000000E+00 -0.68027349441E+03  0.68027349441E+03  0.00000000000E+00 0. -1.
         25    2    1    2    0    0  0.47269696078E+02  0.48603596265E+02  0.17422003535E+03  0.22489358868E+03  0.12501108661E+03 0.  0.
          2    1    1    2  501    0 -0.19396947780E+03  0.19701757908E+03 -0.43059921152E+03  0.51171844382E+03  0.00000000000E+00 0. -1.
          1    1    1    2  502    0  0.14669978173E+03 -0.24562117534E+03 -0.72433446379E+02  0.29512233377E+03  0.00000000000E+00 0. -1.
         22    1    3    3    0    0  0.46351797594E+02  0.64912441857E+02  0.39174398249E+02  0.88863646820E+02  0.00000000000E+00 0. -1.
         22    1    3    3    0    0  0.91789848440E+00 -0.16308845592E+02  0.13504563710E+03  0.13602994186E+03  0.00000000000E+00 0. -1.
</event>
<event>
 7    1  0.5676357E-006  0.1854947E+03  0.7818608E-02  0.1169677E+00
          2   -1    0    0  502    0  0.00000000000E+00  0.00000000000E+00  0.20953315483E+04  0.20953315483E+04  0.00000000000E+00 0. -1.
          1   -1    0    0  501    0 -0.00000000000E+00 -0.00000000000E+00 -0.66699511856E+03  0.66699511856E+03  0.00000000000E+00 0. -1.
         25    2    1    2    0    0 -0.97168162296E+02 -0.21778283796E+03  0.44932565641E+03  0.52382253431E+03  0.12500194267E+03 0.  0.
          2    1    1    2  501    0  0.17416495003E+03  0.65146870101E+02 -0.61133820793E+03  0.63899291778E+03  0.00000000000E+00 0. -1.
          1    1    1    2  502    0 -0.76996787732E+02  0.15263596785E+03  0.15903489812E+04  0.15995112147E+04  0.00000000000E+00 0. -1.
         22    1    3    3    0    0 -0.96689307032E+02 -0.17387806627E+03  0.24889780063E+03  0.31864167835E+03  0.00000000000E+00 0. -1.
         22    1    3    3    0    0 -0.47885526348E+00 -0.43904771687E+02  0.20042785579E+03  0.20518085597E+03  0.00000000000E+00 0. -1.
</event>
<event>
 7    1  0.8037382E-006  0.4918569E+02  0.7818608E-02  0.1452396E+00
          2   -1    0    0  502    0  0.00000000000E+00  0.00000000000E+00  0.28040394454E+04  0.28040394454E+04  0.00000000000E+00 0. -1.
          1   -1    0    0  501    0 -0.00000000000E+00 -0.00000000000E+00 -0.24842790174E+04  0.24842790174E+04  0.00000000000E+00 0. -1.
         25    2    1    2    0    0 -0.34626965348E+02 -0.47093870739E+02 -0.30127211371E+03  0.33137322769E+03  0.12500588043E+03 0.  0.
          2    1    1    2  501    0  0.48249462253E+02 -0.17738118697E+00 -0.21674709011E+04  0.21680078757E+04  0.00000000000E+00 0. -1.
          1    1    1    2  502    0 -0.13622496905E+02  0.47271251926E+02  0.27885034428E+04  0.27889373594E+04  0.00000000000E+00 0. -1.
         22    1    3    3    0    0 -0.52691181172E+02 -0.82561900963E+02 -0.22305023716E+03  0.24360672479E+03  0.00000000000E+00 0.  1.
         22    1    3    3    0    0  0.18064215824E+02  0.35468030223E+02 -0.78221876547E+02  0.87766502903E+02  0.00000000000E+00 0.  1.
</event>
<event>
 7    1  0.5676357E-006  0.3054100E+03  0.7818608E-02  0.1252970E+00
          2   -1    0    0  502    0  0.00000000000E+00  0.00000000000E+00  0.11320045295E+04  0.11320045295E+04  0.00000000000E+00 0. -1.
          1   -1    0    0  501    0 -0.00000000000E+00 -0.00000000000E+00 -0.30432557299E+04  0.30432557299E+04  0.00000000000E+00 0. -1.
         25    2    1    2    0    0  0.13472513434E+03 -0.28667997572E+03 -0.57713983569E+03  0.67011265058E+03  0.12499721683E+03 0.  0.
          2    1    1    2  501    0 -0.92093621375E+02  0.28923668785E+03 -0.24096840707E+04  0.24287273246E+04  0.00000000000E+00 0. -1.
          1    1    1    2  502    0 -0.42631512970E+02 -0.25567121250E+01  0.10755727059E+04  0.10764202843E+04  0.00000000000E+00 0. -1.
         22    1    3    3    0    0  0.13775853317E+03 -0.25679518672E+03 -0.56853079542E+03  0.63886496752E+03  0.00000000000E+00 0.  1.
         22    1    3    3    0    0 -0.30333988253E+01 -0.29884789000E+02 -0.86090402754E+01  0.31247683058E+02  0.00000000000E+00 0.  1.
</event>
<event>
 7    1  0.5676357E-006  0.1173109E+03  0.7818608E-02  0.1250405E+00
          2   -1    0    0  502    0  0.00000000000E+00  0.00000000000E+00  0.11866938546E+04  0.11866938546E+04  0.00000000000E+00 0. -1.
          1   -1    0    0  501    0 -0.00000000000E+00 -0.00000000000E+00 -0.39500958848E+03  0.39500958848E+03  0.00000000000E+00 0. -1.
         25    2    1    2    0    0 -0.18911084783E+03  0.13527979080E+02  0.53506028276E+03  0.58125554395E+03  0.12499032843E+03 0.  0.
          2    1    1    2  501    0  0.91431675482E+02 -0.72430000640E+02 -0.35738254021E+03  0.37593634611E+03  0.00000000000E+00 0. -1.
          1    1    1    2  502    0  0.97679172352E+02  0.58902021560E+02  0.61400652361E+03  0.62451155305E+03  0.00000000000E+00 0. -1.
         22    1    3    3    0    0 -0.68334068531E+02 -0.50813236331E+02  0.14844436990E+03  0.17113521223E+03  0.00000000000E+00 0. -1.
         22    1    3    3    0    0 -0.12077677930E+03  0.64341215411E+02  0.38661591286E+03  0.41012033172E+03  0.00000000000E+00 0. -1.
</event>
<event>
 7    1  0.5676357E-006  0.1534503E+03  0.7818608E-02  0.1284431E+00
          2   -1    0    0  502    0  0.00000000000E+00  0.00000000000E+00  0.31434562066E+03  0.31434562066E+03  0.00000000000E+00 0. -1.
          1   -1    0    0  501    0 -0.00000000000E+00 -0.00000000000E+00 -0.24123563858E+03  0.24123563858E+03  0.00000000000E+00 0. -1.
         25    2    1    2    0    0 -0.98897034648E+02  0.63645572636E+02  0.19528430788E+02  0.17273667086E+03  0.12500086188E+03 0.  0.
          2    1    1    2  501    0 -0.19256759408E+02  0.59630285627E+02 -0.12248044224E+03  0.13757925890E+03  0.00000000000E+00 0. -1.
          1    1    1    2  502    0  0.11815379406E+03 -0.12327585826E+03  0.17606199353E+03  0.24526532949E+03  0.00000000000E+00 0. -1.
         22    1    3    3    0    0  0.74820398002E+01  0.35602660864E+02 -0.34530866467E+02  0.50158858830E+02  0.00000000000E+00 0. -1.
         22    1    3    3    0    0 -0.10637907445E+03  0.28042911772E+02  0.54059297255E+02  0.12257781203E+03  0.00000000000E+00 0. -1.
</event>
<event>
 7    1  0.5676357E-006  0.5212103E+02  0.7818608E-02  0.1482560E+00
          2   -1    0    0  502    0  0.00000000000E+00  0.00000000000E+00  0.62464802925E+03  0.62464802925E+03  0.00000000000E+00 0. -1.
          1   -1    0    0  501    0 -0.00000000000E+00 -0.00000000000E+00 -0.16055183629E+03  0.16055183629E+03  0.00000000000E+00 0. -1.
         25    2    1    2    0    0 -0.51257563463E+02 -0.45981275340E+02  0.46640160213E+02  0.15013840881E+03  0.12499848704E+03 0.  0.
          2    1    1    2  501    0  0.50812434163E+02  0.93277599937E+01 -0.10198774840E+03  0.11432589994E+03  0.00000000000E+00 0. -1.
          1    1    1    2  502    0  0.44512929986E+00  0.36653515346E+02  0.51944378115E+03  0.52073555679E+03  0.00000000000E+00 0. -1.
         22    1    3    3    0    0  0.16659701706E+02 -0.60957963119E+02  0.49890043442E+02  0.80513572540E+02  0.00000000000E+00 0. -1.
         22    1    3    3    0    0 -0.67917265170E+02  0.14976687779E+02 -0.32498832292E+01  0.69624836273E+02  0.00000000000E+00 0. -1.
</event>
<event>
 7    1  0.5676357E-006  0.7576559E+02  0.7818608E-02  0.1393038E+00
          2   -1    0    0  502    0  0.00000000000E+00  0.00000000000E+00  0.15247054621E+03  0.15247054621E+03  0.00000000000E+00 0. -1.
          1   -1    0    0  501    0 -0.00000000000E+00 -0.00000000000E+00 -0.21103874173E+04  0.21103874173E+04  0.00000000000E+00 0. -1.
         25    2    1    2    0    0  0.92041515524E+01 -0.89697200086E+02 -0.14217339122E+04  0.14300640634E+04  0.12500241637E+03 0.  0.
          2    1    1    2  501    0 -0.43995933820E+02  0.22390698346E+02 -0.67384919129E+03  0.67565502896E+03  0.00000000000E+00 0. -1.
          1    1    1    2  502    0  0.34791782268E+02  0.67306501740E+02  0.13766623240E+03  0.15713887118E+03  0.00000000000E+00 0. -1.
         22    1    3    3    0    0  0.22271585058E+02 -0.11145860211E+03 -0.13310637715E+04  0.13359078588E+04  0.00000000000E+00 0.  1.
         22    1    3    3    0    0 -0.13067433506E+02  0.21761402026E+02 -0.90670140727E+02  0.94156204554E+02  0.00000000000E+00 0.  1.
</event>
<event>
 7    1  0.5676357E-006  0.8121450E+02  0.7818608E-02  0.1330205E+00
          2   -1    0    0  502    0  0.00000000000E+00  0.00000000000E+00  0.10990023729E+03  0.10990023729E+03  0.00000000000E+00 0. -1.
          1   -1    0    0  501    0 -0.00000000000E+00 -0.00000000000E+00 -0.12045957388E+04  0.12045957388E+04  0.00000000000E+00 0. -1.
         25    2    1    2    0    0 -0.19045298579E+02  0.30294127730E+02 -0.18180945963E+03  0.22351460063E+03  0.12499455791E+03 0.  0.
          2    1    1    2  501    0  0.86796595506E+02  0.83700109274E+01 -0.98254015801E+03  0.98640198103E+03  0.00000000000E+00 0. -1.
          1    1    1    2  502    0 -0.67751296927E+02 -0.38664138658E+02  0.69654116109E+02  0.10457939445E+03  0.00000000000E+00 0. -1.
         22    1    3    3    0    0 -0.50088844429E+02 -0.67413828889E+01 -0.16465153353E+03  0.17223375416E+03  0.00000000000E+00 0. -1.
         22    1    3    3    0    0  0.31043545850E+02  0.37035510619E+02 -0.17157926104E+02  0.51280846463E+02  0.00000000000E+00 0. -1.
</event>
<event>
 7    1  0.5676357E-006  0.8200085E+02  0.7818608E-02  0.1348727E+00
          2   -1    0    0  502    0  0.00000000000E+00  0.00000000000E+00  0.22740919737E+04  0.22740919737E+04  0.00000000000E+00 0. -1.
          1   -1    0    0  501    0 -0.00000000000E+00 -0.00000000000E+00 -0.72312628408E+02  0.72312628408E+02  0.00000000000E+00 0. -1.
         25    2    1    2    0    0 -0.23974120518E+02 -0.81819585986E+00  0.27776980481E+03  0.30554407903E+03  0.12500276744E+03 0.  0.
          2    1    1    2  501    0  0.87016178206E+02 -0.18024195188E+02 -0.23756046399E+02  0.91983893276E+02  0.00000000000E+00 0. -1.
          1    1    1    2  502    0 -0.63042057687E+02  0.18842391048E+02  0.19477655869E+04  0.19488766298E+04  0.00000000000E+00 0. -1.
         22    1    3    3    0    0  0.40860682203E+02 -0.32010161774E+02  0.15239149230E+03  0.16098885903E+03  0.00000000000E+00 0. -1.
         22    1    3    3    0    0 -0.64834802721E+02  0.31191965914E+02  0.12537831250E+03  0.14455522000E+03  0.00000000000E+00 0. -1.
</event>
<event>
 7    1  0.5676357E-006  0.5506205E+02  0.7818608E-02  0.1482202E+00
          2   -1    0    0  502    0  0.00000000000E+00  0.00000000000E+00  0.21610000467E+04  0.21610000467E+04  0.00000000000E+00 0. -1.
          1   -1    0    0  501    0 -0.00000000000E+00 -0.00000000000E+00 -0.39944093253E+02  0.39944093253E+02  0.00000000000E+00 0. -1.
         25    2    1    2    0    0 -0.41417144601E+02 -0.52413931008E+02  0.15603842007E+04  0.15668075147E+04  0.12499733707E+03 0.  0.
          2    1    1    2  501    0  0.51593989146E+02  0.19150036396E+02 -0.15295943154E+02  0.57119431780E+02  0.00000000000E+00 0. -1.
          1    1    1    2  502    0 -0.10176844544E+02  0.33263894612E+02  0.57596769589E+03  0.57701719347E+03  0.00000000000E+00 0. -1.
         22    1    3    3    0    0  0.31847596526E+02  0.23295224992E+01  0.84468008953E+03  0.84528347300E+03  0.00000000000E+00 0.  1.
         22    1    3    3    0    0 -0.73264741127E+02 -0.54743453508E+02  0.71570411117E+03  0.72152404169E+03  0.00000000000E+00 0.  1.
</event>
<event>
 7    1  0.5676357E-006  0.2378622E+03  0.7818608E-02  0.1281296E+00
          2   -1    0    0  502    0  0.00000000000E+00  0.00000000000E+00  0.14226716330E+04  0.14226716330E+04  0.00000000000E+00 0. -1.
          1   -1    0    0  501    0 -0.00000000000E+00 -0.00000000000E+00 -0.35169685489E+03  0.35169685489E+03  0.00000000000E+00 0. -1.
         25    2    1    2    0    0  0.30034071356E+02  0.20416372710E+03  0.47729142458E+03  0.53480620396E+03  0.12500279559E+03 0.  0.
          2    1    1    2  501    0 -0.59901505323E+02 -0.23318321203E+03 -0.27750177782E+03  0.36738241304E+03  0.00000000000E+00 0. -1.
          1    1    1    2  502    0  0.29867433967E+02  0.29019484938E+02  0.87118513134E+03  0.87217987089E+03  0.00000000000E+00 0. -1.
         22    1    3    3    0    0 -0.74259478269E+01  0.17650572414E+03  0.27225773883E+03  0.32455152396E+03  0.00000000000E+00 0. -1.
         22    1    3    3    0    0  0.37460019182E+02  0.27658002958E+02  0.20503368576E+03  0.21025467999E+03  0.00000000000E+00 0. -1.
</event>
<event>
 7    1  0.5676357E-006  0.2435824E+03  0.7818608E-02  0.1129920E+00
          2   -1    0    0  502    0  0.00000000000E+00  0.00000000000E+00  0.92353776730E+03  0.92353776730E+03  0.00000000000E+00 0. -1.
          1   -1    0    0  501    0 -0.00000000000E+00 -0.00000000000E+00 -0.41495062701E+03  0.41495062701E+03  0.00000000000E+00 0. -1.
         25    2    1    2    0    0 -0.10101650635E+02  0.10776061497E+03  0.10666013516E+03  0.19676036435E+03  0.12499545216E+03 0.  0.
          2    1    1    2  501    0  0.13960807021E+03 -0.27125738633E+03 -0.28886451553E+03  0.42013532491E+03  0.00000000000E+00 0. -1.
          1    1    1    2  502    0 -0.12950641957E+03  0.16349677136E+03  0.69079152067E+03  0.72159270505E+03  0.00000000000E+00 0. -1.
         22    1    3    3    0    0 -0.30814650971E+02  0.39201332053E+01  0.82498168817E+02  0.88152470283E+02  0.00000000000E+00 0. -1.
         22    1    3    3    0    0  0.20713000337E+02  0.10384048176E+03  0.24161966345E+02  0.10860789406E+03  0.00000000000E+00 0. -1.
</event>
<event>
 7    1  0.5676357E-006  0.6042465E+02  0.7818608E-02  0.1402841E+00
          2   -1    0    0  502    0  0.00000000000E+00  0.00000000000E+00  0.14795558292E+04  0.14795558292E+04  0.00000000000E+00 0. -1.
          1   -1    0    0  501    0 -0.00000000000E+00 -0.00000000000E+00 -0.55655416062E+03  0.55655416062E+03  0.00000000000E+00 0. -1.
         25    2    1    2    0    0 -0.71179458919E+02  0.84975624978E+02  0.45153223264E+03  0.48145161320E+03  0.12500770587E+03 0.  0.
          2    1    1    2  501    0  0.47281713645E+02 -0.32302625894E+02 -0.53925172197E+03  0.54228354182E+03  0.00000000000E+00 0. -1.
          1    1    1    2  502    0  0.23897745274E+02 -0.52672999084E+02  0.10107211579E+04  0.10123748348E+04  0.00000000000E+00 0. -1.
         22    1    3    3    0    0 -0.74593274459E+02  0.76286899330E+02  0.17637349369E+03  0.20613456013E+03  0.00000000000E+00 0.  1.
         22    1    3    3    0    0  0.34138155396E+01  0.86887256481E+01  0.27515873895E+03  0.27531705307E+03  0.00000000000E+00 0.  1.
</event>
<event>
 7    1  0.5676357E-006  0.3131555E+02  0.7818608E-02  0.1657552E+00
          2   -1    0    0  502    0  0.00000000000E+00  0.00000000000E+00  0.20199993179E+04  0.20199993179E+04  0.00000000000E+00 0. -1.
          1   -1    0    0  501    0 -0.00000000000E+00 -0.00000000000E+00 -0.37516516256E+02  0.37516516256E+02  0.00000000000E+00 0. -1.
         25    2    1    2    0    0 -0.41435041867E+02  0.12127847017E+02  0.14978004067E+04  0.15036269640E+04  0.12499616531E+03 0.  0.
          2    1    1    2  501    0  0.18845614857E+02  0.76687441192E+01 -0.31137294779E+02  0.37195402429E+02  0.00000000000E+00 0. -1.
          1    1    1    2  502    0  0.22589427011E+02 -0.19796591136E+02  0.51581968977E+03  0.51669346773E+03  0.00000000000E+00 0. -1.
         22    1    3    3    0    0 -0.39783004400E+00  0.64163351742E+02  0.86099362847E+03  0.86338121490E+03  0.00000000000E+00 0.  1.
         22    1    3    3    0    0 -0.41037211823E+02 -0.52035504725E+02  0.63680677820E+03  0.64024574912E+03  0.00000000000E+00 0.  1.
</event>
<event>
 7    1  0.5676357E-006  0.8571980E+02  0.7818608E-02  0.1379479E+00
          2   -1    0    0  502    0  0.00000000000E+00  0.00000000000E+00  0.66717780501E+03  0.66717780501E+03  0.00000000000E+00 0. -1.
          1   -1    0    0  501    0 -0.00000000000E+00 -0.00000000000E+00 -0.10857282937E+04  0.10857282937E+04  0.00000000000E+00 0. -1.
         25    2    1    2    0    0  0.46750969728E+02  0.14609491386E+02 -0.71919401123E+02  0.15230420633E+03  0.12500032239E+03 0.  0.
          2    1    1    2  501    0  0.15209428430E+02  0.46248229481E+02 -0.96999550987E+03  0.97121651274E+03  0.00000000000E+00 0. -1.
          1    1    1    2  502    0 -0.61960398158E+02 -0.60857720867E+02  0.62336442230E+03  0.62938537965E+03  0.00000000000E+00 0. -1.
         22    1    3    3    0    0  0.83132138737E+02  0.13519752137E+02 -0.16227619332E+02  0.85773374761E+02  0.00000000000E+00 0. -1.
         22    1    3    3    0    0 -0.36381169009E+02  0.10897392492E+01 -0.55691781791E+02  0.66530831568E+02  0.00000000000E+00 0. -1.
</event>
<event>
 7    1  0.5676357E-006  0.9220082E+02  0.7818608E-02  0.1361844E+00
          2   -1    0    0  502    0  0.00000000000E+00  0.00000000000E+00  0.13955229280E+04  0.13955229280E+04  0.00000000000E+00 0. -1.
          1   -1    0    0  501    0 -0.00000000000E+00 -0.00000000000E+00 -0.19575766040E+03  0.19575766040E+03  0.00000000000E+00 0. -1.
         25    2    1    2    0    0  0.41825571292E+02 -0.57242734041E+02  0.40886341918E+03  0.43338831975E+03  0.12502012293E+03 0.  0.
          2    1    1    2  501    0  0.48785721396E+02  0.19040810599E+02 -0.17721653428E+03  0.18479258401E+03  0.00000000000E+00 0. -1.
          1    1    1    2  502    0 -0.90611292688E+02  0.38201923442E+02  0.96811838267E+03  0.97309968461E+03  0.00000000000E+00 0. -1.
         22    1    3    3    0    0 -0.11041630121E+02 -0.45811554340E+02  0.43786500173E+02  0.64326306471E+02  0.00000000000E+00 0. -1.
         22    1    3    3    0    0  0.52867201413E+02 -0.11431179701E+02  0.36507691901E+03  0.36906201328E+03  0.00000000000E+00 0. -1.
</event>
<event>
 7    1  0.5676357E-006  0.7189331E+02  0.7818608E-02  0.1365302E+00
          2   -1    0    0  502    0  0.00000000000E+00  0.00000000000E+00  0.26151292172E+04  0.26151292172E+04  0.00000000000E+00 0. -1.
          1   -1    0    0  501    0 -0.00000000000E+00 -0.00000000000E+00 -0.55180986660E+02  0.55180986660E+02  0.00000000000E+00 0. -1.
         25    2    1    2    0    0  0.30211854995E+02  0.21871630352E+02  0.12617268110E+03  0.18148194195E+03  0.12500010161E+03 0.  0.
          2    1    1    2  501    0  0.34684197670E+02 -0.55267165779E+02  0.12478726163E+02  0.66431707700E+02  0.00000000000E+00 0. -1.
          1    1    1    2  502    0 -0.64896052665E+02  0.33395535427E+02  0.24212968233E+04  0.24223965542E+04  0.00000000000E+00 0. -1.
         22    1    3    3    0    0 -0.48479070500E+02  0.16890934325E+02  0.44208147123E+02  0.67748684201E+02  0.00000000000E+00 0.  1.
         22    1    3    3    0    0  0.78690925495E+02  0.49806960267E+01  0.81964533972E+02  0.11373325775E+03  0.00000000000E+00 0.  1.
</event>
<event>
 7    1  0.5676357E-006  0.5043494E+02  0.7818608E-02  0.1509727E+00
          2   -1    0    0  502    0  0.00000000000E+00  0.00000000000E+00  0.75562489486E+03  0.75562489486E+03  0.00000000000E+00 0. -1.
          1   -1    0    0  501    0 -0.00000000000E+00 -0.00000000000E+00 -0.80565323779E+02  0.80565323779E+02  0.00000000000E+00 0. -1.
         25    2    1    2    0    0  0.22540520484E+02 -0.16501746263E+02  0.36412115111E+02  0.13315979942E+03  0.12500122944E+03 0.  0.
          2    1    1    2  501    0 -0.53603705554E+02  0.21084288850E+02 -0.57325908244E+01  0.57885810722E+02  0.00000000000E+00 0. -1.
          1    1    1    2  502    0  0.31063185070E+02 -0.45825425869E+01  0.64438004680E+03  0.64514460850E+03  0.00000000000E+00 0. -1.
         22    1    3    3    0    0  0.18565577014E+02 -0.15153081883E+02  0.82996335085E+02  0.86386851881E+02  0.00000000000E+00 0. -1.
         22    1    3    3    0    0  0.39749434691E+01 -0.13486643800E+01 -0.46584219974E+02  0.46772947542E+02  0.00000000000E+00 0. -1.
</event>
<event>
 7    1  0.5676357E-006  0.8618547E+02  0.7818608E-02  0.1449561E+00
          2   -1    0    0  502    0  0.00000000000E+00  0.00000000000E+00  0.79743705796E+03  0.79743705796E+03  0.00000000000E+00 0. -1.
          1   -1    0    0  501    0 -0.00000000000E+00 -0.00000000000E+00 -0.39844551394E+03  0.39844551394E+03  0.00000000000E+00 0. -1.
         25    2    1    2    0    0 -0.21117152486E+01  0.10291792955E+03  0.41737614056E+03  0.44768809463E+03  0.12500091117E+03 0.  0.
          2    1    1    2  501    0 -0.18670036212E+02 -0.83980281012E+02 -0.37790629367E+03  0.38757505679E+03  0.00000000000E+00 0. -1.
          1    1    1    2  502    0  0.20781751461E+02 -0.18937648541E+02  0.35952169713E+03  0.36061942049E+03  0.00000000000E+00 0. -1.
         22    1    3    3    0    0  0.35467417336E+02  0.18150565917E+02  0.27439884378E+03  0.27727622726E+03  0.00000000000E+00 0.  1.
         22    1    3    3    0    0 -0.37579132584E+02  0.84767363636E+02  0.14297729679E+03  0.17041186737E+03  0.00000000000E+00 0.  1.
</event>
<event>
 7    1  0.5676357E-006  0.6978371E+02  0.7818608E-02  0.1425739E+00
          2   -1    0    0  502    0  0.00000000000E+00  0.00000000000E+00  0.69299685909E+03  0.69299685909E+03  0.00000000000E+00 0. -1.
          1   -1    0    0  501    0 -0.00000000000E+00 -0.00000000000E+00 -0.35662171979E+03  0.35662171979E+03  0.00000000000E+00 0. -1.
         25    2    1    2    0    0 -0.47791606507E+02 -0.76562694898E+02  0.54336517147E+02  0.16347184955E+03  0.12499881838E+03 0.  0.
          2    1    1    2  501    0  0.69690594253E+01  0.69007703791E+02 -0.29731985717E+03  0.30530268331E+03  0.00000000000E+00 0. -1.
          1    1    1    2  502    0  0.40822547081E+02  0.75549911068E+01  0.57935847932E+03  0.58084404602E+03  0.00000000000E+00 0. -1.
         22    1    3    3    0    0 -0.55023048870E+01  0.34017958013E+02  0.21478124011E+02  0.40605500089E+02  0.00000000000E+00 0.  1.
         22    1    3    3    0    0 -0.42289301620E+02 -0.11058065291E+03  0.32858393136E+02  0.12286634946E+03  0.00000000000E+00 0.  1.
</event>
<event>
 7    1  0.5676357E-006  0.1092429E+03  0.7818608E-02  0.1320869E+00
          2   -1    0    0  502    0  0.00000000000E+00  0.00000000000E+00  0.16172946855E+04  0.16172946855E+04  0.00000000000E+00 0. -1.
          1   -1    0    0  501    0 -0.00000000000E+00 -0.00000000000E+00 -0.82718827149E+02  0.82718827149E+02  0.00000000000E+00 0. -1.
         25    2    1    2    0    0 -0.23982566060E+02 -0.75416330433E+02  0.85661530060E+02  0.17095104473E+03  0.12499430223E+03 0.  0.
          2    1    1    2  501    0  0.16254378920E+02  0.13793326589E+03  0.83210599617E+02  0.16190674650E+03  0.00000000000E+00 0. -1.
          1    1    1    2  502    0  0.77281871400E+01 -0.62516935460E+02  0.13657037287E+04  0.13671557215E+04  0.00000000000E+00 0. -1.
         22    1    3    3    0    0 -0.12468297136E+02  0.17014069756E+02 -0.20710829097E+02  0.29561384356E+02  0.00000000000E+00 0.  1.
         22    1    3    3    0    0 -0.11514268924E+02 -0.92430400189E+02  0.10637235916E+03  0.14138966037E+03  0.00000000000E+00 0.  1.
</event>
<event>
 7    1  0.5676357E-006  0.8909239E+02  0.7818608E-02  0.1437011E+00
          2   -1    0    0  502    0  0.00000000000E+00  0.00000000000E+00  0.10098538811E+03  0.10098538811E+03  0.00000000000E+00 0. -1.
          1   -1    0    0  501    0 -0.00000000000E+00 -0.00000000000E+00 -0.11639740600E+04  0.11639740600E+04  0.00000000000E+00 0. -1.
         25    2    1    2    0    0  0.14881687973E+02  0.69159026673E+02 -0.17017897175E+03  0.22268967502E+03  0.12500149330E+03 0.  0.
          2    1    1    2  501    0  0.26956727527E+02  0.12843718763E+02 -0.93886030450E+03  0.93933502949E+03  0.00000000000E+00 0. -1.
          1    1    1    2  502    0 -0.41838415500E+02 -0.82002745436E+02  0.46050604388E+02  0.10293474358E+03  0.00000000000E+00 0. -1.
         22    1    3    3    0    0 -0.31591424538E+02  0.68748557570E+02 -0.15716305719E+03  0.17442651409E+03  0.00000000000E+00 0.  1.
         22    1    3    3    0    0  0.46473112511E+02  0.41046910265E+00 -0.13015914567E+02  0.48263160935E+02  0.00000000000E+00 0.  1.
</event>
<event>
 7    1  0.5676357E-006  0.4117069E+02  0.7818608E-02  0.1545042E+00
          2   -1    0    0  502    0  0.00000000000E+00  0.00000000000E+00  0.50406388347E+02  0.50406388347E+02  0.00000000000E+00 0. -1.
          1   -1    0    0  501    0 -0.00000000000E+00 -0.00000000000E+00 -0.21089548280E+04  0.21089548280E+04  0.00000000000E+00 0. -1.
         25    2    1    2    0    0  0.64571638896E+01  0.13378473398E+02 -0.38486733272E+03  0.40492361248E+03  0.12497835665E+03 0.  0.
          2    1    1    2  501    0 -0.11182121560E+02  0.28317160296E+02 -0.17029842099E+04  0.17032563285E+04  0.00000000000E+00 0. -1.
          1    1    1    2  502    0  0.47249576701E+01 -0.41695633694E+02  0.29303103034E+02  0.51181275302E+02  0.00000000000E+00 0. -1.
         22    1    3    3    0    0  0.20995912433E+02 -0.21688717752E+02 -0.16107951131E+02  0.34215419130E+02  0.00000000000E+00 0. -1.
         22    1    3    3    0    0 -0.14538748543E+02  0.35067191150E+02 -0.36875938159E+03  0.37070819335E+03  0.00000000000E+00 0. -1.
</event>
<event>
 7    1  0.5676357E-006  0.4230987E+02  0.7818608E-02  0.1546984E+00
          2   -1    0    0  502    0  0.00000000000E+00  0.00000000000E+00  0.88283677001E+02  0.88283677001E+02  0.00000000000E+00 0. -1.
          1   -1    0    0  501    0 -0.00000000000E+00 -0.00000000000E+00 -0.75291612199E+03  0.75291612199E+03  0.00000000000E+00 0. -1.
         25    2    1    2    0    0  0.60182257546E+01 -0.22620337647E+02 -0.43094082851E+02  0.13427754420E+03  0.12500184071E+03 0.  0.
          2    1    1    2  501    0 -0.21143712388E+02 -0.20220355498E+02 -0.65172130598E+03  0.65237763605E+03  0.00000000000E+00 0. -1.
          1    1    1    2  502    0  0.15125486634E+02  0.42840693145E+02  0.30182943841E+02  0.54544618744E+02  0.00000000000E+00 0. -1.
         22    1    3    3    0    0 -0.56316526310E+02 -0.26710396728E+02 -0.34441242260E+02  0.71212327567E+02  0.00000000000E+00 0. -1.
         22    1    3    3    0    0  0.62334752065E+02  0.40900590810E+01 -0.86528405906E+01  0.63065216630E+02  0.00000000000E+00 0. -1.
</event>
<event>
 7    1  0.5676357E-006  0.1949709E+03  0.7818608E-02  0.1261925E+00
          2   -1    0    0  502    0  0.00000000000E+00  0.00000000000E+00  0.82299632226E+03  0.82299632226E+03  0.00000000000E+00 0. -1.
          1   -1    0    0  501    0 -0.00000000000E+00 -0.00000000000E+00 -0.55461654619E+03  0.55461654619E+03  0.00000000000E+00 0. -1.
         25    2    1    2    0    0  0.24154615512E+02 -0.24054126709E+03 -0.13950621754E+03  0.30582788740E+03  0.12500066142E+03 0.  0.
          2    1    1    2  501    0 -0.10984540053E+02  0.18073282123E+03 -0.30584902559E+03  0.35542740362E+03  0.00000000000E+00 0. -1.
          1    1    1    2  502    0 -0.13170075460E+02  0.59808445862E+02  0.71373501921E+03  0.71635757742E+03  0.00000000000E+00 0. -1.
         22    1    3    3    0    0 -0.30584659144E+02 -0.13202605536E+02  0.43579244901E+00  0.33315463121E+02  0.00000000000E+00 0.  1.
         22    1    3    3    0    0  0.54739274656E+02 -0.22733866156E+03 -0.13994200999E+03  0.27251242428E+03  0.00000000000E+00 0.  1.
</event>
<event>
 7    1  0.5676357E-006  0.5343627E+03  0.7818608E-02  0.1221962E+00
          2   -1    0    0  502    0  0.00000000000E+00  0.00000000000E+00  0.11988474970E+04  0.11988474970E+04  0.00000000000E+00 0. -1.
          1   -1    0    0  501    0 -0.00000000000E+00 -0.00000000000E+00 -0.19456093491E+04  0.19456093491E+04  0.00000000000E+00 0. -1.
         25    2    1    2    0    0  0.53645519394E+03 -0.10529156709E+03  0.53836090241E+03  0.77738500983E+03  0.12499801222E+03 0.  0.
          2    1    1    2  501    0 -0.51696543670E+03  0.13252503806E+03 -0.17865343433E+04  0.18645431366E+04  0.00000000000E+00 0. -1.
          1    1    1    2  502    0 -0.19489757239E+02 -0.27233470966E+02  0.50141158876E+03  0.50252869960E+03  0.00000000000E+00 0. -1.
         22    1    3    3    0    0  0.53536732426E+03 -0.10534662295E+03  0.50331468044E+03  0.74232186442E+03  0.00000000000E+00 0. -1.
         22    1    3    3    0    0  0.10878696836E+01  0.55055862834E-01  0.35046221973E+02  0.35063145412E+02  0.00000000000E+00 0. -1.
</event>
<event>
 7    1  0.5676357E-006  0.6714254E+02  0.7818608E-02  0.1396669E+00
          2   -1    0    0  502    0  0.00000000000E+00  0.00000000000E+00  0.43499675958E+03  0.43499675958E+03  0.00000000000E+00 0. -1.
          1   -1    0    0  501    0 -0.00000000000E+00 -0.00000000000E+00 -0.77577306910E+02  0.77577306910E+02  0.00000000000E+00 0. -1.
         25    2    1    2    0    0  0.13007506394E+02  0.97388730843E+02  0.25741165179E+03  0.30255513765E+03  0.12500037090E+03 0.  0.
          2    1    1    2  501    0  0.26321283385E+02 -0.60217319287E+02 -0.27700713770E+02  0.71318055529E+02  0.00000000000E+00 0. -1.
          1    1    1    2  502    0 -0.39328789779E+02 -0.37171411557E+02  0.12770851465E+03  0.13870087331E+03  0.00000000000E+00 0. -1.
         22    1    3    3    0    0 -0.23190953388E+02  0.82807296606E+02  0.69309985969E+02  0.11044791915E+03  0.00000000000E+00 0. -1.
         22    1    3    3    0    0  0.36198459782E+02  0.14581434237E+02  0.18810166582E+03  0.19210721850E+03  0.00000000000E+00 0. -1.
</event>
<event>
 7    1  0.5676357E-006  0.6388015E+02  0.7818608E-02  0.1454729E+00
          2   -1    0    0  502    0  0.00000000000E+00  0.00000000000E+00  0.50720313423E+02  0.50720313423E+02  0.00000000000E+00 0. -1.
          1   -1    0    0  501    0 -0.00000000000E+00 -0.00000000000E+00 -0.24622578547E+04  0.24622578547E+04  0.00000000000E+00 0. -1.
         25    2    1    2    0    0  0.34038567464E+02 -0.34249477936E+02 -0.20864883455E+04  0.20907867490E+04  0.12499585256E+03 0.  0.
          2    1    1    2  501    0 -0.22432194330E+02 -0.28819437636E+02 -0.35108525117E+03  0.35297962677E+03  0.00000000000E+00 0. -1.
          1    1    1    2  502    0 -0.11606373134E+02  0.63068915572E+02  0.26036055435E+02  0.69211792286E+02  0.00000000000E+00 0. -1.
         22    1    3    3    0    0  0.45771816654E+02  0.38778786609E+02 -0.90805868867E+03  0.91003815061E+03  0.00000000000E+00 0.  1.
         22    1    3    3    0    0 -0.11733249191E+02 -0.73028264544E+02 -0.11784296568E+04  0.11807485984E+04  0.00000000000E+00 0.  1.
</event>
<event>
 7    1  0.5676357E-006  0.1678462E+03  0.7818608E-02  0.1271050E+00
          2   -1    0    0  502    0  0.00000000000E+00  0.00000000000E+00  0.20286202106E+04  0.20286202106E+04  0.00000000000E+00 0. -1.
          1   -1    0    0  501    0 -0.00000000000E+00 -0.00000000000E+00 -0.65187570492E+03  0.65187570492E+03  0.00000000000E+00 0. -1.
         25    2    1    2    0    0 -0.21993146500E+03  0.62205114717E+02  0.81314664623E+02  0.27291641097E+03  0.12502786529E+03 0.  0.
          2    1    1    2  501    0  0.57443151044E+02 -0.30626146104E+02 -0.55045339724E+03  0.55428929176E+03  0.00000000000E+00 0. -1.
          1    1    1    2  502    0  0.16248831396E+03 -0.31578968613E+02  0.18458832383E+04  0.18532902128E+04  0.00000000000E+00 0. -1.
         22    1    3    3    0    0 -0.10574566017E+02 -0.14487272504E+02  0.43126700321E+02  0.46707759437E+02  0.00000000000E+00 0.  1.
         22    1    3    3    0    0 -0.20935689899E+03  0.76692387221E+02  0.38187964302E+02  0.22620865153E+03  0.00000000000E+00 0.  1.
</event>
<event>
 7    1  0.5687119E-006  0.1029242E+03  0.7818608E-02  0.1294643E+00
          2   -1    0    0  502    0  0.00000000000E+00  0.00000000000E+00  0.12530333099E+04  0.12530333099E+04  0.00000000000E+00 0. -1.
          1   -1    0    0  501    0 -0.00000000000E+00 -0.00000000000E+00 -0.11059458830E+04  0.11059458830E+04  0.00000000000E+00 0. -1.
         25    2    1    2    0    0 -0.11740786673E+03 -0.14008569923E+03 -0.54420535397E+03  0.58753145187E+03  0.12500051738E+03 0.  0.
          2    1    1    2  501    0  0.36857209452E+02  0.76479629999E+02 -0.53458327523E+03  0.54128261181E+03  0.00000000000E+00 0. -1.
          1    1    1    2  502    0  0.80550657278E+02  0.63606069234E+02  0.12258760560E+04  0.12301651292E+04  0.00000000000E+00 0. -1.
         22    1    3    3    0    0 -0.65930652076E+02 -0.56859961259E+02 -0.42242921267E+03  0.43130771590E+03  0.00000000000E+00 0. -1.
         22    1    3    3    0    0 -0.51477214653E+02 -0.83225737974E+02 -0.12177614129E+03  0.15622373596E+03  0.00000000000E+00 0. -1.
</event>
<event>
 7    1  0.5676357E-006  0.5349091E+02  0.7818608E-02  0.1470153E+00
          2   -1    0    0  502    0  0.00000000000E+00  0.00000000000E+00  0.18986566960E+04  0.18986566960E+04  0.00000000000E+00 0. -1.
          1   -1    0    0  501    0 -0.00000000000E+00 -0.00000000000E+00 -0.49816242307E+02  0.49816242307E+02  0.00000000000E+00 0. -1.
         25    2    1    2    0    0 -0.73873385052E+02 -0.29285362257E+02  0.59809588889E+03  0.61616497317E+03  0.12500268954E+03 0.  0.
          2    1    1    2  501    0  0.36045905054E+02  0.38802590305E+02 -0.23161492575E+02  0.57804870243E+02  0.00000000000E+00 0. -1.
          1    1    1    2  502    0  0.37827479998E+02 -0.95172280477E+01  0.12739060573E+04  0.12745030949E+04  0.00000000000E+00 0. -1.
         22    1    3    3    0    0 -0.10789927325E+03 -0.16368442187E+02  0.49334023464E+03  0.50526702463E+03  0.00000000000E+00 0.  1.
         22    1    3    3    0    0  0.34025888201E+02 -0.12916920070E+02  0.10475565425E+03  0.11089794854E+03  0.00000000000E+00 0.  1.
</event>
<event>
 7    1  0.5676357E-006  0.8109016E+02  0.7818608E-02  0.1331248E+00
          2   -1    0    0  502    0  0.00000000000E+00  0.00000000000E+00  0.22177951388E+03  0.22177951388E+03  0.00000000000E+00 0. -1.
          1   -1    0    0  501    0 -0.00000000000E+00 -0.00000000000E+00 -0.84117472195E+03  0.84117472195E+03  0.00000000000E+00 0. -1.
         25    2    1    2    0    0  0.14982176210E+03 -0.43672181406E+02 -0.23627160639E+03  0.30952025525E+03  0.12499878639E+03 0.  0.
          2    1    1    2  501    0 -0.73420830453E+02  0.24544314886E+02 -0.55710405468E+03  0.56245708235E+03  0.00000000000E+00 0. -1.
          1    1    1    2  502    0 -0.76400931644E+02  0.19127866520E+02  0.17398045300E+03  0.19097689824E+03  0.00000000000E+00 0. -1.
         22    1    3    3    0    0  0.16603919734E+03 -0.16586859869E+02 -0.18348577911E+03  0.24801445544E+03  0.00000000000E+00 0. -1.
         22    1    3    3    0    0 -0.16217435242E+02 -0.27085321537E+02 -0.52785827283E+02  0.61505799812E+02  0.00000000000E+00 0. -1.
</event>
<event>
 7    1  0.5676357E-006  0.1096084E+03  0.7818608E-02  0.1333025E+00
          2   -1    0    0  502    0  0.00000000000E+00  0.00000000000E+00  0.46313549475E+03  0.46313549475E+03  0.00000000000E+00 0. -1.
          1   -1    0    0  501    0 -0.00000000000E+00 -0.00000000000E+00 -0.10920137476E+03  0.10920137476E+03  0.00000000000E+00 0. -1.
         25    2    1    2    0    0 -0.99525709197E+02 -0.29097445826E+02  0.19017164406E+03  0.25008701312E+03  0.12500492704E+03 0.  0.
          2    1    1    2  501    0  0.10989818890E+03 -0.26327496978E+02 -0.32870901258E+02  0.11769131307E+03  0.00000000000E+00 0. -1.
          1    1    1    2  502    0 -0.10372479708E+02  0.55424942804E+02  0.19663337719E+03  0.20455854332E+03  0.00000000000E+00 0. -1.
         22    1    3    3    0    0 -0.10924666910E+03 -0.63313326474E+02  0.13926308322E+03  0.18798302680E+03  0.00000000000E+00 0. -1.
         22    1    3    3    0    0  0.97209599017E+01  0.34215880648E+02  0.50908560843E+02  0.62103986321E+02  0.00000000000E+00 0. -1.
</event>
<event>
 7    1  0.5676357E-006  0.7890792E+02  0.7818608E-02  0.1457054E+00
          2   -1    0    0  502    0  0.00000000000E+00  0.00000000000E+00  0.68329027950E+03  0.68329027950E+03  0.00000000000E+00 0. -1.
          1   -1    0    0  501    0 -0.00000000000E+00 -0.00000000000E+00 -0.57914868192E+03  0.57914868192E+03  0.00000000000E+00 0. -1.
         25    2    1    2    0    0  0.64689083058E+02  0.84627847390E+02  0.10045501191E+03  0.19252875769E+03  0.12501825106E+03 0.  0.
          2    1    1    2  501    0 -0.42508730859E+02 -0.65840921143E+02 -0.52983377975E+03  0.53559859341E+03  0.00000000000E+00 0. -1.
          1    1    1    2  502    0 -0.22180352199E+02 -0.18786926247E+02  0.53352036542E+03  0.53431161033E+03  0.00000000000E+00 0. -1.
         22    1    3    3    0    0  0.39829021643E+02 -0.39275044359E+01 -0.16882818583E+02  0.43437378137E+02  0.00000000000E+00 0.  1.
         22    1    3    3    0    0  0.24860061415E+02  0.88555351826E+02  0.11733783049E+03  0.14909137955E+03  0.00000000000E+00 0.  1.
</event>
<event>
 7    1  0.8678123E-006  0.9663662E+02  0.7818608E-02  0.1289381E+00
          2   -1    0    0  502    0  0.00000000000E+00  0.00000000000E+00  0.12856390278E+04  0.12856390278E+04  0.00000000000E+00 0. -1.
          1   -1    0    0  501    0 -0.00000000000E+00 -0.00000000000E+00 -0.10380174942E+04  0.10380174942E+04  0.00000000000E+00 0. -1.
         25    2    1    2    0    0 -0.10768891327E+03  0.86173011889E+01 -0.45040318341E+03  0.47974844402E+03  0.12499752794E+03 0.  0.
          2    1    1    2  501    0  0.45935156597E+02 -0.83125954708E+02 -0.56714527761E+03  0.57504237138E+03  0.00000000000E+00 0. -1.
          1    1    1    2  502    0  0.61753756678E+02  0.74508653520E+02  0.12651699946E+04  0.12688657065E+04  0.00000000000E+00 0. -1.
         22    1    3    3    0    0 -0.12918793126E+03  0.24758305300E+02 -0.41466067037E+03  0.43502409912E+03  0.00000000000E+00 0. -1.
         22    1    3    3    0    0  0.21499017988E+02 -0.16141004111E+02 -0.35742513041E+02  0.44724344899E+02  0.00000000000E+00 0. -1.
</event>
<event>
 7    1  0.5676357E-006  0.1364877E+03  0.7818608E-02  0.1383779E+00
          2   -1    0    0  502    0  0.00000000000E+00  0.00000000000E+00  0.29334218944E+04  0.29334218944E+04  0.00000000000E+00 0. -1.
          1   -1    0    0  501    0 -0.00000000000E+00 -0.00000000000E+00 -0.35638904853E+02  0.35638904853E+02  0.00000000000E+00 0. -1.
         25    2    1    2    0    0 -0.45508143066E+02 -0.15240385569E+03  0.62859591040E+03  0.66034512822E+03  0.12499977388E+03 0.  0.
          2    1    1    2  501    0 -0.59687558019E+01  0.28915582796E+02 -0.55545165212E+01  0.30043129465E+02  0.00000000000E+00 0. -1.
          1    1    1    2  502    0  0.51476898868E+02  0.12348827289E+03  0.22747415957E+04  0.22786725416E+04  0.00000000000E+00 0. -1.
         22    1    3    3    0    0 -0.85766544346E+02 -0.83097613116E+02  0.32151776652E+03  0.34297928162E+03  0.00000000000E+00 0.  1.
         22    1    3    3    0    0  0.40258401280E+02 -0.69306242575E+02  0.30707814389E+03  0.31736584660E+03  0.00000000000E+00 0.  1.
</event>
<event>
 7    1  0.5676357E-006  0.2464243E+03  0.7818608E-02  0.1204621E+00
          2   -1    0    0  502    0  0.00000000000E+00  0.00000000000E+00  0.45504378756E+03  0.45504378756E+03  0.00000000000E+00 0. -1.
          1   -1    0    0  501    0 -0.00000000000E+00 -0.00000000000E+00 -0.14769998132E+04  0.14769998132E+04  0.00000000000E+00 0. -1.
         25    2    1    2    0    0 -0.15956440341E+03  0.31646539926E+02 -0.85834905664E+03  0.88252233727E+03  0.12498108031E+03 0.  0.
          2    1    1    2  501    0 -0.84276990577E+02  0.22779509688E+02 -0.56773061065E+03  0.57440365900E+03  0.00000000000E+00 0. -1.
          1    1    1    2  502    0  0.24384139398E+03 -0.54426049615E+02  0.40412364168E+03  0.47511760445E+03  0.00000000000E+00 0. -1.
         22    1    3    3    0    0 -0.14699923374E+03  0.70014379367E+02 -0.63426917712E+03  0.65483446541E+03  0.00000000000E+00 0.  1.
         22    1    3    3    0    0 -0.12565169671E+02 -0.38367839440E+02 -0.22407987952E+03  0.22768787187E+03  0.00000000000E+00 0.  1.
</event>
<event>
 7    1  0.5676357E-006  0.6759116E+02  0.7818608E-02  0.1385853E+00
          2   -1    0    0  502    0  0.00000000000E+00  0.00000000000E+00  0.99046098223E+03  0.99046098223E+03  0.00000000000E+00 0. -1.
          1   -1    0    0  501    0 -0.00000000000E+00 -0.00000000000E+00 -0.10738892076E+04  0.10738892076E+04  0.00000000000E+00 0. -1.
         25    2    1    2    0    0  0.77652337289E+02  0.88649143806E+02  0.92851263483E+02  0.19528092999E+03  0.12499891321E+03 0.  0.
          2    1    1    2  501    0 -0.20356799184E+02 -0.54979868441E+02 -0.10205272844E+04  0.10222099214E+04  0.00000000000E+00 0. -1.
          1    1    1    2  502    0 -0.57295538105E+02 -0.33669275365E+02  0.84424779556E+03  0.84685933844E+03  0.00000000000E+00 0. -1.
         22    1    3    3    0    0  0.64233356663E+02  0.79561842098E+02  0.12553603612E+01  0.10226234280E+03  0.00000000000E+00 0.  1.
         22    1    3    3    0    0  0.13418980626E+02  0.90873017073E+01  0.91595903122E+02  0.93018587186E+02  0.00000000000E+00 0.  1.
</event>
<event>
 7    1  0.5676357E-006  0.1356893E+03  0.7818608E-02  0.1261487E+00
          2   -1    0    0  502    0  0.00000000000E+00  0.00000000000E+00  0.26121862830E+03  0.26121862830E+03  0.00000000000E+00 0. -1.
          1   -1    0    0  501    0 -0.00000000000E+00 -0.00000000000E+00 -0.47701041887E+03  0.47701041887E+03  0.00000000000E+00 0. -1.
         25    2    1    2    0    0  0.95101934853E+02 -0.12931332079E+03 -0.34272753610E+03  0.39856617306E+03  0.12500606929E+03 0.  0.
          2    1    1    2  501    0  0.32188801466E+02  0.82304700570E+02 -0.61345341473E+02  0.10757989401E+03  0.00000000000E+00 0. -1.
          1    1    1    2  502    0 -0.12729073632E+03  0.47008620222E+02  0.18828108700E+03  0.23208298010E+03  0.00000000000E+00 0. -1.
         22    1    3    3    0    0  0.88631701594E+00  0.17908083897E+02 -0.55361538127E+01  0.18765234498E+02  0.00000000000E+00 0.  1.
         22    1    3    3    0    0  0.94215617837E+02 -0.14722140469E+03 -0.33719138229E+03  0.37980093856E+03  0.00000000000E+00 0.  1.
</event>
<event>
 7    1  0.5676357E-006  0.3485703E+02  0.7818608E-02  0.1587943E+00
          2   -1    0    0  502    0  0.00000000000E+00  0.00000000000E+00  0.72204681186E+03  0.72204681186E+03  0.00000000000E+00 0. -1.
          1   -1    0    0  501    0 -0.00000000000E+00 -0.00000000000E+00 -0.12696283094E+04  0.12696283094E+04  0.00000000000E+00 0. -1.
         25    2    1    2    0    0 -0.17854348671E+02  0.11279524495E+01 -0.56726241240E+02  0.13842951118E+03  0.12499925231E+03 0.  0.
          2    1    1    2  501    0  0.23788968220E+02  0.25683097814E+02 -0.11715121179E+04  0.11720350587E+04  0.00000000000E+00 0. -1.
          1    1    1    2  502    0 -0.59346195482E+01 -0.26811050264E+02  0.68065686156E+03  0.68121055138E+03  0.00000000000E+00 0. -1.
         22    1    3    3    0    0 -0.16534852453E+01 -0.59480711165E+02 -0.10313367975E+02  0.60390848422E+02  0.00000000000E+00 0.  1.
         22    1    3    3    0    0 -0.16200863426E+02  0.60608663614E+02 -0.46412873265E+02  0.78038662761E+02  0.00000000000E+00 0.  1.
</event>
<event>
 7    1  0.5676357E-006  0.1070611E+03  0.7818608E-02  0.1343421E+00
          2   -1    0    0  502    0  0.00000000000E+00  0.00000000000E+00  0.10658021589E+03  0.10658021589E+03  0.00000000000E+00 0. -1.
          1   -1    0    0  501    0 -0.00000000000E+00 -0.00000000000E+00 -0.18019478120E+04  0.18019478120E+04  0.00000000000E+00 0. -1.
         25    2    1    2    0    0  0.91245864470E+02 -0.10147663949E+03 -0.23491443604E+03  0.29905265348E+03  0.12499752457E+03 0.  0.
          2    1    1    2  501    0 -0.38582312577E+02  0.98560310081E+02 -0.15235583906E+04  0.15272304669E+04  0.00000000000E+00 0. -1.
          1    1    1    2  502    0 -0.52663551893E+02  0.29163294086E+01  0.63105230567E+02  0.82244907442E+02  0.00000000000E+00 0. -1.
         22    1    3    3    0    0  0.95012197962E+02 -0.23585723933E+02 -0.17571744852E+03  0.20114727403E+03  0.00000000000E+00 0.  1.
         22    1    3    3    0    0 -0.37663334918E+01 -0.77890915557E+02 -0.59196987522E+02  0.97905379454E+02  0.00000000000E+00 0.  1.
</event>
<event>
 7    1  0.5676357E-006  0.9698708E+02  0.7818608E-02  0.1364986E+00
          2   -1    0    0  502    0  0.00000000000E+00  0.00000000000E+00  0.82541473064E+03  0.82541473064E+03  0.00000000000E+00 0. -1.
          1   -1    0    0  501    0 -0.00000000000E+00 -0.00000000000E+00 -0.41122830561E+03  0.41122830561E+03  0.00000000000E+00 0. -1.
         25    2    1    2    0    0 -0.13084590473E+03 -0.61195008605E+02 -0.13409430031E+03  0.23339519078E+03  0.12500621520E+03 0.  0.
          2    1    1    2  501    0  0.42030640917E+02  0.24190166579E+02 -0.22187112449E+03  0.22710908132E+03  0.00000000000E+00 0. -1.
          1    1    1    2  502    0  0.88815263815E+02  0.37004842026E+02  0.77015184984E+03  0.77613876416E+03  0.00000000000E+00 0. -1.
         22    1    3    3    0    0  0.11309900503E+02  0.22898645115E+02 -0.22751935499E+02  0.34203981734E+02  0.00000000000E+00 0. -1.
         22    1    3    3    0    0 -0.14215580524E+03 -0.84093653720E+02 -0.11134236481E+03  0.19919120904E+03  0.00000000000E+00 0. -1.
</event>
<event>
 7    1  0.5676357E-006  0.5955672E+02  0.7818608E-02  0.1451376E+00
          2   -1    0    0  502    0  0.00000000000E+00  0.00000000000E+00  0.14062549902E+04  0.14062549902E+04  0.00000000000E+00 0. -1.
          1   -1    0    0  501    0 -0.00000000000E+00 -0.00000000000E+00 -0.59169934228E+03  0.59169934228E+03  0.00000000000E+00 0. -1.
         25    2    1    2    0    0 -0.64770285454E+02 -0.34485302172E+02 -0.41653068319E+03  0.44103443110E+03  0.12501653263E+03 0.  0.
          2    1    1    2  501    0  0.27719213859E+02  0.49945932262E+02 -0.15761066506E+03  0.16764269357E+03  0.00000000000E+00 0. -1.
          1    1    1    2  502    0  0.37051071594E+02 -0.15460630090E+02  0.13886969962E+04  0.13892772078E+04  0.00000000000E+00 0. -1.
         22    1    3    3    0    0 -0.88562712012E+02  0.44375191699E+01 -0.18628760959E+03  0.20631558114E+03  0.00000000000E+00 0. -1.
         22    1    3    3    0    0  0.23792426559E+02 -0.38922821342E+02 -0.23024307360E+03  0.23471884995E+03  0.00000000000E+00 0. -1.
</event>
<event>
 7    1  0.5676357E-006  0.4453648E+02  0.7818608E-02  0.1543149E+00
          2   -1    0    0  502    0  0.00000000000E+00  0.00000000000E+00  0.26895017573E+04  0.26895017573E+04  0.00000000000E+00 0. -1.
          1   -1    0    0  501    0 -0.00000000000E+00 -0.00000000000E+00 -0.20843666479E+03  0.20843666479E+03  0.00000000000E+00 0. -1.
         25    2    1    2    0    0 -0.28787839311E+02 -0.62888185383E+02  0.14259872640E+04  0.14331252475E+04  0.12499853831E+03 0.  0.
          2    1    1    2  501    0  0.17957726398E+02  0.22119288768E+02 -0.20352204384E+03  0.20550660623E+03  0.00000000000E+00 0. -1.
          1    1    1    2  502    0  0.10830112914E+02  0.40768896615E+02  0.12585998724E+04  0.12593065683E+04  0.00000000000E+00 0. -1.
         22    1    3    3    0    0  0.12700065668E+02  0.30839198934E+02  0.19084947278E+03  0.19374175884E+03  0.00000000000E+00 0.  1.
         22    1    3    3    0    0 -0.41487904979E+02 -0.93727384317E+02  0.12351377912E+04  0.12393834887E+04  0.00000000000E+00 0.  1.
</event>
<event>
 7    1  0.5676357E-006  0.6005539E+02  0.7818608E-02  0.1441036E+00
          2   -1    0    0  502    0  0.00000000000E+00  0.00000000000E+00  0.10935204961E+03  0.10935204961E+03  0.00000000000E+00 0. -1.
          1   -1    0    0  501    0 -0.00000000000E+00 -0.00000000000E+00 -0.62361713646E+03  0.62361713646E+03  0.00000000000E+00 0. -1.
         25    2    1    2    0    0 -0.63734462869E+00  0.37216440394E+02 -0.48313090789E+03  0.50042613444E+03  0.12500148890E+03 0.  0.
          2    1    1    2  501    0  0.42442948600E+02  0.67936814802E+01 -0.11855964846E+03  0.12611085693E+03  0.00000000000E+00 0. -1.
          1    1    1    2  502    0 -0.41805603971E+02 -0.44010121875E+02  0.87425469503E+02  0.10643219470E+03  0.00000000000E+00 0. -1.
         22    1    3    3    0    0  0.11087408315E+02  0.58642442570E+02 -0.46779419776E+03  0.47158591810E+03  0.00000000000E+00 0.  1.
         22    1    3    3    0    0 -0.11724752944E+02 -0.21426002176E+02 -0.15336710131E+02  0.28840216339E+02  0.00000000000E+00 0.  1.
</event>
<event>
 7    1  0.6766476E-006  0.9642053E+02  0.7818608E-02  0.1302873E+00
          2   -1    0    0  502    0  0.00000000000E+00  0.00000000000E+00  0.19120628064E+04  0.19120628064E+04  0.00000000000E+00 0. -1.
          1   -1    0    0  501    0 -0.00000000000E+00 -0.00000000000E+00 -0.10935693033E+04  0.10935693033E+04  0.00000000000E+00 0. -1.
         25    2    1    2    0    0 -0.12279827432E+03  0.15110766396E+02 -0.37083853890E+03  0.41043030400E+03  0.12499624421E+03 0.  0.
          2    1    1    2  501    0  0.44412708915E+02 -0.71287620792E+02 -0.69919123137E+03  0.70421785806E+03  0.00000000000E+00 0. -1.
          1    1    1    2  502    0  0.78385565401E+02  0.56176854396E+02  0.18885232734E+04  0.18909839476E+04  0.00000000000E+00 0. -1.
         22    1    3    3    0    0 -0.39816530775E+02 -0.36778757987E+02 -0.45753493958E+02  0.70932470501E+02  0.00000000000E+00 0. -1.
         22    1    3    3    0    0 -0.82981743541E+02  0.51889524384E+02 -0.32508504494E+03  0.33949783349E+03  0.00000000000E+00 0. -1.
</event>
<event>
 7    1  0.5676357E-006  0.9005983E+02  0.7818608E-02  0.1419859E+00
          2   -1    0    0  502    0  0.00000000000E+00  0.00000000000E+00  0.14282864411E+04  0.14282864411E+04  0.00000000000E+00 0. -1.
          1   -1    0    0  501    0 -0.00000000000E+00 -0.00000000000E+00 -0.89622411414E+03  0.89622411414E+03  0.00000000000E+00 0. -1.
         25    2    1    2    0    0 -0.10414199829E+03 -0.61988603407E+02  0.24726394942E+03  0.30241170389E+03  0.12500094083E+03 0.  0.
          2    1    1    2  501    0  0.25708389185E+02  0.21712837840E+02 -0.86663828700E+03  0.86729135190E+03  0.00000000000E+00 0. -1.
          1    1    1    2  502    0  0.78433609100E+02  0.40275765567E+02  0.11514366645E+04  0.11548074994E+04  0.00000000000E+00 0. -1.
         22    1    3    3    0    0  0.13964868232E+02 -0.52849756334E+02  0.63651646989E+02  0.83902600995E+02  0.00000000000E+00 0. -1.
         22    1    3    3    0    0 -0.11810686652E+03 -0.91388470730E+01  0.18361230243E+03  0.21850910289E+03  0.00000000000E+00 0. -1.
</event>
<event>
 7    1  0.5676357E-006  0.7158581E+02  0.7818608E-02  0.1480475E+00
          2   -1    0    0  502    0  0.00000000000E+00  0.00000000000E+00  0.86733100653E+03  0.86733100653E+03  0.00000000000E+00 0. -1.
          1   -1    0    0  501    0 -0.00000000000E+00 -0.00000000000E+00 -0.16187932124E+04  0.16187932124E+04  0.00000000000E+00 0. -1.
         25    2    1    2    0    0  0.97066790235E+02  0.59834863501E+01  0.14828153672E+03  0.21695606681E+03  0.12499902768E+03 0.  0.
          2    1    1    2  501    0 -0.26875452577E+02 -0.33552756920E+01 -0.15825383807E+04  0.15827701267E+04  0.00000000000E+00 0. -1.
          1    1    1    2  502    0 -0.70191337658E+02 -0.26282106581E+01  0.68279463811E+03  0.68639802535E+03  0.00000000000E+00 0. -1.
         22    1    3    3    0    0  0.57389716797E+02  0.56053800320E+02  0.12585601203E+03  0.14924926763E+03  0.00000000000E+00 0.  1.
         22    1    3    3    0    0  0.39677073438E+02 -0.50070313970E+02  0.22425524685E+02  0.67706799179E+02  0.00000000000E+00 0.  1.
</event>
<event>
 7    1  0.5676357E-006  0.5586381E+02  0.7818608E-02  0.1467761E+00
          2   -1    0    0  502    0  0.00000000000E+00  0.00000000000E+00  0.26210412791E+03  0.26210412791E+03  0.00000000000E+00 0. -1.
          1   -1    0    0  501    0 -0.00000000000E+00 -0.00000000000E+00 -0.15826097589E+03  0.15826097589E+03  0.00000000000E+00 0. -1.
         25    2    1    2    0    0  0.62239213725E+02 -0.57015722842E+02  0.54245442039E+02  0.16029078306E+03  0.12500421904E+03 0.  0.
          2    1    1    2  501    0 -0.25333420395E+02  0.47980019657E+02 -0.95634710940E+02  0.10995391040E+03  0.00000000000E+00 0. -1.
          1    1    1    2  502    0 -0.36905793330E+02  0.90357031847E+01  0.14523242092E+03  0.15012041033E+03  0.00000000000E+00 0. -1.
         22    1    3    3    0    0  0.86582009039E+01  0.10228838589E+02  0.71373075334E+02  0.72620310274E+02  0.00000000000E+00 0. -1.
         22    1    3    3    0    0  0.53581012821E+02 -0.67244561431E+02 -0.17127633294E+02  0.87670472790E+02  0.00000000000E+00 0. -1.
</event>
<event>
 7    1  0.5676357E-006  0.1200003E+03  0.7818608E-02  0.1365563E+00
          2   -1    0    0  502    0  0.00000000000E+00  0.00000000000E+00  0.45391693138E+03  0.45391693138E+03  0.00000000000E+00 0. -1.
          1   -1    0    0  501    0 -0.00000000000E+00 -0.00000000000E+00 -0.36106297346E+03  0.36106297346E+03  0.00000000000E+00 0. -1.
         25    2    1    2    0    0 -0.19366983263E+02  0.15558708640E+03  0.21953829311E+03  0.29733039017E+03  0.12500350908E+03 0.  0.
          2    1    1    2  501    0  0.20807849512E+02 -0.11660735848E+03 -0.30914804587E+03  0.33106307090E+03  0.00000000000E+00 0. -1.
          1    1    1    2  502    0 -0.14408662492E+01 -0.38979727917E+02  0.18246371067E+03  0.18658644376E+03  0.00000000000E+00 0. -1.
         22    1    3    3    0    0 -0.36352606919E+02  0.96785272912E+02  0.21173619623E+03  0.23562919572E+03  0.00000000000E+00 0. -1.
         22    1    3    3    0    0  0.16985623656E+02  0.58801813489E+02  0.78020968789E+01  0.61701194448E+02  0.00000000000E+00 0. -1.
</event>
<event>
 7    1  0.5676357E-006  0.1022776E+03  0.7818608E-02  0.1314732E+00
          2   -1    0    0  502    0  0.00000000000E+00  0.00000000000E+00  0.17636207527E+04  0.17636207527E+04  0.00000000000E+00 0. -1.
          1   -1    0    0  501    0 -0.00000000000E+00 -0.00000000000E+00 -0.26370300659E+02  0.26370300659E+02  0.00000000000E+00 0. -1.
         25    2    1    2    0    0  0.15971646435E+02  0.10645598638E+03  0.11861470363E+04  0.11975632851E+04  0.12500023827E+03 0.  0.
          2    1    1    2  501    0  0.53145627139E+02 -0.89832641921E+02  0.13680912175E+03  0.17207875241E+03  0.00000000000E+00 0. -1.
          1    1    1    2  502    0 -0.69117273574E+02 -0.16623344460E+02  0.41429429396E+03  0.42034901581E+03  0.00000000000E+00 0. -1.
         22    1    3    3    0    0 -0.41465600652E+01 -0.25632134052E+02  0.33370847754E+03  0.33471711674E+03  0.00000000000E+00 0. -1.
         22    1    3    3    0    0  0.20118206501E+02  0.13208812043E+03  0.85243855880E+03  0.86284616840E+03  0.00000000000E+00 0. -1.
</event>
<event>
 7    1  0.5676357E-006  0.1177880E+03  0.7818608E-02  0.1353072E+00
          2   -1    0    0  502    0  0.00000000000E+00  0.00000000000E+00  0.17931053576E+04  0.17931053576E+04  0.00000000000E+00 0. -1.
          1   -1    0    0  501    0 -0.00000000000E+00 -0.00000000000E+00 -0.16489269340E+03  0.16489269340E+03  0.00000000000E+00 0. -1.
         25    2    1    2    0    0  0.13943913146E+03  0.41191113742E+02  0.78868272928E+02  0.20732758642E+03  0.12499817752E+03 0.  0.
          2    1    1    2  501    0 -0.97692737316E+02 -0.55534373788E+02 -0.68906124564E+02  0.13181802456E+03  0.00000000000E+00 0. -1.
          1    1    1    2  502    0 -0.41746394139E+02  0.14343260047E+02  0.16182505158E+04  0.16188524400E+04  0.00000000000E+00 0. -1.
         22    1    3    3    0    0  0.99775627511E+02  0.11885384324E+02 -0.14707924797E+02  0.10155176639E+03  0.00000000000E+00 0.  1.
         22    1    3    3    0    0  0.39663503944E+02  0.29305729417E+02  0.93576197725E+02  0.10577582003E+03  0.00000000000E+00 0.  1.
</event>
<event>
 7    1  0.5676357E-006  0.2058246E+03  0.7818608E-02  0.1341979E+00
          2   -1    0    0  502    0  0.00000000000E+00  0.00000000000E+00  0.13676241987E+04  0.13676241987E+04  0.00000000000E+00 0. -1.
          1   -1    0    0  501    0 -0.00000000000E+00 -0.00000000000E+00 -0.13004587669E+03  0.13004587669E+03  0.00000000000E+00 0. -1.
         25    2    1    2    0    0  0.19324493221E+03  0.41737104637E+02  0.29631294138E+03  0.37750776998E+03  0.12500066976E+03 0.  0.
          2    1    1    2  501    0 -0.19741805888E+03 -0.69200566862E+02  0.33367503655E+02  0.21183955892E+03  0.00000000000E+00 0. -1.
          1    1    1    2  502    0  0.41731266668E+01  0.27463462225E+02  0.90789787694E+03  0.90832274644E+03  0.00000000000E+00 0. -1.
         22    1    3    3    0    0  0.18901715853E+03  0.28987838263E+02  0.18731025386E+03  0.26768061601E+03  0.00000000000E+00 0. -1.
         22    1    3    3    0    0  0.42277736776E+01  0.12749266375E+02  0.10900268752E+03  0.10982715397E+03  0.00000000000E+00 0. -1.
</event>
<event>
 7    1  0.5676357E-006  0.4499742E+02  0.7818608E-02  0.1522349E+00
          2   -1    0    0  502    0  0.00000000000E+00  0.00000000000E+00  0.10148537776E+03  0.10148537776E+03  0.00000000000E+00 0. -1.
          1   -1    0    0  501    0 -0.00000000000E+00 -0.00000000000E+00 -0.18700353985E+04  0.18700353985E+04  0.00000000000E+00 0. -1.
         25    2    1    2    0    0  0.65542039933E+01 -0.59253401158E+02 -0.40056512107E+03  0.42382987300E+03  0.12500168756E+03 0.  0.
          2    1    1    2  501    0  0.19636610210E+02  0.40297805812E+02 -0.14545730990E+04  0.14552636908E+04  0.00000000000E+00 0. -1.
          1    1    1    2  502    0 -0.26190814203E+02  0.18955595346E+02  0.86588199281E+02  0.92427212434E+02  0.00000000000E+00 0. -1.
         22    1    3    3    0    0  0.12277435002E+02 -0.76609757042E+02 -0.12145360991E+03  0.14412067737E+03  0.00000000000E+00 0. -1.
         22    1    3    3    0    0 -0.57232310086E+01  0.17356355884E+02 -0.27911151116E+03  0.27970919564E+03  0.00000000000E+00 0. -1.
</event>
<event>
 7    1  0.5676357E-006  0.4398917E+02  0.7818608E-02  0.1565143E+00
          2   -1    0    0  502    0  0.00000000000E+00  0.00000000000E+00  0.23974453409E+03  0.23974453409E+03  0.00000000000E+00 0. -1.
          1   -1    0    0  501    0 -0.00000000000E+00 -0.00000000000E+00 -0.33128984719E+03  0.33128984719E+03  0.00000000000E+00 0. -1.
         25    2    1    2    0    0 -0.67462468201E+02  0.13367731786E+02  0.13537163400E+03  0.19667993366E+03  0.12501054412E+03 0.  0.
          2    1    1    2  501    0  0.43122269951E+02 -0.73848743375E+01 -0.29685450387E+03  0.30006109879E+03  0.00000000000E+00 0. -1.
          1    1    1    2  502    0  0.24340198249E+02 -0.59828574486E+01  0.69937556770E+02  0.74293348834E+02  0.00000000000E+00 0. -1.
         22    1    3    3    0    0 -0.55286555385E+02  0.39617627281E+02  0.14967296368E+03  0.16440241986E+03  0.00000000000E+00 0. -1.
         22    1    3    3    0    0 -0.12175912816E+02 -0.26249895495E+02 -0.14301329680E+02  0.32277513798E+02  0.00000000000E+00 0. -1.
</event>
<event>
 7    1  0.5676357E-006  0.4748406E+02  0.7818608E-02  0.1553930E+00
          2   -1    0    0  502    0  0.00000000000E+00  0.00000000000E+00  0.10989290775E+03  0.10989290775E+03  0.00000000000E+00 0. -1.
          1   -1    0    0  501    0 -0.00000000000E+00 -0.00000000000E+00 -0.30078569922E+03  0.30078569922E+03  0.00000000000E+00 0. -1.
         25    2    1    2    0    0  0.26294431863E+02  0.21729799226E+02 -0.13800127020E+03  0.18928704468E+03  0.12498661281E+03 0.  0.
          2    1    1    2  501    0 -0.49136420387E+02 -0.11738902735E+02 -0.13046793321E+03  0.13990736664E+03  0.00000000000E+00 0. -1.
          1    1    1    2  502    0  0.22841988523E+02 -0.99908964909E+01  0.77576411938E+02  0.81484195655E+02  0.00000000000E+00 0. -1.
         22    1    3    3    0    0 -0.27884209650E+02 -0.23619693057E+02 -0.26924613860E+01  0.36642439824E+02  0.00000000000E+00 0. -1.
         22    1    3    3    0    0  0.54178641514E+02  0.45349492283E+02 -0.13530880882E+03  0.15264460485E+03  0.00000000000E+00 0. -1.
</event>
<event>
 7    1  0.5676357E-006  0.1140353E+03  0.7818608E-02  0.1447297E+00
          2   -1    0    0  502    0  0.00000000000E+00  0.00000000000E+00  0.15624850206E+03  0.15624850206E+03  0.00000000000E+00 0. -1.
          1   -1    0    0  501    0 -0.00000000000E+00 -0.00000000000E+00 -0.23008354696E+03  0.23008354696E+03  0.00000000000E+00 0. -1.
         25    2    1    2    0    0 -0.12172344557E+01 -0.11742910406E+03  0.43755291560E+02  0.17699965525E+03  0.12499310493E+03 0.  0.
          2    1    1    2  501    0  0.20221980724E+02  0.76137462980E+01 -0.92639155038E+02  0.95125762458E+02  0.00000000000E+00 0. -1.
          1    1    1    2  502    0 -0.19004746268E+02  0.10981535776E+03 -0.24951181419E+02  0.11420663131E+03  0.00000000000E+00 0. -1.
         22    1    3    3    0    0  0.19972920184E+02 -0.10368677776E+03 -0.20851230459E+02  0.10763196196E+03  0.00000000000E+00 0. -1.
         22    1    3    3    0    0 -0.21190154640E+02 -0.13742326299E+02  0.64606522018E+02  0.69367693295E+02  0.00000000000E+00 0. -1.
</event>
<event>
 7    1  0.5676357E-006  0.1025645E+03  0.7818608E-02  0.1341433E+00
          2   -1    0    0  502    0  0.00000000000E+00  0.00000000000E+00  0.25226773514E+04  0.25226773514E+04  0.00000000000E+00 0. -1.
          1   -1    0    0  501    0 -0.00000000000E+00 -0.00000000000E+00 -0.98063126501E+02  0.98063126501E+02  0.00000000000E+00 0. -1.
         25    2    1    2    0    0 -0.12570932582E+03  0.56287686795E+02  0.23377635561E+03  0.29874221522E+03  0.12499755370E+03 0.  0.
          2    1    1    2  501    0  0.98318780753E+02 -0.74325994557E+01 -0.27965159076E+02  0.10248842035E+03  0.00000000000E+00 0. -1.
          1    1    1    2  502    0  0.27390545069E+02 -0.48855087339E+02  0.22188030284E+04  0.22195098423E+04  0.00000000000E+00 0. -1.
         22    1    3    3    0    0  0.99732819496E+01 -0.18655871821E+02  0.39340943700E+01  0.21517086344E+02  0.00000000000E+00 0. -1.
         22    1    3    3    0    0 -0.13568260777E+03  0.74943558615E+02  0.22984226124E+03  0.27722512888E+03  0.00000000000E+00 0. -1.
</event>
<event>
 7    1  0.5676357E-006  0.1254448E+03  0.7818608E-02  0.1335642E+00
          2   -1    0    0  502    0  0.00000000000E+00  0.00000000000E+00  0.26829282643E+04  0.26829282643E+04  0.00000000000E+00 0. -1.
          1   -1    0    0  501    0 -0.00000000000E+00 -0.00000000000E+00 -0.17885020120E+03  0.17885020120E+03  0.00000000000E+00 0. -1.
         25    2    1    2    0    0 -0.19517793962E+02 -0.12974411690E+03  0.22705897351E+03  0.29050541027E+03  0.12499254295E+03 0.  0.
          2    1    1    2  501    0  0.47593802022E+02  0.73288736977E+01 -0.14151317115E+03  0.14948197212E+03  0.00000000000E+00 0. -1.
          1    1    1    2  502    0 -0.28076008060E+02  0.12241524321E+03  0.24185322608E+04  0.24217910831E+04  0.00000000000E+00 0. -1.
         22    1    3    3    0    0  0.24634822621E+02 -0.10831016155E+03  0.21171244370E+03  0.23908183620E+03  0.00000000000E+00 0.  1.
         22    1    3    3    0    0 -0.44152616583E+02 -0.21433955356E+02  0.15346529802E+02  0.51423574072E+02  0.00000000000E+00 0.  1.
</event>
<event>
 7    1  0.5676357E-006  0.5042152E+02  0.7818608E-02  0.1490961E+00
          2   -1    0    0  502    0  0.00000000000E+00  0.00000000000E+00  0.13732450472E+03  0.13732450472E+03  0.00000000000E+00 0. -1.
          1   -1    0    0  501    0 -0.00000000000E+00 -0.00000000000E+00 -0.17862143103E+04  0.17862143103E+04  0.00000000000E+00 0. -1.
         25    2    1    2    0    0 -0.30977661151E+02 -0.73573132029E+02 -0.38907965257E+03  0.41639031150E+03  0.12500117687E+03 0.  0.
          2    1    1    2  501    0  0.32006914863E+02  0.37859718125E+02 -0.13804445551E+04  0.13813344890E+04  0.00000000000E+00 0. -1.
          1    1    1    2  502    0 -0.10292537125E+01  0.35713413904E+02  0.12063440205E+03  0.12581401453E+03  0.00000000000E+00 0. -1.
         22    1    3    3    0    0  0.45803954149E+02 -0.13879598854E+02 -0.17170833530E+03  0.17825374580E+03  0.00000000000E+00 0. -1.
         22    1    3    3    0    0 -0.76781615300E+02 -0.59693533175E+02 -0.21737131727E+03  0.23813656570E+03  0.00000000000E+00 0. -1.
</event>
<event>
 7    1  0.5676357E-006  0.5227807E+02  0.7818608E-02  0.1443243E+00
          2   -1    0    0  502    0  0.00000000000E+00  0.00000000000E+00  0.13723795192E+04  0.13723795192E+04  0.00000000000E+00 0. -1.
          1   -1    0    0  501    0 -0.00000000000E+00 -0.00000000000E+00 -0.10880517123E+04  0.10880517123E+04  0.00000000000E+00 0. -1.
         25    2    1    2    0    0 -0.46731287948E+02 -0.15462320691E+02  0.53334643687E+03  0.55000532294E+03  0.12499814761E+03 0.  0.
          2    1    1    2  501    0  0.30578368845E+01  0.48475895331E+02 -0.10782729256E+04  0.10793663720E+04  0.00000000000E+00 0. -1.
          1    1    1    2  502    0  0.43673451063E+02 -0.33013574640E+02  0.82925429566E+03  0.83105953656E+03  0.00000000000E+00 0. -1.
         22    1    3    3    0    0 -0.53506575420E+02  0.90690375573E+01  0.84426086317E+02  0.10036416246E+03  0.00000000000E+00 0. -1.
         22    1    3    3    0    0  0.67752874722E+01 -0.24531358248E+02  0.44892035056E+03  0.44964116048E+03  0.00000000000E+00 0. -1.
</event>
<event>
 7    1  0.5676357E-006  0.4846703E+02  0.7818608E-02  0.1487513E+00
          2   -1    0    0  502    0  0.00000000000E+00  0.00000000000E+00  0.57038621575E+02  0.57038621575E+02  0.00000000000E+00 0. -1.
          1   -1    0    0  501    0 -0.00000000000E+00 -0.00000000000E+00 -0.13930730474E+04  0.13930730474E+04  0.00000000000E+00 0. -1.
         25    2    1    2    0    0 -0.29993177622E+02  0.73249240395E+02 -0.10142934865E+03  0.17938147799E+03  0.12499903982E+03 0.  0.
          2    1    1    2  501    0  0.59153816614E+01 -0.37611269877E+02 -0.12263436967E+04  0.12269345792E+04  0.00000000000E+00 0. -1.
          1    1    1    2  502    0  0.24077795961E+02 -0.35637970518E+02 -0.82613805073E+01  0.43795611754E+02  0.00000000000E+00 0. -1.
         22    1    3    3    0    0  0.21636436354E+01 -0.34975502082E+02 -0.24849062079E+02  0.42958619460E+02  0.00000000000E+00 0. -1.
         22    1    3    3    0    0 -0.32156821258E+02  0.10822474248E+03 -0.76580286573E+02  0.13642285853E+03  0.00000000000E+00 0. -1.
</event>
<event>
 7    1  0.5676357E-006  0.1153211E+03  0.7818608E-02  0.1335447E+00
          2   -1    0    0  502    0  0.00000000000E+00  0.00000000000E+00  0.33249479737E+04  0.33249479737E+04  0.00000000000E+00 0. -1.
          1   -1    0    0  501    0 -0.00000000000E+00 -0.00000000000E+00 -0.37537314383E+03  0.37537314383E+03  0.00000000000E+00 0. -1.
         25    2    1    2    0    0  0.49940339989E+02  0.15944844803E+03  0.21196615822E+04  0.21299081103E+04  0.12500196033E+03 0.  0.
          2    1    1    2  501    0 -0.28700650320E+02 -0.11146811921E+03 -0.36071217305E+03  0.37863193304E+03  0.00000000000E+00 0. -1.
          1    1    1    2  502    0 -0.21239689669E+02 -0.47980328817E+02  0.11906254207E+04  0.11917810742E+04  0.00000000000E+00 0. -1.
         22    1    3    3    0    0  0.79890074141E+02  0.11890857878E+03  0.18527010069E+04  0.18582310661E+04  0.00000000000E+00 0. -1.
         22    1    3    3    0    0 -0.29949734152E+02  0.40539869255E+02  0.26696057529E+03  0.27167704418E+03  0.00000000000E+00 0. -1.
</event>
<event>
 7    1  0.5676357E-006  0.6339896E+02  0.7818608E-02  0.1459803E+00
          2   -1    0    0  502    0  0.00000000000E+00  0.00000000000E+00  0.11742700485E+03  0.11742700485E+03  0.00000000000E+00 0. -1.
          1   -1    0    0  501    0 -0.00000000000E+00 -0.00000000000E+00 -0.58770879879E+03  0.58770879879E+03  0.00000000000E+00 0. -1.
         25    2    1    2    0    0 -0.62366775232E+02 -0.74127688281E+02 -0.91362830899E+02  0.18263571898E+03  0.12499644057E+03 0.  0.
          2    1    1    2  501    0  0.43057381829E+02  0.44384686938E+02 -0.44405323846E+03  0.44833828428E+03  0.00000000000E+00 0. -1.
          1    1    1    2  502    0  0.19309393403E+02  0.29743001343E+02  0.65134275412E+02  0.74161800382E+02  0.00000000000E+00 0. -1.
         22    1    3    3    0    0 -0.10071659195E+03 -0.47805194323E+02 -0.67943934560E+02  0.13055859505E+03  0.00000000000E+00 0. -1.
         22    1    3    3    0    0  0.38349816721E+02 -0.26322493957E+02 -0.23418896339E+02  0.52077123926E+02  0.00000000000E+00 0. -1.
</event>
<event>
 7    1  0.5676357E-006  0.3982804E+02  0.7818608E-02  0.1541341E+00
          2   -1    0    0  502    0  0.00000000000E+00  0.00000000000E+00  0.66908667031E+03  0.66908667031E+03  0.00000000000E+00 0. -1.
          1   -1    0    0  501    0 -0.00000000000E+00 -0.00000000000E+00 -0.10785314377E+04  0.10785314377E+04  0.00000000000E+00 0. -1.
         25    2    1    2    0    0 -0.12453521759E+02  0.67626676044E+02 -0.67703485321E+03  0.69190285266E+03  0.12499963014E+03 0.  0.
          2    1    1    2  501    0  0.64162786541E+01 -0.35961767755E+02 -0.39282203788E+03  0.39451688280E+03  0.00000000000E+00 0. -1.
          1    1    1    2  502    0  0.60372431045E+01 -0.31664908289E+02  0.66041212370E+03  0.66119837254E+03  0.00000000000E+00 0. -1.
         22    1    3    3    0    0  0.54843669185E+02  0.42512678031E+02 -0.28370931101E+03  0.29207212979E+03  0.00000000000E+00 0.  1.
         22    1    3    3    0    0 -0.67297190944E+02  0.25113998013E+02 -0.39332554220E+03  0.39983072287E+03  0.00000000000E+00 0.  1.
</event>
<event>
 7    1  0.5676357E-006  0.9340658E+02  0.7818608E-02  0.1354714E+00
          2   -1    0    0  502    0  0.00000000000E+00  0.00000000000E+00  0.31390371464E+03  0.31390371464E+03  0.00000000000E+00 0. -1.
          1   -1    0    0  501    0 -0.00000000000E+00 -0.00000000000E+00 -0.12754713083E+03  0.12754713083E+03  0.00000000000E+00 0. -1.
         25    2    1    2    0    0 -0.93134212430E+02 -0.75432085081E+02  0.19491456869E+03  0.26073147186E+03  0.12500092138E+03 0.  0.
          2    1    1    2  501    0  0.17098368313E+02  0.52163173631E+02 -0.63597900889E+02  0.84012165070E+02  0.00000000000E+00 0. -1.
          1    1    1    2  502    0  0.76035844117E+02  0.23268911450E+02  0.55039916010E+02  0.96707208547E+02  0.00000000000E+00 0. -1.
         22    1    3    3    0    0 -0.53145723940E+02 -0.62329387983E+02  0.20207588639E+03  0.21804606037E+03  0.00000000000E+00 0.  1.
         22    1    3    3    0    0 -0.39988488490E+02 -0.13102697099E+02 -0.71613177045E+01  0.42685411492E+02  0.00000000000E+00 0.  1.
</event>
<event>
 7    1  0.5676357E-006  0.2117404E+03  0.7818608E-02  0.1341889E+00
          2   -1    0    0  502    0  0.00000000000E+00  0.00000000000E+00  0.17495176255E+04  0.17495176255E+04  0.00000000000E+00 0. -1.
          1   -1    0    0  501    0 -0.00000000000E+00 -0.00000000000E+00 -0.52660516982E+02  0.52660516982E+02  0.00000000000E+00 0. -1.
         25    2    1    2    0    0  0.64343934242E+02  0.18697160541E+03  0.63843954015E+03  0.67994745871E+03  0.12499990833E+03 0.  0.
          2    1    1    2  501    0 -0.91269817585E+01  0.25435747046E+02 -0.11984050201E+02  0.29561740189E+02  0.00000000000E+00 0. -1.
          1    1    1    2  502    0 -0.55216952483E+02 -0.21240735246E+03  0.10704016185E+04  0.10926689435E+04  0.00000000000E+00 0. -1.
         22    1    3    3    0    0  0.46634085682E+01  0.86872344257E+01 -0.39419934721E+01  0.10618603203E+02  0.00000000000E+00 0.  1.
         22    1    3    3    0    0  0.59680525674E+02  0.17828437099E+03  0.64238153362E+03  0.66932885551E+03  0.00000000000E+00 0.  1.
</event>
<event>
 7    1  0.5676357E-006  0.1445210E+03  0.7818608E-02  0.1379419E+00
          2   -1    0    0  502    0  0.00000000000E+00  0.00000000000E+00  0.20313968315E+04  0.20313968315E+04  0.00000000000E+00 0. -1.
          1   -1    0    0  501    0 -0.00000000000E+00 -0.00000000000E+00 -0.90693830866E+03  0.90693830866E+03  0.00000000000E+00 0. -1.
         25    2    1    2    0    0  0.11646764796E+03 -0.18297221809E+02  0.68378422596E+03  0.70504275265E+03  0.12499965619E+03 0.  0.
          2    1    1    2  501    0 -0.14068685687E+03  0.34048548597E+02 -0.89030727048E+03  0.90199730112E+03  0.00000000000E+00 0. -1.
          1    1    1    2  502    0  0.24219208911E+02 -0.15751326788E+02  0.13309815674E+04  0.13312950864E+04  0.00000000000E+00 0. -1.
         22    1    3    3    0    0  0.12891446746E+03 -0.41079156070E+02  0.45219170389E+03  0.47199976065E+03  0.00000000000E+00 0. -1.
         22    1    3    3    0    0 -0.12446819495E+02  0.22781934261E+02  0.23159252207E+03  0.23304299200E+03  0.00000000000E+00 0. -1.
</event>
<event>
 7    1  0.5676357E-006  0.5089857E+02  0.7818608E-02  0.1481020E+00
          2   -1    0    0  502    0  0.00000000000E+00  0.00000000000E+00  0.32531157862E+04  0.32531157862E+04  0.00000000000E+00 0. -1.
          1   -1    0    0  501    0 -0.00000000000E+00 -0.00000000000E+00 -0.24387760054E+03  0.24387760054E+03  0.00000000000E+00 0. -1.
         25    2    1    2    0    0  0.74022110874E+02 -0.45334882665E+02 -0.12328351069E+03  0.19585430676E+03  0.12500224391E+03 0.  0.
          2    1    1    2  501    0 -0.26541215332E+02  0.27119304196E+02 -0.79827509558E+02  0.88387352340E+02  0.00000000000E+00 0. -1.
          1    1    1    2  502    0 -0.47480895542E+02  0.18215578469E+02  0.32123492059E+04  0.32127517276E+04  0.00000000000E+00 0. -1.
         22    1    3    3    0    0  0.10218353787E+03 -0.37024071347E+02 -0.55608799542E+02  0.12208438007E+03  0.00000000000E+00 0. -1.
         22    1    3    3    0    0 -0.28161426993E+02 -0.83108113181E+01 -0.67674711145E+02  0.73769926689E+02  0.00000000000E+00 0. -1.
</event>
<event>
 7    1  0.5676357E-006  0.1009426E+03  0.7818608E-02  0.1405926E+00
          2   -1    0    0  502    0  0.00000000000E+00  0.00000000000E+00  0.11790736688E+03  0.11790736688E+03  0.00000000000E+00 0. -1.
          1   -1    0    0  501    0 -0.00000000000E+00 -0.00000000000E+00 -0.93343209066E+03  0.93343209066E+03  0.00000000000E+00 0. -1.
         25    2    1    2    0    0  0.91581162641E+02  0.89944281586E+02 -0.11941415015E+03  0.21531932642E+03  0.12500235971E+03 0.  0.
          2    1    1    2  501    0 -0.80067192226E+02 -0.58532121305E+02 -0.75864395892E+03  0.76509961502E+03  0.00000000000E+00 0. -1.
          1    1    1    2  502    0 -0.11513970416E+02 -0.31412160280E+02  0.62533385291E+02  0.70920516102E+02  0.00000000000E+00 0. -1.
         22    1    3    3    0    0  0.58041474648E+02  0.86589867275E+01 -0.11278268693E+03  0.12713664028E+03  0.00000000000E+00 0. -1.
         22    1    3    3    0    0  0.33539687993E+02  0.81285294858E+02 -0.66314632248E+01  0.88182686143E+02  0.00000000000E+00 0. -1.
</event>
<event>
 7    1  0.5676357E-006  0.3817305E+02  0.7818608E-02  0.1613577E+00
          2   -1    0    0  502    0  0.00000000000E+00  0.00000000000E+00  0.17389045453E+04  0.17389045453E+04  0.00000000000E+00 0. -1.
          1   -1    0    0  501    0 -0.00000000000E+00 -0.00000000000E+00 -0.13891478085E+03  0.13891478085E+03  0.00000000000E+00 0. -1.
         25    2    1    2    0    0  0.29412883697E+02  0.23534124121E+01  0.11953970803E+03  0.17545884238E+03  0.12500162917E+03 0.  0.
          2    1    1    2  501    0  0.54403200866E+00  0.21487195675E+02 -0.10968167909E+03  0.11176791255E+03  0.00000000000E+00 0. -1.
          1    1    1    2  502    0 -0.29956915706E+02 -0.23840608088E+02  0.15901317355E+04  0.15905925712E+04  0.00000000000E+00 0. -1.
         22    1    3    3    0    0  0.22434729807E+02  0.39084123223E+02 -0.50807167993E+01  0.45350848645E+02  0.00000000000E+00 0. -1.
         22    1    3    3    0    0  0.69781538901E+01 -0.36730710811E+02  0.12462042483E+03  0.13010799373E+03  0.00000000000E+00 0. -1.
</event>
<event>
 7    1  0.5676357E-006  0.5362201E+02  0.7818608E-02  0.1557552E+00
          2   -1    0    0  502    0  0.00000000000E+00  0.00000000000E+00  0.22452062867E+03  0.22452062867E+03  0.00000000000E+00 0. -1.
          1   -1    0    0  501    0 -0.00000000000E+00 -0.00000000000E+00 -0.24447076420E+03  0.24447076420E+03  0.00000000000E+00 0. -1.
         25    2    1    2    0    0  0.21084507770E+01 -0.65502366006E+02 -0.60615084681E+02  0.15360713218E+03  0.12500382813E+03 0.  0.
          2    1    1    2  501    0 -0.16291624528E+02  0.14142492475E+02 -0.13248066628E+03  0.13422575781E+03  0.00000000000E+00 0. -1.
          1    1    1    2  502    0  0.14183173751E+02  0.51359873532E+02  0.17314561542E+03  0.18115850289E+03  0.00000000000E+00 0. -1.
         22    1    3    3    0    0 -0.10762214773E+02 -0.84114068561E+02 -0.85189769135E+02  0.12020107554E+03  0.00000000000E+00 0.  1.
         22    1    3    3    0    0  0.12870665550E+02  0.18611702555E+02  0.24574684454E+02  0.33406056632E+02  0.00000000000E+00 0.  1.
</event>
<event>
 7    1  0.5676357E-006  0.3418436E+02  0.7818608E-02  0.1620634E+00
          2   -1    0    0  502    0  0.00000000000E+00  0.00000000000E+00  0.19429073722E+04  0.19429073722E+04  0.00000000000E+00 0. -1.
          1   -1    0    0  501    0 -0.00000000000E+00 -0.00000000000E+00 -0.84722721149E+01  0.84722721149E+01  0.00000000000E+00 0. -1.
         25    2    1    2    0    0 -0.16987686105E+02  0.99708853099E+01  0.82154657584E+03  0.83123525215E+03  0.12500107242E+03 0.  0.
          2    1    1    2  501    0 -0.18027211816E+02 -0.14324402757E+02  0.36357610843E+02  0.43035389465E+02  0.00000000000E+00 0. -1.
          1    1    1    2  502    0  0.35014897920E+02  0.43535174469E+01  0.10765309134E+04  0.10771090027E+04  0.00000000000E+00 0. -1.
         22    1    3    3    0    0 -0.13300927083E+01  0.39424426699E+02  0.76169725090E+03  0.76271800594E+03  0.00000000000E+00 0. -1.
         22    1    3    3    0    0 -0.15657593397E+02 -0.29453541389E+02  0.59849324944E+02  0.68517246205E+02  0.00000000000E+00 0. -1.
</event>
<event>
 7    1  0.5676357E-006  0.9588044E+02  0.7818608E-02  0.1343776E+00
          2   -1    0    0  502    0  0.00000000000E+00  0.00000000000E+00  0.41422129278E+04  0.41422129278E+04  0.00000000000E+00 0. -1.
          1   -1    0    0  501    0 -0.00000000000E+00 -0.00000000000E+00 -0.70829999764E+03  0.70829999764E+03  0.00000000000E+00 0. -1.
         25    2    1    2    0    0  0.93928759067E+02  0.10634646458E+03 -0.40200151740E+03  0.44425514173E+03  0.12500091459E+03 0.  0.
          2    1    1    2  501    0 -0.11429308614E+02 -0.57591736361E+02 -0.28158600614E+03  0.28764234049E+03  0.00000000000E+00 0. -1.
          1    1    1    2  502    0 -0.82499450453E+02 -0.48754728223E+02  0.41175004537E+04  0.41186154432E+04  0.00000000000E+00 0. -1.
         22    1    3    3    0    0  0.12398227030E+03  0.73818693314E+02 -0.32093102150E+03  0.35187714247E+03  0.00000000000E+00 0.  1.
         22    1    3    3    0    0 -0.30053511231E+02  0.32527771270E+02 -0.81070495898E+02  0.92377999254E+02  0.00000000000E+00 0.  1.
</event>
<event>
 7    1  0.5676357E-006  0.3085806E+02  0.7818608E-02  0.1590433E+00
          2   -1    0    0  502    0  0.00000000000E+00  0.00000000000E+00  0.16435025435E+04  0.16435025435E+04  0.00000000000E+00 0. -1.
          1   -1    0    0  501    0 -0.00000000000E+00 -0.00000000000E+00 -0.92781213020E+03  0.92781213020E+03  0.00000000000E+00 0. -1.
         25    2    1    2    0    0  0.16752757883E+01  0.23432896180E+02  0.87091452351E+03  0.88015274130E+03  0.12499933430E+03 0.  0.
          2    1    1    2  501    0  0.28324101293E+02 -0.12246027850E+02 -0.92260124771E+03  0.92311715518E+03  0.00000000000E+00 0. -1.
          1    1    1    2  502    0 -0.29999377081E+02 -0.11186868330E+02  0.76737713746E+03  0.76804477717E+03  0.00000000000E+00 0. -1.
         22    1    3    3    0    0  0.45531447693E+01  0.75154165334E+02  0.53249987959E+03  0.53779643124E+03  0.00000000000E+00 0.  1.
         22    1    3    3    0    0 -0.28778689810E+01 -0.51721269154E+02  0.33841464393E+03  0.34235631006E+03  0.00000000000E+00 0.  1.
</event>
<event>
 7    1  0.5676357E-006  0.6131161E+02  0.7818608E-02  0.1544229E+00
          2   -1    0    0  502    0  0.00000000000E+00  0.00000000000E+00  0.13553646744E+04  0.13553646744E+04  0.00000000000E+00 0. -1.
          1   -1    0    0  501    0 -0.00000000000E+00 -0.00000000000E+00 -0.12224019980E+04  0.12224019980E+04  0.00000000000E+00 0. -1.
         25    2    1    2    0    0  0.76052245222E+01 -0.68254442863E+02  0.41131053169E+03  0.43533597239E+03  0.12499818783E+03 0.  0.
          2    1    1    2  501    0 -0.18774365125E+02  0.83600894722E+01 -0.12093061883E+04  0.12094808080E+04  0.00000000000E+00 0. -1.
          1    1    1    2  502    0  0.11169140603E+02  0.59894353391E+02  0.93095833294E+03  0.93294989198E+03  0.00000000000E+00 0. -1.
         22    1    3    3    0    0  0.56087523824E+02 -0.86859278063E+01  0.25417388556E+03  0.26043352275E+03  0.00000000000E+00 0. -1.
         22    1    3    3    0    0 -0.48482299302E+02 -0.59568515057E+02  0.15713664614E+03  0.17490244964E+03  0.00000000000E+00 0. -1.
</event>
<event>
 7    1  0.5676357E-006  0.8274941E+02  0.7818608E-02  0.1361996E+00
          2   -1    0    0  502    0  0.00000000000E+00  0.00000000000E+00  0.17465196079E+04  0.17465196079E+04  0.00000000000E+00 0. -1.
          1   -1    0    0  501    0 -0.00000000000E+00 -0.00000000000E+00 -0.19820131790E+04  0.19820131790E+04  0.00000000000E+00 0. -1.
         25    2    1    2    0    0  0.79785561217E+02 -0.11002771619E+03  0.39351692701E+02  0.18880047305E+03  0.12500091519E+03 0.  0.
          2    1    1    2  501    0 -0.61608610476E+02  0.54657946128E+02 -0.19058790469E+04  0.19076577401E+04  0.00000000000E+00 0. -1.
          1    1    1    2  502    0 -0.18176950740E+02  0.55369770065E+02  0.16310337830E+04  0.16320745738E+04  0.00000000000E+00 0. -1.
         22    1    3    3    0    0  0.32618852870E+02 -0.47601445871E+02  0.81552659531E+02  0.99903570948E+02  0.00000000000E+00 0. -1.
         22    1    3    3    0    0  0.47166708347E+02 -0.62426270322E+02 -0.42200966830E+02  0.88896902106E+02  0.00000000000E+00 0. -1.
</event>
<event>
 7    1  0.5676357E-006  0.4523406E+02  0.7818608E-02  0.1522527E+00
          2   -1    0    0  502    0  0.00000000000E+00  0.00000000000E+00  0.87301506225E+03  0.87301506225E+03  0.00000000000E+00 0. -1.
          1   -1    0    0  501    0 -0.00000000000E+00 -0.00000000000E+00 -0.69129681032E+03  0.69129681032E+03  0.00000000000E+00 0. -1.
         25    2    1    2    0    0  0.51575452400E+02  0.55677313384E+02  0.26771218691E+03  0.30504892674E+03  0.12500016867E+03 0.  0.
          2    1    1    2  501    0 -0.23313770799E+02 -0.22099373744E+02 -0.67142302663E+03  0.67219104050E+03  0.00000000000E+00 0. -1.
          1    1    1    2  502    0 -0.28261681600E+02 -0.33577939640E+02  0.58542909165E+03  0.58707190533E+03  0.00000000000E+00 0. -1.
         22    1    3    3    0    0  0.48447193203E+02  0.71312643871E+02  0.83076679672E+02  0.11972618097E+03  0.00000000000E+00 0. -1.
         22    1    3    3    0    0  0.31282591965E+01 -0.15635330487E+02  0.18463550724E+03  0.18532274576E+03  0.00000000000E+00 0. -1.
</event>
<event>
 7    1  0.5676357E-006  0.7749021E+02  0.7818608E-02  0.1420959E+00
          2   -1    0    0  502    0  0.00000000000E+00  0.00000000000E+00  0.31785824767E+03  0.31785824767E+03  0.00000000000E+00 0. -1.
          1   -1    0    0  501    0 -0.00000000000E+00 -0.00000000000E+00 -0.11079490351E+04  0.11079490351E+04  0.00000000000E+00 0. -1.
         25    2    1    2    0    0  0.42686714366E+02  0.50719597562E+02  0.13630289435E+03  0.19646298299E+03  0.12499836605E+03 0.  0.
          2    1    1    2  501    0 -0.13668872085E+02 -0.76446249021E+02 -0.10739616685E+04  0.10767657742E+04  0.00000000000E+00 0. -1.
          1    1    1    2  502    0 -0.29017842280E+02  0.25726651459E+02  0.14756798672E+03  0.15257852559E+03  0.00000000000E+00 0. -1.
         22    1    3    3    0    0  0.14924240645E+02  0.76409407619E+02  0.29661692060E+02  0.83312343068E+02  0.00000000000E+00 0.  1.
         22    1    3    3    0    0  0.27762473721E+02 -0.25689810057E+02  0.10664120229E+03  0.11315063992E+03  0.00000000000E+00 0.  1.
</event>
<event>
 7    1  0.5676357E-006  0.1490227E+03  0.7818608E-02  0.1383736E+00
          2   -1    0    0  502    0  0.00000000000E+00  0.00000000000E+00  0.16209927146E+04  0.16209927146E+04  0.00000000000E+00 0. -1.
          1   -1    0    0  501    0 -0.00000000000E+00 -0.00000000000E+00 -0.16088122662E+03  0.16088122662E+03  0.00000000000E+00 0. -1.
         25    2    1    2    0    0 -0.13657119388E+03  0.57511518758E+02  0.20415368574E+03  0.28153575959E+03  0.12499756294E+03 0.  0.
          2    1    1    2  501    0  0.12508521442E+03 -0.82002967427E+02 -0.76230944588E+02  0.16787481778E+03  0.00000000000E+00 0. -1.
          1    1    1    2  502    0  0.11485979463E+02  0.24491448669E+02  0.13321887468E+04  0.13324633638E+04  0.00000000000E+00 0. -1.
         22    1    3    3    0    0 -0.92404014396E+02  0.86288705421E+02  0.88177172883E+02  0.15414102756E+03  0.00000000000E+00 0. -1.
         22    1    3    3    0    0 -0.44167179487E+02 -0.28777186663E+02  0.11597651286E+03  0.12739473203E+03  0.00000000000E+00 0. -1.
</event>
<event>
 7    1  0.5676357E-006  0.8262595E+02  0.7818608E-02  0.1393982E+00
          2   -1    0    0  502    0  0.00000000000E+00  0.00000000000E+00  0.64210527601E+03  0.64210527601E+03  0.00000000000E+00 0. -1.
          1   -1    0    0  501    0 -0.00000000000E+00 -0.00000000000E+00 -0.16972647237E+03  0.16972647237E+03  0.00000000000E+00 0. -1.
         25    2    1    2    0    0  0.17645167680E+02  0.63036779473E+02  0.72153454194E+02  0.15847711460E+03  0.12499554949E+03 0.  0.
          2    1    1    2  501    0  0.22674460234E+02 -0.82854158227E+02 -0.11088947929E+03  0.14026909602E+03  0.00000000000E+00 0. -1.
          1    1    1    2  502    0 -0.40319627915E+02  0.19817378754E+02  0.51111482873E+03  0.51308553775E+03  0.00000000000E+00 0. -1.
         22    1    3    3    0    0 -0.30196771051E+02  0.25733823775E+02 -0.22829052742E+02  0.45773795091E+02  0.00000000000E+00 0. -1.
         22    1    3    3    0    0  0.47841938731E+02  0.37302955698E+02  0.94982506936E+02  0.11270331951E+03  0.00000000000E+00 0. -1.
</event>
<event>
 7    1  0.5676357E-006  0.1393850E+03  0.7818608E-02  0.1218601E+00
          2   -1    0    0  502    0  0.00000000000E+00  0.00000000000E+00  0.89189802544E+02  0.89189802544E+02  0.00000000000E+00 0. -1.
          1   -1    0    0  501    0 -0.00000000000E+00 -0.00000000000E+00 -0.20377686289E+04  0.20377686289E+04  0.00000000000E+00 0. -1.
         25    2    1    2    0    0  0.13107907458E+02 -0.42687666133E+02 -0.35533623246E+03  0.37930788437E+03  0.12496631134E+03 0.  0.
          2    1    1    2  501    0 -0.72234705772E+02 -0.11167037929E+03 -0.15758397904E+04  0.15814421176E+04  0.00000000000E+00 0. -1.
          1    1    1    2  502    0  0.59126798314E+02  0.15435804543E+03 -0.17402803532E+02  0.16620842950E+03  0.00000000000E+00 0. -1.
         22    1    3    3    0    0 -0.18987632964E+02 -0.39394430120E+02 -0.34135485712E+03  0.34414472219E+03  0.00000000000E+00 0. -1.
         22    1    3    3    0    0  0.32095540422E+02 -0.32932360140E+01 -0.13981375340E+02  0.35163162184E+02  0.00000000000E+00 0. -1.
</event>
<event>
 7    1  0.5676357E-006  0.4728417E+02  0.7818608E-02  0.1485640E+00
          2   -1    0    0  502    0  0.00000000000E+00  0.00000000000E+00  0.27611547897E+04  0.27611547897E+04  0.00000000000E+00 0. -1.
          1   -1    0    0  501    0 -0.00000000000E+00 -0.00000000000E+00 -0.36876200400E+02  0.36876200400E+02  0.00000000000E+00 0. -1.
         25    2    1    2    0    0 -0.87916526566E+01 -0.79895111309E+01  0.48776789910E+03  0.50367018063E+03  0.12500000809E+03 0.  0.
          2    1    1    2  501    0  0.48323840703E+02  0.71478955179E+01 -0.80012812013E+01  0.49500570618E+02  0.00000000000E+00 0. -1.
          1    1    1    2  502    0 -0.39532188046E+02  0.84161561302E+00  0.22445119714E+04  0.22448602389E+04  0.00000000000E+00 0. -1.
         22    1    3    3    0    0 -0.55711656205E+01 -0.44361527719E+02  0.44581930637E+03  0.44805561816E+03  0.00000000000E+00 0. -1.
         22    1    3    3    0    0 -0.32204870361E+01  0.36372016588E+02  0.41948592725E+02  0.55614562473E+02  0.00000000000E+00 0. -1.
</event>
<event>
 7    1  0.5676357E-006  0.8539436E+02  0.7818608E-02  0.1341679E+00
          2   -1    0    0  502    0  0.00000000000E+00  0.00000000000E+00  0.11884951261E+04  0.11884951261E+04  0.00000000000E+00 0. -1.
          1   -1    0    0  501    0 -0.00000000000E+00 -0.00000000000E+00 -0.74557549122E+02  0.74557549122E+02  0.00000000000E+00 0. -1.
         25    2    1    2    0    0 -0.13973644824E+02 -0.22258735747E+02  0.94760201080E+02  0.15904020008E+03  0.12499430174E+03 0.  0.
          2    1    1    2  501    0  0.79906935646E+01 -0.66650675727E+02 -0.12679522726E+02  0.68314962161E+02  0.00000000000E+00 0. -1.
          1    1    1    2  502    0  0.59829512598E+01  0.88909411474E+02  0.10318568987E+04  0.10356975130E+04  0.00000000000E+00 0. -1.
         22    1    3    3    0    0  0.38774773036E+02  0.67765521593E+01  0.90486211574E+02  0.98677044788E+02  0.00000000000E+00 0.  1.
         22    1    3    3    0    0 -0.52748417861E+02 -0.29035287907E+02  0.42739895068E+01  0.60363155293E+02  0.00000000000E+00 0.  1.
</event>
<event>
 7    1  0.5676357E-006  0.6985741E+02  0.7818608E-02  0.1369603E+00
          2   -1    0    0  502    0  0.00000000000E+00  0.00000000000E+00  0.14631281323E+04  0.14631281323E+04  0.00000000000E+00 0. -1.
          1   -1    0    0  501    0 -0.00000000000E+00 -0.00000000000E+00 -0.39612739735E+03  0.39612739735E+03  0.00000000000E+00 0. -1.
         25    2    1    2    0    0  0.21669094983E+02  0.64455131863E+02 -0.38671921637E+01  0.14235170579E+03  0.12500015707E+03 0.  0.
          2    1    1    2  501    0 -0.68741188912E+02 -0.19931444134E+02 -0.31828889864E+03  0.32623677983E+03  0.00000000000E+00 0. -1.
          1    1    1    2  502    0  0.47072093929E+02 -0.44523687730E+02  0.13891568258E+04  0.13906670440E+04  0.00000000000E+00 0. -1.
         22    1    3    3    0    0 -0.40642787317E+02 -0.12427766182E+01 -0.27106727578E+02  0.48868756221E+02  0.00000000000E+00 0. -1.
         22    1    3    3    0    0  0.62311882300E+02  0.65697908482E+02  0.23239535414E+02  0.93482949573E+02  0.00000000000E+00 0. -1.
</event>
<event>
 7    1  0.5676357E-006  0.1836032E+03  0.7818608E-02  0.1204418E+00
          2   -1    0    0  502    0  0.00000000000E+00  0.00000000000E+00  0.40072697764E+03  0.40072697764E+03  0.00000000000E+00 0. -1.
          1   -1    0    0  501    0 -0.00000000000E+00 -0.00000000000E+00 -0.21740314526E+04  0.21740314526E+04  0.00000000000E+00 0. -1.
         25    2    1    2    0    0  0.15619761795E+03 -0.62262666339E+02  0.85274189584E+01  0.20969276712E+03  0.12499601688E+03 0.  0.
          2    1    1    2  501    0 -0.92440835539E+02  0.16087583183E+03 -0.20572804945E+04  0.20656305028E+04  0.00000000000E+00 0. -1.
          1    1    1    2  502    0 -0.63756782410E+02 -0.98613165494E+02  0.27544860051E+03  0.29943516032E+03  0.00000000000E+00 0. -1.
         22    1    3    3    0    0  0.13341149202E+03 -0.54338550670E+02  0.57496487725E+02  0.15510367627E+03  0.00000000000E+00 0. -1.
         22    1    3    3    0    0  0.22786125930E+02 -0.79241156692E+01 -0.48969068767E+02  0.54589090851E+02  0.00000000000E+00 0. -1.
</event>
<event>
 7    1  0.5676357E-006  0.8976155E+02  0.7818608E-02  0.1395882E+00
          2   -1    0    0  502    0  0.00000000000E+00  0.00000000000E+00  0.10891614771E+03  0.10891614771E+03  0.00000000000E+00 0. -1.
          1   -1    0    0  501    0 -0.00000000000E+00 -0.00000000000E+00 -0.50951586576E+03  0.50951586576E+03  0.00000000000E+00 0. -1.
         25    2    1    2    0    0 -0.51495145809E+01 -0.87242054797E+02 -0.30916964855E+02  0.15563432132E+03  0.12501395774E+03 0.  0.
          2    1    1    2  501    0 -0.40428043619E+02  0.49764096692E+01 -0.36643710859E+03  0.36869410887E+03  0.00000000000E+00 0. -1.
          1    1    1    2  502    0  0.45577558200E+02  0.82265645128E+02 -0.32456446097E+01  0.94103583293E+02  0.00000000000E+00 0. -1.
         22    1    3    3    0    0 -0.39145682547E+02  0.19223990540E+01  0.23584166361E+02  0.45741589206E+02  0.00000000000E+00 0.  1.
         22    1    3    3    0    0  0.33996167966E+02 -0.89164453851E+02 -0.54501131215E+02  0.10989273211E+03  0.00000000000E+00 0.  1.
</event>
<event>
 7    1  0.5676357E-006  0.6888772E+02  0.7818608E-02  0.1437070E+00
          2   -1    0    0  502    0  0.00000000000E+00  0.00000000000E+00  0.22706000233E+02  0.22706000233E+02  0.00000000000E+00 0. -1.
          1   -1    0    0  501    0 -0.00000000000E+00 -0.00000000000E+00 -0.33511594279E+04  0.33511594279E+04  0.00000000000E+00 0. -1.
         25    2    1    2    0    0  0.63703451522E+02  0.68517720935E+02 -0.41890162817E+03  0.44705223404E+03  0.12499727220E+03 0.  0.
          2    1    1    2  501    0 -0.87170645261E+01 -0.37603800835E+02 -0.28009834888E+04  0.28012494601E+04  0.00000000000E+00 0. -1.
          1    1    1    2  502    0 -0.54986386996E+02 -0.30913920100E+02 -0.10856831064E+03  0.12556373396E+03  0.00000000000E+00 0. -1.
         22    1    3    3    0    0 -0.20466481434E+01  0.76402725507E+02 -0.13129934738E+03  0.15192459925E+03  0.00000000000E+00 0. -1.
         22    1    3    3    0    0  0.65750099665E+02 -0.78850045716E+01 -0.28760228079E+03  0.29512763479E+03  0.00000000000E+00 0. -1.
</event>
<event>
 7    1  0.5676357E-006  0.1088217E+03  0.7818608E-02  0.1357001E+00
          2   -1    0    0  502    0  0.00000000000E+00  0.00000000000E+00  0.42204484467E+03  0.42204484467E+03  0.00000000000E+00 0. -1.
          1   -1    0    0  501    0 -0.00000000000E+00 -0.00000000000E+00 -0.15689094837E+03  0.15689094837E+03  0.00000000000E+00 0. -1.
         25    2    1    2    0    0 -0.62305837001E+01 -0.73858175552E+02 -0.12032411758E+02  0.14582228080E+03  0.12500203349E+03 0.  0.
          2    1    1    2  501    0  0.27226827264E+02 -0.37344280310E+02 -0.60979707073E+02  0.76514182145E+02  0.00000000000E+00 0. -1.
          1    1    1    2  502    0 -0.20996243564E+02  0.11120245586E+03  0.33816601513E+03  0.35659933009E+03  0.00000000000E+00 0. -1.
         22    1    3    3    0    0 -0.16466629882E+02 -0.72526453311E+02  0.45622585774E+02  0.87250539610E+02  0.00000000000E+00 0. -1.
         22    1    3    3    0    0  0.10236046182E+02 -0.13317222410E+01 -0.57654997533E+02  0.58571741190E+02  0.00000000000E+00 0. -1.
</event>
<event>
 7    1  0.5676357E-006  0.8176582E+02  0.7818608E-02  0.1448715E+00
          2   -1    0    0  502    0  0.00000000000E+00  0.00000000000E+00  0.43513844899E+03  0.43513844899E+03  0.00000000000E+00 0. -1.
          1   -1    0    0  501    0 -0.00000000000E+00 -0.00000000000E+00 -0.26138401303E+03  0.26138401303E+03  0.00000000000E+00 0. -1.
         25    2    1    2    0    0  0.85902575652E+02  0.27224146851E+02 -0.35019891759E+02  0.15802454454E+03  0.12499982873E+03 0.  0.
          2    1    1    2  501    0 -0.64999837827E+02 -0.48493655238E+02 -0.15424032901E+03  0.17426041607E+03  0.00000000000E+00 0. -1.
          1    1    1    2  502    0 -0.20902737825E+02  0.21269508387E+02  0.36301465673E+03  0.36423750141E+03  0.00000000000E+00 0. -1.
         22    1    3    3    0    0  0.52974630656E+02  0.31964293930E+02 -0.80591417797E+02  0.10160218601E+03  0.00000000000E+00 0.  1.
         22    1    3    3    0    0  0.32927944996E+02 -0.47401470785E+01  0.45571526039E+02  0.56422358525E+02  0.00000000000E+00 0.  1.
</event>
<event>
 7    1  0.5676357E-006  0.1488098E+03  0.7818608E-02  0.1365800E+00
          2   -1    0    0  502    0  0.00000000000E+00  0.00000000000E+00  0.94125632053E+03  0.94125632053E+03  0.00000000000E+00 0. -1.
          1   -1    0    0  501    0 -0.00000000000E+00 -0.00000000000E+00 -0.33887026927E+03  0.33887026927E+03  0.00000000000E+00 0. -1.
         25    2    1    2    0    0  0.13557559509E+03 -0.11242206242E+03  0.11115160153E+03  0.24289692076E+03  0.12499909397E+03 0.  0.
          2    1    1    2  501    0 -0.18381207308E+02  0.25448796072E+02 -0.26509558987E+03  0.26694790086E+03  0.00000000000E+00 0. -1.
          1    1    1    2  502    0 -0.11719438778E+03  0.86973266345E+02  0.75633003960E+03  0.77028176818E+03  0.00000000000E+00 0. -1.
         22    1    3    3    0    0  0.12044182262E+03 -0.13881472187E+03  0.10563330689E+03  0.21197677979E+03  0.00000000000E+00 0. -1.
         22    1    3    3    0    0  0.15133772466E+02  0.26392659457E+02  0.55182946463E+01  0.30920140977E+02  0.00000000000E+00 0. -1.
</event>
<event>
 7    1  0.5676357E-006  0.1543723E+03  0.7818608E-02  0.1222471E+00
          2   -1    0    0  502    0  0.00000000000E+00  0.00000000000E+00  0.71970038219E+03  0.71970038219E+03  0.00000000000E+00 0. -1.
          1   -1    0    0  501    0 -0.00000000000E+00 -0.00000000000E+00 -0.13297109000E+04  0.13297109000E+04  0.00000000000E+00 0. -1.
         25    2    1    2    0    0 -0.81252321947E+02 -0.23717397683E+03 -0.30057051488E+02  0.28174791200E+03  0.12500009785E+03 0.  0.
          2    1    1    2  501    0  0.88883655483E+02  0.12211940017E+03 -0.11632824529E+04  0.11730471079E+04  0.00000000000E+00 0. -1.
          1    1    1    2  502    0 -0.76313335367E+01  0.11505457665E+03  0.58332898656E+03  0.59461626232E+03  0.00000000000E+00 0. -1.
         22    1    3    3    0    0 -0.61701878369E+02 -0.24703285894E+03 -0.14782138391E+02  0.25505071419E+03  0.00000000000E+00 0. -1.
         22    1    3    3    0    0 -0.19550443578E+02  0.98588821162E+01 -0.15274913097E+02  0.26697197808E+02  0.00000000000E+00 0. -1.
</event>
<event>
 7    1  0.5676357E-006  0.1689396E+03  0.7818608E-02  0.1225605E+00
          2   -1    0    0  502    0  0.00000000000E+00  0.00000000000E+00  0.11915389848E+04  0.11915389848E+04  0.00000000000E+00 0. -1.
          1   -1    0    0  501    0 -0.00000000000E+00 -0.00000000000E+00 -0.37700834143E+03  0.37700834143E+03  0.00000000000E+00 0. -1.
         25    2    1    2    0    0 -0.15751053920E+03  0.21973110166E+02 -0.69689351073E+01  0.20239783156E+03  0.12499571446E+03 0.  0.
          2    1    1    2  501    0  0.58230826951E+01 -0.10181044545E+03 -0.25575826219E+03  0.27533899791E+03  0.00000000000E+00 0. -1.
          1    1    1    2  502    0  0.15168745651E+03  0.79837335281E+02  0.10772578407E+04  0.10908104968E+04  0.00000000000E+00 0. -1.
         22    1    3    3    0    0 -0.34983725963E+02 -0.51330748958E+00 -0.58033850349E+02  0.67764683672E+02  0.00000000000E+00 0.  1.
         22    1    3    3    0    0 -0.12252681324E+03  0.22486417656E+02  0.51064915242E+02  0.13463314789E+03  0.00000000000E+00 0.  1.
</event>
<event>
 7    1  0.5676357E-006  0.4496672E+02  0.7818608E-02  0.1508484E+00
          2   -1    0    0  502    0  0.00000000000E+00  0.00000000000E+00  0.25912662479E+04  0.25912662479E+04  0.00000000000E+00 0. -1.
          1   -1    0    0  501    0 -0.00000000000E+00 -0.00000000000E+00 -0.16701922682E+03  0.16701922682E+03  0.00000000000E+00 0. -1.
         25    2    1    2    0    0  0.58179920592E+02  0.45278551003E+02  0.14663346179E+03  0.20630368504E+03  0.12499915201E+03 0.  0.
          2    1    1    2  501    0 -0.15391746608E+02 -0.32007592733E+02 -0.13467393022E+03  0.13927835200E+03  0.00000000000E+00 0. -1.
          1    1    1    2  502    0 -0.42788173984E+02 -0.13270958270E+02  0.24122874895E+04  0.24127034376E+04  0.00000000000E+00 0. -1.
         22    1    3    3    0    0  0.67338898014E+02  0.68066866331E+02  0.52865586853E+02  0.10937273770E+03  0.00000000000E+00 0. -1.
         22    1    3    3    0    0 -0.91589774219E+01 -0.22788315328E+02  0.93767874936E+02  0.96930947343E+02  0.00000000000E+00 0. -1.
</event>
<event>
 7    1  0.5676357E-006  0.8029513E+02  0.7818608E-02  0.1464746E+00
          2   -1    0    0  502    0  0.00000000000E+00  0.00000000000E+00  0.14437025689E+03  0.14437025689E+03  0.00000000000E+00 0. -1.
          1   -1    0    0  501    0 -0.00000000000E+00 -0.00000000000E+00 -0.19817451368E+04  0.19817451368E+04  0.00000000000E+00 0. -1.
         25    2    1    2    0    0  0.60309233442E+02  0.34251627490E+02 -0.35353683700E+03  0.38134326694E+03  0.12499605794E+03 0.  0.
          2    1    1    2  501    0 -0.79844410625E+02 -0.15591822682E+02 -0.16118697112E+04  0.16139213738E+04  0.00000000000E+00 0. -1.
          1    1    1    2  502    0  0.19535177183E+02 -0.18659804808E+02  0.12803166831E+03  0.13085075297E+03  0.00000000000E+00 0. -1.
         22    1    3    3    0    0 -0.16456948795E+02  0.24755485735E+02 -0.13551466325E+02  0.32669672131E+02  0.00000000000E+00 0.  1.
         22    1    3    3    0    0  0.76766182237E+02  0.94961417553E+01 -0.33998537068E+03  0.34867359481E+03  0.00000000000E+00 0.  1.
</event>
<event>
 7    1  0.5676357E-006  0.5408878E+02  0.7818608E-02  0.1467004E+00
          2   -1    0    0  502    0  0.00000000000E+00  0.00000000000E+00  0.99803840813E+02  0.99803840813E+02  0.00000000000E+00 0. -1.
          1   -1    0    0  501    0 -0.00000000000E+00 -0.00000000000E+00 -0.70131040519E+03  0.70131040519E+03  0.00000000000E+00 0. -1.
         25    2    1    2    0    0 -0.72278342741E+01 -0.43546008131E+02 -0.13186814035E+03  0.18698336429E+03  0.12500030267E+03 0.  0.
          2    1    1    2  501    0  0.39416473774E+02 -0.17807742771E+01 -0.53034742965E+03  0.53181314924E+03  0.00000000000E+00 0. -1.
          1    1    1    2  502    0 -0.32188639500E+02  0.45326782408E+02  0.60709005629E+02  0.82317732481E+02  0.00000000000E+00 0. -1.
         22    1    3    3    0    0 -0.33703429808E+02  0.34899922749E+02 -0.61444427490E+02  0.78290123631E+02  0.00000000000E+00 0. -1.
         22    1    3    3    0    0  0.26475595533E+02 -0.78445930880E+02 -0.70423712863E+02  0.10869324065E+03  0.00000000000E+00 0. -1.
</event>
<event>
 7    1  0.5676357E-006  0.3431581E+02  0.7818608E-02  0.1580037E+00
          2   -1    0    0  502    0  0.00000000000E+00  0.00000000000E+00  0.61409755731E+03  0.61409755731E+03  0.00000000000E+00 0. -1.
          1   -1    0    0  501    0 -0.00000000000E+00 -0.00000000000E+00 -0.40771306329E+03  0.40771306329E+03  0.00000000000E+00 0. -1.
         25    2    1    2    0    0  0.28075051731E+02 -0.11250752941E+02 -0.67984349454E+02  0.14546706915E+03  0.12499603380E+03 0.  0.
          2    1    1    2  501    0  0.12301278970E+01  0.29255281819E+02 -0.29975934211E+03  0.30118606859E+03  0.00000000000E+00 0. -1.
          1    1    1    2  502    0 -0.29305179628E+02 -0.18004528878E+02  0.57412818558E+03  0.57515748287E+03  0.00000000000E+00 0. -1.
         22    1    3    3    0    0 -0.36435254166E+02  0.33504675979E+02 -0.19579723284E+02  0.53230222830E+02  0.00000000000E+00 0. -1.
         22    1    3    3    0    0  0.64510305897E+02 -0.44755428920E+02 -0.48404626170E+02  0.92236846322E+02  0.00000000000E+00 0. -1.
</event>
<event>
 7    1  0.5676357E-006  0.2075882E+03  0.7818608E-02  0.1258964E+00
          2   -1    0    0  502    0  0.00000000000E+00  0.00000000000E+00  0.40344922845E+04  0.40344922845E+04  0.00000000000E+00 0. -1.
          1   -1    0    0  501    0 -0.00000000000E+00 -0.00000000000E+00 -0.97196736023E+02  0.97196736023E+02  0.00000000000E+00 0. -1.
         25    2    1    2    0    0  0.25069214656E+02 -0.15104780645E+03  0.24680155780E+03  0.31619592693E+03  0.12499979968E+03 0.  0.
          2    1    1    2  501    0  0.10846574940E+02 -0.58213979188E+02 -0.44747711346E+02  0.74221784077E+02  0.00000000000E+00 0. -1.
          1    1    1    2  502    0 -0.35915789596E+02  0.20926178563E+03  0.37352417020E+04  0.37412713095E+04  0.00000000000E+00 0. -1.
         22    1    3    3    0    0  0.32123849729E+02 -0.20395727898E+02  0.13824358115E+01  0.38076745747E+02  0.00000000000E+00 0. -1.
         22    1    3    3    0    0 -0.70546350728E+01 -0.13065207855E+03  0.24541912199E+03  0.27811918118E+03  0.00000000000E+00 0. -1.
</event>
<event>
 7    1  0.7926690E-006  0.1559465E+03  0.7818608E-02  0.1316547E+00
          2   -1    0    0  502    0  0.00000000000E+00  0.00000000000E+00  0.21576268471E+04  0.21576268471E+04  0.00000000000E+00 0. -1.
          1   -1    0    0  501    0 -0.00000000000E+00 -0.00000000000E+00 -0.19989252060E+04  0.19989252060E+04  0.00000000000E+00 0. -1.
         25    2    1    2    0    0 -0.13331240843E+01  0.13171790819E+03 -0.73060610324E+03  0.75283560876E+03  0.12499916467E+03 0.  0.
          2    1    1    2  501    0  0.31678323167E+02 -0.16611347856E+03 -0.12512708862E+04  0.12626464409E+04  0.00000000000E+00 0. -1.
          1    1    1    2  502    0 -0.30345199083E+02  0.34395570368E+02  0.21405786305E+04  0.21410700035E+04  0.00000000000E+00 0. -1.
         22    1    3    3    0    0  0.61298027456E+02  0.76726025852E+02 -0.38725307280E+03  0.39951129346E+03  0.00000000000E+00 0. -1.
         22    1    3    3    0    0 -0.62631151540E+02  0.54991882343E+02 -0.34335303044E+03  0.35332431529E+03  0.00000000000E+00 0. -1.
</event>
<event>
 7    1  0.5676357E-006  0.6125457E+02  0.7818608E-02  0.1433765E+00
          2   -1    0    0  502    0  0.00000000000E+00  0.00000000000E+00  0.20446170394E+03  0.20446170394E+03  0.00000000000E+00 0. -1.
          1   -1    0    0  501    0 -0.00000000000E+00 -0.00000000000E+00 -0.27899224276E+03  0.27899224276E+03  0.00000000000E+00 0. -1.
         25    2    1    2    0    0 -0.60845701140E+02  0.32867415769E+02 -0.91213435163E+02  0.16949165370E+03  0.12500025422E+03 0.  0.
          2    1    1    2  501    0  0.61067146989E+02  0.11635832786E+02 -0.13888004623E+03  0.15215865499E+03  0.00000000000E+00 0. -1.
          1    1    1    2  502    0 -0.22144584900E+00 -0.44503248555E+02  0.15556294257E+03  0.16180363800E+03  0.00000000000E+00 0. -1.
         22    1    3    3    0    0 -0.46514459730E+02  0.72828993022E+02 -0.93063232455E+02  0.12699772606E+03  0.00000000000E+00 0. -1.
         22    1    3    3    0    0 -0.14331241410E+02 -0.39961577253E+02  0.18497972919E+01  0.42493927648E+02  0.00000000000E+00 0. -1.
</event>
<event>
 7    1  0.5676357E-006  0.9770644E+02  0.7818608E-02  0.1367156E+00
          2   -1    0    0  502    0  0.00000000000E+00  0.00000000000E+00  0.10565636492E+03  0.10565636492E+03  0.00000000000E+00 0. -1.
          1   -1    0    0  501    0 -0.00000000000E+00 -0.00000000000E+00 -0.63424168086E+03  0.63424168086E+03  0.00000000000E+00 0. -1.
         25    2    1    2    0    0  0.63979797263E+02 -0.12826589307E+02 -0.11969409970E+03  0.18496445068E+03  0.12500893833E+03 0.  0.
          2    1    1    2  501    0  0.31096049079E+02 -0.35609131941E+02 -0.44098277007E+03  0.44350961438E+03  0.00000000000E+00 0. -1.
          1    1    1    2  502    0 -0.95075846342E+02  0.48435721248E+02  0.32091553828E+02  0.11142398071E+03  0.00000000000E+00 0. -1.
         22    1    3    3    0    0  0.35217530363E+02 -0.51840850848E+02 -0.79666181278E+01  0.63176065609E+02  0.00000000000E+00 0. -1.
         22    1    3    3    0    0  0.28762266900E+02  0.39014261541E+02 -0.11172748157E+03  0.12178838507E+03  0.00000000000E+00 0. -1.
</event>
<event>
 7    1  0.5676357E-006  0.1723576E+03  0.7818608E-02  0.1300220E+00
          2   -1    0    0  502    0  0.00000000000E+00  0.00000000000E+00  0.34838860588E+03  0.34838860588E+03  0.00000000000E+00 0. -1.
          1   -1    0    0  501    0 -0.00000000000E+00 -0.00000000000E+00 -0.28469158439E+04  0.28469158439E+04  0.00000000000E+00 0. -1.
         25    2    1    2    0    0 -0.90876764030E+02 -0.12979190347E+03 -0.13865637563E+03  0.24486310186E+03  0.12501129431E+03 0.  0.
          2    1    1    2  501    0  0.13451013034E+03  0.10944016428E+03 -0.26503411177E+04  0.26560079376E+04  0.00000000000E+00 0. -1.
          1    1    1    2  502    0 -0.43633366311E+02  0.20351739191E+02  0.29047025523E+03  0.29443341033E+03  0.00000000000E+00 0. -1.
         22    1    3    3    0    0  0.18217455335E+01 -0.25522327958E+01  0.20655187234E+02  0.20891850294E+02  0.00000000000E+00 0. -1.
         22    1    3    3    0    0 -0.92698509564E+02 -0.12723967067E+03 -0.15931156286E+03  0.22397125157E+03  0.00000000000E+00 0. -1.
</event>
<event>
 7    1  0.5676357E-006  0.5769835E+02  0.7818608E-02  0.1409363E+00
          2   -1    0    0  502    0  0.00000000000E+00  0.00000000000E+00  0.14367291021E+04  0.14367291021E+04  0.00000000000E+00 0. -1.
          1   -1    0    0  501    0 -0.00000000000E+00 -0.00000000000E+00 -0.16353755496E+03  0.16353755496E+03  0.00000000000E+00 0. -1.
         25    2    1    2    0    0  0.17034953315E+02  0.34049665219E+01  0.59214403901E+03  0.60544325140E+03  0.12500073718E+03 0.  0.
          2    1    1    2  501    0  0.16759633473E+02  0.54455841078E+02 -0.15032213950E+03  0.16075779784E+03  0.00000000000E+00 0. -1.
          1    1    1    2  502    0 -0.33794586788E+02 -0.57860807600E+02  0.83136964758E+03  0.83406560777E+03  0.00000000000E+00 0. -1.
         22    1    3    3    0    0 -0.42604815701E+02  0.37697130921E+02  0.29553754068E+03  0.30096292455E+03  0.00000000000E+00 0. -1.
         22    1    3    3    0    0  0.59639769016E+02 -0.34292164399E+02  0.29660649833E+03  0.30448032685E+03  0.00000000000E+00 0. -1.
</event>
<event>
 7    1  0.5676357E-006  0.1744285E+03  0.7818608E-02  0.1235197E+00
          2   -1    0    0  502    0  0.00000000000E+00  0.00000000000E+00  0.66565998766E+03  0.66565998766E+03  0.00000000000E+00 0. -1.
          1   -1    0    0  501    0 -0.00000000000E+00 -0.00000000000E+00 -0.27755482848E+03  0.27755482848E+03  0.00000000000E+00 0. -1.
         25    2    1    2    0    0 -0.98162378059E+02 -0.12711716280E+03  0.22587320112E+03  0.30403743325E+03  0.12500172912E+03 0.  0.
          2    1    1    2  501    0  0.16528730390E+03  0.67977434744E+02 -0.19874306278E+03  0.26728192881E+03  0.00000000000E+00 0. -1.
          1    1    1    2  502    0 -0.67124925840E+02  0.59139728059E+02  0.36097502083E+03  0.37189545409E+03  0.00000000000E+00 0. -1.
         22    1    3    3    0    0 -0.12271540651E+03 -0.11372395902E+03  0.15591482909E+03  0.22869552637E+03  0.00000000000E+00 0. -1.
         22    1    3    3    0    0  0.24553028455E+02 -0.13393203781E+02  0.69958372037E+02  0.75341906877E+02  0.00000000000E+00 0. -1.
</event>
<event>
 7    1  0.5676357E-006  0.2442369E+03  0.7818608E-02  0.1159671E+00
          2   -1    0    0  502    0  0.00000000000E+00  0.00000000000E+00  0.90794504950E+03  0.90794504950E+03  0.00000000000E+00 0. -1.
          1   -1    0    0  501    0 -0.00000000000E+00 -0.00000000000E+00 -0.34220825246E+03  0.34220825246E+03  0.00000000000E+00 0. -1.
         25    2    1    2    0    0  0.19134238583E+03 -0.31538554228E+03  0.22501602721E+03  0.44981901095E+03  0.12499992484E+03 0.  0.
          2    1    1    2  501    0 -0.11964862463E+03  0.18850290583E+03 -0.16268805267E+03  0.27625448659E+03  0.00000000000E+00 0. -1.
          1    1    1    2  502    0 -0.71693761200E+02  0.12688263645E+03  0.50340882250E+03  0.52407980442E+03  0.00000000000E+00 0. -1.
         22    1    3    3    0    0  0.77741816090E+01 -0.55805830340E+02 -0.62268479523E+01  0.56687760893E+02  0.00000000000E+00 0. -1.
         22    1    3    3    0    0  0.18356820422E+03 -0.25957971194E+03  0.23124287517E+03  0.39313125006E+03  0.00000000000E+00 0. -1.
</event>
<event>
 7    1  0.5676357E-006  0.1105562E+03  0.7818608E-02  0.1357060E+00
          2   -1    0    0  502    0  0.00000000000E+00  0.00000000000E+00  0.17568343137E+04  0.17568343137E+04  0.00000000000E+00 0. -1.
          1   -1    0    0  501    0 -0.00000000000E+00 -0.00000000000E+00 -0.90910649774E+02  0.90910649774E+02  0.00000000000E+00 0. -1.
         25    2    1    2    0    0 -0.41521319043E+02 -0.53279176832E+02  0.29082671074E+02  0.14503151570E+03  0.12500259266E+03 0.  0.
          2    1    1    2  501    0 -0.17084109515E+02 -0.42136206318E+02 -0.14389524337E+02  0.47690513642E+02  0.00000000000E+00 0. -1.
          1    1    1    2  502    0  0.58605428558E+02  0.95415383151E+02  0.16512305172E+04  0.16550229341E+04  0.00000000000E+00 0. -1.
         22    1    3    3    0    0 -0.76737515907E+02 -0.50421769744E+01 -0.35285199053E+01  0.76983896686E+02  0.00000000000E+00 0. -1.
         22    1    3    3    0    0  0.35216196863E+02 -0.48236999858E+02  0.32611190980E+02  0.68047619018E+02  0.00000000000E+00 0. -1.
</event>
<event>
 7    1  0.5676357E-006  0.4928783E+02  0.7818608E-02  0.1475152E+00
          2   -1    0    0  502    0  0.00000000000E+00  0.00000000000E+00  0.11886600402E+03  0.11886600402E+03  0.00000000000E+00 0. -1.
          1   -1    0    0  501    0 -0.00000000000E+00 -0.00000000000E+00 -0.24373161101E+03  0.24373161101E+03  0.00000000000E+00 0. -1.
         25    2    1    2    0    0  0.11037214706E+02 -0.29564370311E+02 -0.93794939260E+02  0.15942969669E+03  0.12499786180E+03 0.  0.
          2    1    1    2  501    0  0.38005747727E+02  0.14973413603E+02 -0.10533772586E+03  0.11298086770E+03  0.00000000000E+00 0. -1.
          1    1    1    2  502    0 -0.49042962433E+02  0.14590956708E+02  0.74267058129E+02  0.90187050650E+02  0.00000000000E+00 0. -1.
         22    1    3    3    0    0  0.60360801543E+02 -0.44684684414E+02 -0.40788086864E+02  0.85462362559E+02  0.00000000000E+00 0. -1.
         22    1    3    3    0    0 -0.49323586837E+02  0.15120314103E+02 -0.53006852396E+02  0.73967334128E+02  0.00000000000E+00 0. -1.
</event>
<event>
 7    1  0.5676357E-006  0.1109016E+03  0.7818608E-02  0.1358924E+00
          2   -1    0    0  502    0  0.00000000000E+00  0.00000000000E+00  0.36584488702E+03  0.36584488702E+03  0.00000000000E+00 0. -1.
          1   -1    0    0  501    0 -0.00000000000E+00 -0.00000000000E+00 -0.54889839422E+03  0.54889839422E+03  0.00000000000E+00 0. -1.
         25    2    1    2    0    0 -0.44748130832E+02 -0.71153976721E+02 -0.24201133072E+02  0.15256062070E+03  0.12499505802E+03 0.  0.
          2    1    1    2  501    0  0.89367430073E+02  0.71363611603E+02 -0.45170117027E+03  0.46595412847E+03  0.00000000000E+00 0. -1.
          1    1    1    2  502    0 -0.44619299241E+02 -0.20963488196E+00  0.29284879614E+03  0.29622853207E+03  0.00000000000E+00 0. -1.
         22    1    3    3    0    0  0.11772336202E+02 -0.13065144654E+02  0.43522669715E+02  0.46941545390E+02  0.00000000000E+00 0. -1.
         22    1    3    3    0    0 -0.56520467034E+02 -0.58088832067E+02 -0.67723802787E+02  0.10561907531E+03  0.00000000000E+00 0. -1.
</event>
<event>
 7    1  0.5676357E-006  0.4447046E+02  0.7818608E-02  0.1516229E+00
          2   -1    0    0  502    0  0.00000000000E+00  0.00000000000E+00  0.29571139522E+03  0.29571139522E+03  0.00000000000E+00 0. -1.
          1   -1    0    0  501    0 -0.00000000000E+00 -0.00000000000E+00 -0.13230211225E+03  0.13230211225E+03  0.00000000000E+00 0. -1.
         25    2    1    2    0    0  0.10898800721E+02 -0.14483702418E+01  0.25089464966E+03  0.28052301661E+03  0.12499662389E+03 0.  0.
          2    1    1    2  501    0 -0.44766981051E+02  0.52549668745E+01 -0.10117584144E+03  0.11076212422E+03  0.00000000000E+00 0. -1.
          1    1    1    2  502    0  0.33868180331E+02 -0.38065966327E+01  0.13690474749E+02  0.36728366635E+02  0.00000000000E+00 0. -1.
         22    1    3    3    0    0  0.61603922143E+02  0.15700314546E+02  0.84585447092E+02  0.10581229116E+03  0.00000000000E+00 0. -1.
         22    1    3    3    0    0 -0.50705121422E+02 -0.17148684787E+02  0.16630920257E+03  0.17471072545E+03  0.00000000000E+00 0. -1.
</event>
<event>
 7    1  0.5676357E-006  0.3300173E+02  0.7818608E-02  0.1611274E+00
          2   -1    0    0  502    0  0.00000000000E+00  0.00000000000E+00  0.77156930163E+02  0.77156930163E+02  0.00000000000E+00 0. -1.
          1   -1    0    0  501    0 -0.00000000000E+00 -0.00000000000E+00 -0.14344597281E+04  0.14344597281E+04  0.00000000000E+00 0. -1.
         25    2    1    2    0    0 -0.11547217768E+02 -0.44778682598E+02 -0.11182187613E+04  0.11261335137E+04  0.12500009605E+03 0.  0.
          2    1    1    2  501    0 -0.89288297087E+01  0.30083454847E+02 -0.30929641599E+03  0.31088424084E+03  0.00000000000E+00 0. -1.
          1    1    1    2  502    0  0.20476047477E+02  0.14695227751E+02  0.70212379272E+02  0.74598903759E+02  0.00000000000E+00 0. -1.
         22    1    3    3    0    0 -0.13618378243E+02 -0.10628246556E+02 -0.16516366049E+02  0.23900004148E+02  0.00000000000E+00 0.  1.
         22    1    3    3    0    0  0.20711604746E+01 -0.34150436043E+02 -0.11017023952E+04  0.11022335096E+04  0.00000000000E+00 0.  1.
</event>
<event>
 7    1  0.5676357E-006  0.8456151E+02  0.7818608E-02  0.1415217E+00
          2   -1    0    0  502    0  0.00000000000E+00  0.00000000000E+00  0.85045913148E+03  0.85045913148E+03  0.00000000000E+00 0. -1.
          1   -1    0    0  501    0 -0.00000000000E+00 -0.00000000000E+00 -0.61085509936E+03  0.61085509936E+03  0.00000000000E+00 0. -1.
         25    2    1    2    0    0 -0.54584470909E+01  0.10653476593E+03 -0.18248175460E+03  0.24556731439E+03  0.12499705652E+03 0.  0.
          2    1    1    2  501    0 -0.20139056348E+02 -0.79616484819E+02 -0.39215369622E+03  0.40066056420E+03  0.00000000000E+00 0. -1.
          1    1    1    2  502    0  0.25597503439E+02 -0.26918281110E+02  0.81423948295E+03  0.81508635225E+03  0.00000000000E+00 0. -1.
         22    1    3    3    0    0 -0.19141528440E+02  0.11637180284E+02  0.14365313713E+02  0.26611732639E+02  0.00000000000E+00 0. -1.
         22    1    3    3    0    0  0.13683081350E+02  0.94897585644E+02 -0.19684706832E+03  0.21895558175E+03  0.00000000000E+00 0. -1.
</event>
<event>
 7    1  0.5676357E-006  0.9355410E+02  0.7818608E-02  0.1320412E+00
          2   -1    0    0  502    0  0.00000000000E+00  0.00000000000E+00  0.22202296422E+03  0.22202296422E+03  0.00000000000E+00 0. -1.
          1   -1    0    0  501    0 -0.00000000000E+00 -0.00000000000E+00 -0.88843666004E+03  0.88843666004E+03  0.00000000000E+00 0. -1.
         25    2    1    2    0    0 -0.97554316860E+02  0.61469170126E+01  0.28031474106E+02  0.16113720624E+03  0.12499922547E+03 0.  0.
          2    1    1    2  501    0  0.31180335724E+02  0.66953037880E+02 -0.80080086189E+03  0.80419956666E+03  0.00000000000E+00 0. -1.
          1    1    1    2  502    0  0.66373981136E+02 -0.73099954892E+02  0.10635569196E+03  0.14512285137E+03  0.00000000000E+00 0. -1.
         22    1    3    3    0    0  0.62744610730E+01 -0.14704068409E+02  0.50420830308E+02  0.52894599143E+02  0.00000000000E+00 0. -1.
         22    1    3    3    0    0 -0.10382877793E+03  0.20850985422E+02 -0.22389356202E+02  0.10824260710E+03  0.00000000000E+00 0. -1.
</event>
<event>
 7    1  0.5676357E-006  0.6769118E+02  0.7818608E-02  0.1487438E+00
          2   -1    0    0  502    0  0.00000000000E+00  0.00000000000E+00  0.15316065553E+04  0.15316065553E+04  0.00000000000E+00 0. -1.
          1   -1    0    0  501    0 -0.00000000000E+00 -0.00000000000E+00 -0.15135788772E+02  0.15135788772E+02  0.00000000000E+00 0. -1.
         25    2    1    2    0    0 -0.44960132700E+02 -0.28448002023E+02  0.10330296164E+04  0.10419242910E+04  0.12500134970E+03 0.  0.
          2    1    1    2  501    0  0.68243508311E+02  0.14241634833E+02  0.10901418325E+03  0.12939896730E+03  0.00000000000E+00 0. -1.
          1    1    1    2  502    0 -0.23283375611E+02  0.14206367190E+02  0.37442696682E+03  0.37541908573E+03  0.00000000000E+00 0. -1.
         22    1    3    3    0    0  0.40342358858E+02 -0.22447561007E+02  0.24888162761E+03  0.25312736611E+03  0.00000000000E+00 0. -1.
         22    1    3    3    0    0 -0.85302491558E+02 -0.60004410168E+01  0.78414798884E+03  0.78879692492E+03  0.00000000000E+00 0. -1.
</event>
<event>
 7    1  0.5676357E-006  0.1163798E+03  0.7818608E-02  0.1286387E+00
          2   -1    0    0  502    0  0.00000000000E+00  0.00000000000E+00  0.31572160864E+04  0.31572160864E+04  0.00000000000E+00 0. -1.
          1   -1    0    0  501    0 -0.00000000000E+00 -0.00000000000E+00 -0.14368849768E+02  0.14368849768E+02  0.00000000000E+00 0. -1.
         25    2    1    2    0    0 -0.12622273464E+03  0.74776348956E+02  0.17209215375E+04  0.17316811800E+04  0.12500035902E+03 0.  0.
          2    1    1    2  501    0  0.49763730266E+02 -0.10185472368E+03  0.43083048873E+03  0.44549491984E+03  0.00000000000E+00 0. -1.
          1    1    1    2  502    0  0.76459004375E+02  0.27078374719E+02  0.99109521039E+03  0.99440883633E+03  0.00000000000E+00 0. -1.
         22    1    3    3    0    0 -0.25491973779E+02 -0.19676167656E+02  0.10393857729E+03  0.10881277568E+03  0.00000000000E+00 0.  1.
         22    1    3    3    0    0 -0.10073076086E+03  0.94452516613E+02  0.16169829603E+04  0.16228684043E+04  0.00000000000E+00 0.  1.
</event>
<event>
 7    1  0.5676357E-006  0.8975059E+02  0.7818608E-02  0.1424595E+00
          2   -1    0    0  502    0  0.00000000000E+00  0.00000000000E+00  0.14446495371E+04  0.14446495371E+04  0.00000000000E+00 0. -1.
          1   -1    0    0  501    0 -0.00000000000E+00 -0.00000000000E+00 -0.12437420932E+04  0.12437420932E+04  0.00000000000E+00 0. -1.
         25    2    1    2    0    0  0.78367254421E+02 -0.49743154650E+02  0.10904095824E+04  0.11014690083E+04  0.12500044339E+03 0.  0.
          2    1    1    2  501    0 -0.54186600549E+02  0.71552220886E+02 -0.12358211053E+04  0.12390761528E+04  0.00000000000E+00 0. -1.
          1    1    1    2  502    0 -0.24180653872E+02 -0.21809066235E+02  0.34631896681E+03  0.34784646925E+03  0.00000000000E+00 0. -1.
         22    1    3    3    0    0 -0.34022836720E+02 -0.19788712102E+02  0.26765189170E+03  0.27053037108E+03  0.00000000000E+00 0. -1.
         22    1    3    3    0    0  0.11239009114E+03 -0.29954442548E+02  0.82275769069E+03  0.83093863721E+03  0.00000000000E+00 0. -1.
</event>
<event>
 7    1  0.5676357E-006  0.7398653E+02  0.7818608E-02  0.1417407E+00
          2   -1    0    0  502    0  0.00000000000E+00  0.00000000000E+00  0.16765469480E+04  0.16765469480E+04  0.00000000000E+00 0. -1.
          1   -1    0    0  501    0 -0.00000000000E+00 -0.00000000000E+00 -0.19566333521E+03  0.19566333521E+03  0.00000000000E+00 0. -1.
         25    2    1    2    0    0 -0.77493951629E+02  0.80430121475E+02  0.33811465211E+03  0.37738713591E+03  0.12500086161E+03 0.  0.
          2    1    1    2  501    0  0.20272503961E+02 -0.36489230388E+02 -0.17254986427E+03  0.17752716415E+03  0.00000000000E+00 0. -1.
          1    1    1    2  502    0  0.57221447668E+02 -0.43940891088E+02  0.13153188249E+04  0.13172959832E+04  0.00000000000E+00 0. -1.
         22    1    3    3    0    0  0.23850236020E+02 -0.15077139715E+02  0.63288331493E+02  0.69293338809E+02  0.00000000000E+00 0. -1.
         22    1    3    3    0    0 -0.10134418765E+03  0.95507261190E+02  0.27482632062E+03  0.30809379710E+03  0.00000000000E+00 0. -1.
</event>
<event>
 7    1  0.5676357E-006  0.7220443E+02  0.7818608E-02  0.1416148E+00
          2   -1    0    0  502    0  0.00000000000E+00  0.00000000000E+00  0.21857392676E+03  0.21857392676E+03  0.00000000000E+00 0. -1.
          1   -1    0    0  501    0 -0.00000000000E+00 -0.00000000000E+00 -0.16112640146E+04  0.16112640146E+04  0.00000000000E+00 0. -1.
         25    2    1    2    0    0  0.11444946122E+03 -0.25053076548E+01 -0.11978684574E+04  0.12097993359E+04  0.12498254287E+03 0.  0.
          2    1    1    2  501    0 -0.42874095542E+02 -0.52229109770E+01 -0.40014023887E+03  0.40246450481E+03  0.00000000000E+00 0. -1.
          1    1    1    2  502    0 -0.71575365679E+02  0.77282186318E+01  0.20531860843E+03  0.21757410072E+03  0.00000000000E+00 0. -1.
         22    1    3    3    0    0  0.11322103070E+03 -0.16452251327E+01 -0.53144436621E+03  0.54337355745E+03  0.00000000000E+00 0.  1.
         22    1    3    3    0    0  0.12284305180E+01 -0.86008252212E+00 -0.66642409120E+03  0.66642577840E+03  0.00000000000E+00 0.  1.
</event>
<event>
 7    1  0.5676357E-006  0.8637370E+02  0.7818608E-02  0.1393484E+00
          2   -1    0    0  502    0  0.00000000000E+00  0.00000000000E+00  0.18649568958E+04  0.18649568958E+04  0.00000000000E+00 0. -1.
          1   -1    0    0  501    0 -0.00000000000E+00 -0.00000000000E+00 -0.36304245647E+03  0.36304245647E+03  0.00000000000E+00 0. -1.
         25    2    1    2    0    0  0.10166912445E+02 -0.85185396597E+02 -0.20201639818E+03  0.25257815757E+03  0.12500073058E+03 0.  0.
          2    1    1    2  501    0  0.40416200293E+02  0.15110386746E+02 -0.13127354004E+03  0.13818297778E+03  0.00000000000E+00 0. -1.
          1    1    1    2  502    0 -0.50583112738E+02  0.70075009851E+02  0.18352043776E+04  0.18372382169E+04  0.00000000000E+00 0. -1.
         22    1    3    3    0    0 -0.56169749600E+02 -0.35704777501E+02 -0.11213434256E+03  0.13039932012E+03  0.00000000000E+00 0. -1.
         22    1    3    3    0    0  0.66336662045E+02 -0.49480619096E+02 -0.89882055620E+02  0.12217883745E+03  0.00000000000E+00 0. -1.
</event>
<event>
 7    1  0.5676357E-006  0.9341240E+02  0.7818608E-02  0.1464271E+00
          2   -1    0    0  502    0  0.00000000000E+00  0.00000000000E+00  0.40926588372E+02  0.40926588372E+02  0.00000000000E+00 0. -1.
          1   -1    0    0  501    0 -0.00000000000E+00 -0.00000000000E+00 -0.84770007361E+03  0.84770007361E+03  0.00000000000E+00 0. -1.
         25    2    1    2    0    0 -0.21602599936E+00  0.80827883855E+02 -0.32030541508E+03  0.35320788553E+03  0.12500823171E+03 0.  0.
          2    1    1    2  501    0  0.18232561569E+02 -0.95604513532E+02 -0.49938223298E+03  0.50877820701E+03  0.00000000000E+00 0. -1.
          1    1    1    2  502    0 -0.18016535570E+02  0.14776629677E+02  0.12914162826E+02  0.26640569440E+02  0.00000000000E+00 0. -1.
         22    1    3    3    0    0  0.49593444638E+02 -0.46670033838E+01 -0.11357220020E+03  0.12401586725E+03  0.00000000000E+00 0. -1.
         22    1    3    3    0    0 -0.49809470637E+02  0.85494887239E+02 -0.20673321488E+03  0.22919201828E+03  0.00000000000E+00 0. -1.
</event>
<event>
 7    1  0.5676357E-006  0.5968509E+02  0.7818608E-02  0.1399547E+00
          2   -1    0    0  502    0  0.00000000000E+00  0.00000000000E+00  0.82877663774E+02  0.82877663774E+02  0.00000000000E+00 0. -1.
          1   -1    0    0  501    0 -0.00000000000E+00 -0.00000000000E+00 -0.10255490143E+04  0.10255490143E+04  0.00000000000E+00 0. -1.
         25    2    1    2    0    0  0.65749094489E+02 -0.26735706336E+02 -0.15894287589E+03  0.21430262874E+03  0.12500014987E+03 0.  0.
          2    1    1    2  501    0 -0.50306429221E+02 -0.32118114130E+02 -0.82073871072E+03  0.82290603434E+03  0.00000000000E+00 0. -1.
          1    1    1    2  502    0 -0.15442665268E+02  0.58853820467E+02  0.37010236045E+02  0.71218015040E+02  0.00000000000E+00 0. -1.
         22    1    3    3    0    0 -0.35219270085E+02  0.69598948436E+01 -0.53862632535E+02  0.64730366176E+02  0.00000000000E+00 0.  1.
         22    1    3    3    0    0  0.10096836457E+03 -0.33695601180E+02 -0.10508024336E+03  0.14957226256E+03  0.00000000000E+00 0.  1.
</event>
<event>
 7    1  0.5676357E-006  0.6710808E+02  0.7818608E-02  0.1420162E+00
          2   -1    0    0  502    0  0.00000000000E+00  0.00000000000E+00  0.88053539354E+03  0.88053539354E+03  0.00000000000E+00 0. -1.
          1   -1    0    0  501    0 -0.00000000000E+00 -0.00000000000E+00 -0.75412326755E+02  0.75412326755E+02  0.00000000000E+00 0. -1.
         25    2    1    2    0    0 -0.24055012929E+02  0.47299978041E+02  0.24439617926E+03  0.27958867533E+03  0.12499761344E+03 0.  0.
          2    1    1    2  501    0  0.39905155647E+02  0.20916666159E+02 -0.46710133716E+02  0.64898112162E+02  0.00000000000E+00 0. -1.
          1    1    1    2  502    0 -0.15850142718E+02 -0.68216644200E+02  0.60743702125E+03  0.61146093281E+03  0.00000000000E+00 0. -1.
         22    1    3    3    0    0 -0.65819798821E+02  0.14693807330E+02  0.69498219824E+02  0.96840882118E+02  0.00000000000E+00 0. -1.
         22    1    3    3    0    0  0.41764785892E+02  0.32606170711E+02  0.17489795943E+03  0.18274779321E+03  0.00000000000E+00 0. -1.
</event>
<event>
 7    1  0.5676357E-006  0.1194112E+03  0.7818608E-02  0.1251579E+00
          2   -1    0    0  502    0  0.00000000000E+00  0.00000000000E+00  0.12289152968E+04  0.12289152968E+04  0.00000000000E+00 0. -1.
          1   -1    0    0  501    0 -0.00000000000E+00 -0.00000000000E+00 -0.96237882417E+03  0.96237882417E+03  0.00000000000E+00 0. -1.
         25    2    1    2    0    0  0.10570905541E+03 -0.12638874403E+03  0.28831132977E+03  0.35482042282E+03  0.12500236223E+03 0.  0.
          2    1    1    2  501    0 -0.11824819179E+03  0.16346631899E+02 -0.92188184882E+03  0.92957839390E+03  0.00000000000E+00 0. -1.
          1    1    1    2  502    0  0.12539136378E+02  0.11004211213E+03  0.90010699167E+03  0.90689530423E+03  0.00000000000E+00 0. -1.
         22    1    3    3    0    0  0.99911367666E+02 -0.31235569799E+02  0.19556074528E+03  0.22181511965E+03  0.00000000000E+00 0.  1.
         22    1    3    3    0    0  0.57976877488E+01 -0.95153174233E+02  0.92750584492E+02  0.13300530318E+03  0.00000000000E+00 0.  1.
</event>
<event>
 7    1  0.5676357E-006  0.1045390E+03  0.7818608E-02  0.1342931E+00
          2   -1    0    0  502    0  0.00000000000E+00  0.00000000000E+00  0.15146474336E+03  0.15146474336E+03  0.00000000000E+00 0. -1.
          1   -1    0    0  501    0 -0.00000000000E+00 -0.00000000000E+00 -0.14470714608E+04  0.14470714608E+04  0.00000000000E+00 0. -1.
         25    2    1    2    0    0 -0.12412586041E+03  0.37745746973E+01  0.43392570991E+01  0.17626701262E+03  0.12501901435E+03 0.  0.
          2    1    1    2  501    0  0.95428278658E+02  0.42258112012E+02 -0.13466500742E+04  0.13506882418E+04  0.00000000000E+00 0. -1.
          1    1    1    2  502    0  0.28697581755E+02 -0.46032686710E+02  0.46704099599E+02  0.71580949726E+02  0.00000000000E+00 0. -1.
         22    1    3    3    0    0 -0.44306300212E+02 -0.28792645886E+02 -0.51313881218E+02  0.73655815122E+02  0.00000000000E+00 0. -1.
         22    1    3    3    0    0 -0.79819560201E+02  0.32567220583E+02  0.55653138317E+02  0.10261119750E+03  0.00000000000E+00 0. -1.
</event>
<event>
 7    1  0.5676357E-006  0.1515097E+03  0.7818608E-02  0.1296953E+00
          2   -1    0    0  502    0  0.00000000000E+00  0.00000000000E+00  0.39067082546E+03  0.39067082546E+03  0.00000000000E+00 0. -1.
          1   -1    0    0  501    0 -0.00000000000E+00 -0.00000000000E+00 -0.89244719993E+03  0.89244719993E+03  0.00000000000E+00 0. -1.
         25    2    1    2    0    0  0.18957972650E+03  0.78365396226E+02  0.61982250331E+02  0.24808974343E+03  0.12500045366E+03 0.  0.
          2    1    1    2  501    0 -0.13547043725E+03 -0.62280140935E+02 -0.78892648029E+03  0.80289230076E+03  0.00000000000E+00 0. -1.
          1    1    1    2  502    0 -0.54109289247E+02 -0.16085255290E+02  0.22516785549E+03  0.23213598120E+03  0.00000000000E+00 0. -1.
         22    1    3    3    0    0  0.18889915034E+01  0.51411096260E+01 -0.27213586545E+02  0.27759297357E+02  0.00000000000E+00 0. -1.
         22    1    3    3    0    0  0.18769073499E+03  0.73224286600E+02  0.89195836877E+02  0.22033044607E+03  0.00000000000E+00 0. -1.
</event>
<event>
 7    1  0.5676357E-006  0.6702233E+02  0.7818608E-02  0.1383482E+00
          2   -1    0    0  502    0  0.00000000000E+00  0.00000000000E+00  0.82562998575E+02  0.82562998575E+02  0.00000000000E+00 0. -1.
          1   -1    0    0  501    0 -0.00000000000E+00 -0.00000000000E+00 -0.13648721364E+04  0.13648721364E+04  0.00000000000E+00 0. -1.
         25    2    1    2    0    0  0.10152490601E+03 -0.26195820375E+02 -0.29565715702E+03  0.33768048521E+03  0.12498571138E+03 0.  0.
          2    1    1    2  501    0 -0.62778468206E+02 -0.19970755140E+02 -0.10321425724E+04  0.10342428423E+04  0.00000000000E+00 0. -1.
          1    1    1    2  502    0 -0.38746437807E+02  0.46166575515E+02  0.45490591605E+02  0.75511807435E+02  0.00000000000E+00 0. -1.
         22    1    3    3    0    0  0.68473150461E+02  0.56062581800E+01 -0.43344458225E+02  0.81232656756E+02  0.00000000000E+00 0. -1.
         22    1    3    3    0    0  0.33051755552E+02 -0.31802078555E+02 -0.25231269879E+03  0.25644782845E+03  0.00000000000E+00 0. -1.
</event>
<event>
 7    1  0.5676357E-006  0.4865091E+02  0.7818608E-02  0.1488470E+00
          2   -1    0    0  502    0  0.00000000000E+00  0.00000000000E+00  0.10632801401E+04  0.10632801401E+04  0.00000000000E+00 0. -1.
          1   -1    0    0  501    0 -0.00000000000E+00 -0.00000000000E+00 -0.30150924007E+03  0.30150924007E+03  0.00000000000E+00 0. -1.
         25    2    1    2    0    0  0.72310312316E+02 -0.35588559891E+02  0.32008356934E+03  0.35294978589E+03  0.12499893255E+03 0.  0.
          2    1    1    2  501    0 -0.47999370693E+02  0.68043507983E+01 -0.28252181852E+03  0.28665103648E+03  0.00000000000E+00 0. -1.
          1    1    1    2  502    0 -0.24310941623E+02  0.28784209092E+02  0.72420914920E+03  0.72518855780E+03  0.00000000000E+00 0. -1.
         22    1    3    3    0    0  0.24646005558E+02 -0.69234514610E+02  0.93223116910E+02  0.11870717388E+03  0.00000000000E+00 0.  1.
         22    1    3    3    0    0  0.47664306758E+02  0.33645954719E+02  0.22686045243E+03  0.23424261201E+03  0.00000000000E+00 0.  1.
</event>
<event>
 7    1  0.5676357E-006  0.2296520E+03  0.7818608E-02  0.1187971E+00
          2   -1    0    0  502    0  0.00000000000E+00  0.00000000000E+00  0.15246729511E+04  0.15246729511E+04  0.00000000000E+00 0. -1.
          1   -1    0    0  501    0 -0.00000000000E+00 -0.00000000000E+00 -0.25075124128E+03  0.25075124128E+03  0.00000000000E+00 0. -1.
         25    2    1    2    0    0 -0.73647386710E+02  0.20818197062E+03  0.95375313964E+02  0.27108017569E+03  0.12499736268E+03 0.  0.
          2    1    1    2  501    0  0.11010030909E+03  0.22482736127E+02 -0.13188553113E+03  0.17326668695E+03  0.00000000000E+00 0. -1.
          1    1    1    2  502    0 -0.36452922382E+02 -0.23066470675E+03  0.13104319270E+04  0.13310773298E+04  0.00000000000E+00 0. -1.
         22    1    3    3    0    0 -0.10612173414E+03  0.17515188827E+03  0.92376496027E+02  0.22466291069E+03  0.00000000000E+00 0. -1.
         22    1    3    3    0    0  0.32474347429E+02  0.33030082349E+02  0.29988179370E+01  0.46417264999E+02  0.00000000000E+00 0. -1.
</event>
<event>
 7    1  0.5676357E-006  0.1133257E+03  0.7818608E-02  0.1411141E+00
          2   -1    0    0  502    0  0.00000000000E+00  0.00000000000E+00  0.95808327226E+03  0.95808327226E+03  0.00000000000E+00 0. -1.
          1   -1    0    0  501    0 -0.00000000000E+00 -0.00000000000E+00 -0.10928881695E+03  0.10928881695E+03  0.00000000000E+00 0. -1.
         25    2    1    2    0    0 -0.83560902307E+02 -0.28097973993E+02  0.39675272474E+03  0.42521763791E+03  0.12500157785E+03 0.  0.
          2    1    1    2  501    0  0.10604502774E+03  0.45788474581E+02 -0.59418345393E+02  0.12989485010E+03  0.00000000000E+00 0. -1.
          1    1    1    2  502    0 -0.22484125436E+02 -0.17690500588E+02  0.51146007597E+03  0.51225960120E+03  0.00000000000E+00 0. -1.
         22    1    3    3    0    0 -0.49744980125E+02 -0.52346851306E+02  0.36706590541E+03  0.37410177065E+03  0.00000000000E+00 0.  1.
         22    1    3    3    0    0 -0.33815922182E+02  0.24248877313E+02  0.29686819334E+02  0.51115867264E+02  0.00000000000E+00 0.  1.
</event>
<event>
 7    1  0.7850059E-006  0.4295893E+02  0.7818608E-02  0.1564112E+00
          2   -1    0    0  502    0  0.00000000000E+00  0.00000000000E+00  0.13059430887E+04  0.13059430887E+04  0.00000000000E+00 0. -1.
          1   -1    0    0  501    0 -0.00000000000E+00 -0.00000000000E+00 -0.11141397706E+04  0.11141397706E+04  0.00000000000E+00 0. -1.
         25    2    1    2    0    0 -0.38768054665E+02 -0.53787711626E+02 -0.28927756055E+03  0.32202863220E+03  0.12499941174E+03 0.  0.
          2    1    1    2  501    0  0.21347612286E+02  0.14547494566E+02 -0.80792282594E+03  0.80833572408E+03  0.00000000000E+00 0. -1.
          1    1    1    2  502    0  0.17420442379E+02  0.39240217060E+02  0.12890037046E+04  0.12897185030E+04  0.00000000000E+00 0. -1.
         22    1    3    3    0    0  0.32996981666E+02 -0.31605537219E+02 -0.20095518945E+03  0.20608420354E+03  0.00000000000E+00 0.  1.
         22    1    3    3    0    0 -0.71765036331E+02 -0.22182174407E+02 -0.88322371097E+02  0.11594442866E+03  0.00000000000E+00 0.  1.
</event>
<event>
 7    1  0.5676357E-006  0.2551328E+03  0.7818608E-02  0.1168567E+00
          2   -1    0    0  502    0  0.00000000000E+00  0.00000000000E+00  0.12190583330E+04  0.12190583330E+04  0.00000000000E+00 0. -1.
          1   -1    0    0  501    0 -0.00000000000E+00 -0.00000000000E+00 -0.12732697446E+04  0.12732697446E+04  0.00000000000E+00 0. -1.
         25    2    1    2    0    0  0.10973987857E+03  0.25809185106E+03 -0.73199038214E+03  0.79378121109E+03  0.12499778799E+03 0.  0.
          2    1    1    2  501    0 -0.18654712068E+03 -0.15835458728E+03 -0.47743793819E+03  0.53649136840E+03  0.00000000000E+00 0. -1.
          1    1    1    2  502    0  0.76807242110E+02 -0.99737263785E+02  0.11552169088E+04  0.11620554980E+04  0.00000000000E+00 0. -1.
         22    1    3    3    0    0  0.13020698081E+03  0.23338795372E+03 -0.69611503124E+03  0.74565402937E+03  0.00000000000E+00 0. -1.
         22    1    3    3    0    0 -0.20467102247E+02  0.24703897345E+02 -0.35875350899E+02  0.48127181723E+02  0.00000000000E+00 0. -1.
</event>
<event>
 7    1  0.5676357E-006  0.1331510E+03  0.7818608E-02  0.1328660E+00
          2   -1    0    0  502    0  0.00000000000E+00  0.00000000000E+00  0.66343828557E+03  0.66343828557E+03  0.00000000000E+00 0. -1.
          1   -1    0    0  501    0 -0.00000000000E+00 -0.00000000000E+00 -0.12028905737E+04  0.12028905737E+04  0.00000000000E+00 0. -1.
         25    2    1    2    0    0 -0.65204370454E+02  0.78302182245E+02  0.19775292898E+03  0.25517236558E+03  0.12499549417E+03 0.  0.
          2    1    1    2  501    0 -0.12052644837E+02  0.46701672584E+02 -0.11613115231E+04  0.11623126801E+04  0.00000000000E+00 0. -1.
          1    1    1    2  502    0  0.77257015291E+02 -0.12500385483E+03  0.42410630608E+03  0.44884381358E+03  0.00000000000E+00 0. -1.
         22    1    3    3    0    0 -0.22244428407E+02  0.10634758189E+02  0.16780654250E+03  0.16960822027E+03  0.00000000000E+00 0.  1.
         22    1    3    3    0    0 -0.42959942047E+02  0.67667424056E+02  0.29946386484E+02  0.85564145309E+02  0.00000000000E+00 0.  1.
</event>
<event>
 7    1  0.6976611E-006  0.6623345E+02  0.7818608E-02  0.1385192E+00
          2   -1    0    0  502    0  0.00000000000E+00  0.00000000000E+00  0.19359903731E+04  0.19359903731E+04  0.00000000000E+00 0. -1.
          1   -1    0    0  501    0 -0.00000000000E+00 -0.00000000000E+00 -0.59947331685E+03  0.59947331685E+03  0.00000000000E+00 0. -1.
         25    2    1    2    0    0 -0.86322074155E+01 -0.86156998946E+02 -0.36193819773E+03  0.39258292203E+03  0.12499819288E+03 0.  0.
          2    1    1    2  501    0  0.49826020143E+02  0.42326786023E+02 -0.21692173435E+03  0.22655954610E+03  0.00000000000E+00 0. -1.
          1    1    1    2  502    0 -0.41193812728E+02  0.43830212923E+02  0.19153769883E+04  0.19163212218E+04  0.00000000000E+00 0. -1.
         22    1    3    3    0    0 -0.42854217923E+02  0.12539824334E+02 -0.14652365579E+03  0.15317608460E+03  0.00000000000E+00 0.  1.
         22    1    3    3    0    0  0.34222010507E+02 -0.98696823280E+02 -0.21541454194E+03  0.23940683743E+03  0.00000000000E+00 0.  1.
</event>
<event>
 7    1  0.5676357E-006  0.6222918E+02  0.7818608E-02  0.1494030E+00
          2   -1    0    0  502    0  0.00000000000E+00  0.00000000000E+00  0.77483570025E+03  0.77483570025E+03  0.00000000000E+00 0. -1.
          1   -1    0    0  501    0 -0.00000000000E+00 -0.00000000000E+00 -0.11545972891E+04  0.11545972891E+04  0.00000000000E+00 0. -1.
         25    2    1    2    0    0  0.57234459501E+02  0.27179788353E+02 -0.28052416189E+03  0.31358269079E+03  0.12500309722E+03 0.  0.
          2    1    1    2  501    0 -0.62562879949E+02  0.65344480930E+00 -0.85613714201E+03  0.85842026238E+03  0.00000000000E+00 0. -1.
          1    1    1    2  502    0  0.53284204478E+01 -0.27833233162E+02  0.75689971509E+03  0.75743003613E+03  0.00000000000E+00 0. -1.
         22    1    3    3    0    0  0.55416452082E+02  0.46609329479E+02 -0.65394407685E+02  0.97569674143E+02  0.00000000000E+00 0.  1.
         22    1    3    3    0    0  0.18180074187E+01 -0.19429541126E+02 -0.21512975420E+03  0.21601301665E+03  0.00000000000E+00 0.  1.
</event>
<event>
 7    1  0.5676357E-006  0.2261840E+03  0.7818608E-02  0.1250956E+00
          2   -1    0    0  502    0  0.00000000000E+00  0.00000000000E+00  0.82771754276E+03  0.82771754276E+03  0.00000000000E+00 0. -1.
          1   -1    0    0  501    0 -0.00000000000E+00 -0.00000000000E+00 -0.11240061577E+04  0.11240061577E+04  0.00000000000E+00 0. -1.
         25    2    1    2    0    0 -0.24157899778E+03 -0.53680807147E+01  0.45168946549E+03  0.52729477022E+03  0.12500869177E+03 0.  0.
          2    1    1    2  501    0  0.31178938092E+02  0.49894665643E+02 -0.10511111009E+04  0.10527564534E+04  0.00000000000E+00 0. -1.
          1    1    1    2  502    0  0.21040005968E+03 -0.44526584928E+02  0.30313302049E+03  0.37167247677E+03  0.00000000000E+00 0. -1.
         22    1    3    3    0    0 -0.15809640256E+03 -0.63455474001E+02  0.28218081464E+03  0.32961656790E+03  0.00000000000E+00 0.  1.
         22    1    3    3    0    0 -0.83482595218E+02  0.58087393286E+02  0.16950865084E+03  0.19767820232E+03  0.00000000000E+00 0.  1.
</event>
<event>
 7    1  0.5676357E-006  0.1839395E+03  0.7818608E-02  0.1179235E+00
          2   -1    0    0  502    0  0.00000000000E+00  0.00000000000E+00  0.11775464335E+04  0.11775464335E+04  0.00000000000E+00 0. -1.
          1   -1    0    0  501    0 -0.00000000000E+00 -0.00000000000E+00 -0.27851182444E+03  0.27851182444E+03  0.00000000000E+00 0. -1.
         25    2    1    2    0    0  0.10936766813E+03 -0.22521590457E+02  0.10220933569E+03  0.19631799930E+03  0.12500199869E+03 0.  0.
          2    1    1    2  501    0  0.60402189552E+02  0.14239880628E+03 -0.19356644852E+03  0.24777775228E+03  0.00000000000E+00 0. -1.
          1    1    1    2  502    0 -0.16976985769E+03 -0.11987721582E+03  0.99039172187E+03  0.10119625063E+04  0.00000000000E+00 0. -1.
         22    1    3    3    0    0  0.53070851778E+02 -0.71501439229E+02  0.76495297109E+02  0.11739038121E+03  0.00000000000E+00 0. -1.
         22    1    3    3    0    0  0.56296816356E+02  0.48979848772E+02  0.25714038577E+02  0.78927618091E+02  0.00000000000E+00 0. -1.
</event>
<event>
 7    1  0.6018813E-006  0.1133123E+03  0.7818608E-02  0.1292381E+00
          2   -1    0    0  502    0  0.00000000000E+00  0.00000000000E+00  0.83302131130E+03  0.83302131130E+03  0.00000000000E+00 0. -1.
          1   -1    0    0  501    0 -0.00000000000E+00 -0.00000000000E+00 -0.91585709893E+03  0.91585709893E+03  0.00000000000E+00 0. -1.
         25    2    1    2    0    0  0.32719858368E+02 -0.40043848023E+02 -0.25930070839E+03  0.29246694253E+03  0.12500382477E+03 0.  0.
          2    1    1    2  501    0 -0.26556921470E+02 -0.74143150678E+02 -0.63351885732E+03  0.63839534730E+03  0.00000000000E+00 0. -1.
          1    1    1    2  502    0 -0.61629368975E+01  0.11418699870E+03  0.80998377809E+03  0.81801612039E+03  0.00000000000E+00 0. -1.
         22    1    3    3    0    0  0.30150887285E+02  0.26016307159E+02 -0.19913368264E+03  0.20307670424E+03  0.00000000000E+00 0.  1.
         22    1    3    3    0    0  0.25689710823E+01 -0.66060155182E+02 -0.60167025750E+02  0.89390238296E+02  0.00000000000E+00 0.  1.
</event>
<event>
 7    1  0.5676357E-006  0.2289499E+03  0.7818608E-02  0.1214165E+00
          2   -1    0    0  502    0  0.00000000000E+00  0.00000000000E+00  0.19189436931E+03  0.19189436931E+03  0.00000000000E+00 0. -1.
          1   -1    0    0  501    0 -0.00000000000E+00 -0.00000000000E+00 -0.20163622220E+04  0.20163622220E+04  0.00000000000E+00 0. -1.
         25    2    1    2    0    0  0.23519648453E+03  0.48477958917E+02 -0.26897833716E+03  0.38162973079E+03  0.12499762687E+03 0.  0.
          2    1    1    2  501    0 -0.88885972832E+01 -0.84385829664E+02 -0.15922920309E+04  0.15945513122E+04  0.00000000000E+00 0. -1.
          1    1    1    2  502    0 -0.22630788725E+03  0.35907870747E+02  0.36802515378E+02  0.23207554837E+03  0.00000000000E+00 0. -1.
         22    1    3    3    0    0  0.16402859735E+03  0.78200651137E+02 -0.23573866712E+03  0.29764650470E+03  0.00000000000E+00 0.  1.
         22    1    3    3    0    0  0.71167887185E+02 -0.29722692220E+02 -0.33239670034E+02  0.83983226082E+02  0.00000000000E+00 0.  1.
</event>
<event>
 7    1  0.5676357E-006  0.9683079E+02  0.7818608E-02  0.1402288E+00
          2   -1    0    0  502    0  0.00000000000E+00  0.00000000000E+00  0.16625387572E+02  0.16625387572E+02  0.00000000000E+00 0. -1.
          1   -1    0    0  501    0 -0.00000000000E+00 -0.00000000000E+00 -0.32604994284E+04  0.32604994284E+04  0.00000000000E+00 0. -1.
         25    2    1    2    0    0 -0.91498128358E+02 -0.85581449296E+02 -0.23687291305E+04  0.23753315218E+04  0.12500421115E+03 0.  0.
          2    1    1    2  501    0  0.34549622461E+02  0.97142930507E+01 -0.71325386188E+03  0.71415622618E+03  0.00000000000E+00 0. -1.
          1    1    1    2  502    0  0.56948505897E+02  0.75867156246E+02 -0.16189104848E+03  0.18763706803E+03  0.00000000000E+00 0. -1.
         22    1    3    3    0    0 -0.81784831765E+02 -0.32787448835E+02 -0.67181821092E+03  0.67757175563E+03  0.00000000000E+00 0.  1.
         22    1    3    3    0    0 -0.97132965931E+01 -0.52794000461E+02 -0.16969109195E+04  0.16977597661E+04  0.00000000000E+00 0.  1.
</event>
<event>
 7    1  0.5676357E-006  0.8161887E+02  0.7818608E-02  0.1385414E+00
          2   -1    0    0  502    0  0.00000000000E+00  0.00000000000E+00  0.79834561370E+03  0.79834561370E+03  0.00000000000E+00 0. -1.
          1   -1    0    0  501    0 -0.00000000000E+00 -0.00000000000E+00 -0.25705895793E+03  0.25705895793E+03  0.00000000000E+00 0. -1.
         25    2    1    2    0    0 -0.11230519994E+03  0.28049556404E+02 -0.13563020008E+03  0.21776082049E+03  0.12499995288E+03 0.  0.
          2    1    1    2  501    0  0.31532966067E+02 -0.37144228207E+02 -0.70566794650E+02  0.85753682983E+02  0.00000000000E+00 0. -1.
          1    1    1    2  502    0  0.80772233875E+02  0.90946718031E+01  0.74748365050E+03  0.75189006815E+03  0.00000000000E+00 0. -1.
         22    1    3    3    0    0 -0.25312418639E+02  0.12989093021E+02  0.22755062787E+02  0.36431139940E+02  0.00000000000E+00 0. -1.
         22    1    3    3    0    0 -0.86992781302E+02  0.15060463383E+02 -0.15838526286E+03  0.18132968055E+03  0.00000000000E+00 0. -1.
</event>
<event>
 7    1  0.5676357E-006  0.3661318E+02  0.7818608E-02  0.1552781E+00
          2   -1    0    0  502    0  0.00000000000E+00  0.00000000000E+00  0.86343298054E+03  0.86343298054E+03  0.00000000000E+00 0. -1.
          1   -1    0    0  501    0 -0.00000000000E+00 -0.00000000000E+00 -0.47382172947E+02  0.47382172947E+02  0.00000000000E+00 0. -1.
         25    2    1    2    0    0  0.76301990195E+01  0.28097656331E+01  0.50723379446E+03  0.52247363877E+03  0.12500586483E+03 0.  0.
          2    1    1    2  501    0 -0.32131925924E+02  0.18652386001E+02 -0.30128768719E+02  0.47834243713E+02  0.00000000000E+00 0. -1.
          1    1    1    2  502    0  0.24501726905E+02 -0.21462151634E+02  0.33894578185E+03  0.34050727101E+03  0.00000000000E+00 0. -1.
         22    1    3    3    0    0  0.64588669270E+02 -0.62596254412E+01  0.21402656620E+03  0.22364760260E+03  0.00000000000E+00 0. -1.
         22    1    3    3    0    0 -0.56958470250E+02  0.90693910743E+01  0.29320722826E+03  0.29882603617E+03  0.00000000000E+00 0. -1.
</event>
<event>
 7    1  0.5676357E-006  0.1701405E+03  0.7818608E-02  0.1259790E+00
          2   -1    0    0  502    0  0.00000000000E+00  0.00000000000E+00  0.93466270182E+03  0.93466270182E+03  0.00000000000E+00 0. -1.
          1   -1    0    0  501    0 -0.00000000000E+00 -0.00000000000E+00 -0.91828333742E+03  0.91828333742E+03  0.00000000000E+00 0. -1.
         25    2    1    2    0    0 -0.65166576054E+02  0.19413238422E+03  0.41117092554E+03  0.47604721284E+03  0.12500141441E+03 0.  0.
          2    1    1    2  501    0 -0.22038235023E+01 -0.16969665213E+03 -0.87503351439E+03  0.89133913965E+03  0.00000000000E+00 0. -1.
          1    1    1    2  502    0  0.67370399556E+02 -0.24435732091E+02  0.48024195325E+03  0.48555968675E+03  0.00000000000E+00 0. -1.
         22    1    3    3    0    0 -0.11629217684E+02  0.47520634302E+02  0.23775196896E+03  0.24273328600E+03  0.00000000000E+00 0.  1.
         22    1    3    3    0    0 -0.53537358370E+02  0.14661174991E+03  0.17341895658E+03  0.23331392684E+03  0.00000000000E+00 0.  1.
</event>
<event>
 7    1  0.5676357E-006  0.4327128E+02  0.7818608E-02  0.1566179E+00
          2   -1    0    0  502    0  0.00000000000E+00  0.00000000000E+00  0.41365923984E+03  0.41365923984E+03  0.00000000000E+00 0. -1.
          1   -1    0    0  501    0 -0.00000000000E+00 -0.00000000000E+00 -0.84403354945E+03  0.84403354945E+03  0.00000000000E+00 0. -1.
         25    2    1    2    0    0 -0.86502955116E+01 -0.66989184775E+02  0.81455640601E+02  0.16377333165E+03  0.12499721710E+03 0.  0.
          2    1    1    2  501    0  0.10858406167E+02  0.41770618264E+02 -0.80174272358E+03  0.80290353365E+03  0.00000000000E+00 0. -1.
          1    1    1    2  502    0 -0.22081106549E+01  0.25218566510E+02  0.28991277337E+03  0.29101592399E+03  0.00000000000E+00 0. -1.
         22    1    3    3    0    0 -0.16042985586E+02  0.35305795974E+02  0.15089979349E+02  0.41612306985E+02  0.00000000000E+00 0. -1.
         22    1    3    3    0    0  0.73926900747E+01 -0.10229498075E+03  0.66365661252E+02  0.12216102466E+03  0.00000000000E+00 0. -1.
</event>
<event>
 7    1  0.5676357E-006  0.1282406E+03  0.7818608E-02  0.1395011E+00
          2   -1    0    0  502    0  0.00000000000E+00  0.00000000000E+00  0.16120710559E+04  0.16120710559E+04  0.00000000000E+00 0. -1.
          1   -1    0    0  501    0 -0.00000000000E+00 -0.00000000000E+00 -0.13167272922E+04  0.13167272922E+04  0.00000000000E+00 0. -1.
         25    2    1    2    0    0  0.14674233599E+03  0.53951879320E+02 -0.11090113109E+03  0.22884353839E+03  0.12500474284E+03 0.  0.
          2    1    1    2  501    0 -0.27788448474E+02 -0.72145361670E+01 -0.11440452407E+04  0.11444054178E+04  0.00000000000E+00 0. -1.
          1    1    1    2  502    0 -0.11895388751E+03 -0.46737343153E+02  0.15502901355E+04  0.15555493920E+04  0.00000000000E+00 0. -1.
         22    1    3    3    0    0  0.13912704392E+03  0.19706076885E+01 -0.48683289739E+02  0.14741194098E+03  0.00000000000E+00 0. -1.
         22    1    3    3    0    0  0.76152920652E+01  0.51981271632E+02 -0.62217841353E+02  0.81431597407E+02  0.00000000000E+00 0. -1.
</event>
<event>
 7    1  0.5676357E-006  0.7395445E+02  0.7818608E-02  0.1434041E+00
          2   -1    0    0  502    0  0.00000000000E+00  0.00000000000E+00  0.15809380296E+03  0.15809380296E+03  0.00000000000E+00 0. -1.
          1   -1    0    0  501    0 -0.00000000000E+00 -0.00000000000E+00 -0.13526829772E+04  0.13526829772E+04  0.00000000000E+00 0. -1.
         25    2    1    2    0    0  0.62218255211E+02 -0.74042246339E+02  0.44458905081E+02  0.16418288680E+03  0.12500424214E+03 0.  0.
          2    1    1    2  501    0 -0.63664771610E+02  0.37286108821E+02 -0.12853460241E+04  0.12874617892E+04  0.00000000000E+00 0. -1.
          1    1    1    2  502    0  0.14465163986E+01  0.36756137518E+02  0.46297944753E+02  0.59132104168E+02  0.00000000000E+00 0. -1.
         22    1    3    3    0    0  0.46004939587E+01 -0.39324752981E+02 -0.39951289202E+02  0.56246833249E+02  0.00000000000E+00 0. -1.
         22    1    3    3    0    0  0.57617761252E+02 -0.34717493358E+02  0.84410194283E+02  0.10793605355E+03  0.00000000000E+00 0. -1.
</event>
<event>
 7    1  0.5676357E-006  0.1117989E+03  0.7818608E-02  0.1362255E+00
          2   -1    0    0  502    0  0.00000000000E+00  0.00000000000E+00  0.69482130215E+03  0.69482130215E+03  0.00000000000E+00 0. -1.
          1   -1    0    0  501    0 -0.00000000000E+00 -0.00000000000E+00 -0.39107540706E+03  0.39107540706E+03  0.00000000000E+00 0. -1.
         25    2    1    2    0    0  0.11640861648E+02 -0.14399423949E+03  0.19960964756E+03  0.27629449288E+03  0.12499913892E+03 0.  0.
          2    1    1    2  501    0  0.14534834617E+02  0.40512608854E+02 -0.34514339439E+03  0.34781675576E+03  0.00000000000E+00 0. -1.
          1    1    1    2  502    0 -0.26175696265E+02  0.10348163063E+03  0.44927964192E+03  0.46178546058E+03  0.00000000000E+00 0. -1.
         22    1    3    3    0    0  0.32277054122E+02 -0.10981040828E+03  0.20618901240E+03  0.23582629799E+03  0.00000000000E+00 0. -1.
         22    1    3    3    0    0 -0.20636192474E+02 -0.34183831205E+02 -0.65793648416E+01  0.40468194887E+02  0.00000000000E+00 0. -1.
</event>
<event>
 7    1  0.5676357E-006  0.1366827E+03  0.7818608E-02  0.1343945E+00
          2   -1    0    0  502    0  0.00000000000E+00  0.00000000000E+00  0.11896759147E+03  0.11896759147E+03  0.00000000000E+00 0. -1.
          1   -1    0    0  501    0 -0.00000000000E+00 -0.00000000000E+00 -0.10239286065E+04  0.10239286065E+04  0.00000000000E+00 0. -1.
         25    2    1    2    0    0  0.16278694884E+03  0.45651979672E+02 -0.15299022540E+03  0.26002726558E+03  0.12499790324E+03 0.  0.
          2    1    1    2  501    0 -0.13227114010E+03 -0.18079258236E+02 -0.80486799556E+03  0.81586457476E+03  0.00000000000E+00 0. -1.
          1    1    1    2  502    0 -0.30515808735E+02 -0.27572721435E+02  0.52897205913E+02  0.67004357646E+02  0.00000000000E+00 0. -1.
         22    1    3    3    0    0  0.62914572340E+02 -0.42846003330E+02 -0.65896277260E+02  0.10067940589E+03  0.00000000000E+00 0. -1.
         22    1    3    3    0    0  0.99872376498E+02  0.88497983001E+02 -0.87093948143E+02  0.15934785968E+03  0.00000000000E+00 0. -1.
</event>
<event>
 7    1  0.5676357E-006  0.4894302E+02  0.7818608E-02  0.1464093E+00
          2   -1    0    0  502    0  0.00000000000E+00  0.00000000000E+00  0.20310357895E+04  0.20310357895E+04  0.00000000000E+00 0. -1.
          1   -1    0    0  501    0 -0.00000000000E+00 -0.00000000000E+00 -0.17274016720E+02  0.17274016720E+02  0.00000000000E+00 0. -1.
         25    2    1    2    0    0 -0.12913547796E+02 -0.88003223271E+02  0.67398152343E+03  0.69122185538E+03  0.12500092960E+03 0.  0.
          2    1    1    2  501    0  0.64555574126E-01  0.45367546267E+02  0.53962771962E+02  0.70499639571E+02  0.00000000000E+00 0. -1.
          1    1    1    2  502    0  0.12848992222E+02  0.42635677004E+02  0.12858174774E+04  0.12865883113E+04  0.00000000000E+00 0. -1.
         22    1    3    3    0    0 -0.60491360013E+02 -0.95880878016E+01  0.24433475497E+03  0.25189404231E+03  0.00000000000E+00 0.  1.
         22    1    3    3    0    0  0.47577812216E+02 -0.78415135469E+02  0.42964676846E+03  0.43932781307E+03  0.00000000000E+00 0.  1.
</event>
<event>
 7    1  0.5676357E-006  0.1084927E+03  0.7818608E-02  0.1305229E+00
          2   -1    0    0  502    0  0.00000000000E+00  0.00000000000E+00  0.78323852456E+03  0.78323852456E+03  0.00000000000E+00 0. -1.
          1   -1    0    0  501    0 -0.00000000000E+00 -0.00000000000E+00 -0.27464258358E+03  0.27464258358E+03  0.00000000000E+00 0. -1.
         25    2    1    2    0    0  0.83123904945E+02  0.14911682480E+03  0.24016595577E+03  0.32007792298E+03  0.12499911782E+03 0.  0.
          2    1    1    2  501    0 -0.20595918358E+02 -0.70088086031E+02 -0.22377028914E+03  0.23539259537E+03  0.00000000000E+00 0. -1.
          1    1    1    2  502    0 -0.62527986587E+02 -0.79028738772E+02  0.49220027435E+03  0.50241058979E+03  0.00000000000E+00 0. -1.
         22    1    3    3    0    0  0.30360453499E+02  0.31281455238E+02 -0.41054654844E+01  0.43785173578E+02  0.00000000000E+00 0.  1.
         22    1    3    3    0    0  0.52763451446E+02  0.11783536957E+03  0.24427142126E+03  0.27629274940E+03  0.00000000000E+00 0.  1.
</event>
<event>
 7    1  0.5676357E-006  0.2451353E+02  0.7818608E-02  0.1701624E+00
          2   -1    0    0  502    0  0.00000000000E+00  0.00000000000E+00  0.51067598642E+02  0.51067598642E+02  0.00000000000E+00 0. -1.
          1   -1    0    0  501    0 -0.00000000000E+00 -0.00000000000E+00 -0.65644488375E+03  0.65644488375E+03  0.00000000000E+00 0. -1.
         25    2    1    2    0    0 -0.22914335433E+02 -0.29436505020E+02 -0.51294499545E+03  0.52926823188E+03  0.12498287215E+03 0.  0.
          2    1    1    2  501    0  0.16500788928E+00  0.20446394489E+02 -0.13099307810E+03  0.13257929244E+03  0.00000000000E+00 0. -1.
          1    1    1    2  502    0  0.22749327544E+02  0.89901105314E+01  0.38560788432E+02  0.45664958071E+02  0.00000000000E+00 0. -1.
         22    1    3    3    0    0 -0.62218376754E+02  0.21676613464E+02 -0.25074033329E+03  0.25925222606E+03  0.00000000000E+00 0.  1.
         22    1    3    3    0    0  0.39304041321E+02 -0.51113118484E+02 -0.26220466216E+03  0.27001600583E+03  0.00000000000E+00 0.  1.
</event>
<event>
 7    1  0.5676357E-006  0.6859607E+02  0.7818608E-02  0.1373145E+00
          2   -1    0    0  502    0  0.00000000000E+00  0.00000000000E+00  0.10431540336E+03  0.10431540336E+03  0.00000000000E+00 0. -1.
          1   -1    0    0  501    0 -0.00000000000E+00 -0.00000000000E+00 -0.41321844628E+04  0.41321844628E+04  0.00000000000E+00 0. -1.
         25    2    1    2    0    0 -0.83205898365E+01 -0.67548583919E+00 -0.97856629551E+02  0.15896615789E+03  0.12499852363E+03 0.  0.
          2    1    1    2  501    0 -0.32883666509E+02  0.60200378068E+02 -0.39856430317E+04  0.39862332844E+04  0.00000000000E+00 0. -1.
          1    1    1    2  502    0  0.41204256345E+02 -0.59524892229E+02  0.55630601867E+02  0.91300423876E+02  0.00000000000E+00 0. -1.
         22    1    3    3    0    0 -0.22469632223E+02 -0.34433023860E+02  0.12276716099E+02  0.42909617367E+02  0.00000000000E+00 0. -1.
         22    1    3    3    0    0  0.14149042387E+02  0.33757538021E+02 -0.11013334565E+03  0.11605654052E+03  0.00000000000E+00 0. -1.
</event>
<event>
 7    1  0.5676357E-006  0.4836914E+02  0.7818608E-02  0.1508853E+00
          2   -1    0    0  502    0  0.00000000000E+00  0.00000000000E+00  0.46914179009E+03  0.46914179009E+03  0.00000000000E+00 0. -1.
          1   -1    0    0  501    0 -0.00000000000E+00 -0.00000000000E+00 -0.69245617317E+03  0.69245617317E+03  0.00000000000E+00 0. -1.
         25    2    1    2    0    0 -0.70729399702E+02  0.29469605920E+02 -0.42639940588E+03  0.45090210498E+03  0.12500059716E+03 0.  0.
          2    1    1    2  501    0  0.39190462447E+02 -0.19981783894E+02 -0.25129875332E+03  0.25512002558E+03  0.00000000000E+00 0. -1.
          1    1    1    2  502    0  0.31538937255E+02 -0.94878220262E+01  0.45438377612E+03  0.45557583268E+03  0.00000000000E+00 0. -1.
         22    1    3    3    0    0 -0.79086540228E+02 -0.29189358704E+02 -0.20369256733E+03  0.22044809251E+03  0.00000000000E+00 0.  1.
         22    1    3    3    0    0  0.83571405259E+01  0.58658964625E+02 -0.22270683855E+03  0.23045401247E+03  0.00000000000E+00 0.  1.
</event>
<event>
 7    1  0.5676357E-006  0.4948017E+02  0.7818608E-02  0.1517822E+00
          2   -1    0    0  502    0  0.00000000000E+00  0.00000000000E+00  0.59136182889E+03  0.59136182889E+03  0.00000000000E+00 0. -1.
          1   -1    0    0  501    0 -0.00000000000E+00 -0.00000000000E+00 -0.19228574269E+04  0.19228574269E+04  0.00000000000E+00 0. -1.
         25    2    1    2    0    0 -0.13126190191E+02 -0.66642191996E+02 -0.95348744488E+03  0.96404234447E+03  0.12500342298E+03 0.  0.
          2    1    1    2  501    0 -0.98662610243E+01  0.46900401544E+02 -0.96310450699E+03  0.96429626265E+03  0.00000000000E+00 0. -1.
          1    1    1    2  502    0  0.22992451216E+02  0.19741790452E+02  0.58509635390E+03  0.58588064864E+03  0.00000000000E+00 0. -1.
         22    1    3    3    0    0 -0.16391574711E+02 -0.73471836329E+02 -0.95350525638E+03  0.95647219949E+03  0.00000000000E+00 0. -1.
         22    1    3    3    0    0  0.32653845191E+01  0.68296443330E+01  0.17811494815E-01  0.75701449802E+01  0.00000000000E+00 0. -1.
</event>
<event>
 7    1  0.5676357E-006  0.5251416E+03  0.7818608E-02  0.1145432E+00
          2   -1    0    0  502    0  0.00000000000E+00  0.00000000000E+00  0.88714894081E+03  0.88714894081E+03  0.00000000000E+00 0. -1.
          1   -1    0    0  501    0 -0.00000000000E+00 -0.00000000000E+00 -0.10969444603E+04  0.10969444603E+04  0.00000000000E+00 0. -1.
         25    2    1    2    0    0  0.38457219010E+03 -0.39179365261E+03  0.40641305959E+03  0.69440125993E+03  0.12499399648E+03 0.  0.
          2    1    1    2  501    0  0.20494024093E+01  0.80148698946E+02 -0.76663916737E+03  0.77082010024E+03  0.00000000000E+00 0. -1.
          1    1    1    2  502    0 -0.38662159251E+03  0.31164495367E+03  0.15043058831E+03  0.51887204091E+03  0.00000000000E+00 0. -1.
         22    1    3    3    0    0  0.10261790012E+03 -0.11351738566E+03  0.48540223545E+02  0.16053904066E+03  0.00000000000E+00 0. -1.
         22    1    3    3    0    0  0.28195428997E+03 -0.27827626695E+03  0.35787283605E+03  0.53386221927E+03  0.00000000000E+00 0. -1.
</event>
<event>
 7    1  0.5676357E-006  0.1287371E+03  0.7818608E-02  0.1334063E+00
          2   -1    0    0  502    0  0.00000000000E+00  0.00000000000E+00  0.27126644724E+04  0.27126644724E+04  0.00000000000E+00 0. -1.
          1   -1    0    0  501    0 -0.00000000000E+00 -0.00000000000E+00 -0.36062417385E+02  0.36062417385E+02  0.00000000000E+00 0. -1.
         25    2    1    2    0    0  0.10414658215E+03 -0.10860210263E+03  0.40389404574E+03  0.44877227302E+03  0.12500090228E+03 0.  0.
          2    1    1    2  501    0  0.74570571234E+01  0.46986856787E+02  0.36111312232E+02  0.59727709506E+02  0.00000000000E+00 0. -1.
          1    1    1    2  502    0 -0.11160363927E+03  0.61615245845E+02  0.22365966971E+04  0.22402269073E+04  0.00000000000E+00 0. -1.
         22    1    3    3    0    0  0.10753992418E+03 -0.33506182778E+02  0.17748930080E+03  0.21021406108E+03  0.00000000000E+00 0.  1.
         22    1    3    3    0    0 -0.33933420333E+01 -0.75095919855E+02  0.22640474494E+03  0.23855821193E+03  0.00000000000E+00 0.  1.
</event>
<event>
 7    1  0.5676357E-006  0.5985056E+02  0.7818608E-02  0.1403759E+00
          2   -1    0    0  502    0  0.00000000000E+00  0.00000000000E+00  0.16557315819E+04  0.16557315819E+04  0.00000000000E+00 0. -1.
          1   -1    0    0  501    0 -0.00000000000E+00 -0.00000000000E+00 -0.84930161137E+03  0.84930161137E+03  0.00000000000E+00 0. -1.
         25    2    1    2    0    0  0.59275411583E+02  0.32044635625E+01  0.65738439615E+03  0.67178443035E+03  0.12496492934E+03 0.  0.
          2    1    1    2  501    0 -0.34831941313E+02  0.48725706892E+02 -0.84020370271E+03  0.84233587166E+03  0.00000000000E+00 0. -1.
          1    1    1    2  502    0 -0.24443470271E+02 -0.51930170455E+02  0.98924927712E+03  0.99091289129E+03  0.00000000000E+00 0. -1.
         22    1    3    3    0    0  0.58883323496E+02  0.30423850922E+02  0.62890350853E+03  0.63238633724E+03  0.00000000000E+00 0.  1.
         22    1    3    3    0    0  0.39208808720E+00 -0.27219387359E+02  0.28480887615E+02  0.39398093109E+02  0.00000000000E+00 0.  1.
</event>
<event>
 7    1  0.5676357E-006  0.5963528E+02  0.7818608E-02  0.1545517E+00
          2   -1    0    0  502    0  0.00000000000E+00  0.00000000000E+00  0.24278007254E+04  0.24278007254E+04  0.00000000000E+00 0. -1.
          1   -1    0    0  501    0 -0.00000000000E+00 -0.00000000000E+00 -0.50457809491E+03  0.50457809491E+03  0.00000000000E+00 0. -1.
         25    2    1    2    0    0  0.57418043278E+01  0.56062205470E+02  0.91654597908E+03  0.92674552622E+03  0.12499919759E+03 0.  0.
          2    1    1    2  501    0  0.15148735834E+02 -0.57692848169E+02 -0.49762426246E+03  0.50118644786E+03  0.00000000000E+00 0. -1.
          1    1    1    2  502    0 -0.20890540162E+02  0.16306426989E+01  0.15043009139E+04  0.15044468462E+04  0.00000000000E+00 0. -1.
         22    1    3    3    0    0  0.29942376104E+02  0.25017128515E+02  0.83781078316E+03  0.83871885097E+03  0.00000000000E+00 0.  1.
         22    1    3    3    0    0 -0.24200571777E+02  0.31045076955E+02  0.78735195925E+02  0.88026675246E+02  0.00000000000E+00 0.  1.
</event>
<event>
 7    1  0.5676357E-006  0.6428588E+02  0.7818608E-02  0.1386895E+00
          2   -1    0    0  502    0  0.00000000000E+00  0.00000000000E+00  0.27113928987E+04  0.27113928987E+04  0.00000000000E+00 0. -1.
          1   -1    0    0  501    0 -0.00000000000E+00 -0.00000000000E+00 -0.53728828645E+03  0.53728828645E+03  0.00000000000E+00 0. -1.
         25    2    1    2    0    0  0.13727901560E+02  0.59905278530E+01  0.63686010515E+03  0.64918472009E+03  0.12500266224E+03 0.  0.
          2    1    1    2  501    0  0.46042624734E+01 -0.64301764986E+02 -0.52871610723E+03  0.53263180365E+03  0.00000000000E+00 0. -1.
          1    1    1    2  502    0 -0.18332164033E+02  0.58311237133E+02  0.20659606144E+04  0.20668646614E+04  0.00000000000E+00 0. -1.
         22    1    3    3    0    0  0.35760500921E+02  0.11132396061E+00  0.61948424335E+03  0.62051555467E+03  0.00000000000E+00 0. -1.
         22    1    3    3    0    0 -0.22032599362E+02  0.58792038924E+01  0.17375861791E+02  0.28669165422E+02  0.00000000000E+00 0. -1.
</event>
<event>
 7    1  0.5676357E-006  0.4599688E+02  0.7818608E-02  0.1542581E+00
          2   -1    0    0  502    0  0.00000000000E+00  0.00000000000E+00  0.21007835238E+04  0.21007835238E+04  0.00000000000E+00 0. -1.
          1   -1    0    0  501    0 -0.00000000000E+00 -0.00000000000E+00 -0.37451722018E+02  0.37451722018E+02  0.00000000000E+00 0. -1.
         25    2    1    2    0    0 -0.35773188556E+02 -0.51700080613E+02  0.29110348676E+03  0.32298549762E+03  0.12500308921E+03 0.  0.
          2    1    1    2  501    0  0.38049851606E+02  0.24105478767E+02  0.22965642878E+01  0.45101435913E+02  0.00000000000E+00 0. -1.
          1    1    1    2  502    0 -0.22766630498E+01  0.27594601845E+02  0.17699317508E+04  0.17701483123E+04  0.00000000000E+00 0. -1.
         22    1    3    3    0    0 -0.38805265454E+01 -0.83813324895E+02  0.24234794472E+03  0.25646102672E+03  0.00000000000E+00 0.  1.
         22    1    3    3    0    0 -0.31892662011E+02  0.32113244282E+02  0.48755542040E+02  0.66524470896E+02  0.00000000000E+00 0.  1.
</event>
<event>
 7    1  0.5676357E-006  0.3759877E+02  0.7818608E-02  0.1618758E+00
          2   -1    0    0  502    0  0.00000000000E+00  0.00000000000E+00  0.40425820054E+02  0.40425820054E+02  0.00000000000E+00 0. -1.
          1   -1    0    0  501    0 -0.00000000000E+00 -0.00000000000E+00 -0.74701936527E+03  0.74701936527E+03  0.00000000000E+00 0. -1.
         25    2    1    2    0    0 -0.13102635647E+02  0.16457108773E+02 -0.56817337346E+03  0.58214428753E+03  0.12501389405E+03 0.  0.
          2    1    1    2  501    0  0.48767103772E+01  0.20596649509E+02 -0.16016499158E+03  0.16155750928E+03  0.00000000000E+00 0. -1.
          1    1    1    2  502    0  0.82259252698E+01 -0.37053758282E+02  0.21744819829E+02  0.43743388515E+02  0.00000000000E+00 0. -1.
         22    1    3    3    0    0 -0.43780113432E+02  0.24223571362E+02 -0.90391372269E+02  0.10331543893E+03  0.00000000000E+00 0.  1.
         22    1    3    3    0    0  0.30677477785E+02 -0.77664625893E+01 -0.47778200119E+03  0.47882884860E+03  0.00000000000E+00 0.  1.
</event>
<event>
 7    1  0.5676357E-006  0.8834640E+02  0.7818608E-02  0.1356921E+00
          2   -1    0    0  502    0  0.00000000000E+00  0.00000000000E+00  0.10977122451E+04  0.10977122451E+04  0.00000000000E+00 0. -1.
          1   -1    0    0  501    0 -0.00000000000E+00 -0.00000000000E+00 -0.33280606264E+04  0.33280606264E+04  0.00000000000E+00 0. -1.
         25    2    1    2    0    0 -0.10361654677E+03  0.97431287775E+02 -0.70450134363E+03  0.72950376428E+03  0.12499741723E+03 0.  0.
          2    1    1    2  501    0  0.63730376331E+02 -0.56760636769E+02 -0.26096124851E+04  0.26110075934E+04  0.00000000000E+00 0. -1.
          1    1    1    2  502    0  0.39886170443E+02 -0.40670651007E+02  0.10837654473E+04  0.10852615138E+04  0.00000000000E+00 0. -1.
         22    1    3    3    0    0 -0.22747157637E+02  0.67455057576E+02 -0.12693863458E+03  0.14553705687E+03  0.00000000000E+00 0.  1.
         22    1    3    3    0    0 -0.80869389137E+02  0.29976230200E+02 -0.57756270905E+03  0.58396670741E+03  0.00000000000E+00 0.  1.
</event>
<event>
 7    1  0.5676357E-006  0.6269360E+02  0.7818608E-02  0.1455640E+00
          2   -1    0    0  502    0  0.00000000000E+00  0.00000000000E+00  0.37650063338E+03  0.37650063338E+03  0.00000000000E+00 0. -1.
          1   -1    0    0  501    0 -0.00000000000E+00 -0.00000000000E+00 -0.12314222771E+03  0.12314222771E+03  0.00000000000E+00 0. -1.
         25    2    1    2    0    0  0.26716930196E+02  0.52491057294E+02  0.17508714543E+03  0.22304616014E+03  0.12499990241E+03 0.  0.
          2    1    1    2  501    0 -0.34660056719E+02  0.12848302046E+02 -0.89253546238E+02  0.96605351369E+02  0.00000000000E+00 0. -1.
          1    1    1    2  502    0  0.79431265223E+01 -0.65339359341E+02  0.16752480648E+03  0.17999134958E+03  0.00000000000E+00 0. -1.
         22    1    3    3    0    0 -0.55603043924E+01 -0.38772503866E+02  0.69664996049E+02  0.79921434644E+02  0.00000000000E+00 0.  1.
         22    1    3    3    0    0  0.32277234589E+02  0.91263561161E+02  0.10542214938E+03  0.14312472550E+03  0.00000000000E+00 0.  1.
</event>
<event>
 7    1  0.5676357E-006  0.8851357E+02  0.7818608E-02  0.1372305E+00
          2   -1    0    0  502    0  0.00000000000E+00  0.00000000000E+00  0.48422883247E+04  0.48422883247E+04  0.00000000000E+00 0. -1.
          1   -1    0    0  501    0 -0.00000000000E+00 -0.00000000000E+00 -0.50085623985E+03  0.50085623985E+03  0.00000000000E+00 0. -1.
         25    2    1    2    0    0 -0.22690331600E+02 -0.71825098894E+02 -0.12264623831E+03  0.19063251162E+03  0.12499983495E+03 0.  0.
          2    1    1    2  501    0  0.48294468168E+02 -0.12975904309E+02 -0.34199032716E+03  0.34562713091E+03  0.00000000000E+00 0. -1.
          1    1    1    2  502    0 -0.25604136568E+02  0.84801003203E+02  0.48060686503E+04  0.48068849220E+04  0.00000000000E+00 0. -1.
         22    1    3    3    0    0  0.65460192053E+01 -0.78249068282E+02 -0.13663536781E+03  0.15759121420E+03  0.00000000000E+00 0. -1.
         22    1    3    3    0    0 -0.29236350806E+02  0.64239693878E+01  0.13989129508E+02  0.33041297425E+02  0.00000000000E+00 0. -1.
</event>
<event>
 7    1  0.5676357E-006  0.4309162E+02  0.7818608E-02  0.1548078E+00
          2   -1    0    0  502    0  0.00000000000E+00  0.00000000000E+00  0.32786912406E+03  0.32786912406E+03  0.00000000000E+00 0. -1.
          1   -1    0    0  501    0 -0.00000000000E+00 -0.00000000000E+00 -0.96948140741E+02  0.96948140741E+02  0.00000000000E+00 0. -1.
         25    2    1    2    0    0 -0.13403862196E+01  0.38386323531E+02  0.42886392460E+02  0.13762036744E+03  0.12499926563E+03 0.  0.
          2    1    1    2  501    0  0.29427001461E+02 -0.33413126768E+02 -0.38507582133E+02  0.58866113657E+02  0.00000000000E+00 0. -1.
          1    1    1    2  502    0 -0.28086615242E+02 -0.49731967626E+01  0.22654217299E+03  0.22833078370E+03  0.00000000000E+00 0. -1.
         22    1    3    3    0    0  0.28387394657E+00 -0.46126913636E+02  0.12444302706E+02  0.47776913000E+02  0.00000000000E+00 0.  1.
         22    1    3    3    0    0 -0.16242601661E+01  0.84513237166E+02  0.30442089754E+02  0.89843454442E+02  0.00000000000E+00 0.  1.
</event>
<event>
 7    1  0.5676357E-006  0.1369494E+03  0.7818608E-02  0.1244695E+00
          2   -1    0    0  502    0  0.00000000000E+00  0.00000000000E+00  0.17016938904E+03  0.17016938904E+03  0.00000000000E+00 0. -1.
          1   -1    0    0  501    0 -0.00000000000E+00 -0.00000000000E+00 -0.33504107746E+03  0.33504107746E+03  0.00000000000E+00 0. -1.
         25    2    1    2    0    0  0.80735482113E+02 -0.10618593386E+03  0.97058680623E+01  0.18306239629E+03  0.12499586569E+03 0.  0.
          2    1    1    2  501    0  0.77919199615E+02  0.68072762260E+02 -0.95599648082E+02  0.14087084632E+03  0.00000000000E+00 0. -1.
          1    1    1    2  502    0 -0.15865468173E+03  0.38113171597E+02 -0.78977908406E+02  0.18127722389E+03  0.00000000000E+00 0. -1.
         22    1    3    3    0    0  0.49608617892E+02 -0.53765341544E+02  0.67146526165E+02  0.99299460706E+02  0.00000000000E+00 0.  1.
         22    1    3    3    0    0  0.31126864221E+02 -0.52420592312E+02 -0.57440658103E+02  0.83762935585E+02  0.00000000000E+00 0.  1.
</event>
<event>
 7    1  0.5676357E-006  0.1358722E+03  0.7818608E-02  0.1268387E+00
          2   -1    0    0  502    0  0.00000000000E+00  0.00000000000E+00  0.41824595927E+03  0.41824595927E+03  0.00000000000E+00 0. -1.
          1   -1    0    0  501    0 -0.00000000000E+00 -0.00000000000E+00 -0.18348373914E+04  0.18348373914E+04  0.00000000000E+00 0. -1.
         25    2    1    2    0    0  0.13269924132E+03  0.37450297993E+01 -0.51503847576E+03  0.54636329515E+03  0.12500041952E+03 0.  0.
          2    1    1    2  501    0 -0.11377214779E+03 -0.84060107271E+02 -0.12960190311E+04  0.13037160474E+04  0.00000000000E+00 0. -1.
          1    1    1    2  502    0 -0.18927093530E+02  0.80315077472E+02  0.39446607468E+03  0.40300400818E+03  0.00000000000E+00 0. -1.
         22    1    3    3    0    0  0.99864749185E+02 -0.54347602363E+02 -0.36131587638E+03  0.37878198549E+03  0.00000000000E+00 0.  1.
         22    1    3    3    0    0  0.32834492139E+02  0.58092632162E+02 -0.15372259938E+03  0.16758130966E+03  0.00000000000E+00 0.  1.
</event>
<event>
 7    1  0.5676357E-006  0.4314307E+02  0.7818608E-02  0.1604335E+00
          2   -1    0    0  502    0  0.00000000000E+00  0.00000000000E+00  0.10832725715E+04  0.10832725715E+04  0.00000000000E+00 0. -1.
          1   -1    0    0  501    0 -0.00000000000E+00 -0.00000000000E+00 -0.28107815853E+03  0.28107815853E+03  0.00000000000E+00 0. -1.
         25    2    1    2    0    0 -0.36029285039E+02 -0.38202594307E+02  0.10212671248E+03  0.16974183101E+03  0.12499950480E+03 0.  0.
          2    1    1    2  501    0  0.20014664716E+02 -0.17679133170E+01 -0.24637211530E+03  0.24719007164E+03  0.00000000000E+00 0. -1.
          1    1    1    2  502    0  0.16014620323E+02  0.39970507624E+02  0.94643981582E+03  0.94741882740E+03  0.00000000000E+00 0. -1.
         22    1    3    3    0    0  0.32470607929E+01 -0.21533900080E+02 -0.26455264528E+02  0.34265628226E+02  0.00000000000E+00 0. -1.
         22    1    3    3    0    0 -0.39276345832E+02 -0.16668694227E+02  0.12858197701E+03  0.13547620279E+03  0.00000000000E+00 0. -1.
</event>
<event>
 7    1  0.5676357E-006  0.1975999E+03  0.7818608E-02  0.1217137E+00
          2   -1    0    0  502    0  0.00000000000E+00  0.00000000000E+00  0.17370309757E+04  0.17370309757E+04  0.00000000000E+00 0. -1.
          1   -1    0    0  501    0 -0.00000000000E+00 -0.00000000000E+00 -0.60830300927E+03  0.60830300927E+03  0.00000000000E+00 0. -1.
         25    2    1    2    0    0 -0.23417156806E+03  0.93451446281E+02  0.56789327143E+03  0.63379580146E+03  0.12499941647E+03 0.  0.
          2    1    1    2  501    0  0.14655586253E+03 -0.13087156654E+03 -0.55649023981E+03  0.59015877082E+03  0.00000000000E+00 0. -1.
          1    1    1    2  502    0  0.87615705534E+02  0.37420120260E+02  0.11173249349E+04  0.11213794127E+04  0.00000000000E+00 0. -1.
         22    1    3    3    0    0 -0.75169059736E+02  0.88406630042E+02  0.17565480327E+03  0.21052489090E+03  0.00000000000E+00 0. -1.
         22    1    3    3    0    0 -0.15900250832E+03  0.50448162394E+01  0.39223846816E+03  0.42327091056E+03  0.00000000000E+00 0. -1.
</event>
<event>
 7    1  0.5676357E-006  0.6492236E+02  0.7818608E-02  0.1501720E+00
          2   -1    0    0  502    0  0.00000000000E+00  0.00000000000E+00  0.51217954679E+03  0.51217954679E+03  0.00000000000E+00 0. -1.
          1   -1    0    0  501    0 -0.00000000000E+00 -0.00000000000E+00 -0.11993494414E+03  0.11993494414E+03  0.00000000000E+00 0. -1.
         25    2    1    2    0    0 -0.34456661859E+02 -0.28016283228E+02  0.20108969282E+03  0.24090330465E+03  0.12500065584E+03 0.  0.
          2    1    1    2  501    0 -0.24229118063E+02 -0.87514377883E+01 -0.94155657989E+02  0.97616216669E+02  0.00000000000E+00 0. -1.
          1    1    1    2  502    0  0.58685779922E+02  0.36767721016E+02  0.28531056781E+03  0.29359496961E+03  0.00000000000E+00 0. -1.
         22    1    3    3    0    0 -0.48199131519E+02  0.18814752381E+02  0.23679511048E+02  0.56902288441E+02  0.00000000000E+00 0. -1.
         22    1    3    3    0    0  0.13742469660E+02 -0.46831035608E+02  0.17741018178E+03  0.18400101621E+03  0.00000000000E+00 0. -1.
</event>
<event>
 7    1  0.5676357E-006  0.1223302E+03  0.7818608E-02  0.1393877E+00
          2   -1    0    0  502    0  0.00000000000E+00  0.00000000000E+00  0.24225490058E+03  0.24225490058E+03  0.00000000000E+00 0. -1.
          1   -1    0    0  501    0 -0.00000000000E+00 -0.00000000000E+00 -0.31603657647E+03  0.31603657647E+03  0.00000000000E+00 0. -1.
         25    2    1    2    0    0 -0.96746582952E+02  0.18343644053E+02  0.16283304507E+03  0.22767449842E+03  0.12499874428E+03 0.  0.
          2    1    1    2  501    0  0.12400433573E+03 -0.49501690652E+01 -0.26272758075E+03  0.29056386758E+03  0.00000000000E+00 0. -1.
          1    1    1    2  502    0 -0.27257752779E+02 -0.13393474988E+02  0.26112859795E+02  0.40053111059E+02  0.00000000000E+00 0. -1.
         22    1    3    3    0    0 -0.12567308959E+03  0.21746333406E+02  0.11532561747E+03  0.17194948825E+03  0.00000000000E+00 0.  1.
         22    1    3    3    0    0  0.28926506639E+02 -0.34026893537E+01  0.47507427595E+02  0.55725010165E+02  0.00000000000E+00 0.  1.
</event>
<event>
 7    1  0.5676357E-006  0.5736721E+03  0.7818608E-02  0.1156213E+00
          2   -1    0    0  502    0  0.00000000000E+00  0.00000000000E+00  0.67629146471E+03  0.67629146471E+03  0.00000000000E+00 0. -1.
          1   -1    0    0  501    0 -0.00000000000E+00 -0.00000000000E+00 -0.27380266965E+04  0.27380266965E+04  0.00000000000E+00 0. -1.
         25    2    1    2    0    0 -0.33083759376E+03  0.40638354346E+03 -0.85301508485E+03  0.10088905056E+04  0.12499687778E+03 0.  0.
          2    1    1    2  501    0 -0.60014538078E+02  0.23916846652E+02 -0.16651105472E+04  0.16663633742E+04  0.00000000000E+00 0. -1.
          1    1    1    2  502    0  0.39085213184E+03 -0.43030039011E+03  0.45639040025E+03  0.73906428146E+03  0.00000000000E+00 0. -1.
         22    1    3    3    0    0 -0.45818976553E+02  0.24803758660E+02 -0.15779999583E+03  0.16617895095E+03  0.00000000000E+00 0. -1.
         22    1    3    3    0    0 -0.28501861721E+03  0.38157978480E+03 -0.69521508903E+03  0.84271155464E+03  0.00000000000E+00 0. -1.
</event>
<event>
 7    1  0.5676357E-006  0.1359545E+03  0.7818608E-02  0.1302675E+00
          2   -1    0    0  502    0  0.00000000000E+00  0.00000000000E+00  0.26265016614E+04  0.26265016614E+04  0.00000000000E+00 0. -1.
          1   -1    0    0  501    0 -0.00000000000E+00 -0.00000000000E+00 -0.13797157424E+04  0.13797157424E+04  0.00000000000E+00 0. -1.
         25    2    1    2    0    0 -0.85505848176E+02 -0.10189977428E+03  0.14728602785E+03  0.23456570581E+03  0.12503232490E+03 0.  0.
          2    1    1    2  501    0  0.51355119481E+02 -0.30394748695E+02 -0.13334918777E+04  0.13348264970E+04  0.00000000000E+00 0. -1.
          1    1    1    2  502    0  0.34150728695E+02  0.13229452297E+03  0.24329917688E+04  0.24368252010E+04  0.00000000000E+00 0. -1.
         22    1    3    3    0    0 -0.17270972264E+02 -0.33238728154E+02 -0.19117706328E+02  0.42054562505E+02  0.00000000000E+00 0.  1.
         22    1    3    3    0    0 -0.68234875912E+02 -0.68661046124E+02  0.16640373418E+03  0.19251114330E+03  0.00000000000E+00 0.  1.
</event>
<event>
 7    1  0.5676357E-006  0.5356483E+02  0.7818608E-02  0.1514077E+00
          2   -1    0    0  502    0  0.00000000000E+00  0.00000000000E+00  0.20357702502E+03  0.20357702502E+03  0.00000000000E+00 0. -1.
          1   -1    0    0  501    0 -0.00000000000E+00 -0.00000000000E+00 -0.81044351064E+03  0.81044351064E+03  0.00000000000E+00 0. -1.
         25    2    1    2    0    0  0.93509242062E+01  0.68931107146E+02 -0.20058546331E+03  0.24637167987E+03  0.12500215692E+03 0.  0.
          2    1    1    2  501    0  0.17465450775E+02 -0.22783783818E+02 -0.58266227565E+03  0.58336906864E+03  0.00000000000E+00 0. -1.
          1    1    1    2  502    0 -0.26816374981E+02 -0.46147323328E+02  0.17638125335E+03  0.18427978714E+03  0.00000000000E+00 0. -1.
         22    1    3    3    0    0 -0.17649648863E+02 -0.26261773803E+02 -0.12840005957E+02  0.34147571235E+02  0.00000000000E+00 0. -1.
         22    1    3    3    0    0  0.27000573069E+02  0.95192880948E+02 -0.18774545736E+03  0.21222410864E+03  0.00000000000E+00 0. -1.
</event>
<event>
 7    1  0.5676357E-006  0.2464046E+03  0.7818608E-02  0.1159108E+00
          2   -1    0    0  502    0  0.00000000000E+00  0.00000000000E+00  0.41540236735E+03  0.41540236735E+03  0.00000000000E+00 0. -1.
          1   -1    0    0  501    0 -0.00000000000E+00 -0.00000000000E+00 -0.59474577501E+03  0.59474577501E+03  0.00000000000E+00 0. -1.
         25    2    1    2    0    0  0.59952289137E+02  0.11495141023E+03 -0.43937169295E+03  0.47484734324E+03  0.12499764449E+03 0.  0.
          2    1    1    2  501    0  0.13246940509E+03  0.59956830884E+02 -0.27113905718E+02  0.14791257126E+03  0.00000000000E+00 0. -1.
          1    1    1    2  502    0 -0.19242169423E+03 -0.17490824112E+03  0.28714219101E+03  0.38738822785E+03  0.00000000000E+00 0. -1.
         22    1    3    3    0    0  0.91525668225E+02  0.71195949418E+02 -0.36491388787E+03  0.38289418476E+03  0.00000000000E+00 0.  1.
         22    1    3    3    0    0 -0.31573379087E+02  0.43755460815E+02 -0.74457805083E+02  0.91953158488E+02  0.00000000000E+00 0.  1.
</event>
<event>
 7    1  0.5676357E-006  0.5046480E+02  0.7818608E-02  0.1530248E+00
          2   -1    0    0  502    0  0.00000000000E+00  0.00000000000E+00  0.90312553027E+02  0.90312553027E+02  0.00000000000E+00 0. -1.
          1   -1    0    0  501    0 -0.00000000000E+00 -0.00000000000E+00 -0.26095583243E+03  0.26095583243E+03  0.00000000000E+00 0. -1.
         25    2    1    2    0    0 -0.16904488029E+02 -0.37339290184E+02 -0.61550257619E+02  0.14523412346E+03  0.12499812838E+03 0.  0.
          2    1    1    2  501    0 -0.26324098984E+02  0.74465756193E+01 -0.14161181471E+03  0.14423007918E+03  0.00000000000E+00 0. -1.
          1    1    1    2  502    0  0.43228587013E+02  0.29892714565E+02  0.32518792928E+02  0.61804182809E+02  0.00000000000E+00 0. -1.
         22    1    3    3    0    0  0.35825355415E+02 -0.33091992258E+02 -0.76084147099E+02  0.90373300714E+02  0.00000000000E+00 0. -1.
         22    1    3    3    0    0 -0.52729843444E+02 -0.42472979258E+01  0.14533889480E+02  0.54860822749E+02  0.00000000000E+00 0. -1.
</event>
<event>
 7    1  0.5676357E-006  0.2122814E+03  0.7818608E-02  0.1204660E+00
          2   -1    0    0  502    0  0.00000000000E+00  0.00000000000E+00  0.67505151704E+03  0.67505151704E+03  0.00000000000E+00 0. -1.
          1   -1    0    0  501    0 -0.00000000000E+00 -0.00000000000E+00 -0.14383024203E+04  0.14383024203E+04  0.00000000000E+00 0. -1.
         25    2    1    2    0    0 -0.24568029500E+03 -0.14477390034E+03 -0.61209521156E+03  0.68673439279E+03  0.12500115459E+03 0.  0.
          2    1    1    2  501    0  0.17697029971E+03  0.70338385351E+02 -0.77323790956E+03  0.79634341851E+03  0.00000000000E+00 0. -1.
          1    1    1    2  502    0  0.68709995297E+02  0.74435514991E+02  0.62208221783E+03  0.63027612607E+03  0.00000000000E+00 0. -1.
         22    1    3    3    0    0 -0.74763880803E+02 -0.11504210332E+03 -0.29286793327E+03  0.32341297090E+03  0.00000000000E+00 0. -1.
         22    1    3    3    0    0 -0.17091641420E+03 -0.29731797026E+02 -0.31922727829E+03  0.36332142189E+03  0.00000000000E+00 0. -1.
</event>
<event>
 7    1  0.5676357E-006  0.6827416E+02  0.7818608E-02  0.1459057E+00
          2   -1    0    0  502    0  0.00000000000E+00  0.00000000000E+00  0.11381080387E+04  0.11381080387E+04  0.00000000000E+00 0. -1.
          1   -1    0    0  501    0 -0.00000000000E+00 -0.00000000000E+00 -0.90340420821E+03  0.90340420821E+03  0.00000000000E+00 0. -1.
         25    2    1    2    0    0 -0.89856595958E+02  0.32557496823E+02 -0.50510802942E+03  0.52905140978E+03  0.12500829720E+03 0.  0.
          2    1    1    2  501    0  0.58287086630E+02 -0.22581541541E+02 -0.38355048354E+03  0.38861070998E+03  0.00000000000E+00 0. -1.
          1    1    1    2  502    0  0.31569509328E+02 -0.99759552825E+01  0.11233623434E+04  0.11238501271E+04  0.00000000000E+00 0. -1.
         22    1    3    3    0    0 -0.17764598424E+02 -0.44110389799E+02 -0.10380527265E+03  0.11417899140E+03  0.00000000000E+00 0. -1.
         22    1    3    3    0    0 -0.72091997534E+02  0.76667886622E+02 -0.40130275677E+03  0.41487241839E+03  0.00000000000E+00 0. -1.
</event>
<event>
 7    1  0.5676357E-006  0.4749013E+02  0.7818608E-02  0.1539648E+00
          2   -1    0    0  502    0  0.00000000000E+00  0.00000000000E+00  0.27939044182E+03  0.27939044182E+03  0.00000000000E+00 0. -1.
          1   -1    0    0  501    0 -0.00000000000E+00 -0.00000000000E+00 -0.39777516162E+03  0.39777516162E+03  0.00000000000E+00 0. -1.
         25    2    1    2    0    0 -0.28429062035E+02 -0.32848483817E+02  0.12437040452E+02  0.13291547430E+03  0.12499843549E+03 0.  0.
          2    1    1    2  501    0  0.22946020203E+02 -0.14853414615E+02 -0.33418208230E+03  0.33529808812E+03  0.00000000000E+00 0. -1.
          1    1    1    2  502    0  0.54830418324E+01  0.47701898432E+02  0.20336032205E+03  0.20895204101E+03  0.00000000000E+00 0. -1.
         22    1    3    3    0    0 -0.32577536403E+02 -0.16004799109E+02 -0.53546882365E+02  0.64689396995E+02  0.00000000000E+00 0.  1.
         22    1    3    3    0    0  0.41484743672E+01 -0.16843684708E+02  0.65983922817E+02  0.68226077305E+02  0.00000000000E+00 0.  1.
</event>
<event>
 7    1  0.5676357E-006  0.1090839E+03  0.7818608E-02  0.1304787E+00
          2   -1    0    0  502    0  0.00000000000E+00  0.00000000000E+00  0.85967989387E+02  0.85967989387E+02  0.00000000000E+00 0. -1.
          1   -1    0    0  501    0 -0.00000000000E+00 -0.00000000000E+00 -0.95357186527E+03  0.95357186527E+03  0.00000000000E+00 0. -1.
         25    2    1    2    0    0  0.66690301002E+02  0.24348664892E+02 -0.42982574345E+03  0.45322945993E+03  0.12500527941E+03 0.  0.
          2    1    1    2  501    0 -0.59168551398E+01  0.72709308726E+02 -0.46328166305E+03  0.46898992747E+03  0.00000000000E+00 0. -1.
          1    1    1    2  502    0 -0.60773445862E+02 -0.97057973618E+02  0.25503530618E+02  0.11732046726E+03  0.00000000000E+00 0. -1.
         22    1    3    3    0    0  0.98326534496E+02  0.94182038958E+01 -0.22922807420E+03  0.24960432679E+03  0.00000000000E+00 0. -1.
         22    1    3    3    0    0 -0.31636233494E+02  0.14930460996E+02 -0.20059766925E+03  0.20362513314E+03  0.00000000000E+00 0. -1.
</event>
<event>
 7    1  0.5676357E-006  0.1004440E+03  0.7818608E-02  0.1368958E+00
          2   -1    0    0  502    0  0.00000000000E+00  0.00000000000E+00  0.11287338269E+04  0.11287338269E+04  0.00000000000E+00 0. -1.
          1   -1    0    0  501    0 -0.00000000000E+00 -0.00000000000E+00 -0.34179100595E+03  0.34179100595E+03  0.00000000000E+00 0. -1.
         25    2    1    2    0    0  0.37982001161E+02 -0.77757668889E+02  0.39689373996E+02  0.15712499151E+03  0.12499651621E+03 0.  0.
          2    1    1    2  501    0  0.42406547564E+02  0.15942111166E+02 -0.27874474803E+03  0.28240237382E+03  0.00000000000E+00 0. -1.
          1    1    1    2  502    0 -0.80388548725E+02  0.61815557723E+02  0.10259981949E+04  0.10309974675E+04  0.00000000000E+00 0. -1.
         22    1    3    3    0    0  0.14214260599E+02  0.45710523880E+01 -0.38393449376E+02  0.41194619543E+02  0.00000000000E+00 0. -1.
         22    1    3    3    0    0  0.23767740562E+02 -0.82328721277E+02  0.78082823372E+02  0.11593037197E+03  0.00000000000E+00 0. -1.
</event>
<event>
 7    1  0.5676357E-006  0.4753884E+02  0.7818608E-02  0.1468746E+00
          2   -1    0    0  502    0  0.00000000000E+00  0.00000000000E+00  0.23132694817E+03  0.23132694817E+03  0.00000000000E+00 0. -1.
          1   -1    0    0  501    0 -0.00000000000E+00 -0.00000000000E+00 -0.13285492355E+04  0.13285492355E+04  0.00000000000E+00 0. -1.
         25    2    1    2    0    0 -0.21676170549E+02  0.38811216726E+01 -0.19832661210E+03  0.23546410438E+03  0.12499991964E+03 0.  0.
          2    1    1    2  501    0  0.11011397743E+02  0.42945556402E+02 -0.11084948934E+04  0.11093811340E+04  0.00000000000E+00 0. -1.
          1    1    1    2  502    0  0.10664772807E+02 -0.46826678075E+02  0.20959921821E+03  0.21503094529E+03  0.00000000000E+00 0. -1.
         22    1    3    3    0    0  0.48039872819E+02  0.16013075165E+02 -0.11803985117E+03  0.12844319531E+03  0.00000000000E+00 0. -1.
         22    1    3    3    0    0 -0.69716043368E+02 -0.12131953492E+02 -0.80286760928E+02  0.10702090907E+03  0.00000000000E+00 0. -1.
</event>
<event>
 7    1  0.5676357E-006  0.1064423E+03  0.7818608E-02  0.1318948E+00
          2   -1    0    0  502    0  0.00000000000E+00  0.00000000000E+00  0.25732014436E+04  0.25732014436E+04  0.00000000000E+00 0. -1.
          1   -1    0    0  501    0 -0.00000000000E+00 -0.00000000000E+00 -0.38893201168E+03  0.38893201168E+03  0.00000000000E+00 0. -1.
         25    2    1    2    0    0 -0.77588856490E+01 -0.15388877422E+03  0.22976382992E+02  0.19973617380E+03  0.12499867924E+03 0.  0.
          2    1    1    2  501    0  0.39291274233E+02  0.52742730541E+02 -0.29579880050E+03  0.30302232630E+03  0.00000000000E+00 0. -1.
          1    1    1    2  502    0 -0.31532388584E+02  0.10114604368E+03  0.24570918495E+04  0.24593749552E+04  0.00000000000E+00 0. -1.
         22    1    3    3    0    0 -0.26933395650E+02 -0.64688778368E+02  0.68308307893E+02  0.97857400207E+02  0.00000000000E+00 0. -1.
         22    1    3    3    0    0  0.19174510001E+02 -0.89199995850E+02 -0.45331924901E+02  0.10187877359E+03  0.00000000000E+00 0. -1.
</event>
<event>
 7    1  0.5676357E-006  0.8561975E+02  0.7818608E-02  0.1377980E+00
          2   -1    0    0  502    0  0.00000000000E+00  0.00000000000E+00  0.25735640708E+04  0.25735640708E+04  0.00000000000E+00 0. -1.
          1   -1    0    0  501    0 -0.00000000000E+00 -0.00000000000E+00 -0.63926375475E+03  0.63926375475E+03  0.00000000000E+00 0. -1.
         25    2    1    2    0    0  0.75024690431E+02  0.31010689599E+02  0.64443723450E+02  0.16238788777E+03  0.12500586209E+03 0.  0.
          2    1    1    2  501    0  0.90759388682E+01 -0.48500661755E+02 -0.58850907413E+03  0.59057397266E+03  0.00000000000E+00 0. -1.
          1    1    1    2  502    0 -0.84100629299E+02  0.17489972156E+02  0.24583656668E+04  0.24598659652E+04  0.00000000000E+00 0. -1.
         22    1    3    3    0    0  0.22440896655E+01  0.44162498376E+02  0.75609070387E+02  0.87590488787E+02  0.00000000000E+00 0. -1.
         22    1    3    3    0    0  0.72780600765E+02 -0.13151808777E+02 -0.11165346937E+02  0.74797398979E+02  0.00000000000E+00 0. -1.
</event>
<event>
 7    1  0.5676357E-006  0.5644776E+02  0.7818608E-02  0.1427985E+00
          2   -1    0    0  502    0  0.00000000000E+00  0.00000000000E+00  0.83970805481E+03  0.83970805481E+03  0.00000000000E+00 0. -1.
          1   -1    0    0  501    0 -0.00000000000E+00 -0.00000000000E+00 -0.16836238807E+03  0.16836238807E+03  0.00000000000E+00 0. -1.
         25    2    1    2    0    0 -0.63727672006E+02  0.60831783249E+02  0.37662294881E+01  0.15297666702E+03  0.12500381649E+03 0.  0.
          2    1    1    2  501    0  0.86492867320E+01 -0.49706919755E+02 -0.85846630567E+02  0.99575258032E+02  0.00000000000E+00 0. -1.
          1    1    1    2  502    0  0.55078385274E+02 -0.11124863494E+02  0.75342606782E+03  0.75551851783E+03  0.00000000000E+00 0. -1.
         22    1    3    3    0    0 -0.28858685499E+02  0.80810616862E+02 -0.39031118260E+02  0.94268805651E+02  0.00000000000E+00 0.  1.
         22    1    3    3    0    0 -0.34868986508E+02 -0.19978833613E+02  0.42797347748E+02  0.58707861372E+02  0.00000000000E+00 0.  1.
</event>
<event>
 7    1  0.5676357E-006  0.1253601E+03  0.7818608E-02  0.1346823E+00
          2   -1    0    0  502    0  0.00000000000E+00  0.00000000000E+00  0.13650937794E+04  0.13650937794E+04  0.00000000000E+00 0. -1.
          1   -1    0    0  501    0 -0.00000000000E+00 -0.00000000000E+00 -0.11121021013E+03  0.11121021013E+03  0.00000000000E+00 0. -1.
         25    2    1    2    0    0  0.10076778940E+03  0.87613114885E+02  0.12860313912E+03  0.22359211166E+03  0.12499783888E+03 0.  0.
          2    1    1    2  501    0  0.15473354485E+02 -0.40919263003E+02 -0.52471927409E+02  0.68316278805E+02  0.00000000000E+00 0. -1.
          1    1    1    2  502    0 -0.11624114388E+03 -0.46693851882E+02  0.11777523576E+04  0.11843955991E+04  0.00000000000E+00 0. -1.
         22    1    3    3    0    0  0.16606418516E+02  0.80047435926E+02  0.11002620839E+03  0.13707345354E+03  0.00000000000E+00 0.  1.
         22    1    3    3    0    0  0.84161370883E+02  0.75656789586E+01  0.18576930731E+02  0.86518658118E+02  0.00000000000E+00 0.  1.
</event>
<event>
 7    1  0.5676357E-006  0.7854433E+02  0.7818608E-02  0.1434981E+00
          2   -1    0    0  502    0  0.00000000000E+00  0.00000000000E+00  0.34667762208E+03  0.34667762208E+03  0.00000000000E+00 0. -1.
          1   -1    0    0  501    0 -0.00000000000E+00 -0.00000000000E+00 -0.70244266749E+03  0.70244266749E+03  0.00000000000E+00 0. -1.
         25    2    1    2    0    0  0.31914869863E+02  0.85173838680E+02 -0.21993426772E+03  0.26882947529E+03  0.12500025182E+03 0.  0.
          2    1    1    2  501    0  0.16339395115E+01 -0.77610714178E+02 -0.45383812075E+03  0.46042929159E+03  0.00000000000E+00 0. -1.
          1    1    1    2  502    0 -0.33548809375E+02 -0.75631245015E+01  0.31800734305E+03  0.31986152269E+03  0.00000000000E+00 0. -1.
         22    1    3    3    0    0 -0.38674476031E+02  0.53808576273E+02 -0.15256446777E+03  0.16633398571E+03  0.00000000000E+00 0.  1.
         22    1    3    3    0    0  0.70589345894E+02  0.31365262407E+02 -0.67369799950E+02  0.10249548958E+03  0.00000000000E+00 0.  1.
</event>
<event>
 7    1  0.5676357E-006  0.7105435E+02  0.7818608E-02  0.1368126E+00
          2   -1    0    0  502    0  0.00000000000E+00  0.00000000000E+00  0.20707013517E+03  0.20707013517E+03  0.00000000000E+00 0. -1.
          1   -1    0    0  501    0 -0.00000000000E+00 -0.00000000000E+00 -0.41021895270E+03  0.41021895270E+03  0.00000000000E+00 0. -1.
         25    2    1    2    0    0 -0.27904522338E+02 -0.43648412875E+02 -0.12854656519E+03  0.18663538334E+03  0.12499880231E+03 0.  0.
          2    1    1    2  501    0  0.60690529144E+02 -0.21799286233E+02 -0.24067472015E+03  0.24916434361E+03  0.00000000000E+00 0. -1.
          1    1    1    2  502    0 -0.32786006805E+02  0.65447699108E+02  0.16607246781E+03  0.18148936092E+03  0.00000000000E+00 0. -1.
         22    1    3    3    0    0 -0.10140824336E+02 -0.24010205389E+02  0.21797384484E+02  0.33977231367E+02  0.00000000000E+00 0. -1.
         22    1    3    3    0    0 -0.17763698002E+02 -0.19638207486E+02 -0.15034394967E+03  0.15265815197E+03  0.00000000000E+00 0. -1.
</event>
<event>
 7    1  0.5676357E-006  0.1224472E+03  0.7818608E-02  0.1247447E+00
          2   -1    0    0  502    0  0.00000000000E+00  0.00000000000E+00  0.34511881789E+03  0.34511881789E+03  0.00000000000E+00 0. -1.
          1   -1    0    0  501    0 -0.00000000000E+00 -0.00000000000E+00 -0.64598163417E+03  0.64598163417E+03  0.00000000000E+00 0. -1.
         25    2    1    2    0    0 -0.65052748963E+02 -0.69023232903E+02  0.72749543001E+02  0.17295266867E+03  0.12499625100E+03 0.  0.
          2    1    1    2  501    0 -0.68165009396E+02  0.10171950245E+03 -0.56754653328E+03  0.58060519557E+03  0.00000000000E+00 0. -1.
          1    1    1    2  502    0  0.13321775836E+03 -0.32696269543E+02  0.19393417400E+03  0.23754258782E+03  0.00000000000E+00 0. -1.
         22    1    3    3    0    0 -0.25911022837E+02 -0.10067363181E+03  0.63376599422E+02  0.12175037823E+03  0.00000000000E+00 0. -1.
         22    1    3    3    0    0 -0.39141726126E+02  0.31650398902E+02  0.93729435789E+01  0.51202290438E+02  0.00000000000E+00 0. -1.
</event>
<event>
 7    1  0.5676357E-006  0.7941105E+02  0.7818608E-02  0.1419519E+00
          2   -1    0    0  502    0  0.00000000000E+00  0.00000000000E+00  0.19691696623E+04  0.19691696623E+04  0.00000000000E+00 0. -1.
          1   -1    0    0  501    0 -0.00000000000E+00 -0.00000000000E+00 -0.10861975721E+03  0.10861975721E+03  0.00000000000E+00 0. -1.
         25    2    1    2    0    0  0.98771981939E+02 -0.30240028731E+02  0.34361300682E+03  0.37995675474E+03  0.12500749283E+03 0.  0.
          2    1    1    2  501    0 -0.78493014880E+02 -0.22073363499E+01 -0.73131213351E+02  0.10730424076E+03  0.00000000000E+00 0. -1.
          1    1    1    2  502    0 -0.20278967059E+02  0.32447365081E+02  0.15900681116E+04  0.15905284240E+04  0.00000000000E+00 0. -1.
         22    1    3    3    0    0  0.11074877722E+02  0.43399865757E+02  0.67173849019E+02  0.80737396889E+02  0.00000000000E+00 0. -1.
         22    1    3    3    0    0  0.87697104217E+02 -0.73639894488E+02  0.27643915780E+03  0.29921935785E+03  0.00000000000E+00 0. -1.
</event>
<event>
 7    1  0.5676357E-006  0.7247298E+02  0.7818608E-02  0.1356697E+00
          2   -1    0    0  502    0  0.00000000000E+00  0.00000000000E+00  0.18094468620E+04  0.18094468620E+04  0.00000000000E+00 0. -1.
          1   -1    0    0  501    0 -0.00000000000E+00 -0.00000000000E+00 -0.31937819419E+02  0.31937819419E+02  0.00000000000E+00 0. -1.
         25    2    1    2    0    0  0.10319002430E+02 -0.27935163724E+02  0.48226086018E+03  0.49908712373E+03  0.12500225852E+03 0.  0.
          2    1    1    2  501    0  0.68814295985E+02  0.10251339227E+02  0.32225081658E+02  0.76674331922E+02  0.00000000000E+00 0. -1.
          1    1    1    2  502    0 -0.79133298415E+02  0.17683824497E+02  0.12630231007E+04  0.12656232258E+04  0.00000000000E+00 0. -1.
         22    1    3    3    0    0 -0.18160814459E+02  0.40279367943E+02  0.94187682447E+02  0.10403635032E+03  0.00000000000E+00 0.  1.
         22    1    3    3    0    0  0.28479816888E+02 -0.68214531667E+02  0.38807317773E+03  0.39505077341E+03  0.00000000000E+00 0.  1.
</event>
<event>
 7    1  0.5676357E-006  0.8203428E+02  0.7818608E-02  0.1409336E+00
          2   -1    0    0  502    0  0.00000000000E+00  0.00000000000E+00  0.15459335553E+03  0.15459335553E+03  0.00000000000E+00 0. -1.
          1   -1    0    0  501    0 -0.00000000000E+00 -0.00000000000E+00 -0.10420603262E+04  0.10420603262E+04  0.00000000000E+00 0. -1.
         25    2    1    2    0    0 -0.24112924236E+02 -0.69416052620E+02 -0.19442960369E+03  0.24254613423E+03  0.12500293982E+03 0.  0.
          2    1    1    2  501    0 -0.37624534078E+02  0.13820626690E+02 -0.80980701691E+03  0.81079838427E+03  0.00000000000E+00 0. -1.
          1    1    1    2  502    0  0.61737458314E+02  0.55595425930E+02  0.11676964989E+03  0.14330916328E+03  0.00000000000E+00 0. -1.
         22    1    3    3    0    0 -0.65347869137E+01 -0.76897673872E+02 -0.39973027312E+02  0.86912591719E+02  0.00000000000E+00 0. -1.
         22    1    3    3    0    0 -0.17578137322E+02  0.74816212518E+01 -0.15445657637E+03  0.15563354251E+03  0.00000000000E+00 0. -1.
</event>
<event>
 7    1  0.5676357E-006  0.6751675E+02  0.7818608E-02  0.1408071E+00
          2   -1    0    0  502    0  0.00000000000E+00  0.00000000000E+00  0.60921658300E+03  0.60921658300E+03  0.00000000000E+00 0. -1.
          1   -1    0    0  501    0 -0.00000000000E+00 -0.00000000000E+00 -0.33812840098E+02  0.33812840098E+02  0.00000000000E+00 0. -1.
         25    2    1    2    0    0 -0.15077663993E+02 -0.59093314055E+02  0.39500929597E+03  0.41878198163E+03  0.12500659389E+03 0.  0.
          2    1    1    2  501    0 -0.33977177668E+02  0.62669744504E+02  0.56550582103E+02  0.90994031754E+02  0.00000000000E+00 0. -1.
          1    1    1    2  502    0  0.49054841661E+02 -0.35764304495E+01  0.12384386482E+03  0.13325340971E+03  0.00000000000E+00 0. -1.
         22    1    3    3    0    0 -0.18733929265E+02 -0.97651946558E+02  0.30482410955E+03  0.32063156510E+03  0.00000000000E+00 0.  1.
         22    1    3    3    0    0  0.36562652718E+01  0.38558632503E+02  0.90185186420E+02  0.98150416534E+02  0.00000000000E+00 0.  1.
</event>
<event>
 7    1  0.5676357E-006  0.1780572E+03  0.7818608E-02  0.1286588E+00
          2   -1    0    0  502    0  0.00000000000E+00  0.00000000000E+00  0.23006718554E+04  0.23006718554E+04  0.00000000000E+00 0. -1.
          1   -1    0    0  501    0 -0.00000000000E+00 -0.00000000000E+00 -0.59963451553E+03  0.59963451553E+03  0.00000000000E+00 0. -1.
         25    2    1    2    0    0  0.11561022628E+03  0.15568726677E+03  0.50873646191E+03  0.55860719034E+03  0.12499982387E+03 0.  0.
          2    1    1    2  501    0 -0.63713767072E+02 -0.16602149039E+03 -0.56053417511E+03  0.58806559231E+03  0.00000000000E+00 0. -1.
          1    1    1    2  502    0 -0.51896459207E+02  0.10334223617E+02  0.17528350531E+04  0.17536335883E+04  0.00000000000E+00 0. -1.
         22    1    3    3    0    0  0.14196908061E+03  0.11770460101E+03  0.41197939232E+03  0.45137192275E+03  0.00000000000E+00 0.  1.
         22    1    3    3    0    0 -0.26358854331E+02  0.37982665766E+02  0.96757069589E+02  0.10723526759E+03  0.00000000000E+00 0.  1.
</event>
<event>
 7    1  0.5676357E-006  0.8165711E+02  0.7818608E-02  0.1488891E+00
          2   -1    0    0  502    0  0.00000000000E+00  0.00000000000E+00  0.30074691348E+03  0.30074691348E+03  0.00000000000E+00 0. -1.
          1   -1    0    0  501    0 -0.00000000000E+00 -0.00000000000E+00 -0.11094472592E+04  0.11094472592E+04  0.00000000000E+00 0. -1.
         25    2    1    2    0    0  0.31393563834E+02 -0.60103561241E+02  0.56318702900E+02  0.15295440613E+03  0.12500104053E+03 0.  0.
          2    1    1    2  501    0 -0.77412906744E+01 -0.21000638693E+02 -0.10519062327E+04  0.10521443232E+04  0.00000000000E+00 0. -1.
          1    1    1    2  502    0 -0.23652273160E+02  0.81104199934E+02  0.18688718413E+03  0.20509544331E+03  0.00000000000E+00 0. -1.
         22    1    3    3    0    0 -0.26482638332E+02 -0.36007238303E+02  0.75200009539E+02  0.87480813770E+02  0.00000000000E+00 0.  1.
         22    1    3    3    0    0  0.57876202167E+02 -0.24096322939E+02 -0.18881306639E+02  0.65473592362E+02  0.00000000000E+00 0.  1.
</event>
<event>
 7    1  0.5676357E-006  0.4100868E+02  0.7818608E-02  0.1563088E+00
          2   -1    0    0  502    0  0.00000000000E+00  0.00000000000E+00  0.28021929926E+02  0.28021929926E+02  0.00000000000E+00 0. -1.
          1   -1    0    0  501    0 -0.00000000000E+00 -0.00000000000E+00 -0.10325986226E+04  0.10325986226E+04  0.00000000000E+00 0. -1.
         25    2    1    2    0    0  0.52389430050E+02  0.35855146064E+02 -0.50358961787E+03  0.52274194295E+03  0.12500556712E+03 0.  0.
          2    1    1    2  501    0 -0.14313505378E+02 -0.23172882453E+02 -0.49678012641E+03  0.49752623339E+03  0.00000000000E+00 0. -1.
          1    1    1    2  502    0 -0.38075924672E+02 -0.12682263611E+02 -0.42069484051E+01  0.40352376198E+02  0.00000000000E+00 0. -1.
         22    1    3    3    0    0  0.52486058864E+02 -0.31434418613E+02 -0.34630964296E+03  0.35167211697E+03  0.00000000000E+00 0.  1.
         22    1    3    3    0    0 -0.96628813870E-01  0.67289564677E+02 -0.15727997491E+03  0.17106982597E+03  0.00000000000E+00 0.  1.
</event>
<event>
 7    1  0.5676357E-006  0.8122609E+02  0.7818608E-02  0.1399368E+00
          2   -1    0    0  502    0  0.00000000000E+00  0.00000000000E+00  0.59842476717E+03  0.59842476717E+03  0.00000000000E+00 0. -1.
          1   -1    0    0  501    0 -0.00000000000E+00 -0.00000000000E+00 -0.19840910064E+04  0.19840910064E+04  0.00000000000E+00 0. -1.
         25    2    1    2    0    0  0.84734398782E+02  0.68238278379E+02 -0.50650958030E+02  0.17328307894E+03  0.12500049970E+03 0.  0.
          2    1    1    2  501    0 -0.43766042444E+02  0.12456667474E+01 -0.18688376826E+04  0.18693505028E+04  0.00000000000E+00 0. -1.
          1    1    1    2  502    0 -0.40968356338E+02 -0.69483945126E+02  0.53382240142E+03  0.53988219188E+03  0.00000000000E+00 0. -1.
         22    1    3    3    0    0  0.31551074023E+02 -0.17043238681E+02 -0.62524798837E+02  0.72078379049E+02  0.00000000000E+00 0. -1.
         22    1    3    3    0    0  0.53183324759E+02  0.85281517060E+02  0.11873840806E+02  0.10120469989E+03  0.00000000000E+00 0. -1.
</event>
<event>
 7    1  0.5676357E-006  0.2253958E+03  0.7818608E-02  0.1149838E+00
          2   -1    0    0  502    0  0.00000000000E+00  0.00000000000E+00  0.25908414641E+04  0.25908414641E+04  0.00000000000E+00 0. -1.
          1   -1    0    0  501    0 -0.00000000000E+00 -0.00000000000E+00 -0.93350151547E+03  0.93350151547E+03  0.00000000000E+00 0. -1.
         25    2    1    2    0    0 -0.26388897389E+02 -0.26361872727E+03  0.18325669354E+03  0.34554142294E+03  0.12499860788E+03 0.  0.
          2    1    1    2  501    0  0.15858395295E+03  0.79190864817E+02 -0.83752789027E+03  0.85608003726E+03  0.00000000000E+00 0. -1.
          1    1    1    2  502    0 -0.13219505556E+03  0.18442786245E+03  0.23116111454E+04  0.23227215194E+04  0.00000000000E+00 0. -1.
         22    1    3    3    0    0 -0.65215719638E+02 -0.91363121494E+02  0.43637880053E+02  0.12043493942E+03  0.00000000000E+00 0. -1.
         22    1    3    3    0    0  0.38826822249E+02 -0.17225560577E+03  0.13961881349E+03  0.22510648353E+03  0.00000000000E+00 0. -1.
</event>
<event>
 7    1  0.5676357E-006  0.1162530E+03  0.7818608E-02  0.1293034E+00
          2   -1    0    0  502    0  0.00000000000E+00  0.00000000000E+00  0.21901525680E+04  0.21901525680E+04  0.00000000000E+00 0. -1.
          1   -1    0    0  501    0 -0.00000000000E+00 -0.00000000000E+00 -0.19610811716E+03  0.19610811716E+03  0.00000000000E+00 0. -1.
         25    2    1    2    0    0 -0.94958876299E+01  0.45240302053E+02  0.48030617759E+03  0.49845320106E+03  0.12499885041E+03 0.  0.
          2    1    1    2  501    0 -0.11968045116E+02 -0.11845692312E+03 -0.16713375181E+03  0.20520469716E+03  0.00000000000E+00 0. -1.
          1    1    1    2  502    0  0.21463932745E+02  0.73216621070E+02  0.16808720251E+04  0.16826027869E+04  0.00000000000E+00 0. -1.
         22    1    3    3    0    0 -0.32117679674E+02 -0.22499915932E+02  0.57135439566E+02  0.69298268514E+02  0.00000000000E+00 0.  1.
         22    1    3    3    0    0  0.22621792044E+02  0.67740217985E+02  0.42317073802E+03  0.42915493255E+03  0.00000000000E+00 0.  1.
</event>
<event>
 7    1  0.5676357E-006  0.8895746E+02  0.7818608E-02  0.1312166E+00
          2   -1    0    0  502    0  0.00000000000E+00  0.00000000000E+00  0.11584929050E+04  0.11584929050E+04  0.00000000000E+00 0. -1.
          1   -1    0    0  501    0 -0.00000000000E+00 -0.00000000000E+00 -0.76237534371E+02  0.76237534371E+02  0.00000000000E+00 0. -1.
         25    2    1    2    0    0  0.64624588056E+02  0.11662512884E+02  0.20823134473E+03  0.25158712861E+03  0.12499375491E+03 0.  0.
          2    1    1    2  501    0 -0.53208957991E+02  0.76559436054E+02 -0.10801387728E+02  0.93857394148E+02  0.00000000000E+00 0. -1.
          1    1    1    2  502    0 -0.11415630066E+02 -0.88221948938E+02  0.88482541363E+03  0.88928591662E+03  0.00000000000E+00 0. -1.
         22    1    3    3    0    0  0.30733440273E+01  0.48095323661E+02  0.15530026842E+03  0.16260620828E+03  0.00000000000E+00 0.  1.
         22    1    3    3    0    0  0.61551244029E+02 -0.36432810777E+02  0.52931076310E+02  0.88980920325E+02  0.00000000000E+00 0.  1.
</event>
<event>
 7    1  0.5676357E-006  0.1826607E+03  0.7818608E-02  0.1353269E+00
          2   -1    0    0  502    0  0.00000000000E+00  0.00000000000E+00  0.13124497131E+03  0.13124497131E+03  0.00000000000E+00 0. -1.
          1   -1    0    0  501    0 -0.00000000000E+00 -0.00000000000E+00 -0.27088732870E+04  0.27088732870E+04  0.00000000000E+00 0. -1.
         25    2    1    2    0    0  0.20104513451E+03 -0.10340743057E+02 -0.30361297953E+03  0.38513878162E+03  0.12499985077E+03 0.  0.
          2    1    1    2  501    0 -0.17894811995E+03  0.28208451955E+02 -0.23587038488E+04  0.23656504375E+04  0.00000000000E+00 0. -1.
          1    1    1    2  502    0 -0.22097014554E+02 -0.17867708898E+02  0.84688512596E+02  0.89329039171E+02  0.00000000000E+00 0. -1.
         22    1    3    3    0    0  0.19760334798E+03 -0.47174489482E+01 -0.31505917446E+03  0.37192959128E+03  0.00000000000E+00 0. -1.
         22    1    3    3    0    0  0.34417865235E+01 -0.56232941088E+01  0.11446194929E+02  0.13209190341E+02  0.00000000000E+00 0. -1.
</event>
<event>
 7    1  0.5676357E-006  0.7567175E+02  0.7818608E-02  0.1406512E+00
          2   -1    0    0  502    0  0.00000000000E+00  0.00000000000E+00  0.11911835644E+04  0.11911835644E+04  0.00000000000E+00 0. -1.
          1   -1    0    0  501    0 -0.00000000000E+00 -0.00000000000E+00 -0.27789739937E+03  0.27789739937E+03  0.00000000000E+00 0. -1.
         25    2    1    2    0    0  0.85623006488E+02  0.53636034027E+02  0.44207797281E+02  0.16669511927E+03  0.12499924024E+03 0.  0.
          2    1    1    2  501    0 -0.11063547813E+02 -0.43024005877E+02 -0.21305395535E+03  0.21763606104E+03  0.00000000000E+00 0. -1.
          1    1    1    2  502    0 -0.74559458675E+02 -0.10612028151E+02  0.10821323231E+04  0.10847497834E+04  0.00000000000E+00 0. -1.
         22    1    3    3    0    0 -0.20141702469E+02 -0.14654653798E+02 -0.13355631630E+02  0.28263403060E+02  0.00000000000E+00 0.  1.
         22    1    3    3    0    0  0.10576470896E+03  0.68290687826E+02  0.57563428911E+02  0.13843171621E+03  0.00000000000E+00 0.  1.
</event>
<event>
 7    1  0.5676357E-006  0.1349090E+03  0.7818608E-02  0.1271367E+00
          2   -1    0    0  502    0  0.00000000000E+00  0.00000000000E+00  0.47531342556E+03  0.47531342556E+03  0.00000000000E+00 0. -1.
          1   -1    0    0  501    0 -0.00000000000E+00 -0.00000000000E+00 -0.13822607858E+03  0.13822607858E+03  0.00000000000E+00 0. -1.
         25    2    1    2    0    0 -0.15016885074E+03  0.12737044491E+03  0.11821234123E+03  0.26148285914E+03  0.12500085613E+03 0.  0.
          2    1    1    2  501    0  0.86005854154E+02 -0.78354334912E+02 -0.25451452180E+01  0.11637390821E+03  0.00000000000E+00 0. -1.
          1    1    1    2  502    0  0.64162996590E+02 -0.49016110001E+02  0.22142015096E+03  0.23568273680E+03  0.00000000000E+00 0. -1.
         22    1    3    3    0    0  0.11256623302E+02 -0.14322876314E+02  0.62271872365E+01  0.19251862635E+02  0.00000000000E+00 0.  1.
         22    1    3    3    0    0 -0.16142547405E+03  0.14169332123E+03  0.11198515399E+03  0.24223099650E+03  0.00000000000E+00 0.  1.
</event>
<event>
 7    1  0.5676357E-006  0.1652380E+03  0.7818608E-02  0.1328433E+00
          2   -1    0    0  502    0  0.00000000000E+00  0.00000000000E+00  0.16590824738E+03  0.16590824738E+03  0.00000000000E+00 0. -1.
          1   -1    0    0  501    0 -0.00000000000E+00 -0.00000000000E+00 -0.18507870799E+04  0.18507870799E+04  0.00000000000E+00 0. -1.
         25    2    1    2    0    0  0.62476852248E+02 -0.18984277429E+03 -0.34539620499E+03  0.41817002390E+03  0.12499597771E+03 0.  0.
          2    1    1    2  501    0 -0.47750495450E+02  0.15379083159E+03 -0.14615508789E+04  0.14703954234E+04  0.00000000000E+00 0. -1.
          1    1    1    2  502    0 -0.14726356798E+02  0.36051942700E+02  0.12206825134E+03  0.12812987997E+03  0.00000000000E+00 0. -1.
         22    1    3    3    0    0  0.82237517703E+02 -0.18859003708E+03 -0.34040607074E+03  0.39775055550E+03  0.00000000000E+00 0.  1.
         22    1    3    3    0    0 -0.19760665455E+02 -0.12527372126E+01 -0.49901342526E+01  0.20419468396E+02  0.00000000000E+00 0.  1.
</event>
<event>
 7    1  0.5676357E-006  0.1176479E+03  0.7818608E-02  0.1407047E+00
          2   -1    0    0  502    0  0.00000000000E+00  0.00000000000E+00  0.11225732252E+04  0.11225732252E+04  0.00000000000E+00 0. -1.
          1   -1    0    0  501    0 -0.00000000000E+00 -0.00000000000E+00 -0.88686607284E+03  0.88686607284E+03  0.00000000000E+00 0. -1.
         25    2    1    2    0    0  0.13545289769E+03  0.24294733047E+02 -0.47174283412E+02  0.19180237561E+03  0.12500006690E+03 0.  0.
          2    1    1    2  501    0 -0.11647455776E+03 -0.30943894180E+01 -0.76276026934E+03  0.77160814300E+03  0.00000000000E+00 0. -1.
          1    1    1    2  502    0 -0.18978339933E+02 -0.21200343629E+02  0.10456417051E+04  0.10460287794E+04  0.00000000000E+00 0. -1.
         22    1    3    3    0    0 -0.54822306224E+01 -0.18291653476E+02 -0.40087397008E+02  0.44403139960E+02  0.00000000000E+00 0.  1.
         22    1    3    3    0    0  0.14093512832E+03  0.42586386523E+02 -0.70868864037E+01  0.14739923565E+03  0.00000000000E+00 0.  1.
</event>
<event>
 7    1  0.5676357E-006  0.1072516E+03  0.7818608E-02  0.1288513E+00
          2   -1    0    0  502    0  0.00000000000E+00  0.00000000000E+00  0.22883564798E+04  0.22883564798E+04  0.00000000000E+00 0. -1.
          1   -1    0    0  501    0 -0.00000000000E+00 -0.00000000000E+00 -0.12171317185E+04  0.12171317185E+04  0.00000000000E+00 0. -1.
         25    2    1    2    0    0 -0.13805813805E+03  0.13050077763E+03  0.30381579136E+03  0.37949909905E+03  0.12500011461E+03 0.  0.
          2    1    1    2  501    0  0.67271064331E+02 -0.54016078567E+02 -0.11763144168E+04  0.11794739252E+04  0.00000000000E+00 0. -1.
          1    1    1    2  502    0  0.70787073721E+02 -0.76484699064E+02  0.19437233867E+04  0.19465151741E+04  0.00000000000E+00 0. -1.
         22    1    3    3    0    0 -0.46318243062E+02  0.18040394929E+02  0.84746647626E+01  0.50424750197E+02  0.00000000000E+00 0. -1.
         22    1    3    3    0    0 -0.91739894990E+02  0.11246038270E+03  0.29534112660E+03  0.32907434885E+03  0.00000000000E+00 0. -1.
</event>
<event>
 7    1  0.5676357E-006  0.1651732E+03  0.7818608E-02  0.1285398E+00
          2   -1    0    0  502    0  0.00000000000E+00  0.00000000000E+00  0.51330119896E+03  0.51330119896E+03  0.00000000000E+00 0. -1.
          1   -1    0    0  501    0 -0.00000000000E+00 -0.00000000000E+00 -0.77026051514E+03  0.77026051514E+03  0.00000000000E+00 0. -1.
         25    2    1    2    0    0 -0.17226960112E+03  0.27449323407E+02  0.91695780473E+01  0.21480464825E+03  0.12500669951E+03 0.  0.
          2    1    1    2  501    0  0.16250671795E+03  0.29404979015E+02 -0.65506746115E+03  0.67556381255E+03  0.00000000000E+00 0. -1.
          1    1    1    2  502    0  0.97628831739E+01 -0.56854302423E+02  0.38893856693E+03  0.39319325329E+03  0.00000000000E+00 0. -1.
         22    1    3    3    0    0 -0.87670035174E+02 -0.20453687838E+02 -0.47999504109E+02  0.10202127625E+03  0.00000000000E+00 0. -1.
         22    1    3    3    0    0 -0.84599565946E+02  0.47903011245E+02  0.57169082156E+02  0.11278337200E+03  0.00000000000E+00 0. -1.
</event>
<event>
 7    1  0.5676357E-006  0.5418358E+02  0.7818608E-02  0.1446471E+00
          2   -1    0    0  502    0  0.00000000000E+00  0.00000000000E+00  0.11515674064E+04  0.11515674064E+04  0.00000000000E+00 0. -1.
          1   -1    0    0  501    0 -0.00000000000E+00 -0.00000000000E+00 -0.72583470085E+02  0.72583470085E+02  0.00000000000E+00 0. -1.
         25    2    1    2    0    0  0.34629519635E+02  0.60381744513E+02  0.25694663834E+03  0.29409652651E+03  0.12500413293E+03 0.  0.
          2    1    1    2  501    0 -0.45185378336E+02 -0.71964852802E+01 -0.43314642642E+02  0.63005286151E+02  0.00000000000E+00 0. -1.
          1    1    1    2  502    0  0.10555858701E+02 -0.53185259232E+02  0.86535194066E+03  0.86704906387E+03  0.00000000000E+00 0. -1.
         22    1    3    3    0    0  0.61625476403E+02  0.61342513801E+02  0.90613927081E+02  0.12558458155E+03  0.00000000000E+00 0. -1.
         22    1    3    3    0    0 -0.26995956768E+02 -0.96076928802E+00  0.16633271126E+03  0.16851194496E+03  0.00000000000E+00 0. -1.
</event>
<event>
 7    1  0.5676357E-006  0.1179463E+03  0.7818608E-02  0.1353176E+00
          2   -1    0    0  502    0  0.00000000000E+00  0.00000000000E+00  0.33264542555E+04  0.33264542555E+04  0.00000000000E+00 0. -1.
          1   -1    0    0  501    0 -0.00000000000E+00 -0.00000000000E+00 -0.80385789566E+03  0.80385789566E+03  0.00000000000E+00 0. -1.
         25    2    1    2    0    0  0.65912752807E+02 -0.59024825860E+02  0.42312207076E+03  0.44996772243E+03  0.12494095969E+03 0.  0.
          2    1    1    2  501    0  0.43459510033E+02  0.71495840834E+01 -0.78855264812E+03  0.78978169416E+03  0.00000000000E+00 0. -1.
          1    1    1    2  502    0 -0.10937226284E+03  0.51875241777E+02  0.28880269372E+04  0.28905627346E+04  0.00000000000E+00 0. -1.
         22    1    3    3    0    0  0.30975813989E+01 -0.84165832182E+02  0.20615081413E+03  0.22269180605E+03  0.00000000000E+00 0.  1.
         22    1    3    3    0    0  0.62815171409E+02  0.25141006322E+02  0.21697125663E+03  0.22727591637E+03  0.00000000000E+00 0.  1.
</event>
<event>
 7    1  0.5676357E-006  0.2552953E+03  0.7818608E-02  0.1241185E+00
          2   -1    0    0  502    0  0.00000000000E+00  0.00000000000E+00  0.73470993680E+03  0.73470993680E+03  0.00000000000E+00 0. -1.
          1   -1    0    0  501    0 -0.00000000000E+00 -0.00000000000E+00 -0.28691254934E+03  0.28691254934E+03  0.00000000000E+00 0. -1.
         25    2    1    2    0    0  0.21280484150E+03  0.31361115484E+02 -0.11523150195E+03  0.27417646914E+03  0.12500006824E+03 0.  0.
          2    1    1    2  501    0  0.37163297251E+02  0.43885623581E+02 -0.53114729106E+02  0.78283031799E+02  0.00000000000E+00 0. -1.
          1    1    1    2  502    0 -0.24996813875E+03 -0.75246739065E+02  0.61614361851E+03  0.66916298520E+03  0.00000000000E+00 0. -1.
         22    1    3    3    0    0  0.68884059142E+02 -0.45450152606E+02 -0.59668501435E+02  0.10183840159E+03  0.00000000000E+00 0.  1.
         22    1    3    3    0    0  0.14392078235E+03  0.76811268091E+02 -0.55563000512E+02  0.17233806754E+03  0.00000000000E+00 0.  1.
</event>
<event>
 7    1  0.5676357E-006  0.2018651E+03  0.7818608E-02  0.1246666E+00
          2   -1    0    0  502    0  0.00000000000E+00  0.00000000000E+00  0.20168477505E+04  0.20168477505E+04  0.00000000000E+00 0. -1.
          1   -1    0    0  501    0 -0.00000000000E+00 -0.00000000000E+00 -0.32212136462E+03  0.32212136462E+03  0.00000000000E+00 0. -1.
         25    2    1    2    0    0 -0.13134842222E+03  0.18538930826E+03  0.11056334558E+04  0.11356371657E+04  0.12499931986E+03 0.  0.
          2    1    1    2  501    0  0.62792620014E+02 -0.19136597251E+03 -0.27257999021E+03  0.33891547563E+03  0.00000000000E+00 0. -1.
          1    1    1    2  502    0  0.68555802205E+02  0.59766642441E+01  0.86167292030E+03  0.86441647377E+03  0.00000000000E+00 0. -1.
         22    1    3    3    0    0 -0.14425769024E+03  0.13866821027E+03  0.99390622369E+03  0.10138484775E+04  0.00000000000E+00 0.  1.
         22    1    3    3    0    0  0.12909268017E+02  0.46721097998E+02  0.11172723211E+03  0.12178868828E+03  0.00000000000E+00 0.  1.
</event>
<event>
 7    1  0.5676357E-006  0.1666331E+03  0.7818608E-02  0.1258177E+00
          2   -1    0    0  502    0  0.00000000000E+00  0.00000000000E+00  0.82874805440E+03  0.82874805440E+03  0.00000000000E+00 0. -1.
          1   -1    0    0  501    0 -0.00000000000E+00 -0.00000000000E+00 -0.10468928826E+04  0.10468928826E+04  0.00000000000E+00 0. -1.
         25    2    1    2    0    0  0.15582297710E+03 -0.28544346070E+02  0.49579687367E+02  0.20779354341E+03  0.12499772557E+03 0.  0.
          2    1    1    2  501    0 -0.13502263880E+03  0.99919586589E+02 -0.95848775619E+03  0.97309496738E+03  0.00000000000E+00 0. -1.
          1    1    1    2  502    0 -0.20800338293E+02 -0.71375240519E+02  0.69076324066E+03  0.69475242618E+03  0.00000000000E+00 0. -1.
         22    1    3    3    0    0  0.55511956484E+01  0.17495860500E+02  0.47162429941E+02  0.50608454884E+02  0.00000000000E+00 0.  1.
         22    1    3    3    0    0  0.15027178145E+03 -0.46040206570E+02  0.24172574260E+01  0.15718508852E+03  0.00000000000E+00 0.  1.
</event>
<event>
 7    1  0.5676357E-006  0.2792240E+03  0.7818608E-02  0.1330751E+00
          2   -1    0    0  502    0  0.00000000000E+00  0.00000000000E+00  0.42527748892E+03  0.42527748892E+03  0.00000000000E+00 0. -1.
          1   -1    0    0  501    0 -0.00000000000E+00 -0.00000000000E+00 -0.41372398146E+03  0.41372398146E+03  0.00000000000E+00 0. -1.
         25    2    1    2    0    0  0.27494289317E+03  0.44303200540E+02  0.11239581787E+03  0.32528872100E+03  0.12499425608E+03 0.  0.
          2    1    1    2  501    0 -0.27158907909E+03 -0.66633261233E+02 -0.24257442999E+03  0.37019315698E+03  0.00000000000E+00 0. -1.
          1    1    1    2  502    0 -0.33538140755E+01  0.22330060693E+02  0.14173211959E+03  0.14351959240E+03  0.00000000000E+00 0. -1.
         22    1    3    3    0    0  0.14990805640E+03 -0.30559531469E+02  0.24054667745E+02  0.15487071181E+03  0.00000000000E+00 0. -1.
         22    1    3    3    0    0  0.12503483677E+03  0.74862732009E+02  0.88341150124E+02  0.17041800919E+03  0.00000000000E+00 0. -1.
</event>
<event>
 7    1  0.5676357E-006  0.9421322E+02  0.7818608E-02  0.1374744E+00
          2   -1    0    0  502    0  0.00000000000E+00  0.00000000000E+00  0.20343516044E+04  0.20343516044E+04  0.00000000000E+00 0. -1.
          1   -1    0    0  501    0 -0.00000000000E+00 -0.00000000000E+00 -0.59604515142E+03  0.59604515142E+03  0.00000000000E+00 0. -1.
         25    2    1    2    0    0 -0.11864648213E+02 -0.11074886121E+03  0.48096254771E+03  0.50927038818E+03  0.12500110336E+03 0.  0.
          2    1    1    2  501    0 -0.34952698173E+02  0.29978180471E+02 -0.57956158016E+03  0.58138800092E+03  0.00000000000E+00 0. -1.
          1    1    1    2  502    0  0.46817346386E+02  0.80770680741E+02  0.15369054854E+04  0.15397383667E+04  0.00000000000E+00 0. -1.
         22    1    3    3    0    0 -0.14584764346E+02 -0.74207980776E+02  0.94321785494E+02  0.12089722487E+03  0.00000000000E+00 0. -1.
         22    1    3    3    0    0  0.27201161332E+01 -0.36540880436E+02  0.38664076221E+03  0.38837316331E+03  0.00000000000E+00 0. -1.
</event>
<event>
 7    1  0.5676357E-006  0.9731222E+02  0.7818608E-02  0.1363919E+00
          2   -1    0    0  502    0  0.00000000000E+00  0.00000000000E+00  0.21980266912E+04  0.21980266912E+04  0.00000000000E+00 0. -1.
          1   -1    0    0  501    0 -0.00000000000E+00 -0.00000000000E+00 -0.53031615848E+02  0.53031615848E+02  0.00000000000E+00 0. -1.
         25    2    1    2    0    0  0.11203078710E+03  0.76884860393E+02  0.84612148087E+03  0.86603015755E+03  0.12499797750E+03 0.  0.
          2    1    1    2  501    0 -0.47174907855E+02 -0.12351892005E+02 -0.27175805320E+02  0.55826208559E+02  0.00000000000E+00 0. -1.
          1    1    1    2  502    0 -0.64855879246E+02 -0.64532968388E+02  0.13260493998E+04  0.13292019409E+04  0.00000000000E+00 0. -1.
         22    1    3    3    0    0 -0.12259865799E+02  0.30960050737E+02  0.58266739071E+02  0.67110669294E+02  0.00000000000E+00 0. -1.
         22    1    3    3    0    0  0.12429065290E+03  0.45924809655E+02  0.78785474180E+03  0.79891948826E+03  0.00000000000E+00 0. -1.
</event>
<event>
 7    1  0.5676357E-006  0.6333120E+02  0.7818608E-02  0.1408047E+00
          2   -1    0    0  502    0  0.00000000000E+00  0.00000000000E+00  0.30548054298E+03  0.30548054298E+03  0.00000000000E+00 0. -1.
          1   -1    0    0  501    0 -0.00000000000E+00 -0.00000000000E+00 -0.51322561274E+03  0.51322561274E+03  0.00000000000E+00 0. -1.
         25    2    1    2    0    0  0.70903824958E+02  0.48382064282E+02  0.13022050032E+03  0.19986258498E+03  0.12497798860E+03 0.  0.
          2    1    1    2  501    0 -0.19782754886E+02 -0.60093820728E+02 -0.47131983388E+03  0.47554706443E+03  0.00000000000E+00 0. -1.
          1    1    1    2  502    0 -0.51121070072E+02  0.11711756446E+02  0.13335426380E+03  0.14329650630E+03  0.00000000000E+00 0. -1.
         22    1    3    3    0    0  0.41922525526E+02  0.75988762312E+01 -0.15852215589E+02  0.45459144355E+02  0.00000000000E+00 0.  1.
         22    1    3    3    0    0  0.28981299432E+02  0.40783188051E+02  0.14607271591E+03  0.15440344063E+03  0.00000000000E+00 0.  1.
</event>
<event>
 7    1  0.5676357E-006  0.7976496E+02  0.7818608E-02  0.1468762E+00
          2   -1    0    0  502    0  0.00000000000E+00  0.00000000000E+00  0.48885267921E+03  0.48885267921E+03  0.00000000000E+00 0. -1.
          1   -1    0    0  501    0 -0.00000000000E+00 -0.00000000000E+00 -0.12497679232E+04  0.12497679232E+04  0.00000000000E+00 0. -1.
         25    2    1    2    0    0  0.70179654908E+02 -0.48411382683E+02  0.17324897245E+03  0.23002947929E+03  0.12501803450E+03 0.  0.
          2    1    1    2  501    0 -0.21982712573E+02 -0.14655114962E+02 -0.12157473972E+04  0.12160344345E+04  0.00000000000E+00 0. -1.
          1    1    1    2  502    0 -0.48196942335E+02  0.63066497645E+02  0.28158318076E+03  0.29255668864E+03  0.00000000000E+00 0. -1.
         22    1    3    3    0    0  0.63231998617E+02  0.30525892824E+02  0.63551529884E+02  0.94704343789E+02  0.00000000000E+00 0.  1.
         22    1    3    3    0    0  0.69476562908E+01 -0.78937275507E+02  0.10969744256E+03  0.13532513550E+03  0.00000000000E+00 0.  1.
</event>
<event>
 7    1  0.5676357E-006  0.1279249E+03  0.7818608E-02  0.1264110E+00
          2   -1    0    0  502    0  0.00000000000E+00  0.00000000000E+00  0.96099106400E+03  0.96099106400E+03  0.00000000000E+00 0. -1.
          1   -1    0    0  501    0 -0.00000000000E+00 -0.00000000000E+00 -0.17864208354E+04  0.17864208354E+04  0.00000000000E+00 0. -1.
         25    2    1    2    0    0  0.14214334071E+03  0.14483171235E+03  0.43232677753E+03  0.49367256141E+03  0.12500080446E+03 0.  0.
          2    1    1    2  501    0 -0.11364367061E+03 -0.58025970284E+02 -0.17492137842E+04  0.17538616707E+04  0.00000000000E+00 0. -1.
          1    1    1    2  502    0 -0.28499670097E+02 -0.86805742062E+02  0.49145723533E+03  0.49987766724E+03  0.00000000000E+00 0. -1.
         22    1    3    3    0    0  0.10758016602E+03  0.50529955275E+02  0.13513020886E+03  0.17996372370E+03  0.00000000000E+00 0. -1.
         22    1    3    3    0    0  0.34563174686E+02  0.94301757071E+02  0.29719656867E+03  0.31370883771E+03  0.00000000000E+00 0. -1.
</event>
<event>
 7    1  0.5676357E-006  0.1140630E+03  0.7818608E-02  0.1338480E+00
          2   -1    0    0  502    0  0.00000000000E+00  0.00000000000E+00  0.12587599699E+04  0.12587599699E+04  0.00000000000E+00 0. -1.
          1   -1    0    0  501    0 -0.00000000000E+00 -0.00000000000E+00 -0.26371350587E+02  0.26371350587E+02  0.00000000000E+00 0. -1.
         25    2    1    2    0    0  0.14969623615E+02 -0.73543701878E+02  0.72983155704E+03  0.74425203182E+03  0.12499687801E+03 0.  0.
          2    1    1    2  501    0 -0.23919207150E+02  0.12443074330E+03  0.22209547396E+03  0.25569813825E+03  0.00000000000E+00 0. -1.
          1    1    1    2  502    0  0.89495835356E+01 -0.50887041427E+02  0.28046158836E+03  0.28518115046E+03  0.00000000000E+00 0. -1.
         22    1    3    3    0    0  0.60593766404E+02 -0.53694916803E+02  0.59594750842E+03  0.60142179991E+03  0.00000000000E+00 0.  1.
         22    1    3    3    0    0 -0.45624142790E+02 -0.19848785076E+02  0.13388404862E+03  0.14283023191E+03  0.00000000000E+00 0.  1.
</event>
<event>
 7    1  0.5676357E-006  0.1094437E+03  0.7818608E-02  0.1272934E+00
          2   -1    0    0  502    0  0.00000000000E+00  0.00000000000E+00  0.32856100187E+03  0.32856100187E+03  0.00000000000E+00 0. -1.
          1   -1    0    0  501    0 -0.00000000000E+00 -0.00000000000E+00 -0.93027079517E+03  0.93027079517E+03  0.00000000000E+00 0. -1.
         25    2    1    2    0    0 -0.11483969966E+03 -0.35883027101E+02  0.83865977988E+02  0.19270431704E+03  0.12500281313E+03 0.  0.
          2    1    1    2  501    0  0.15664786161E+02  0.96779276469E+02 -0.85498921767E+03  0.86059175933E+03  0.00000000000E+00 0. -1.
          1    1    1    2  502    0  0.99174913497E+02 -0.60896249367E+02  0.16941344639E+03  0.20553572067E+03  0.00000000000E+00 0. -1.
         22    1    3    3    0    0 -0.25130176844E+02  0.30664208436E+02  0.69599545154E+02  0.80099414186E+02  0.00000000000E+00 0. -1.
         22    1    3    3    0    0 -0.89709522814E+02 -0.66547235537E+02  0.14266432834E+02  0.11260490285E+03  0.00000000000E+00 0. -1.
</event>
<event>
 7    1  0.5676357E-006  0.8806713E+02  0.7818608E-02  0.1351285E+00
          2   -1    0    0  502    0  0.00000000000E+00  0.00000000000E+00  0.74446130829E+03  0.74446130829E+03  0.00000000000E+00 0. -1.
          1   -1    0    0  501    0 -0.00000000000E+00 -0.00000000000E+00 -0.49740995598E+02  0.49740995598E+02  0.00000000000E+00 0. -1.
         25    2    1    2    0    0 -0.19982870374E+02 -0.10779247027E+03  0.58991649356E+03  0.61289885138E+03  0.12500000358E+03 0.  0.
          2    1    1    2  501    0  0.59955773665E+02  0.63123281767E+02  0.71980541083E+02  0.11296212547E+03  0.00000000000E+00 0. -1.
          1    1    1    2  502    0 -0.39972903291E+02  0.44669188500E+02  0.32823278045E+02  0.68341327031E+02  0.00000000000E+00 0. -1.
         22    1    3    3    0    0  0.48616596165E+02 -0.55140917017E+02  0.18968628413E+03  0.20343298784E+03  0.00000000000E+00 0. -1.
         22    1    3    3    0    0 -0.68599466539E+02 -0.52651553250E+02  0.40023020943E+03  0.40946586355E+03  0.00000000000E+00 0. -1.
</event>
<event>
 7    1  0.5676357E-006  0.5535533E+02  0.7818608E-02  0.1445731E+00
          2   -1    0    0  502    0  0.00000000000E+00  0.00000000000E+00  0.16630114366E+03  0.16630114366E+03  0.00000000000E+00 0. -1.
          1   -1    0    0  501    0 -0.00000000000E+00 -0.00000000000E+00 -0.11048059698E+04  0.11048059698E+04  0.00000000000E+00 0. -1.
         25    2    1    2    0    0 -0.89227646770E+02 -0.39763282820E+02 -0.36779149942E+03  0.40054173510E+03  0.12498161026E+03 0.  0.
          2    1    1    2  501    0  0.49437494812E+02  0.18676217240E+02 -0.71626223432E+03  0.71820920023E+03  0.00000000000E+00 0. -1.
          1    1    1    2  502    0  0.39790151958E+02  0.21087065580E+02  0.14554890757E+03  0.15235617816E+03  0.00000000000E+00 0. -1.
         22    1    3    3    0    0 -0.87956032187E+02 -0.47421310552E+02 -0.37611348402E+03  0.38916114548E+03  0.00000000000E+00 0. -1.
         22    1    3    3    0    0 -0.12716145824E+01  0.76580277325E+01  0.83219845996E+01  0.11380589619E+02  0.00000000000E+00 0. -1.
</event>
<event>
 7    1  0.5676357E-006  0.4361369E+02  0.7818608E-02  0.1523027E+00
          2   -1    0    0  502    0  0.00000000000E+00  0.00000000000E+00  0.10363268641E+04  0.10363268641E+04  0.00000000000E+00 0. -1.
          1   -1    0    0  501    0 -0.00000000000E+00 -0.00000000000E+00 -0.11896844144E+04  0.11896844144E+04  0.00000000000E+00 0. -1.
         25    2    1    2    0    0 -0.57066673851E+02 -0.48898067724E+02 -0.53683818298E+02  0.15542039607E+03  0.12500368344E+03 0.  0.
          2    1    1    2  501    0  0.27744892979E+02  0.33313543349E+02 -0.10844193157E+04  0.10852855953E+04  0.00000000000E+00 0. -1.
          1    1    1    2  502    0  0.29321780872E+02  0.15584524376E+02  0.98474558368E+03  0.98530528711E+03  0.00000000000E+00 0. -1.
         22    1    3    3    0    0 -0.23857846858E+02  0.25629313956E+02  0.24247528280E+02  0.42591093180E+02  0.00000000000E+00 0.  1.
         22    1    3    3    0    0 -0.33208826994E+02 -0.74527381680E+02 -0.77931346578E+02  0.11282930289E+03  0.00000000000E+00 0.  1.
</event>
<event>
 7    1  0.5676357E-006  0.9510042E+02  0.7818608E-02  0.1291068E+00
          2   -1    0    0  502    0  0.00000000000E+00  0.00000000000E+00  0.69946010971E+03  0.69946010971E+03  0.00000000000E+00 0. -1.
          1   -1    0    0  501    0 -0.00000000000E+00 -0.00000000000E+00 -0.12565804678E+03  0.12565804678E+03  0.00000000000E+00 0. -1.
         25    2    1    2    0    0 -0.95238761290E+02 -0.29356633336E+02  0.65012046306E+02  0.17258099422E+03  0.12500159931E+03 0.  0.
          2    1    1    2  501    0  0.31671394944E+02  0.10009049871E+03 -0.26979219222E+02  0.10839309691E+03  0.00000000000E+00 0. -1.
          1    1    1    2  502    0  0.63567366347E+02 -0.70733865371E+02  0.53576923585E+03  0.54414406535E+03  0.00000000000E+00 0. -1.
         22    1    3    3    0    0 -0.55733937394E+02 -0.74761506554E+02  0.62666049699E+02  0.11235029339E+03  0.00000000000E+00 0. -1.
         22    1    3    3    0    0 -0.39504823896E+02  0.45404873219E+02  0.23459966078E+01  0.60230700836E+02  0.00000000000E+00 0. -1.
</event>
<event>
 7    1  0.5676357E-006  0.4364947E+02  0.7818608E-02  0.1560891E+00
          2   -1    0    0  502    0  0.00000000000E+00  0.00000000000E+00  0.80475502008E+03  0.80475502008E+03  0.00000000000E+00 0. -1.
          1   -1    0    0  501    0 -0.00000000000E+00 -0.00000000000E+00 -0.90450756423E+03  0.90450756423E+03  0.00000000000E+00 0. -1.
         25    2    1    2    0    0 -0.63861045726E+01  0.21978158510E+02  0.98687366232E+02  0.16089723270E+03  0.12499960581E+03 0.  0.
          2    1    1    2  501    0  0.30622041529E+02 -0.31244682341E+02 -0.87260506650E+03  0.87370105968E+03  0.00000000000E+00 0. -1.
          1    1    1    2  502    0 -0.24235936957E+02  0.92665238308E+01  0.67416515611E+03  0.67466429194E+03  0.00000000000E+00 0. -1.
         22    1    3    3    0    0  0.36756841684E+02  0.19742317246E+02  0.10880237623E+03  0.11652802913E+03  0.00000000000E+00 0. -1.
         22    1    3    3    0    0 -0.43142946257E+02  0.22358412643E+01 -0.10115009994E+02  0.44369203566E+02  0.00000000000E+00 0. -1.
</event>
<event>
 7    1  0.5676357E-006  0.8332866E+02  0.7818608E-02  0.1468514E+00
          2   -1    0    0  502    0  0.00000000000E+00  0.00000000000E+00  0.32289861765E+04  0.32289861765E+04  0.00000000000E+00 0. -1.
          1   -1    0    0  501    0 -0.00000000000E+00 -0.00000000000E+00 -0.89363037079E+03  0.89363037079E+03  0.00000000000E+00 0. -1.
         25    2    1    2    0    0 -0.57971899897E+02 -0.33285328201E+02  0.37014766862E+03  0.39636317692E+03  0.12500326870E+03 0.  0.
          2    1    1    2  501    0 -0.26070823370E+01 -0.25200538290E+02 -0.87971730935E+03  0.88008204639E+03  0.00000000000E+00 0. -1.
          1    1    1    2  502    0  0.60578982234E+02  0.58485866491E+02  0.28449254465E+04  0.28461713240E+04  0.00000000000E+00 0. -1.
         22    1    3    3    0    0 -0.97518303463E+02 -0.18118723012E+02  0.26910558646E+03  0.28680293635E+03  0.00000000000E+00 0.  1.
         22    1    3    3    0    0  0.39546403566E+02 -0.15166605188E+02  0.10104208215E+03  0.10956024057E+03  0.00000000000E+00 0.  1.
</event>
<event>
 7    1  0.5676357E-006  0.1134673E+03  0.7818608E-02  0.1284721E+00
          2   -1    0    0  502    0  0.00000000000E+00  0.00000000000E+00  0.74941495774E+03  0.74941495774E+03  0.00000000000E+00 0. -1.
          1   -1    0    0  501    0 -0.00000000000E+00 -0.00000000000E+00 -0.28670766374E+04  0.28670766374E+04  0.00000000000E+00 0. -1.
         25    2    1    2    0    0 -0.95758609201E+02  0.15719965192E+03 -0.19537295761E+03  0.29610101490E+03  0.12499510655E+03 0.  0.
          2    1    1    2  501    0  0.10701404756E+02 -0.83831389745E+02 -0.26161404908E+04  0.26175051651E+04  0.00000000000E+00 0. -1.
          1    1    1    2  502    0  0.85057204445E+02 -0.73368262175E+02  0.69385176869E+03  0.70288541515E+03  0.00000000000E+00 0. -1.
         22    1    3    3    0    0 -0.10761882444E+03  0.98142200014E+02 -0.18421790164E+03  0.23484023949E+03  0.00000000000E+00 0.  1.
         22    1    3    3    0    0  0.11860215235E+02  0.59057451906E+02 -0.11155055964E+02  0.61260775416E+02  0.00000000000E+00 0.  1.
</event>
<event>
 7    1  0.5676357E-006  0.1801731E+03  0.7818608E-02  0.1241200E+00
          2   -1    0    0  502    0  0.00000000000E+00  0.00000000000E+00  0.66504552298E+03  0.66504552298E+03  0.00000000000E+00 0. -1.
          1   -1    0    0  501    0 -0.00000000000E+00 -0.00000000000E+00 -0.22147663604E+03  0.22147663604E+03  0.00000000000E+00 0. -1.
         25    2    1    2    0    0  0.14165969418E+03 -0.11133799575E+03  0.31905014438E+03  0.38714478746E+03  0.12499789429E+03 0.  0.
          2    1    1    2  501    0 -0.79512427095E+02  0.16402038561E+03 -0.13535155572E+03  0.22703514396E+03  0.00000000000E+00 0. -1.
          1    1    1    2  502    0 -0.62147267080E+02 -0.52682389864E+02  0.25987029827E+03  0.27234222759E+03  0.00000000000E+00 0. -1.
         22    1    3    3    0    0  0.13387603215E+03 -0.83231173895E+02  0.32130546352E+03  0.35789303036E+03  0.00000000000E+00 0.  1.
         22    1    3    3    0    0  0.77836620239E+01 -0.28106821853E+02 -0.22553191356E+01  0.29251757103E+02  0.00000000000E+00 0.  1.
</event>
<event>
 7    1  0.5676357E-006  0.1464243E+03  0.7818608E-02  0.1258696E+00
          2   -1    0    0  502    0  0.00000000000E+00  0.00000000000E+00  0.30099539006E+04  0.30099539006E+04  0.00000000000E+00 0. -1.
          1   -1    0    0  501    0 -0.00000000000E+00 -0.00000000000E+00 -0.24814503355E+02  0.24814503355E+02  0.00000000000E+00 0. -1.
         25    2    1    2    0    0 -0.10619974669E+03  0.14596154554E+03  0.16505516880E+04  0.16650907392E+04  0.12499254309E+03 0.  0.
          2    1    1    2  501    0 -0.12994510366E+02 -0.83164253615E+02  0.11416255364E+03  0.14183877831E+03  0.00000000000E+00 0. -1.
          1    1    1    2  502    0  0.11919425706E+03 -0.62797291928E+02  0.12204251556E+04  0.12278388865E+04  0.00000000000E+00 0. -1.
         22    1    3    3    0    0 -0.14568756910E+02  0.17946898701E+02  0.35361974888E+02  0.42247001301E+02  0.00000000000E+00 0.  1.
         22    1    3    3    0    0 -0.91630989780E+02  0.12801464684E+03  0.16151897131E+04  0.16228437379E+04  0.00000000000E+00 0.  1.
</event>
<event>
 7    1  0.5676357E-006  0.1029291E+03  0.7818608E-02  0.1383878E+00
          2   -1    0    0  502    0  0.00000000000E+00  0.00000000000E+00  0.14059955883E+04  0.14059955883E+04  0.00000000000E+00 0. -1.
          1   -1    0    0  501    0 -0.00000000000E+00 -0.00000000000E+00 -0.90202629038E+02  0.90202629038E+02  0.00000000000E+00 0. -1.
         25    2    1    2    0    0 -0.87348333899E+02  0.10491220692E+03  0.36133700780E+03  0.40598783608E+03  0.12500154897E+03 0.  0.
          2    1    1    2  501    0  0.16138607430E+02 -0.35635717892E+02 -0.59604172253E+02  0.71295276067E+02  0.00000000000E+00 0. -1.
          1    1    1    2  502    0  0.71209726469E+02 -0.69276489026E+02  0.10140601237E+04  0.10189151052E+04  0.00000000000E+00 0. -1.
         22    1    3    3    0    0 -0.52985993744E+02  0.29662886445E+01  0.38130931181E+02  0.65347397149E+02  0.00000000000E+00 0.  1.
         22    1    3    3    0    0 -0.34362340155E+02  0.10194591827E+03  0.32320607661E+03  0.34064043893E+03  0.00000000000E+00 0.  1.
</event>
<event>
 7    1  0.5676357E-006  0.9593464E+02  0.7818608E-02  0.1461942E+00
          2   -1    0    0  502    0  0.00000000000E+00  0.00000000000E+00  0.15016362213E+04  0.15016362213E+04  0.00000000000E+00 0. -1.
          1   -1    0    0  501    0 -0.00000000000E+00 -0.00000000000E+00 -0.11669970536E+03  0.11669970536E+03  0.00000000000E+00 0. -1.
         25    2    1    2    0    0  0.10494496795E+02 -0.11499451296E+03  0.83710792456E+03  0.85422960303E+03  0.12499865948E+03 0.  0.
          2    1    1    2  501    0 -0.19013911589E+02  0.93551000264E+02 -0.86819730186E+02  0.12903869200E+03  0.00000000000E+00 0. -1.
          1    1    1    2  502    0  0.85194147936E+01  0.21443512693E+02  0.63464832156E+03  0.63506763162E+03  0.00000000000E+00 0. -1.
         22    1    3    3    0    0 -0.14604990640E+02  0.17513631519E+02  0.42248471242E+02  0.48010065224E+02  0.00000000000E+00 0. -1.
         22    1    3    3    0    0  0.25099487436E+02 -0.13250814448E+03  0.79485945331E+03  0.80621953781E+03  0.00000000000E+00 0. -1.
</event>
<event>
 7    1  0.5676357E-006  0.1068808E+03  0.7818608E-02  0.1276537E+00
          2   -1    0    0  502    0  0.00000000000E+00  0.00000000000E+00  0.12799638689E+04  0.12799638689E+04  0.00000000000E+00 0. -1.
          1   -1    0    0  501    0 -0.00000000000E+00 -0.00000000000E+00 -0.91254422195E+03  0.91254422195E+03  0.00000000000E+00 0. -1.
         25    2    1    2    0    0  0.16951519790E+03  0.20588356376E+02  0.83620534653E+02  0.22754765464E+03  0.12500503422E+03 0.  0.
          2    1    1    2  501    0 -0.96699196962E+02  0.43463160266E+02 -0.83513208593E+03  0.84183453359E+03  0.00000000000E+00 0. -1.
          1    1    1    2  502    0 -0.72816000936E+02 -0.64051516643E+02  0.11189311982E+04  0.11231259026E+04  0.00000000000E+00 0. -1.
         22    1    3    3    0    0  0.12737089987E+03  0.70604917051E+02  0.49759856667E+02  0.15389751064E+03  0.00000000000E+00 0.  1.
         22    1    3    3    0    0  0.42144298025E+02 -0.50016560675E+02  0.33860677987E+02  0.73650144002E+02  0.00000000000E+00 0.  1.
</event>
<event>
 7    1  0.5676357E-006  0.7796914E+02  0.7818608E-02  0.1436411E+00
          2   -1    0    0  502    0  0.00000000000E+00  0.00000000000E+00  0.30241411037E+04  0.30241411037E+04  0.00000000000E+00 0. -1.
          1   -1    0    0  501    0 -0.00000000000E+00 -0.00000000000E+00 -0.86934095034E+02  0.86934095034E+02  0.00000000000E+00 0. -1.
         25    2    1    2    0    0 -0.43483755205E+02 -0.12441427116E+02  0.23477237363E+02  0.13498754248E+03  0.12499931950E+03 0.  0.
          2    1    1    2  501    0 -0.27629174400E+02 -0.20281486149E+02 -0.21077591290E+02  0.40236486092E+02  0.00000000000E+00 0. -1.
          1    1    1    2  502    0  0.71112929605E+02  0.32722913265E+02  0.29348073626E+04  0.29358511702E+04  0.00000000000E+00 0. -1.
         22    1    3    3    0    0 -0.66315934391E+02 -0.15818162217E+02 -0.31693828789E+02  0.75183217498E+02  0.00000000000E+00 0. -1.
         22    1    3    3    0    0  0.22832179186E+02  0.33767351007E+01  0.55171066152E+02  0.59804324983E+02  0.00000000000E+00 0. -1.
</event>
<event>
 7    1  0.5676357E-006  0.7538878E+02  0.7818608E-02  0.1400792E+00
          2   -1    0    0  502    0  0.00000000000E+00  0.00000000000E+00  0.31748931468E+03  0.31748931468E+03  0.00000000000E+00 0. -1.
          1   -1    0    0  501    0 -0.00000000000E+00 -0.00000000000E+00 -0.10679923803E+04  0.10679923803E+04  0.00000000000E+00 0. -1.
         25    2    1    2    0    0 -0.24547676043E+02 -0.25558166638E+02  0.11698631634E+03  0.17482852860E+03  0.12499363152E+03 0.  0.
          2    1    1    2  501    0  0.71190277947E+02  0.26038019282E+02 -0.10344885337E+04  0.10372620500E+04  0.00000000000E+00 0. -1.
          1    1    1    2  502    0 -0.46642601904E+02 -0.47985264460E+00  0.16699915169E+03  0.17339111637E+03  0.00000000000E+00 0. -1.
         22    1    3    3    0    0  0.33571049649E+02 -0.33608246080E+02  0.10457240738E+03  0.11485607500E+03  0.00000000000E+00 0. -1.
         22    1    3    3    0    0 -0.58118725692E+02  0.80500794425E+01  0.12413908960E+02  0.59972453600E+02  0.00000000000E+00 0. -1.
</event>
<event>
 7    1  0.5676357E-006  0.1149586E+03  0.7818608E-02  0.1260728E+00
          2   -1    0    0  502    0  0.00000000000E+00  0.00000000000E+00  0.18717771155E+04  0.18717771155E+04  0.00000000000E+00 0. -1.
          1   -1    0    0  501    0 -0.00000000000E+00 -0.00000000000E+00 -0.44532498750E+03  0.44532498750E+03  0.00000000000E+00 0. -1.
         25    2    1    2    0    0  0.57578893633E+02  0.21014882618E+03  0.68328436457E+02  0.26033038405E+03  0.12500110197E+03 0.  0.
          2    1    1    2  501    0 -0.31599789829E+02 -0.10022816678E+03 -0.33950067063E+03  0.35539405945E+03  0.00000000000E+00 0. -1.
          1    1    1    2  502    0 -0.25979103804E+02 -0.10992065940E+03  0.16976243621E+04  0.17013776595E+04  0.00000000000E+00 0. -1.
         22    1    3    3    0    0  0.10415344065E+02  0.15656199858E+02  0.56842006228E+02  0.59871609783E+02  0.00000000000E+00 0. -1.
         22    1    3    3    0    0  0.47163549568E+02  0.19449262632E+03  0.11486430230E+02  0.20045877426E+03  0.00000000000E+00 0. -1.
</event>
<event>
 7    1  0.5676357E-006  0.6509579E+02  0.7818608E-02  0.1443572E+00
          2   -1    0    0  502    0  0.00000000000E+00  0.00000000000E+00  0.11864252946E+03  0.11864252946E+03  0.00000000000E+00 0. -1.
          1   -1    0    0  501    0 -0.00000000000E+00 -0.00000000000E+00 -0.54345297629E+03  0.54345297629E+03  0.00000000000E+00 0. -1.
         25    2    1    2    0    0 -0.30373503113E+02 -0.52896532675E+02 -0.56246569370E+02  0.15003179171E+03  0.12500107638E+03 0.  0.
          2    1    1    2  501    0 -0.30443812778E+02  0.24236134825E+02 -0.42347375302E+03  0.42525784586E+03  0.00000000000E+00 0. -1.
          1    1    1    2  502    0  0.60817315891E+02  0.28660397849E+02  0.54909875562E+02  0.86805868185E+02  0.00000000000E+00 0. -1.
         22    1    3    3    0    0 -0.23017155166E+02 -0.71072269700E+02  0.14947263830E+02  0.76187122588E+02  0.00000000000E+00 0.  1.
         22    1    3    3    0    0 -0.73563479476E+01  0.18175737025E+02 -0.71193833200E+02  0.73844669119E+02  0.00000000000E+00 0.  1.
</event>
<event>
 7    1  0.5676357E-006  0.6635719E+02  0.7818608E-02  0.1462667E+00
          2   -1    0    0  502    0  0.00000000000E+00  0.00000000000E+00  0.37041751062E+03  0.37041751062E+03  0.00000000000E+00 0. -1.
          1   -1    0    0  501    0 -0.00000000000E+00 -0.00000000000E+00 -0.11377721524E+04  0.11377721524E+04  0.00000000000E+00 0. -1.
         25    2    1    2    0    0 -0.45340666906E+01  0.47007310407E+02  0.63474718062E+02  0.14793187866E+03  0.12499822359E+03 0.  0.
          2    1    1    2  501    0  0.28078811118E+02  0.17685002763E+02 -0.10908109771E+04  0.10913156128E+04  0.00000000000E+00 0. -1.
          1    1    1    2  502    0 -0.23544744428E+02 -0.64692313170E+02  0.25998161722E+03  0.26894217160E+03  0.00000000000E+00 0. -1.
         22    1    3    3    0    0 -0.19468055108E+02 -0.17180209240E+02 -0.26041104259E+02  0.36773684480E+02  0.00000000000E+00 0. -1.
         22    1    3    3    0    0  0.14933988418E+02  0.64187519647E+02  0.89515822321E+02  0.11115819418E+03  0.00000000000E+00 0. -1.
</event>
<event>
 7    1  0.5676357E-006  0.9799068E+02  0.7818608E-02  0.1326038E+00
          2   -1    0    0  502    0  0.00000000000E+00  0.00000000000E+00  0.60470369703E+02  0.60470369703E+02  0.00000000000E+00 0. -1.
          1   -1    0    0  501    0 -0.00000000000E+00 -0.00000000000E+00 -0.25196579355E+04  0.25196579355E+04  0.00000000000E+00 0. -1.
         25    2    1    2    0    0  0.24288528110E+02 -0.60568448452E+02 -0.41355720767E+03  0.43693368659E+03  0.12499205141E+03 0.  0.
          2    1    1    2  501    0  0.31164677959E+02  0.98301472376E+02 -0.20694496130E+04  0.20720174028E+04  0.00000000000E+00 0. -1.
          1    1    1    2  502    0 -0.55453206069E+02 -0.37733023924E+02  0.23819254849E+02  0.71177215872E+02  0.00000000000E+00 0. -1.
         22    1    3    3    0    0  0.14207341011E+02 -0.66984996318E+02 -0.89666049344E+02  0.11282215507E+03  0.00000000000E+00 0.  1.
         22    1    3    3    0    0  0.10081187099E+02  0.64165478659E+01 -0.32389115833E+03  0.32411153152E+03  0.00000000000E+00 0.  1.
</event>
<event>
 7    1  0.5676357E-006  0.4786392E+02  0.7818608E-02  0.1480017E+00
          2   -1    0    0  502    0  0.00000000000E+00  0.00000000000E+00  0.24007118031E+04  0.24007118031E+04  0.00000000000E+00 0. -1.
          1   -1    0    0  501    0 -0.00000000000E+00 -0.00000000000E+00 -0.54523453575E+02  0.54523453575E+02  0.00000000000E+00 0. -1.
         25    2    1    2    0    0 -0.62726707226E+02 -0.56493718973E+02  0.35546199073E+03  0.38613997184E+03  0.12499868366E+03 0.  0.
          2    1    1    2  501    0  0.20638839583E+02  0.35007508067E+02 -0.28296510666E+02  0.49519489459E+02  0.00000000000E+00 0. -1.
          1    1    1    2  502    0  0.42087867643E+02  0.21486210907E+02  0.20190228695E+04  0.20195757954E+04  0.00000000000E+00 0. -1.
         22    1    3    3    0    0  0.13894606699E+02  0.30675585370E+02  0.10087075986E+03  0.10634360266E+03  0.00000000000E+00 0.  1.
         22    1    3    3    0    0 -0.76621313925E+02 -0.87169304343E+02  0.25459123087E+03  0.27979636918E+03  0.00000000000E+00 0.  1.
</event>
<event>
 7    1  0.5676357E-006  0.7186840E+02  0.7818608E-02  0.1505694E+00
          2   -1    0    0  502    0  0.00000000000E+00  0.00000000000E+00  0.10068427933E+04  0.10068427933E+04  0.00000000000E+00 0. -1.
          1   -1    0    0  501    0 -0.00000000000E+00 -0.00000000000E+00 -0.17429355430E+04  0.17429355430E+04  0.00000000000E+00 0. -1.
         25    2    1    2    0    0  0.44851412363E+02  0.42373778123E+02 -0.11525174773E+03  0.18087211662E+03  0.12499828379E+03 0.  0.
          2    1    1    2  501    0 -0.35359876689E+02 -0.62936612013E+02 -0.15939248955E+04  0.15955588083E+04  0.00000000000E+00 0. -1.
          1    1    1    2  502    0 -0.94915356741E+01  0.20562833891E+02  0.97308389359E+03  0.97334741143E+03  0.00000000000E+00 0. -1.
         22    1    3    3    0    0 -0.28517030252E+02  0.24916578005E+02 -0.95761995097E+02  0.10297774798E+03  0.00000000000E+00 0. -1.
         22    1    3    3    0    0  0.73368442615E+02  0.17457200117E+02 -0.19489752634E+02  0.77894368638E+02  0.00000000000E+00 0. -1.
</event>
<event>
 7    1  0.5676357E-006  0.1245032E+03  0.7818608E-02  0.1324375E+00
          2   -1    0    0  502    0  0.00000000000E+00  0.00000000000E+00  0.14638496551E+03  0.14638496551E+03  0.00000000000E+00 0. -1.
          1   -1    0    0  501    0 -0.00000000000E+00 -0.00000000000E+00 -0.15596790484E+04  0.15596790484E+04  0.00000000000E+00 0. -1.
         25    2    1    2    0    0  0.57721557615E+02 -0.14414037195E+03 -0.71307406682E+03  0.74041034700E+03  0.12499852858E+03 0.  0.
          2    1    1    2  501    0 -0.12200089929E+02  0.11589182549E+03 -0.82325440074E+03  0.83146110297E+03  0.00000000000E+00 0. -1.
          1    1    1    2  502    0 -0.45521467686E+02  0.28248546456E+02  0.12303438468E+03  0.13419256392E+03  0.00000000000E+00 0. -1.
         22    1    3    3    0    0  0.64414049070E+01 -0.87794077372E+02 -0.16452015867E+03  0.18659092778E+03  0.00000000000E+00 0.  1.
         22    1    3    3    0    0  0.51280152708E+02 -0.56346294574E+02 -0.54855390815E+03  0.55381941923E+03  0.00000000000E+00 0.  1.
</event>
<event>
 7    1  0.5676357E-006  0.1533768E+03  0.7818608E-02  0.1250185E+00
          2   -1    0    0  502    0  0.00000000000E+00  0.00000000000E+00  0.15356217519E+03  0.15356217519E+03  0.00000000000E+00 0. -1.
          1   -1    0    0  501    0 -0.00000000000E+00 -0.00000000000E+00 -0.74609729403E+03  0.74609729403E+03  0.00000000000E+00 0. -1.
         25    2    1    2    0    0 -0.21588753142E+02  0.78592641396E+02 -0.48370671095E+02  0.15686472062E+03  0.12499576476E+03 0.  0.
          2    1    1    2  501    0  0.55936669718E+02 -0.15899772352E+03 -0.61031144847E+03  0.63315815658E+03  0.00000000000E+00 0. -1.
          1    1    1    2  502    0 -0.34347916576E+02  0.80405082121E+02  0.66147000730E+02  0.10963659202E+03  0.00000000000E+00 0. -1.
         22    1    3    3    0    0  0.48830750224E+02  0.45393238726E+02 -0.41898428739E+02  0.78743041726E+02  0.00000000000E+00 0. -1.
         22    1    3    3    0    0 -0.70419503366E+02  0.33199402670E+02 -0.64722423558E+01  0.78121678893E+02  0.00000000000E+00 0. -1.
</event>
<event>
 7    1  0.5676357E-006  0.5088215E+02  0.7818608E-02  0.1450265E+00
          2   -1    0    0  502    0  0.00000000000E+00  0.00000000000E+00  0.17621545697E+04  0.17621545697E+04  0.00000000000E+00 0. -1.
          1   -1    0    0  501    0 -0.00000000000E+00 -0.00000000000E+00 -0.38503829062E+03  0.38503829062E+03  0.00000000000E+00 0. -1.
         25    2    1    2    0    0  0.11039408692E+01 -0.48081858318E+01  0.10537963753E+02  0.12553786456E+03  0.12499747766E+03 0.  0.
          2    1    1    2  501    0 -0.76322753186E+01  0.51733705287E+02 -0.32511731972E+03  0.32929606659E+03  0.00000000000E+00 0. -1.
          1    1    1    2  502    0  0.65283344495E+01 -0.46925519455E+02  0.16916956350E+04  0.16923589291E+04  0.00000000000E+00 0. -1.
         22    1    3    3    0    0 -0.24041619329E+02 -0.91132280497E+01 -0.51993136895E+02  0.58002902252E+02  0.00000000000E+00 0.  1.
         22    1    3    3    0    0  0.25145560199E+02  0.43050422179E+01  0.62531100647E+02  0.67534962311E+02  0.00000000000E+00 0.  1.
</event>
<event>
 7    1  0.5676357E-006  0.9818839E+02  0.7818608E-02  0.1448112E+00
          2   -1    0    0  502    0  0.00000000000E+00  0.00000000000E+00  0.42714608236E+03  0.42714608236E+03  0.00000000000E+00 0. -1.
          1   -1    0    0  501    0 -0.00000000000E+00 -0.00000000000E+00 -0.81896733532E+03  0.81896733532E+03  0.00000000000E+00 0. -1.
         25    2    1    2    0    0  0.38970797139E+02 -0.94288217020E+02 -0.23768875808E+03  0.28728159742E+03  0.12500311837E+03 0.  0.
          2    1    1    2  501    0 -0.58413029557E+02  0.78660340234E+02 -0.55177571546E+03  0.56040696937E+03  0.00000000000E+00 0. -1.
          1    1    1    2  502    0  0.19442232418E+02  0.15627876786E+02  0.39764322058E+03  0.39842485089E+03  0.00000000000E+00 0. -1.
         22    1    3    3    0    0  0.97659396246E+01 -0.27544956356E+02 -0.20561344829E+03  0.20768001424E+03  0.00000000000E+00 0.  1.
         22    1    3    3    0    0  0.29204857515E+02 -0.66743260664E+02 -0.32075309786E+02  0.79601583178E+02  0.00000000000E+00 0.  1.
</event>
<event>
 7    1  0.5676357E-006  0.1066629E+03  0.7818608E-02  0.1399495E+00
          2   -1    0    0  502    0  0.00000000000E+00  0.00000000000E+00  0.11001843460E+04  0.11001843460E+04  0.00000000000E+00 0. -1.
          1   -1    0    0  501    0 -0.00000000000E+00 -0.00000000000E+00 -0.18675673216E+04  0.18675673216E+04  0.00000000000E+00 0. -1.
         25    2    1    2    0    0  0.88018756297E+02 -0.12669671013E+01  0.53814421787E+02  0.16207976226E+03  0.12499980271E+03 0.  0.
          2    1    1    2  501    0  0.15321021657E+02 -0.29575883406E+02 -0.18103506550E+04  0.18106570522E+04  0.00000000000E+00 0. -1.
          1    1    1    2  502    0 -0.10333977795E+03  0.30842850507E+02  0.98915325760E+03  0.99501485323E+03  0.00000000000E+00 0. -1.
         22    1    3    3    0    0  0.76560473862E+02  0.50125992562E+02  0.72634517827E+01  0.91798033858E+02  0.00000000000E+00 0. -1.
         22    1    3    3    0    0  0.11458282435E+02 -0.51392959663E+02  0.46550970004E+02  0.70281728405E+02  0.00000000000E+00 0. -1.
</event>
<event>
 7    1  0.5676357E-006  0.8788125E+02  0.7818608E-02  0.1389668E+00
          2   -1    0    0  502    0  0.00000000000E+00  0.00000000000E+00  0.29759684912E+03  0.29759684912E+03  0.00000000000E+00 0. -1.
          1   -1    0    0  501    0 -0.00000000000E+00 -0.00000000000E+00 -0.98035805368E+02  0.98035805368E+02  0.00000000000E+00 0. -1.
         25    2    1    2    0    0 -0.51254593955E+02  0.39609927669E+02  0.44287295032E+02  0.14758876330E+03  0.12500039512E+03 0.  0.
          2    1    1    2  501    0  0.63241229336E+01  0.43265994376E+02 -0.20723985829E+02  0.48388267057E+02  0.00000000000E+00 0. -1.
          1    1    1    2  502    0  0.44930471021E+02 -0.82875922045E+02  0.17599773455E+03  0.19965562413E+03  0.00000000000E+00 0. -1.
         22    1    3    3    0    0 -0.89128732343E+02  0.66824825028E+01  0.37573225639E+02  0.96955318505E+02  0.00000000000E+00 0. -1.
         22    1    3    3    0    0  0.37874138388E+02  0.32927445166E+02  0.67140693924E+01  0.50633444793E+02  0.00000000000E+00 0. -1.
</event>
<event>
 7    1  0.5676357E-006  0.8079052E+02  0.7818608E-02  0.1426607E+00
          2   -1    0    0  502    0  0.00000000000E+00  0.00000000000E+00  0.21057549654E+04  0.21057549654E+04  0.00000000000E+00 0. -1.
          1   -1    0    0  501    0 -0.00000000000E+00 -0.00000000000E+00 -0.60494118319E+03  0.60494118319E+03  0.00000000000E+00 0. -1.
         25    2    1    2    0    0 -0.89819841317E+00  0.11582396598E+03  0.12900828858E+03  0.21373753439E+03  0.12499838890E+03 0.  0.
          2    1    1    2  501    0  0.90724315149E+00 -0.80200766231E+02 -0.55955275934E+03  0.56527186068E+03  0.00000000000E+00 0. -1.
          1    1    1    2  502    0 -0.90447383243E-02 -0.35623199748E+02  0.19313582529E+04  0.19316867535E+04  0.00000000000E+00 0. -1.
         22    1    3    3    0    0 -0.82671650775E+01 -0.49762316517E+01 -0.19741417399E+02  0.21973448997E+02  0.00000000000E+00 0.  1.
         22    1    3    3    0    0  0.73689666644E+01  0.12080019763E+03  0.14874970598E+03  0.19176408539E+03  0.00000000000E+00 0.  1.
</event>
<event>
 7    1  0.5676357E-006  0.7705145E+02  0.7818608E-02  0.1345414E+00
          2   -1    0    0  502    0  0.00000000000E+00  0.00000000000E+00  0.71761312080E+03  0.71761312080E+03  0.00000000000E+00 0. -1.
          1   -1    0    0  501    0 -0.00000000000E+00 -0.00000000000E+00 -0.46855268292E+03  0.46855268292E+03  0.00000000000E+00 0. -1.
         25    2    1    2    0    0 -0.44953596768E+02  0.12817235428E+02 -0.17490034862E+03  0.22000303497E+03  0.12500438416E+03 0.  0.
          2    1    1    2  501    0  0.59901038286E+02  0.62770464979E+02 -0.26194588829E+03  0.27594186717E+03  0.00000000000E+00 0. -1.
          1    1    1    2  502    0 -0.14947441518E+02 -0.75587700407E+02  0.68590667479E+03  0.69022090158E+03  0.00000000000E+00 0. -1.
         22    1    3    3    0    0  0.34835231522E+02 -0.25496670043E+02 -0.74968659505E+02  0.86509383575E+02  0.00000000000E+00 0.  1.
         22    1    3    3    0    0 -0.79788828290E+02  0.38313905471E+02 -0.99931689115E+02  0.13349365139E+03  0.00000000000E+00 0.  1.
</event>
<event>
 7    1  0.5676357E-006  0.3571968E+02  0.7818608E-02  0.1602248E+00
          2   -1    0    0  502    0  0.00000000000E+00  0.00000000000E+00  0.27869477401E+04  0.27869477401E+04  0.00000000000E+00 0. -1.
          1   -1    0    0  501    0 -0.00000000000E+00 -0.00000000000E+00 -0.18130244999E+02  0.18130244999E+02  0.00000000000E+00 0. -1.
         25    2    1    2    0    0  0.20053755590E+02  0.40300627697E+02  0.25228733232E+04  0.25263695107E+04  0.12500722356E+03 0.  0.
          2    1    1    2  501    0 -0.30733763533E+02 -0.18169186248E+02  0.44634434300E+01  0.35980631971E+02  0.00000000000E+00 0. -1.
          1    1    1    2  502    0  0.10680007943E+02 -0.22131441450E+02  0.24148072846E+03  0.24272784242E+03  0.00000000000E+00 0. -1.
         22    1    3    3    0    0  0.44543395845E+02 -0.18144369456E+02  0.18227025059E+04  0.18233369840E+04  0.00000000000E+00 0. -1.
         22    1    3    3    0    0 -0.24489640255E+02  0.58444997153E+02  0.70017081731E+03  0.70303252669E+03  0.00000000000E+00 0. -1.
</event>
<event>
 7    1  0.5676357E-006  0.1552030E+03  0.7818608E-02  0.1203316E+00
          2   -1    0    0  502    0  0.00000000000E+00  0.00000000000E+00  0.67028814937E+03  0.67028814937E+03  0.00000000000E+00 0. -1.
          1   -1    0    0  501    0 -0.00000000000E+00 -0.00000000000E+00 -0.19783395684E+03  0.19783395684E+03  0.00000000000E+00 0. -1.
         25    2    1    2    0    0  0.22976406762E+03  0.16864702984E+02  0.50212678116E+02  0.26687518271E+03  0.12500042051E+03 0.  0.
          2    1    1    2  501    0 -0.10186394566E+03 -0.96881047262E+02 -0.12440908477E+02  0.14112752016E+03  0.00000000000E+00 0. -1.
          1    1    1    2  502    0 -0.12790012196E+03  0.80016344278E+02  0.43468242289E+03  0.46011940333E+03  0.00000000000E+00 0. -1.
         22    1    3    3    0    0  0.36239710050E+02  0.27371565670E+01 -0.39001042253E+02  0.53309379169E+02  0.00000000000E+00 0.  1.
         22    1    3    3    0    0  0.19352435757E+03  0.14127546417E+02  0.89213720370E+02  0.21356580354E+03  0.00000000000E+00 0.  1.
</event>
<event>
 7    1  0.5676357E-006  0.8252157E+02  0.7818608E-02  0.1435794E+00
          2   -1    0    0  502    0  0.00000000000E+00  0.00000000000E+00  0.26895999391E+03  0.26895999391E+03  0.00000000000E+00 0. -1.
          1   -1    0    0  501    0 -0.00000000000E+00 -0.00000000000E+00 -0.12876154339E+04  0.12876154339E+04  0.00000000000E+00 0. -1.
         25    2    1    2    0    0  0.33214926578E+00  0.11231928235E+03 -0.91538195167E+03  0.93068058484E+03  0.12500600803E+03 0.  0.
          2    1    1    2  501    0  0.10659307573E+02 -0.30737994695E+02 -0.35734380366E+03  0.35882173731E+03  0.00000000000E+00 0. -1.
          1    1    1    2  502    0 -0.10991456838E+02 -0.81581287657E+02  0.25407031535E+03  0.26707310565E+03  0.00000000000E+00 0. -1.
         22    1    3    3    0    0 -0.53935752573E+02  0.62541184385E+02 -0.30909378143E+03  0.31993660445E+03  0.00000000000E+00 0. -1.
         22    1    3    3    0    0  0.54267901839E+02  0.49778097967E+02 -0.60628817024E+03  0.61074398039E+03  0.00000000000E+00 0. -1.
</event>
<event>
 7    1  0.5676357E-006  0.1427944E+03  0.7818608E-02  0.1309489E+00
          2   -1    0    0  502    0  0.00000000000E+00  0.00000000000E+00  0.89856084793E+03  0.89856084793E+03  0.00000000000E+00 0. -1.
          1   -1    0    0  501    0 -0.00000000000E+00 -0.00000000000E+00 -0.84454333542E+03  0.84454333542E+03  0.00000000000E+00 0. -1.
         25    2    1    2    0    0  0.54861372693E+02  0.17072264142E+03  0.49785232710E+03  0.54372386922E+03  0.12499086306E+03 0.  0.
          2    1    1    2  501    0 -0.18872696306E+02 -0.49942947349E+02 -0.81019355232E+03  0.81195077984E+03  0.00000000000E+00 0. -1.
          1    1    1    2  502    0 -0.35988676388E+02 -0.12077969407E+03  0.36635873773E+03  0.38742953429E+03  0.00000000000E+00 0. -1.
         22    1    3    3    0    0 -0.10007047564E+02  0.14821274368E+03  0.36762271883E+03  0.39650172987E+03  0.00000000000E+00 0. -1.
         22    1    3    3    0    0  0.64868420258E+02  0.22509897732E+02  0.13022960827E+03  0.14722213934E+03  0.00000000000E+00 0. -1.
</event>
<event>
 7    1  0.5676357E-006  0.4035055E+02  0.7818608E-02  0.1526878E+00
          2   -1    0    0  502    0  0.00000000000E+00  0.00000000000E+00  0.24752526476E+04  0.24752526476E+04  0.00000000000E+00 0. -1.
          1   -1    0    0  501    0 -0.00000000000E+00 -0.00000000000E+00 -0.21031616481E+03  0.21031616481E+03  0.00000000000E+00 0. -1.
         25    2    1    2    0    0 -0.47096778636E+02 -0.31775591051E+02 -0.67592955498E+02  0.15304150383E+03  0.12500039807E+03 0.  0.
          2    1    1    2  501    0  0.68330949231E+01  0.34311282793E+02 -0.96766395796E+02  0.10289650465E+03  0.00000000000E+00 0. -1.
          1    1    1    2  502    0  0.40263683713E+02 -0.25356917426E+01  0.24292958341E+04  0.24296308040E+04  0.00000000000E+00 0. -1.
         22    1    3    3    0    0 -0.40765886982E+02 -0.47582884926E+02  0.18459652191E+02  0.65320343219E+02  0.00000000000E+00 0.  1.
         22    1    3    3    0    0 -0.63308916540E+01  0.15807293875E+02 -0.86052607689E+02  0.87721160611E+02  0.00000000000E+00 0.  1.
</event>
<event>
 7    1  0.5676357E-006  0.1254900E+03  0.7818608E-02  0.1382344E+00
          2   -1    0    0  502    0  0.00000000000E+00  0.00000000000E+00  0.93429105879E+03  0.93429105879E+03  0.00000000000E+00 0. -1.
          1   -1    0    0  501    0 -0.00000000000E+00 -0.00000000000E+00 -0.13458586654E+03  0.13458586654E+03  0.00000000000E+00 0. -1.
         25    2    1    2    0    0 -0.85675222995E+02 -0.49836864701E+02  0.29190543761E+03  0.33265271359E+03  0.12500034575E+03 0.  0.
          2    1    1    2  501    0  0.10263571147E+03  0.77547220552E+02 -0.77396888413E+02  0.15012641014E+03  0.00000000000E+00 0. -1.
          1    1    1    2  502    0 -0.16960488479E+02 -0.27710355851E+02  0.58519664306E+03  0.58609780160E+03  0.00000000000E+00 0. -1.
         22    1    3    3    0    0 -0.78037856229E+02 -0.10622429715E+02  0.28014703193E+03  0.29100704892E+03  0.00000000000E+00 0. -1.
         22    1    3    3    0    0 -0.76373667663E+01 -0.39214434986E+02  0.11758405672E+02  0.41645664676E+02  0.00000000000E+00 0. -1.
</event>
<event>
 7    1  0.5676357E-006  0.1685447E+03  0.7818608E-02  0.1285157E+00
          2   -1    0    0  502    0  0.00000000000E+00  0.00000000000E+00  0.10337525218E+04  0.10337525218E+04  0.00000000000E+00 0. -1.
          1   -1    0    0  501    0 -0.00000000000E+00 -0.00000000000E+00 -0.17155260716E+03  0.17155260716E+03  0.00000000000E+00 0. -1.
         25    2    1    2    0    0 -0.84677393309E+02 -0.11050794497E+03  0.48586362825E+02  0.19330812042E+03  0.12500051172E+03 0.  0.
          2    1    1    2  501    0  0.96141323828E+02  0.16599712859E+03 -0.45414621539E+01  0.19188232260E+03  0.00000000000E+00 0. -1.
          1    1    1    2  502    0 -0.11463930519E+02 -0.55489183617E+02  0.81815501400E+03  0.82011468596E+03  0.00000000000E+00 0. -1.
         22    1    3    3    0    0 -0.16533768393E+02 -0.63983884670E+02  0.81105476010E+02  0.10462027162E+03  0.00000000000E+00 0.  1.
         22    1    3    3    0    0 -0.68143624916E+02 -0.46524060302E+02 -0.32519113185E+02  0.88687848807E+02  0.00000000000E+00 0.  1.
</event>
<event>
 7    1  0.5676357E-006  0.7402620E+02  0.7818608E-02  0.1456170E+00
          2   -1    0    0  502    0  0.00000000000E+00  0.00000000000E+00  0.73461771198E+03  0.73461771198E+03  0.00000000000E+00 0. -1.
          1   -1    0    0  501    0 -0.00000000000E+00 -0.00000000000E+00 -0.85178073036E+03  0.85178073036E+03  0.00000000000E+00 0. -1.
         25    2    1    2    0    0  0.60268375947E+02 -0.82744562935E+02  0.91714933303E+02  0.18577170964E+03  0.12498223584E+03 0.  0.
          2    1    1    2  501    0 -0.24298581765E+02  0.19546934730E+02 -0.80222977507E+03  0.80283567170E+03  0.00000000000E+00 0. -1.
          1    1    1    2  502    0 -0.35969794183E+02  0.63197628205E+02  0.59335182339E+03  0.59779106101E+03  0.00000000000E+00 0. -1.
         22    1    3    3    0    0 -0.31153651889E+02  0.85790961131E+01  0.19503108421E+02  0.37742842424E+02  0.00000000000E+00 0. -1.
         22    1    3    3    0    0  0.91422027837E+02 -0.91323659048E+02  0.72211824883E+02  0.14802886721E+03  0.00000000000E+00 0. -1.
</event>
<event>
 7    1  0.5676357E-006  0.5485752E+02  0.7818608E-02  0.1508649E+00
          2   -1    0    0  502    0  0.00000000000E+00  0.00000000000E+00  0.35812420815E+03  0.35812420815E+03  0.00000000000E+00 0. -1.
          1   -1    0    0  501    0 -0.00000000000E+00 -0.00000000000E+00 -0.92454079585E+03  0.92454079585E+03  0.00000000000E+00 0. -1.
         25    2    1    2    0    0  0.60579776427E+02  0.56695982814E+02  0.93864033181E+02  0.17697332916E+03  0.12499903492E+03 0.  0.
          2    1    1    2  501    0 -0.43461072237E+02 -0.33188685261E+02 -0.88118566342E+03  0.88288081134E+03  0.00000000000E+00 0. -1.
          1    1    1    2  502    0 -0.17118704190E+02 -0.23507297553E+02  0.22090504253E+03  0.22281086349E+03  0.00000000000E+00 0. -1.
         22    1    3    3    0    0  0.54812484326E+02  0.49285595429E+02 -0.84810016695E+01  0.74198421440E+02  0.00000000000E+00 0.  1.
         22    1    3    3    0    0  0.57672921011E+01  0.74103873852E+01  0.10234503485E+03  0.10277490772E+03  0.00000000000E+00 0.  1.
</event>
<event>
 7    1  0.5676357E-006  0.3312976E+02  0.7818608E-02  0.1602316E+00
          2   -1    0    0  502    0  0.00000000000E+00  0.00000000000E+00  0.27571237430E+03  0.27571237430E+03  0.00000000000E+00 0. -1.
          1   -1    0    0  501    0 -0.00000000000E+00 -0.00000000000E+00 -0.91921823872E+03  0.91921823872E+03  0.00000000000E+00 0. -1.
         25    2    1    2    0    0 -0.13796962815E+02 -0.10855466305E+02  0.90489248724E+02  0.15531485497E+03  0.12500481074E+03 0.  0.
          2    1    1    2  501    0 -0.44566983192E+00  0.33183564828E+02 -0.88534471608E+03  0.88596648576E+03  0.00000000000E+00 0. -1.
          1    1    1    2  502    0  0.14242632647E+02 -0.22328098523E+02  0.15134960293E+03  0.15364927229E+03  0.00000000000E+00 0. -1.
         22    1    3    3    0    0 -0.19004375609E+02 -0.52044599579E+02 -0.38365622757E+00  0.55407164066E+02  0.00000000000E+00 0.  1.
         22    1    3    3    0    0  0.52074127939E+01  0.41189133275E+02  0.90872904952E+02  0.99907690907E+02  0.00000000000E+00 0.  1.
</event>
<event>
 7    1  0.5676357E-006  0.1184233E+03  0.7818608E-02  0.1324275E+00
          2   -1    0    0  502    0  0.00000000000E+00  0.00000000000E+00  0.15027684314E+03  0.15027684314E+03  0.00000000000E+00 0. -1.
          1   -1    0    0  501    0 -0.00000000000E+00 -0.00000000000E+00 -0.50881552921E+03  0.50881552921E+03  0.00000000000E+00 0. -1.
         25    2    1    2    0    0 -0.12585907441E+03 -0.11014952491E+03 -0.11460014007E+03  0.23819510381E+03  0.12502116191E+03 0.  0.
          2    1    1    2  501    0  0.84033345947E+02  0.72351438293E+02 -0.31281703000E+03  0.33188978308E+03  0.00000000000E+00 0. -1.
          1    1    1    2  502    0  0.41825728465E+02  0.37798086615E+02  0.68878483992E+02  0.89007485474E+02  0.00000000000E+00 0. -1.
         22    1    3    3    0    0  0.24604992428E+02 -0.72243370572E+01 -0.73029345836E+01  0.26663262213E+02  0.00000000000E+00 0.  1.
         22    1    3    3    0    0 -0.15046406684E+03 -0.10292518785E+03 -0.10729720548E+03  0.21153184159E+03  0.00000000000E+00 0.  1.
</event>
<event>
 7    1  0.5676357E-006  0.6781121E+02  0.7818608E-02  0.1493576E+00
          2   -1    0    0  502    0  0.00000000000E+00  0.00000000000E+00  0.36399450398E+04  0.36399450398E+04  0.00000000000E+00 0. -1.
          1   -1    0    0  501    0 -0.00000000000E+00 -0.00000000000E+00 -0.94378397382E+01  0.94378397382E+01  0.00000000000E+00 0. -1.
         25    2    1    2    0    0  0.28176971335E+02  0.79301060895E+02  0.23784974298E+04  0.23832658703E+04  0.12499433970E+03 0.  0.
          2    1    1    2  501    0 -0.53546622602E+01 -0.66662921220E+02  0.15518770428E+03  0.16898473609E+03  0.00000000000E+00 0. -1.
          1    1    1    2  502    0 -0.22822309074E+02 -0.12638139675E+02  0.10968220660E+04  0.10971322732E+04  0.00000000000E+00 0. -1.
         22    1    3    3    0    0  0.13583204602E+02  0.86985133224E+02  0.82559728063E+03  0.83027813811E+03  0.00000000000E+00 0. -1.
         22    1    3    3    0    0  0.14593766733E+02 -0.76840723287E+01  0.15529001491E+04  0.15529877321E+04  0.00000000000E+00 0. -1.
</event>
<event>
 7    1  0.5676357E-006  0.1014610E+03  0.7818608E-02  0.1464739E+00
          2   -1    0    0  502    0  0.00000000000E+00  0.00000000000E+00  0.17292877655E+04  0.17292877655E+04  0.00000000000E+00 0. -1.
          1   -1    0    0  501    0 -0.00000000000E+00 -0.00000000000E+00 -0.88688510388E+02  0.88688510388E+02  0.00000000000E+00 0. -1.
         25    2    1    2    0    0 -0.29074411277E+02  0.10406828369E+03  0.17080536572E+03  0.23764566303E+03  0.12500183654E+03 0.  0.
          2    1    1    2  501    0  0.44929920286E+02 -0.89725202656E+02 -0.95800186627E+01  0.10080221469E+03  0.00000000000E+00 0. -1.
          1    1    1    2  502    0 -0.15855509009E+02 -0.14343081031E+02  0.14793739080E+04  0.14795283982E+04  0.00000000000E+00 0. -1.
         22    1    3    3    0    0  0.91924661817E+01 -0.13489550250E+02  0.86453824203E+02  0.87981436222E+02  0.00000000000E+00 0. -1.
         22    1    3    3    0    0 -0.38266877459E+02  0.11755783394E+03  0.84351541512E+02  0.14966422681E+03  0.00000000000E+00 0. -1.
</event>
<event>
 7    1  0.5676357E-006  0.1718877E+03  0.7818608E-02  0.1252561E+00
          2   -1    0    0  502    0  0.00000000000E+00  0.00000000000E+00  0.11109769529E+04  0.11109769529E+04  0.00000000000E+00 0. -1.
          1   -1    0    0  501    0 -0.00000000000E+00 -0.00000000000E+00 -0.66881145630E+03  0.66881145630E+03  0.00000000000E+00 0. -1.
         25    2    1    2    0    0  0.80464292462E+02  0.18402885661E+03 -0.13372177645E+03  0.27174909377E+03  0.12499973615E+03 0.  0.
          2    1    1    2  501    0 -0.60036519647E+01 -0.16787286811E+03 -0.44948089324E+03  0.47984415915E+03  0.00000000000E+00 0. -1.
          1    1    1    2  502    0 -0.74460640497E+02 -0.16155988505E+02  0.10253681663E+04  0.10281951562E+04  0.00000000000E+00 0. -1.
         22    1    3    3    0    0  0.10835788247E+03  0.11392036205E+03 -0.11262924969E+03  0.19340275972E+03  0.00000000000E+00 0. -1.
         22    1    3    3    0    0 -0.27893590005E+02  0.70108494562E+02 -0.21092526767E+02  0.78346334046E+02  0.00000000000E+00 0. -1.
</event>
<event>
 7    1  0.5676357E-006  0.1161617E+03  0.7818608E-02  0.1290963E+00
          2   -1    0    0  502    0  0.00000000000E+00  0.00000000000E+00  0.49121491130E+03  0.49121491130E+03  0.00000000000E+00 0. -1.
          1   -1    0    0  501    0 -0.00000000000E+00 -0.00000000000E+00 -0.92365882612E+03  0.92365882612E+03  0.00000000000E+00 0. -1.
         25    2    1    2    0    0 -0.11604888253E+03 -0.71364875852E+02  0.17963138587E+03  0.25778563938E+03  0.12500284973E+03 0.  0.
          2    1    1    2  501    0  0.11604788871E+03 -0.64838276355E+01 -0.87509984737E+03  0.88278473898E+03  0.00000000000E+00 0. -1.
          1    1    1    2  502    0  0.99382052166E-03  0.77848703487E+02  0.26302454669E+03  0.27430335907E+03  0.00000000000E+00 0. -1.
         22    1    3    3    0    0  0.13682618441E+02 -0.45744336276E+02  0.23615901230E+02  0.53267899711E+02  0.00000000000E+00 0.  1.
         22    1    3    3    0    0 -0.12973150097E+03 -0.25620539576E+02  0.15601548464E+03  0.20451773967E+03  0.00000000000E+00 0.  1.
</event>
<event>
 7    1  0.5676357E-006  0.6877497E+02  0.7818608E-02  0.1438427E+00
          2   -1    0    0  502    0  0.00000000000E+00  0.00000000000E+00  0.19740465705E+04  0.19740465705E+04  0.00000000000E+00 0. -1.
          1   -1    0    0  501    0 -0.00000000000E+00 -0.00000000000E+00 -0.37103646248E+02  0.37103646248E+02  0.00000000000E+00 0. -1.
         25    2    1    2    0    0 -0.17879477099E+02  0.58425103338E+02  0.22642321931E+03  0.26575750048E+03  0.12500562554E+03 0.  0.
          2    1    1    2  501    0 -0.35561913911E+02 -0.14147195359E+02  0.51570675929E+01  0.38618495617E+02  0.00000000000E+00 0. -1.
          1    1    1    2  502    0  0.53441391010E+02 -0.44277907979E+02  0.17053626374E+04  0.17067742207E+04  0.00000000000E+00 0. -1.
         22    1    3    3    0    0  0.18346010322E+02  0.18536590168E+02  0.20676065399E+03  0.20839901465E+03  0.00000000000E+00 0. -1.
         22    1    3    3    0    0 -0.36225487421E+02  0.39888513170E+02  0.19662565324E+02  0.57358485832E+02  0.00000000000E+00 0. -1.
</event>
<event>
 7    1  0.5676357E-006  0.5993184E+02  0.7818608E-02  0.1436134E+00
          2   -1    0    0  502    0  0.00000000000E+00  0.00000000000E+00  0.10268221706E+04  0.10268221706E+04  0.00000000000E+00 0. -1.
          1   -1    0    0  501    0 -0.00000000000E+00 -0.00000000000E+00 -0.37789224983E+02  0.37789224983E+02  0.00000000000E+00 0. -1.
         25    2    1    2    0    0 -0.26718916400E+01 -0.23943079165E+02  0.26458971735E+03  0.29362084092E+03  0.12500027860E+03 0.  0.
          2    1    1    2  501    0 -0.16107974059E+02  0.64486964140E+02  0.26400746484E+02  0.71519471385E+02  0.00000000000E+00 0. -1.
          1    1    1    2  502    0  0.18779865699E+02 -0.40543884975E+02  0.69804248178E+03  0.69947108328E+03  0.00000000000E+00 0. -1.
         22    1    3    3    0    0 -0.34718345417E+02 -0.65455740279E+02  0.17048934440E+03  0.18589360935E+03  0.00000000000E+00 0.  1.
         22    1    3    3    0    0  0.32046453777E+02  0.41512661114E+02  0.94100372956E+02  0.10772723158E+03  0.00000000000E+00 0.  1.
</event>
<event>
 7    1  0.5676357E-006  0.1055365E+03  0.7818608E-02  0.1370660E+00
          2   -1    0    0  502    0  0.00000000000E+00  0.00000000000E+00  0.11515757801E+04  0.11515757801E+04  0.00000000000E+00 0. -1.
          1   -1    0    0  501    0 -0.00000000000E+00 -0.00000000000E+00 -0.27317484181E+03  0.27317484181E+03  0.00000000000E+00 0. -1.
         25    2    1    2    0    0 -0.71956307081E+01  0.11019698735E+03  0.32680426342E+03  0.36690701945E+03  0.12499832482E+03 0.  0.
          2    1    1    2  501    0 -0.39701255599E+02 -0.15209360059E+02 -0.24781911032E+03  0.25143950718E+03  0.00000000000E+00 0. -1.
          1    1    1    2  502    0  0.46896886307E+02 -0.94987627286E+02  0.79941578523E+03  0.80640409532E+03  0.00000000000E+00 0. -1.
         22    1    3    3    0    0  0.11832409594E+02  0.13303194756E+03  0.29228849623E+03  0.32135660879E+03  0.00000000000E+00 0.  1.
         22    1    3    3    0    0 -0.19028040302E+02 -0.22834960214E+02  0.34515767193E+02  0.45550410653E+02  0.00000000000E+00 0.  1.
</event>
<event>
 7    1  0.5676357E-006  0.9557783E+02  0.7818608E-02  0.1473349E+00
          2   -1    0    0  502    0  0.00000000000E+00  0.00000000000E+00  0.94048825731E+03  0.94048825731E+03  0.00000000000E+00 0. -1.
          1   -1    0    0  501    0 -0.00000000000E+00 -0.00000000000E+00 -0.35993626494E+03  0.35993626494E+03  0.00000000000E+00 0. -1.
         25    2    1    2    0    0 -0.55561518786E+02 -0.72074183602E+02  0.74034855361E+02  0.17143051982E+03  0.12500197201E+03 0.  0.
          2    1    1    2  501    0 -0.18357810699E+02  0.10875266028E+02 -0.30805267852E+03  0.30879075985E+03  0.00000000000E+00 0. -1.
          1    1    1    2  502    0  0.73919329485E+02  0.61198917574E+02  0.81456981552E+03  0.82020324258E+03  0.00000000000E+00 0. -1.
         22    1    3    3    0    0  0.23691274514E+02 -0.70964473104E+02  0.28772480424E+02  0.80156650135E+02  0.00000000000E+00 0. -1.
         22    1    3    3    0    0 -0.79252793300E+02 -0.11097104978E+01  0.45262374937E+02  0.91273869690E+02  0.00000000000E+00 0. -1.
</event>
<event>
 7    1  0.5676357E-006  0.7037138E+02  0.7818608E-02  0.1477065E+00
          2   -1    0    0  502    0  0.00000000000E+00  0.00000000000E+00  0.20582390179E+04  0.20582390179E+04  0.00000000000E+00 0. -1.
          1   -1    0    0  501    0 -0.00000000000E+00 -0.00000000000E+00 -0.12308054962E+02  0.12308054962E+02  0.00000000000E+00 0. -1.
         25    2    1    2    0    0  0.31496453184E+02  0.62031093398E+02  0.53592667489E+03  0.55470487001E+03  0.12506082060E+03 0.  0.
          2    1    1    2  501    0 -0.26833833237E+02  0.87497673883E+01  0.96082406260E+02  0.10014210817E+03  0.00000000000E+00 0. -1.
          1    1    1    2  502    0 -0.46626199471E+01 -0.70780860787E+02  0.14139218818E+04  0.14157000946E+04  0.00000000000E+00 0. -1.
         22    1    3    3    0    0 -0.11935905060E+02  0.88333955754E+02  0.39434135613E+03  0.40429006756E+03  0.00000000000E+00 0. -1.
         22    1    3    3    0    0  0.43432358244E+02 -0.26302862356E+02  0.14158531875E+03  0.15041480245E+03  0.00000000000E+00 0. -1.
</event>
<event>
 7    1  0.5676357E-006  0.1039978E+03  0.7818608E-02  0.1343386E+00
          2   -1    0    0  502    0  0.00000000000E+00  0.00000000000E+00  0.11223470890E+04  0.11223470890E+04  0.00000000000E+00 0. -1.
          1   -1    0    0  501    0 -0.00000000000E+00 -0.00000000000E+00 -0.25576433056E+03  0.25576433056E+03  0.00000000000E+00 0. -1.
         25    2    1    2    0    0 -0.64670356914E+02 -0.27049087109E+00 -0.30339570635E+02  0.14397405930E+03  0.12500284787E+03 0.  0.
          2    1    1    2  501    0  0.11813155470E+03  0.98594699742E+01 -0.14697810747E+03  0.18882488564E+03  0.00000000000E+00 0. -1.
          1    1    1    2  502    0 -0.53461197785E+02 -0.95889791031E+01  0.10439004365E+04  0.10453124746E+04  0.00000000000E+00 0. -1.
         22    1    3    3    0    0 -0.72877209568E+02  0.25213245718E+02  0.26176690690E+02  0.81437181739E+02  0.00000000000E+00 0. -1.
         22    1    3    3    0    0  0.82068526536E+01 -0.25483736589E+02 -0.56516261326E+02  0.62536877562E+02  0.00000000000E+00 0. -1.
</event>
<event>
 7    1  0.5676357E-006  0.7365660E+02  0.7818608E-02  0.1375540E+00
          2   -1    0    0  502    0  0.00000000000E+00  0.00000000000E+00  0.12561436713E+04  0.12561436713E+04  0.00000000000E+00 0. -1.
          1   -1    0    0  501    0 -0.00000000000E+00 -0.00000000000E+00 -0.38914917282E+03  0.38914917282E+03  0.00000000000E+00 0. -1.
         25    2    1    2    0    0 -0.58596454893E+01 -0.11173862318E+03  0.46503738406E+03  0.49437112673E+03  0.12499274785E+03 0.  0.
          2    1    1    2  501    0 -0.29422565037E+02  0.50579914931E+02 -0.37057668486E+03  0.37516808832E+03  0.00000000000E+00 0. -1.
          1    1    1    2  502    0  0.35282210526E+02  0.61158708244E+02  0.77253379926E+03  0.77575362905E+03  0.00000000000E+00 0. -1.
         22    1    3    3    0    0  0.64134223269E+01 -0.10468779583E+03  0.17524922022E+03  0.20423749844E+03  0.00000000000E+00 0. -1.
         22    1    3    3    0    0 -0.12273067816E+02 -0.70508273425E+01  0.28978816385E+03  0.29013362829E+03  0.00000000000E+00 0. -1.
</event>
<event>
 7    1  0.5676357E-006  0.5214000E+02  0.7818608E-02  0.1462537E+00
          2   -1    0    0  502    0  0.00000000000E+00  0.00000000000E+00  0.18519505836E+03  0.18519505836E+03  0.00000000000E+00 0. -1.
          1   -1    0    0  501    0 -0.00000000000E+00 -0.00000000000E+00 -0.99281086362E+03  0.99281086362E+03  0.00000000000E+00 0. -1.
         25    2    1    2    0    0 -0.82483360972E+02 -0.24410690248E+02 -0.29981639639E+03  0.33602879948E+03  0.12500438354E+03 0.  0.
          2    1    1    2  501    0  0.41619913613E+02 -0.73982323856E+01 -0.67019401336E+03  0.67152584953E+03  0.00000000000E+00 0. -1.
          1    1    1    2  502    0  0.40863447359E+02  0.31808922633E+02  0.16239460448E+03  0.17045127296E+03  0.00000000000E+00 0. -1.
         22    1    3    3    0    0  0.10954506304E+02 -0.11412171466E+02  0.52827831096E+01  0.16677729561E+02  0.00000000000E+00 0. -1.
         22    1    3    3    0    0 -0.93437867276E+02 -0.12998518781E+02 -0.30509917950E+03  0.31935106992E+03  0.00000000000E+00 0. -1.
</event>
<event>
 7    1  0.5676357E-006  0.6011669E+02  0.7818608E-02  0.1403021E+00
          2   -1    0    0  502    0  0.00000000000E+00  0.00000000000E+00  0.10418846838E+04  0.10418846838E+04  0.00000000000E+00 0. -1.
          1   -1    0    0  501    0 -0.00000000000E+00 -0.00000000000E+00 -0.23407031262E+03  0.23407031262E+03  0.00000000000E+00 0. -1.
         25    2    1    2    0    0 -0.42272234700E+02 -0.42071692296E+02  0.38229573919E+03  0.40660983223E+03  0.12499821737E+03 0.  0.
          2    1    1    2  501    0  0.57862019421E+02 -0.16309601812E+02 -0.21639669403E+03  0.22459195353E+03  0.00000000000E+00 0. -1.
          1    1    1    2  502    0 -0.15589784721E+02  0.58381294108E+02  0.64191532602E+03  0.64475321067E+03  0.00000000000E+00 0. -1.
         22    1    3    3    0    0 -0.47069827931E+02 -0.82355309286E+02  0.30358516117E+03  0.31805961037E+03  0.00000000000E+00 0.  1.
         22    1    3    3    0    0  0.47975932303E+01  0.40283616990E+02  0.78710578021E+02  0.88550221858E+02  0.00000000000E+00 0.  1.
</event>
<event>
 7    1  0.5676357E-006  0.4046413E+02  0.7818608E-02  0.1513289E+00
          2   -1    0    0  502    0  0.00000000000E+00  0.00000000000E+00  0.42386570896E+02  0.42386570896E+02  0.00000000000E+00 0. -1.
          1   -1    0    0  501    0 -0.00000000000E+00 -0.00000000000E+00 -0.22141451344E+04  0.22141451344E+04  0.00000000000E+00 0. -1.
         25    2    1    2    0    0 -0.21417262810E+02  0.27918583277E+02 -0.64686868902E+03  0.65977494175E+03  0.12500290588E+03 0.  0.
          2    1    1    2  501    0 -0.15300229412E+02 -0.38474667054E+02 -0.15503132676E+04  0.15508660886E+04  0.00000000000E+00 0. -1.
          1    1    1    2  502    0  0.36717492222E+02  0.10556083777E+02  0.25423393058E+02  0.45890675026E+02  0.00000000000E+00 0. -1.
         22    1    3    3    0    0  0.52518245173E+02  0.12851603075E+02 -0.29376783895E+03  0.29870198021E+03  0.00000000000E+00 0. -1.
         22    1    3    3    0    0 -0.73935507983E+02  0.15066980203E+02 -0.35310085007E+03  0.36107296154E+03  0.00000000000E+00 0. -1.
</event>
<event>
 7    1  0.5676357E-006  0.4895911E+02  0.7818608E-02  0.1490806E+00
          2   -1    0    0  502    0  0.00000000000E+00  0.00000000000E+00  0.49753007046E+02  0.49753007046E+02  0.00000000000E+00 0. -1.
          1   -1    0    0  501    0 -0.00000000000E+00 -0.00000000000E+00 -0.72612359690E+03  0.72612359690E+03  0.00000000000E+00 0. -1.
         25    2    1    2    0    0 -0.60372855053E+02  0.22919309532E+02 -0.27426209866E+03  0.30824196769E+03  0.12499294183E+03 0.  0.
          2    1    1    2  501    0  0.32654583949E+02  0.17044169850E+02 -0.41554746730E+03  0.41717684878E+03  0.00000000000E+00 0. -1.
          1    1    1    2  502    0  0.27718271103E+02 -0.39963479382E+02  0.13438976113E+02  0.50457787469E+02  0.00000000000E+00 0. -1.
         22    1    3    3    0    0 -0.54029672531E+02 -0.32888297349E+02 -0.61614582845E+02  0.88301769152E+02  0.00000000000E+00 0. -1.
         22    1    3    3    0    0 -0.63431825213E+01  0.55807606881E+02 -0.21264751582E+03  0.21994019854E+03  0.00000000000E+00 0. -1.
</event>
<event>
 7    1  0.5676357E-006  0.2044865E+03  0.7818608E-02  0.1237454E+00
          2   -1    0    0  502    0  0.00000000000E+00  0.00000000000E+00  0.77242148531E+03  0.77242148531E+03  0.00000000000E+00 0. -1.
          1   -1    0    0  501    0 -0.00000000000E+00 -0.00000000000E+00 -0.94183960320E+03  0.94183960320E+03  0.00000000000E+00 0. -1.
         25    2    1    2    0    0 -0.13823306989E+03 -0.11052438520E+03 -0.70203367934E+02  0.22776813230E+03  0.12500315151E+03 0.  0.
          2    1    1    2  501    0  0.11053625767E+03  0.17976147609E+03 -0.77672994027E+03  0.80488623584E+03  0.00000000000E+00 0. -1.
          1    1    1    2  502    0  0.27696812220E+02 -0.69237090895E+02  0.67751519031E+03  0.68160672038E+03  0.00000000000E+00 0. -1.
         22    1    3    3    0    0 -0.13612844393E+03 -0.73946498217E+02 -0.96639900882E+02  0.18258780980E+03  0.00000000000E+00 0.  1.
         22    1    3    3    0    0 -0.21046259572E+01 -0.36577886980E+02  0.26436532948E+02  0.45180322494E+02  0.00000000000E+00 0.  1.
</event>
<event>
 7    1  0.5676357E-006  0.6685741E+02  0.7818608E-02  0.1384438E+00
          2   -1    0    0  502    0  0.00000000000E+00  0.00000000000E+00  0.69908706664E+02  0.69908706664E+02  0.00000000000E+00 0. -1.
          1   -1    0    0  501    0 -0.00000000000E+00 -0.00000000000E+00 -0.41827349861E+03  0.41827349861E+03  0.00000000000E+00 0. -1.
         25    2    1    2    0    0 -0.92511058931E+01 -0.44087732326E+02 -0.24730757198E+03  0.28073939287E+03  0.12499704177E+03 0.  0.
          2    1    1    2  501    0  0.64292307384E+02  0.67854998986E+02 -0.11264622264E+03  0.14637955168E+03  0.00000000000E+00 0. -1.
          1    1    1    2  502    0 -0.55041201491E+02 -0.23767266659E+02  0.11589002674E+02  0.61063260714E+02  0.00000000000E+00 0. -1.
         22    1    3    3    0    0 -0.48996180519E+02 -0.41939412963E+02 -0.22713943044E+03  0.23611831975E+03  0.00000000000E+00 0.  1.
         22    1    3    3    0    0  0.39745074625E+02 -0.21483193631E+01 -0.20168141542E+02  0.44621073119E+02  0.00000000000E+00 0.  1.
</event>
<event>
 7    1  0.5676357E-006  0.7081848E+02  0.7818608E-02  0.1437284E+00
          2   -1    0    0  502    0  0.00000000000E+00  0.00000000000E+00  0.55728578894E+03  0.55728578894E+03  0.00000000000E+00 0. -1.
          1   -1    0    0  501    0 -0.00000000000E+00 -0.00000000000E+00 -0.39047164244E+03  0.39047164244E+03  0.00000000000E+00 0. -1.
         25    2    1    2    0    0  0.86700131418E+01 -0.40964156645E+02 -0.11276204956E+03  0.17347673141E+03  0.12500266102E+03 0.  0.
          2    1    1    2  501    0 -0.24093054276E+02 -0.28721005235E+02 -0.24349440037E+03  0.24636333822E+03  0.00000000000E+00 0. -1.
          1    1    1    2  502    0  0.15423041134E+02  0.69685161880E+02  0.52307059643E+03  0.52791736175E+03  0.00000000000E+00 0. -1.
         22    1    3    3    0    0  0.58839268805E+01  0.43602956024E+02 -0.21313702831E+02  0.48888774764E+02  0.00000000000E+00 0. -1.
         22    1    3    3    0    0  0.27860862613E+01 -0.84567112668E+02 -0.91448346733E+02  0.12458795665E+03  0.00000000000E+00 0. -1.
</event>
<event>
 7    1  0.5676357E-006  0.1847538E+03  0.7818608E-02  0.1187296E+00
          2   -1    0    0  502    0  0.00000000000E+00  0.00000000000E+00  0.86591579057E+03  0.86591579057E+03  0.00000000000E+00 0. -1.
          1   -1    0    0  501    0 -0.00000000000E+00 -0.00000000000E+00 -0.13598120001E+04  0.13598120001E+04  0.00000000000E+00 0. -1.
         25    2    1    2    0    0  0.15006920648E+02 -0.31764020855E+03 -0.51129199806E+03  0.61495081594E+03  0.12499795594E+03 0.  0.
          2    1    1    2  501    0 -0.34882001771E+02  0.13633972645E+03 -0.78009934783E+03  0.79269178596E+03  0.00000000000E+00 0. -1.
          1    1    1    2  502    0  0.19875081122E+02  0.18130048210E+03  0.79749513632E+03  0.81808518879E+03  0.00000000000E+00 0. -1.
         22    1    3    3    0    0  0.26940220286E+02 -0.12994728121E+03 -0.11227612774E+03  0.17383325408E+03  0.00000000000E+00 0.  1.
         22    1    3    3    0    0 -0.11933299638E+02 -0.18769292734E+03 -0.39901587032E+03  0.44111756186E+03  0.00000000000E+00 0.  1.
</event>
<event>
 7    1  0.5676357E-006  0.5196477E+02  0.7818608E-02  0.1549790E+00
          2   -1    0    0  502    0  0.00000000000E+00  0.00000000000E+00  0.12200004159E+03  0.12200004159E+03  0.00000000000E+00 0. -1.
          1   -1    0    0  501    0 -0.00000000000E+00 -0.00000000000E+00 -0.10437868445E+04  0.10437868445E+04  0.00000000000E+00 0. -1.
         25    2    1    2    0    0  0.53633104998E+02 -0.68565019691E+00 -0.60419970914E+03  0.61932361988E+03  0.12500990980E+03 0.  0.
          2    1    1    2  501    0 -0.64283484432E+01  0.22493580851E+02 -0.42578060858E+03  0.42642280836E+03  0.00000000000E+00 0. -1.
          1    1    1    2  502    0 -0.47204756554E+02 -0.21807930654E+02  0.10819351479E+03  0.12004045786E+03  0.00000000000E+00 0. -1.
         22    1    3    3    0    0 -0.33398945152E+02  0.10890608477E+02 -0.74139794844E+02  0.82041477741E+02  0.00000000000E+00 0.  1.
         22    1    3    3    0    0  0.87032050150E+02 -0.11576258674E+02 -0.53005991429E+03  0.53728214214E+03  0.00000000000E+00 0.  1.
</event>
<event>
 7    1  0.5676357E-006  0.1220334E+03  0.7818608E-02  0.1266265E+00
          2   -1    0    0  502    0  0.00000000000E+00  0.00000000000E+00  0.10088055462E+04  0.10088055462E+04  0.00000000000E+00 0. -1.
          1   -1    0    0  501    0 -0.00000000000E+00 -0.00000000000E+00 -0.49841705915E+03  0.49841705915E+03  0.00000000000E+00 0. -1.
         25    2    1    2    0    0  0.90950635667E+01  0.17532417248E+03 -0.70581156960E+02  0.22677781868E+03  0.12500077476E+03 0.  0.
          2    1    1    2  501    0  0.53040239978E+02 -0.10507585988E+03 -0.33737799182E+03  0.35732074213E+03  0.00000000000E+00 0. -1.
          1    1    1    2  502    0 -0.62135303545E+02 -0.70248312604E+02  0.91834763585E+03  0.92312404456E+03  0.00000000000E+00 0. -1.
         22    1    3    3    0    0  0.36319767016E+02  0.16147084603E+03 -0.18681795187E+02  0.16655620393E+03  0.00000000000E+00 0. -1.
         22    1    3    3    0    0 -0.27224703449E+02  0.13853326449E+02 -0.51899361773E+02  0.60221614758E+02  0.00000000000E+00 0. -1.
</event>
<event>
 7    1  0.5676357E-006  0.5297464E+02  0.7818608E-02  0.1471212E+00
          2   -1    0    0  502    0  0.00000000000E+00  0.00000000000E+00  0.50128404853E+03  0.50128404853E+03  0.00000000000E+00 0. -1.
          1   -1    0    0  501    0 -0.00000000000E+00 -0.00000000000E+00 -0.68020810335E+02  0.68020810335E+02  0.00000000000E+00 0. -1.
         25    2    1    2    0    0 -0.34126543083E+02 -0.25381980938E+02  0.26937369187E+02  0.13475297327E+03  0.12499550411E+03 0.  0.
          2    1    1    2  501    0  0.68569577689E+02  0.68986324453E+01  0.78727959622E+02  0.10463015694E+03  0.00000000000E+00 0. -1.
          1    1    1    2  502    0 -0.34443034606E+02  0.18483348493E+02  0.32759790939E+03  0.32992172866E+03  0.00000000000E+00 0. -1.
         22    1    3    3    0    0 -0.45336846930E+02 -0.53390927723E+02  0.58376431887E+02  0.91180198796E+02  0.00000000000E+00 0. -1.
         22    1    3    3    0    0  0.11210303847E+02  0.28008946785E+02 -0.31439062700E+02  0.43572774478E+02  0.00000000000E+00 0. -1.
</event>
<event>
 7    1  0.5676357E-006  0.8860917E+02  0.7818608E-02  0.1465071E+00
          2   -1    0    0  502    0  0.00000000000E+00  0.00000000000E+00  0.13629262294E+04  0.13629262294E+04  0.00000000000E+00 0. -1.
          1   -1    0    0  501    0 -0.00000000000E+00 -0.00000000000E+00 -0.28080349103E+03  0.28080349103E+03  0.00000000000E+00 0. -1.
         25    2    1    2    0    0  0.23110445002E+02  0.69424542754E+02  0.27767398563E+03  0.31318042993E+03  0.12500111837E+03 0.  0.
          2    1    1    2  501    0 -0.80912294687E+01 -0.88683242304E+02 -0.25536879393E+03  0.27045037691E+03  0.00000000000E+00 0. -1.
          1    1    1    2  502    0 -0.15019215534E+02  0.19258699550E+02  0.10598175467E+04  0.10600989136E+04  0.00000000000E+00 0. -1.
         22    1    3    3    0    0  0.41990768617E+02  0.97990811653E+02  0.17466855427E+03  0.20463266521E+03  0.00000000000E+00 0.  1.
         22    1    3    3    0    0 -0.18880323615E+02 -0.28566268898E+02  0.10300543136E+03  0.10854776473E+03  0.00000000000E+00 0.  1.
</event>
<event>
 7    1  0.5676357E-006  0.1227713E+03  0.7818608E-02  0.1242754E+00
          2   -1    0    0  502    0  0.00000000000E+00  0.00000000000E+00  0.40874068278E+03  0.40874068278E+03  0.00000000000E+00 0. -1.
          1   -1    0    0  501    0 -0.00000000000E+00 -0.00000000000E+00 -0.20574216528E+03  0.20574216528E+03  0.00000000000E+00 0. -1.
         25    2    1    2    0    0 -0.75519309073E+01 -0.91476367269E+02  0.19661025768E+03  0.25041034049E+03  0.12499915108E+03 0.  0.
          2    1    1    2  501    0  0.96394076216E+02 -0.76032662841E+02 -0.89176460561E+02  0.15174065001E+03  0.00000000000E+00 0. -1.
          1    1    1    2  502    0 -0.88842145309E+02  0.16750903011E+03  0.95564720386E+02  0.21233185756E+03  0.00000000000E+00 0. -1.
         22    1    3    3    0    0  0.24232760277E+02  0.37803524992E+01  0.12422078352E+03  0.12661880110E+03  0.00000000000E+00 0.  1.
         22    1    3    3    0    0 -0.31784691184E+02 -0.95256719768E+02  0.72389474163E+02  0.12379153939E+03  0.00000000000E+00 0.  1.
</event>
<event>
 7    1  0.5676357E-006  0.1287699E+03  0.7818608E-02  0.1386996E+00
          2   -1    0    0  502    0  0.00000000000E+00  0.00000000000E+00  0.39927500117E+04  0.39927500117E+04  0.00000000000E+00 0. -1.
          1   -1    0    0  501    0 -0.00000000000E+00 -0.00000000000E+00 -0.65433994146E+03  0.65433994146E+03  0.00000000000E+00 0. -1.
         25    2    1    2    0    0  0.21911005452E+02  0.13945482559E+03 -0.23837915358E+03  0.30393665929E+03  0.12500052584E+03 0.  0.
          2    1    1    2  501    0  0.23768410274E+02 -0.19098108102E+02 -0.38152742246E+03  0.38274384273E+03  0.00000000000E+00 0. -1.
          1    1    1    2  502    0 -0.45679415725E+02 -0.12035671748E+03  0.39583166463E+04  0.39604094512E+04  0.00000000000E+00 0. -1.
         22    1    3    3    0    0  0.18437102829E+02  0.39109724077E+02  0.21512305158E+01  0.43291166198E+02  0.00000000000E+00 0. -1.
         22    1    3    3    0    0  0.34739026226E+01  0.10034510151E+03 -0.24053038409E+03  0.26064549309E+03  0.00000000000E+00 0. -1.
</event>
<event>
 7    1  0.5676357E-006  0.2156754E+03  0.7818608E-02  0.1233942E+00
          2   -1    0    0  502    0  0.00000000000E+00  0.00000000000E+00  0.26951774765E+04  0.26951774765E+04  0.00000000000E+00 0. -1.
          1   -1    0    0  501    0 -0.00000000000E+00 -0.00000000000E+00 -0.43348177245E+03  0.43348177245E+03  0.00000000000E+00 0. -1.
         25    2    1    2    0    0  0.65800192725E+02  0.27844367820E+03  0.67657940227E+03  0.74514772421E+03  0.12499958415E+03 0.  0.
          2    1    1    2  501    0 -0.47046594308E+02 -0.20759517832E+03 -0.37008705275E+03  0.42693508489E+03  0.00000000000E+00 0. -1.
          1    1    1    2  502    0 -0.18753598416E+02 -0.70848499874E+02  0.19552033545E+04  0.19565764398E+04  0.00000000000E+00 0. -1.
         22    1    3    3    0    0  0.40287378524E+02  0.31362514047E+02  0.21497306357E+03  0.22095270584E+03  0.00000000000E+00 0. -1.
         22    1    3    3    0    0  0.25512814201E+02  0.24708116415E+03  0.46160633870E+03  0.52419501838E+03  0.00000000000E+00 0. -1.
</event>
<event>
 7    1  0.5676357E-006  0.7498133E+02  0.7818608E-02  0.1427133E+00
          2   -1    0    0  502    0  0.00000000000E+00  0.00000000000E+00  0.30033950959E+04  0.30033950959E+04  0.00000000000E+00 0. -1.
          1   -1    0    0  501    0 -0.00000000000E+00 -0.00000000000E+00 -0.32831613516E+02  0.32831613516E+02  0.00000000000E+00 0. -1.
         25    2    1    2    0    0 -0.20269921517E+02 -0.41935293824E+02  0.42162417422E+03  0.44221962324E+03  0.12498724859E+03 0.  0.
          2    1    1    2  501    0  0.11581014128E+02  0.79164493946E+02  0.49092654119E+02  0.93868129194E+02  0.00000000000E+00 0. -1.
          1    1    1    2  502    0  0.86889073889E+01 -0.37229200121E+02  0.24998466540E+04  0.25001389570E+04  0.00000000000E+00 0. -1.
         22    1    3    3    0    0  0.12951639279E+02 -0.10404116033E+02  0.37989555839E+03  0.38025863024E+03  0.00000000000E+00 0. -1.
         22    1    3    3    0    0 -0.33221560796E+02 -0.31531177791E+02  0.41728615828E+02  0.61960993000E+02  0.00000000000E+00 0. -1.
</event>
<event>
 7    1  0.5676357E-006  0.1429527E+03  0.7818608E-02  0.1238881E+00
          2   -1    0    0  502    0  0.00000000000E+00  0.00000000000E+00  0.50684799067E+03  0.50684799067E+03  0.00000000000E+00 0. -1.
          1   -1    0    0  501    0 -0.00000000000E+00 -0.00000000000E+00 -0.25026638981E+03  0.25026638981E+03  0.00000000000E+00 0. -1.
         25    2    1    2    0    0  0.52930218113E+02 -0.69537311820E+02  0.76794243762E+01  0.15271201387E+03  0.12499975959E+03 0.  0.
          2    1    1    2  501    0 -0.15671822720E+03  0.86293230568E+02 -0.12353441375E+03  0.21741176546E+03  0.00000000000E+00 0. -1.
          1    1    1    2  502    0  0.10378800909E+03 -0.16755918748E+02  0.37243659022E+03  0.38699060115E+03  0.00000000000E+00 0. -1.
         22    1    3    3    0    0  0.52045936602E+00 -0.27690177943E+02 -0.54577984661E+02  0.61202722506E+02  0.00000000000E+00 0.  1.
         22    1    3    3    0    0  0.52409758747E+02 -0.41847133877E+02  0.62257409037E+02  0.91509291363E+02  0.00000000000E+00 0.  1.
</event>
<event>
 7    1  0.5676357E-006  0.8683829E+02  0.7818608E-02  0.1350184E+00
          2   -1    0    0  502    0  0.00000000000E+00  0.00000000000E+00  0.24553735712E+03  0.24553735712E+03  0.00000000000E+00 0. -1.
          1   -1    0    0  501    0 -0.00000000000E+00 -0.00000000000E+00 -0.67730475518E+03  0.67730475518E+03  0.00000000000E+00 0. -1.
         25    2    1    2    0    0  0.24707365070E+02  0.13612302199E+03 -0.10540961319E+03  0.21418870543E+03  0.12500273587E+03 0.  0.
          2    1    1    2  501    0 -0.35899831617E+02 -0.75788495937E+02 -0.50906005774E+03  0.51592134712E+03  0.00000000000E+00 0. -1.
          1    1    1    2  502    0  0.11192466547E+02 -0.60334526055E+02  0.18270227288E+03  0.19273205975E+03  0.00000000000E+00 0. -1.
         22    1    3    3    0    0  0.48947908850E+01 -0.10820745005E+02 -0.56982997996E+02  0.58207469975E+02  0.00000000000E+00 0. -1.
         22    1    3    3    0    0  0.19812574185E+02  0.14694376700E+03 -0.48426615194E+02  0.15598123546E+03  0.00000000000E+00 0. -1.
</event>
<event>
 7    1  0.5676357E-006  0.1296477E+03  0.7818608E-02  0.1249723E+00
          2   -1    0    0  502    0  0.00000000000E+00  0.00000000000E+00  0.28049269701E+04  0.28049269701E+04  0.00000000000E+00 0. -1.
          1   -1    0    0  501    0 -0.00000000000E+00 -0.00000000000E+00 -0.20645446919E+02  0.20645446919E+02  0.00000000000E+00 0. -1.
         25    2    1    2    0    0 -0.11350874702E+02 -0.85006246987E+02  0.95764152239E+03  0.96956531700E+03  0.12499885657E+03 0.  0.
          2    1    1    2  501    0 -0.11953235381E+03  0.50204906713E+02  0.35122699241E+03  0.37439139475E+03  0.00000000000E+00 0. -1.
          1    1    1    2  502    0  0.13088322852E+03  0.34801340274E+02  0.14754130084E+04  0.14816157053E+04  0.00000000000E+00 0. -1.
         22    1    3    3    0    0 -0.65454004078E+02 -0.61362607397E+02  0.48264945339E+03  0.49091760112E+03  0.00000000000E+00 0.  1.
         22    1    3    3    0    0  0.54103129376E+02 -0.23643639589E+02  0.47499206900E+03  0.47864771588E+03  0.00000000000E+00 0.  1.
</event>
<event>
 7    1  0.5676357E-006  0.6326069E+02  0.7818608E-02  0.1483041E+00
          2   -1    0    0  502    0  0.00000000000E+00  0.00000000000E+00  0.16811740138E+04  0.16811740138E+04  0.00000000000E+00 0. -1.
          1   -1    0    0  501    0 -0.00000000000E+00 -0.00000000000E+00 -0.62865625849E+02  0.62865625849E+02  0.00000000000E+00 0. -1.
         25    2    1    2    0    0 -0.89220597595E+02  0.56044842147E+01  0.21389319185E+03  0.26336148343E+03  0.12496898878E+03 0.  0.
          2    1    1    2  501    0  0.28520626465E+02  0.96199109524E+01 -0.31402045503E+02  0.43497784800E+02  0.00000000000E+00 0. -1.
          1    1    1    2  502    0  0.60699971130E+02 -0.15224395167E+02  0.14358172416E+04  0.14371803715E+04  0.00000000000E+00 0. -1.
         22    1    3    3    0    0 -0.81696293455E+02  0.33532848235E+02  0.59978925280E+02  0.10675302222E+03  0.00000000000E+00 0.  1.
         22    1    3    3    0    0 -0.75243041403E+01 -0.27928364020E+02  0.15391426657E+03  0.15660846122E+03  0.00000000000E+00 0.  1.
</event>
<event>
 7    1  0.5676357E-006  0.1307850E+03  0.7818608E-02  0.1324862E+00
          2   -1    0    0  502    0  0.00000000000E+00  0.00000000000E+00  0.26560823503E+03  0.26560823503E+03  0.00000000000E+00 0. -1.
          1   -1    0    0  501    0 -0.00000000000E+00 -0.00000000000E+00 -0.21029014224E+04  0.21029014224E+04  0.00000000000E+00 0. -1.
         25    2    1    2    0    0 -0.17020510361E+03 -0.45881313897E+02 -0.51227678464E+03  0.55599139848E+03  0.12499623530E+03 0.  0.
          2    1    1    2  501    0  0.12071360891E+03  0.34509589583E+02 -0.15635786675E+04  0.15686111489E+04  0.00000000000E+00 0. -1.
          1    1    1    2  502    0  0.49491494704E+02  0.11371724314E+02  0.23856226475E+03  0.24390711003E+03  0.00000000000E+00 0. -1.
         22    1    3    3    0    0 -0.15471063775E+03 -0.77125554816E+02 -0.47228859520E+03  0.50293165519E+03  0.00000000000E+00 0. -1.
         22    1    3    3    0    0 -0.15494465862E+02  0.31244240919E+02 -0.39988189446E+02  0.53059743291E+02  0.00000000000E+00 0. -1.
</event>
<event>
 7    1  0.5676357E-006  0.4765887E+02  0.7818608E-02  0.1517626E+00
          2   -1    0    0  502    0  0.00000000000E+00  0.00000000000E+00  0.37034775508E+03  0.37034775508E+03  0.00000000000E+00 0. -1.
          1   -1    0    0  501    0 -0.00000000000E+00 -0.00000000000E+00 -0.85981471620E+03  0.85981471620E+03  0.00000000000E+00 0. -1.
         25    2    1    2    0    0 -0.23562027336E+02 -0.71157245683E+02 -0.27775450997E+02  0.14837257936E+03  0.12499769551E+03 0.  0.
          2    1    1    2  501    0  0.30309680809E+01  0.47261375597E+02 -0.77021120994E+03  0.77166581647E+03  0.00000000000E+00 0. -1.
          1    1    1    2  502    0  0.20531059255E+02  0.23895870086E+02  0.30851969981E+03  0.31012407545E+03  0.00000000000E+00 0. -1.
         22    1    3    3    0    0  0.11458644635E+02 -0.66947017305E+02  0.34968395883E+02  0.76393667103E+02  0.00000000000E+00 0. -1.
         22    1    3    3    0    0 -0.35020671972E+02 -0.42102283785E+01 -0.62743846880E+02  0.71978912256E+02  0.00000000000E+00 0. -1.
</event>
<event>
 7    1  0.5676357E-006  0.6655747E+02  0.7818608E-02  0.1431590E+00
          2   -1    0    0  502    0  0.00000000000E+00  0.00000000000E+00  0.10905187380E+04  0.10905187380E+04  0.00000000000E+00 0. -1.
          1   -1    0    0  501    0 -0.00000000000E+00 -0.00000000000E+00 -0.11107761289E+04  0.11107761289E+04  0.00000000000E+00 0. -1.
         25    2    1    2    0    0 -0.13250406435E+02  0.98746751947E+02  0.22530042100E+02  0.16143189345E+03  0.12500463646E+03 0.  0.
          2    1    1    2  501    0 -0.11455671449E+02 -0.65232949894E+02 -0.10398371572E+04  0.10419442805E+04  0.00000000000E+00 0. -1.
          1    1    1    2  502    0  0.24706077884E+02 -0.33513802053E+02  0.99704972418E+03  0.99791869293E+03  0.00000000000E+00 0. -1.
         22    1    3    3    0    0  0.44544581525E+02  0.42311695268E+02  0.46636810268E+02  0.77132946084E+02  0.00000000000E+00 0. -1.
         22    1    3    3    0    0 -0.57794987960E+02  0.56435056679E+02 -0.24106768169E+02  0.84298947367E+02  0.00000000000E+00 0. -1.
</event>
<event>
 7    1  0.5676357E-006  0.5272660E+02  0.7818608E-02  0.1492042E+00
          2   -1    0    0  502    0  0.00000000000E+00  0.00000000000E+00  0.78201654638E+02  0.78201654638E+02  0.00000000000E+00 0. -1.
          1   -1    0    0  501    0 -0.00000000000E+00 -0.00000000000E+00 -0.53781148835E+03  0.53781148835E+03  0.00000000000E+00 0. -1.
         25    2    1    2    0    0  0.18924355803E+02  0.19776248050E+02 -0.15077655309E+03  0.19775625330E+03  0.12499894211E+03 0.  0.
          2    1    1    2  501    0 -0.52705556522E+02 -0.16818410720E+02 -0.35594015816E+03  0.36021400697E+03  0.00000000000E+00 0. -1.
          1    1    1    2  502    0  0.33781200719E+02 -0.29578373298E+01  0.47106877533E+02  0.58042882721E+02  0.00000000000E+00 0. -1.
         22    1    3    3    0    0 -0.53220419121E+02  0.16157992636E+02 -0.69599788307E+02  0.89093345822E+02  0.00000000000E+00 0.  1.
         22    1    3    3    0    0  0.72144774924E+02  0.36182554137E+01 -0.81176764783E+02  0.10866290748E+03  0.00000000000E+00 0.  1.
</event>
<event>
 7    1  0.5676357E-006  0.3256489E+03  0.7818608E-02  0.1101268E+00
          2   -1    0    0  502    0  0.00000000000E+00  0.00000000000E+00  0.15692237352E+04  0.15692237352E+04  0.00000000000E+00 0. -1.
          1   -1    0    0  501    0 -0.00000000000E+00 -0.00000000000E+00 -0.10458813915E+04  0.10458813915E+04  0.00000000000E+00 0. -1.
         25    2    1    2    0    0  0.42967996671E+03 -0.16005487434E+03  0.30270400510E+03  0.56346889919E+03  0.12500019626E+03 0.  0.
          2    1    1    2  501    0 -0.21828324534E+03  0.23381020616E+03 -0.87589765678E+03  0.93247600122E+03  0.00000000000E+00 0. -1.
          1    1    1    2  502    0 -0.21139672137E+03 -0.73755331821E+02  0.10965359954E+04  0.11191602262E+04  0.00000000000E+00 0. -1.
         22    1    3    3    0    0  0.18800212093E+03 -0.45705008321E+02  0.19655324548E+03  0.27580232698E+03  0.00000000000E+00 0. -1.
         22    1    3    3    0    0  0.24167784578E+03 -0.11434986602E+03  0.10615075961E+03  0.28766657221E+03  0.00000000000E+00 0. -1.
</event>
<event>
 7    1  0.5676357E-006  0.1013651E+03  0.7818608E-02  0.1277642E+00
          2   -1    0    0  502    0  0.00000000000E+00  0.00000000000E+00  0.70480843575E+03  0.70480843575E+03  0.00000000000E+00 0. -1.
          1   -1    0    0  501    0 -0.00000000000E+00 -0.00000000000E+00 -0.36539064256E+03  0.36539064256E+03  0.00000000000E+00 0. -1.
         25    2    1    2    0    0 -0.12905754819E+02  0.20411588876E+02  0.21379433366E+03  0.24883132294E+03  0.12500327477E+03 0.  0.
          2    1    1    2  501    0  0.99848612116E+02  0.31341827433E+02 -0.33437687951E+03  0.35037116468E+03  0.00000000000E+00 0. -1.
          1    1    1    2  502    0 -0.86942857298E+02 -0.51753416309E+02  0.46000033904E+03  0.47099659070E+03  0.00000000000E+00 0. -1.
         22    1    3    3    0    0  0.16203497662E+02  0.26167650657E+02  0.21683001318E+03  0.21900354767E+03  0.00000000000E+00 0. -1.
         22    1    3    3    0    0 -0.29109252481E+02 -0.57560617808E+01 -0.30356795204E+01  0.29827775267E+02  0.00000000000E+00 0. -1.
</event>
<event>
 7    1  0.5676357E-006  0.7162477E+02  0.7818608E-02  0.1445626E+00
          2   -1    0    0  502    0  0.00000000000E+00  0.00000000000E+00  0.23466204954E+04  0.23466204954E+04  0.00000000000E+00 0. -1.
          1   -1    0    0  501    0 -0.00000000000E+00 -0.00000000000E+00 -0.31684120298E+03  0.31684120298E+03  0.00000000000E+00 0. -1.
         25    2    1    2    0    0  0.53389804657E+02  0.11918090948E+02  0.42584906390E+03  0.44717419773E+03  0.12499930303E+03 0.  0.
          2    1    1    2  501    0 -0.69269323743E+02  0.19082196584E+02 -0.30180214764E+03  0.31023685429E+03  0.00000000000E+00 0. -1.
          1    1    1    2  502    0  0.15879519087E+02 -0.31000287532E+02  0.19057323762E+04  0.19060506464E+04  0.00000000000E+00 0. -1.
         22    1    3    3    0    0  0.89036238888E+02 -0.16250675010E+02  0.26485639911E+03  0.27989363769E+03  0.00000000000E+00 0.  1.
         22    1    3    3    0    0 -0.35646434232E+02  0.28168765958E+02  0.16099266480E+03  0.16728056004E+03  0.00000000000E+00 0.  1.
</event>
<event>
 7    1  0.5676357E-006  0.5057355E+02  0.7818608E-02  0.1451838E+00
          2   -1    0    0  502    0  0.00000000000E+00  0.00000000000E+00  0.53936137502E+03  0.53936137502E+03  0.00000000000E+00 0. -1.
          1   -1    0    0  501    0 -0.00000000000E+00 -0.00000000000E+00 -0.16743406178E+04  0.16743406178E+04  0.00000000000E+00 0. -1.
         25    2    1    2    0    0  0.18858651815E+02  0.68658332198E+02 -0.17816969726E+03  0.22899512087E+03  0.12499883611E+03 0.  0.
          2    1    1    2  501    0  0.23394312392E+02 -0.40900355908E+02 -0.14691363695E+04  0.14698917665E+04  0.00000000000E+00 0. -1.
          1    1    1    2  502    0 -0.42252964206E+02 -0.27757976289E+02  0.51232682400E+03  0.51481510547E+03  0.00000000000E+00 0. -1.
         22    1    3    3    0    0  0.72296438600E+02  0.37381437487E+02 -0.91200918764E+02  0.12223646954E+03  0.00000000000E+00 0. -1.
         22    1    3    3    0    0 -0.53437786785E+02  0.31276894711E+02 -0.86968778495E+02  0.10675865132E+03  0.00000000000E+00 0. -1.
</event>
<event>
 7    1  0.5676357E-006  0.1004116E+03  0.7818608E-02  0.1350190E+00
          2   -1    0    0  502    0  0.00000000000E+00  0.00000000000E+00  0.20540744028E+04  0.20540744028E+04  0.00000000000E+00 0. -1.
          1   -1    0    0  501    0 -0.00000000000E+00 -0.00000000000E+00 -0.38231498727E+03  0.38231498727E+03  0.00000000000E+00 0. -1.
         25    2    1    2    0    0  0.14425900418E+03  0.20319180669E+02  0.25435868969E+03  0.31866450157E+03  0.12500076859E+03 0.  0.
          2    1    1    2  501    0 -0.51455358420E+02  0.12976830091E+02 -0.34676710430E+03  0.35080404310E+03  0.00000000000E+00 0. -1.
          1    1    1    2  502    0 -0.92803645757E+02 -0.33296010760E+02  0.17641678302E+04  0.17669208454E+04  0.00000000000E+00 0. -1.
         22    1    3    3    0    0  0.10381386690E+03 -0.40849412513E+02  0.10959683866E+03  0.15638881196E+03  0.00000000000E+00 0.  1.
         22    1    3    3    0    0  0.40445137273E+02  0.61168593182E+02  0.14476185104E+03  0.16227568961E+03  0.00000000000E+00 0.  1.
</event>
<event>
 7    1  0.5676357E-006  0.1282439E+03  0.7818608E-02  0.1259660E+00
          2   -1    0    0  502    0  0.00000000000E+00  0.00000000000E+00  0.17536169249E+04  0.17536169249E+04  0.00000000000E+00 0. -1.
          1   -1    0    0  501    0 -0.00000000000E+00 -0.00000000000E+00 -0.12261248828E+04  0.12261248828E+04  0.00000000000E+00 0. -1.
         25    2    1    2    0    0 -0.11419947912E+03  0.31778008730E+02  0.25584411839E+02  0.17415326921E+03  0.12499374455E+03 0.  0.
          2    1    1    2  501    0  0.11328408421E+03  0.63416653959E+02 -0.11468047320E+04  0.11541299966E+04  0.00000000000E+00 0. -1.
          1    1    1    2  502    0  0.91539490971E+00 -0.95194662689E+02  0.16487123623E+04  0.16514585418E+04  0.00000000000E+00 0. -1.
         22    1    3    3    0    0 -0.13722165354E+02  0.18970837185E+02 -0.44978516823E+02  0.50707568085E+02  0.00000000000E+00 0. -1.
         22    1    3    3    0    0 -0.10047731376E+03  0.12807171545E+02  0.70562928662E+02  0.12344570112E+03  0.00000000000E+00 0. -1.
</event>
<event>
 7    1  0.5676357E-006  0.1258321E+03  0.7818608E-02  0.1336100E+00
          2   -1    0    0  502    0  0.00000000000E+00  0.00000000000E+00  0.46439512964E+03  0.46439512964E+03  0.00000000000E+00 0. -1.
          1   -1    0    0  501    0 -0.00000000000E+00 -0.00000000000E+00 -0.61347976919E+03  0.61347976919E+03  0.00000000000E+00 0. -1.
         25    2    1    2    0    0 -0.49543848385E+02  0.70492021942E+02  0.31258672494E+02  0.15499943590E+03  0.12499600975E+03 0.  0.
          2    1    1    2  501    0  0.52058184310E+02 -0.11824104418E+03 -0.54245145299E+03  0.55762404713E+03  0.00000000000E+00 0. -1.
          1    1    1    2  502    0 -0.25143359253E+01  0.47749022238E+02  0.36210814094E+03  0.36525141580E+03  0.00000000000E+00 0. -1.
         22    1    3    3    0    0  0.13031782255E+02  0.10841385600E+02 -0.39692201231E+02  0.43160558720E+02  0.00000000000E+00 0.  1.
         22    1    3    3    0    0 -0.62575630640E+02  0.59650636341E+02  0.70950873725E+02  0.11183887718E+03  0.00000000000E+00 0.  1.
</event>
<event>
 7    1  0.5676357E-006  0.2321692E+03  0.7818608E-02  0.1181468E+00
          2   -1    0    0  502    0  0.00000000000E+00  0.00000000000E+00  0.30467408711E+04  0.30467408711E+04  0.00000000000E+00 0. -1.
          1   -1    0    0  501    0 -0.00000000000E+00 -0.00000000000E+00 -0.70972785663E+03  0.70972785663E+03  0.00000000000E+00 0. -1.
         25    2    1    2    0    0  0.31646367871E+03 -0.37316822732E+02  0.17658573071E+03  0.38516192520E+03  0.12500153254E+03 0.  0.
          2    1    1    2  501    0 -0.91163289504E+02  0.77280347536E+02 -0.59475277060E+03  0.60664145556E+03  0.00000000000E+00 0. -1.
          1    1    1    2  502    0 -0.22530038920E+03 -0.39963524803E+02  0.27551800544E+04  0.27646653470E+04  0.00000000000E+00 0. -1.
         22    1    3    3    0    0  0.11584111703E+03  0.30555838917E+02  0.11132611598E+03  0.16354304567E+03  0.00000000000E+00 0. -1.
         22    1    3    3    0    0  0.20062256167E+03 -0.67872661649E+02  0.65259614729E+02  0.22161887953E+03  0.00000000000E+00 0. -1.
</event>
<event>
 7    1  0.5676357E-006  0.5810187E+02  0.7818608E-02  0.1459834E+00
          2   -1    0    0  502    0  0.00000000000E+00  0.00000000000E+00  0.13414391221E+04  0.13414391221E+04  0.00000000000E+00 0. -1.
          1   -1    0    0  501    0 -0.00000000000E+00 -0.00000000000E+00 -0.26957823381E+03  0.26957823381E+03  0.00000000000E+00 0. -1.
         25    2    1    2    0    0  0.91018115372E+02  0.17355602899E+02  0.26409310425E+03  0.30652287318E+03  0.12500235916E+03 0.  0.
          2    1    1    2  501    0 -0.34108350338E+02 -0.18253653433E+02 -0.24608430232E+03  0.24910652194E+03  0.00000000000E+00 0. -1.
          1    1    1    2  502    0 -0.56909765034E+02  0.89805053345E+00  0.10538520864E+04  0.10553879608E+04  0.00000000000E+00 0. -1.
         22    1    3    3    0    0  0.38863123259E+02 -0.40497802328E+02  0.39037438848E+02  0.68369115650E+02  0.00000000000E+00 0. -1.
         22    1    3    3    0    0  0.52154992113E+02  0.57853405228E+02  0.22505566540E+03  0.23815375753E+03  0.00000000000E+00 0. -1.
</event>
<event>
 7    1  0.5676357E-006  0.5906753E+02  0.7818608E-02  0.1478284E+00
          2   -1    0    0  502    0  0.00000000000E+00  0.00000000000E+00  0.13729562675E+03  0.13729562675E+03  0.00000000000E+00 0. -1.
          1   -1    0    0  501    0 -0.00000000000E+00 -0.00000000000E+00 -0.97280292391E+03  0.97280292391E+03  0.00000000000E+00 0. -1.
         25    2    1    2    0    0 -0.59961112695E+02  0.40204310782E+02 -0.41576348629E+03  0.44010927997E+03  0.12500072058E+03 0.  0.
          2    1    1    2  501    0  0.31339012567E+02  0.11365888557E+02 -0.53737061361E+03  0.53840365294E+03  0.00000000000E+00 0. -1.
          1    1    1    2  502    0  0.28622100128E+02 -0.51570199339E+02  0.11762680274E+03  0.13158561775E+03  0.00000000000E+00 0. -1.
         22    1    3    3    0    0  0.90031713579E+01  0.43248479459E+02 -0.31430027434E+03  0.31738958792E+03  0.00000000000E+00 0. -1.
         22    1    3    3    0    0 -0.68964284053E+02 -0.30441686773E+01 -0.10146321195E+03  0.12271969205E+03  0.00000000000E+00 0. -1.
</event>
<event>
 7    1  0.5676357E-006  0.5187401E+02  0.7818608E-02  0.1467486E+00
          2   -1    0    0  502    0  0.00000000000E+00  0.00000000000E+00  0.19343881983E+04  0.19343881983E+04  0.00000000000E+00 0. -1.
          1   -1    0    0  501    0 -0.00000000000E+00 -0.00000000000E+00 -0.14711511047E+03  0.14711511047E+03  0.00000000000E+00 0. -1.
         25    2    1    2    0    0 -0.30709103309E+01 -0.44679708744E+02  0.28616149712E+02  0.13583418471E+03  0.12500533928E+03 0.  0.
          2    1    1    2  501    0 -0.38670477117E+02  0.13620767236E+02 -0.88627968115E+02  0.97651665796E+02  0.00000000000E+00 0. -1.
          1    1    1    2  502    0  0.41741387448E+02  0.31058941508E+02  0.18472849062E+04  0.18480174583E+04  0.00000000000E+00 0. -1.
         22    1    3    3    0    0 -0.12502126852E+02  0.23370196205E+02  0.55938740401E+02  0.61900015542E+02  0.00000000000E+00 0.  1.
         22    1    3    3    0    0  0.94312165208E+01 -0.68049904949E+02 -0.27322590689E+02  0.73934169168E+02  0.00000000000E+00 0.  1.
</event>
<event>
 7    1  0.5676357E-006  0.4781194E+02  0.7818608E-02  0.1471718E+00
          2   -1    0    0  502    0  0.00000000000E+00  0.00000000000E+00  0.84390523699E+03  0.84390523699E+03  0.00000000000E+00 0. -1.
          1   -1    0    0  501    0 -0.00000000000E+00 -0.00000000000E+00 -0.33867891858E+03  0.33867891858E+03  0.00000000000E+00 0. -1.
         25    2    1    2    0    0  0.68615720855E+02  0.22009675308E+01  0.92549592916E+02  0.17000932225E+03  0.12499912438E+03 0.  0.
          2    1    1    2  501    0 -0.32264948052E+02  0.28656276029E+02 -0.29759346117E+03  0.30070596462E+03  0.00000000000E+00 0. -1.
          1    1    1    2  502    0 -0.36350772803E+02 -0.30857243560E+02  0.71027018666E+03  0.71186886870E+03  0.00000000000E+00 0. -1.
         22    1    3    3    0    0 -0.13113904635E+02  0.46631885428E+02  0.21718246806E+02  0.53086622398E+02  0.00000000000E+00 0.  1.
         22    1    3    3    0    0  0.81729625489E+02 -0.44430917897E+02  0.70831346110E+02  0.11692269985E+03  0.00000000000E+00 0.  1.
</event>
<event>
 7    1  0.5676357E-006  0.4421421E+02  0.7818608E-02  0.1595819E+00
          2   -1    0    0  502    0  0.00000000000E+00  0.00000000000E+00  0.16782995368E+04  0.16782995368E+04  0.00000000000E+00 0. -1.
          1   -1    0    0  501    0 -0.00000000000E+00 -0.00000000000E+00 -0.93477140913E+02  0.93477140913E+02  0.00000000000E+00 0. -1.
         25    2    1    2    0    0  0.48165252753E+02  0.38788040177E+00  0.14538606773E+03  0.19769169465E+03  0.12499942168E+03 0.  0.
          2    1    1    2  501    0 -0.40126021427E+02  0.18618249879E+02 -0.59979571293E+02  0.74527080961E+02  0.00000000000E+00 0. -1.
          1    1    1    2  502    0 -0.80392313260E+01 -0.19006130280E+02  0.14994158995E+04  0.14995579021E+04  0.00000000000E+00 0. -1.
         22    1    3    3    0    0  0.17115352588E+02  0.97195397626E+01  0.16065367488E+03  0.16185489798E+03  0.00000000000E+00 0.  1.
         22    1    3    3    0    0  0.31049900165E+02 -0.93316593608E+01 -0.15267607159E+02  0.35836796663E+02  0.00000000000E+00 0.  1.
</event>
<event>
 7    1  0.5676357E-006  0.1530268E+03  0.7818608E-02  0.1202758E+00
          2   -1    0    0  502    0  0.00000000000E+00  0.00000000000E+00  0.50508463929E+03  0.50508463929E+03  0.00000000000E+00 0. -1.
          1   -1    0    0  501    0 -0.00000000000E+00 -0.00000000000E+00 -0.12142633238E+04  0.12142633238E+04  0.00000000000E+00 0. -1.
         25    2    1    2    0    0  0.20726393793E+03 -0.95667994546E+02 -0.52925567290E+03  0.58978473643E+03  0.12499505140E+03 0.  0.
          2    1    1    2  501    0 -0.58956326088E+02  0.13076221310E+03 -0.63429596517E+03  0.65031221439E+03  0.00000000000E+00 0. -1.
          1    1    1    2  502    0 -0.14830761185E+03 -0.35094218556E+02  0.45437295352E+03  0.47925101231E+03  0.00000000000E+00 0. -1.
         22    1    3    3    0    0  0.12748041844E+03  0.95152599089E+01 -0.27681868854E+03  0.30491045174E+03  0.00000000000E+00 0. -1.
         22    1    3    3    0    0  0.79783519491E+02 -0.10518325445E+03 -0.25243698436E+03  0.28487428468E+03  0.00000000000E+00 0. -1.
</event>
<event>
 7    1  0.5676357E-006  0.7673807E+02  0.7818608E-02  0.1355059E+00
          2   -1    0    0  502    0  0.00000000000E+00  0.00000000000E+00  0.52523814251E+03  0.52523814251E+03  0.00000000000E+00 0. -1.
          1   -1    0    0  501    0 -0.00000000000E+00 -0.00000000000E+00 -0.29460179255E+03  0.29460179255E+03  0.00000000000E+00 0. -1.
         25    2    1    2    0    0  0.28010859722E+02  0.17709040925E+02  0.17385060870E+03  0.21667282958E+03  0.12499945016E+03 0.  0.
          2    1    1    2  501    0  0.31573144117E+02 -0.69941891925E+02 -0.26286747949E+03  0.27383944831E+03  0.00000000000E+00 0. -1.
          1    1    1    2  502    0 -0.59584003839E+02  0.52232851000E+02  0.31965322076E+03  0.32932765717E+03  0.00000000000E+00 0. -1.
         22    1    3    3    0    0 -0.45646174883E+02 -0.93865731273E+01  0.39551261656E+02  0.61122690836E+02  0.00000000000E+00 0. -1.
         22    1    3    3    0    0  0.73657034605E+02  0.27095614052E+02  0.13429934705E+03  0.15555013875E+03  0.00000000000E+00 0. -1.
</event>
<event>
 7    1  0.5676357E-006  0.3081111E+02  0.7818608E-02  0.1636162E+00
          2   -1    0    0  502    0  0.00000000000E+00  0.00000000000E+00  0.79232450314E+03  0.79232450314E+03  0.00000000000E+00 0. -1.
          1   -1    0    0  501    0 -0.00000000000E+00 -0.00000000000E+00 -0.28506801688E+03  0.28506801688E+03  0.00000000000E+00 0. -1.
         25    2    1    2    0    0  0.45882138075E+02  0.12749800739E+02  0.12867643008E+03  0.18560751223E+03  0.12499918770E+03 0.  0.
          2    1    1    2  501    0 -0.15587689900E+02 -0.17378865801E+02 -0.25570077109E+03  0.25676426034E+03  0.00000000000E+00 0. -1.
          1    1    1    2  502    0 -0.30294448175E+02  0.46290650622E+01  0.63428082728E+03  0.63502074745E+03  0.00000000000E+00 0. -1.
         22    1    3    3    0    0  0.19864351027E+01 -0.17871556290E+01  0.13834209736E+03  0.13836790000E+03  0.00000000000E+00 0.  1.
         22    1    3    3    0    0  0.43895702972E+02  0.14536956368E+02 -0.96656672770E+01  0.47239612231E+02  0.00000000000E+00 0.  1.
</event>
<event>
 7    1  0.5676357E-006  0.1641024E+03  0.7818608E-02  0.1325626E+00
          2   -1    0    0  502    0  0.00000000000E+00  0.00000000000E+00  0.11316215212E+04  0.11316215212E+04  0.00000000000E+00 0. -1.
          1   -1    0    0  501    0 -0.00000000000E+00 -0.00000000000E+00 -0.81209708393E+02  0.81209708393E+02  0.00000000000E+00 0. -1.
         25    2    1    2    0    0 -0.10673393872E+03 -0.92242892186E+02  0.18987200721E+03  0.26754351622E+03  0.12500907615E+03 0.  0.
          2    1    1    2  501    0 -0.39573466101E+02  0.70596243290E+01 -0.22566889136E+02  0.46099479392E+02  0.00000000000E+00 0. -1.
          1    1    1    2  502    0  0.14630740483E+03  0.85183267857E+02  0.88310669470E+03  0.89918823394E+03  0.00000000000E+00 0. -1.
         22    1    3    3    0    0  0.37316543776E+01 -0.76759222322E+02  0.73322203311E+02  0.10621698995E+03  0.00000000000E+00 0. -1.
         22    1    3    3    0    0 -0.11046559310E+03 -0.15483669864E+02  0.11654980389E+03  0.16132652627E+03  0.00000000000E+00 0. -1.
</event>
<event>
 7    1  0.5676357E-006  0.7442365E+02  0.7818608E-02  0.1372960E+00
          2   -1    0    0  502    0  0.00000000000E+00  0.00000000000E+00  0.12381561674E+04  0.12381561674E+04  0.00000000000E+00 0. -1.
          1   -1    0    0  501    0 -0.00000000000E+00 -0.00000000000E+00 -0.48327457665E+03  0.48327457665E+03  0.00000000000E+00 0. -1.
         25    2    1    2    0    0 -0.27879809570E+02  0.12968357257E+03  0.14978824958E+03  0.23591617533E+03  0.12499923717E+03 0.  0.
          2    1    1    2  501    0  0.15902355941E+02 -0.71754765601E+02 -0.43629775801E+03  0.44244475921E+03  0.00000000000E+00 0. -1.
          1    1    1    2  502    0  0.11977453629E+02 -0.57928806967E+02  0.10413910991E+04  0.10430698095E+04  0.00000000000E+00 0. -1.
         22    1    3    3    0    0 -0.10787648674E+00  0.14775498831E+03  0.11039644188E+03  0.18444219308E+03  0.00000000000E+00 0. -1.
         22    1    3    3    0    0 -0.27771933084E+02 -0.18071415745E+02  0.39391807703E+02  0.51473982247E+02  0.00000000000E+00 0. -1.
</event>
<event>
 7    1  0.5676357E-006  0.1399785E+03  0.7818608E-02  0.1356320E+00
          2   -1    0    0  502    0  0.00000000000E+00  0.00000000000E+00  0.12307904514E+04  0.12307904514E+04  0.00000000000E+00 0. -1.
          1   -1    0    0  501    0 -0.00000000000E+00 -0.00000000000E+00 -0.28020380308E+03  0.28020380308E+03  0.00000000000E+00 0. -1.
         25    2    1    2    0    0 -0.13149662410E+03  0.42133824454E+01  0.17347913532E+03  0.25105608887E+03  0.12500013852E+03 0.  0.
          2    1    1    2  501    0  0.13535467521E+03 -0.40142917358E+02 -0.22041902871E+03  0.26175731152E+03  0.00000000000E+00 0. -1.
          1    1    1    2  502    0 -0.38580511076E+01  0.35929534912E+02  0.99752654168E+03  0.99818085405E+03  0.00000000000E+00 0. -1.
         22    1    3    3    0    0 -0.14924432953E+03  0.21813694942E+02  0.12261158729E+03  0.19437929036E+03  0.00000000000E+00 0.  1.
         22    1    3    3    0    0  0.17747705425E+02 -0.17600312497E+02  0.50867548023E+02  0.56676798513E+02  0.00000000000E+00 0.  1.
</event>
<event>
 7    1  0.5676357E-006  0.4512157E+02  0.7818608E-02  0.1569964E+00
          2   -1    0    0  502    0  0.00000000000E+00  0.00000000000E+00  0.72332679847E+02  0.72332679847E+02  0.00000000000E+00 0. -1.
          1   -1    0    0  501    0 -0.00000000000E+00 -0.00000000000E+00 -0.10187119318E+04  0.10187119318E+04  0.00000000000E+00 0. -1.
         25    2    1    2    0    0  0.20358273504E+02  0.50364353528E+02 -0.93174760563E+02  0.16510082409E+03  0.12500287478E+03 0.  0.
          2    1    1    2  501    0  0.12496747802E+02 -0.20146319393E+02 -0.87565628182E+03  0.87597714970E+03  0.00000000000E+00 0. -1.
          1    1    1    2  502    0 -0.32855021306E+02 -0.30218034135E+02  0.22451790388E+02  0.49966637906E+02  0.00000000000E+00 0. -1.
         22    1    3    3    0    0  0.46776249825E+00 -0.23304553561E+02 -0.85255031852E+02  0.88384056676E+02  0.00000000000E+00 0. -1.
         22    1    3    3    0    0  0.19890511006E+02  0.73668907089E+02 -0.79197287109E+01  0.76716767415E+02  0.00000000000E+00 0. -1.
</event>
<event>
 7    1  0.5676357E-006  0.3373812E+02  0.7818608E-02  0.1575032E+00
          2   -1    0    0  502    0  0.00000000000E+00  0.00000000000E+00  0.73417251499E+03  0.73417251499E+03  0.00000000000E+00 0. -1.
          1   -1    0    0  501    0 -0.00000000000E+00 -0.00000000000E+00 -0.15343212512E+02  0.15343212512E+02  0.00000000000E+00 0. -1.
         25    2    1    2    0    0 -0.83514057441E+01  0.95896647918E+01  0.53642290778E+03  0.55094236252E+03  0.12500497264E+03 0.  0.
          2    1    1    2  501    0  0.36026148570E+02  0.37461141027E+01  0.44955891657E+02  0.57731697934E+02  0.00000000000E+00 0. -1.
          1    1    1    2  502    0 -0.27674742826E+02 -0.13335778894E+02  0.13745050305E+03  0.14084166705E+03  0.00000000000E+00 0. -1.
         22    1    3    3    0    0 -0.38567107154E+01  0.20804414414E+02  0.83747019147E+01  0.22755955458E+02  0.00000000000E+00 0. -1.
         22    1    3    3    0    0 -0.44946950287E+01 -0.11214749622E+02  0.52804820586E+03  0.52818640706E+03  0.00000000000E+00 0. -1.
</event>
<event>
 7    1  0.5676357E-006  0.5764261E+02  0.7818608E-02  0.1450767E+00
          2   -1    0    0  502    0  0.00000000000E+00  0.00000000000E+00  0.49185461546E+03  0.49185461546E+03  0.00000000000E+00 0. -1.
          1   -1    0    0  501    0 -0.00000000000E+00 -0.00000000000E+00 -0.55250602733E+02  0.55250602733E+02  0.00000000000E+00 0. -1.
         25    2    1    2    0    0 -0.57300573108E+02  0.54574680388E+02  0.12923392471E+03  0.19645170984E+03  0.12502046068E+03 0.  0.
          2    1    1    2  501    0  0.15698347200E+02 -0.52255883002E+02  0.16770659880E+02  0.57082137714E+02  0.00000000000E+00 0. -1.
          1    1    1    2  502    0  0.41602225908E+02 -0.23187973855E+01  0.29059942814E+03  0.29357137064E+03  0.00000000000E+00 0. -1.
         22    1    3    3    0    0  0.55968674948E+01  0.27777527033E+02  0.12476017446E+03  0.12793755143E+03  0.00000000000E+00 0.  1.
         22    1    3    3    0    0 -0.62897440603E+02  0.26797153355E+02  0.44737502462E+01  0.68514158417E+02  0.00000000000E+00 0.  1.
</event>
<event>
 7    1  0.5676357E-006  0.6515745E+02  0.7818608E-02  0.1389117E+00
          2   -1    0    0  502    0  0.00000000000E+00  0.00000000000E+00  0.39041947076E+03  0.39041947076E+03  0.00000000000E+00 0. -1.
          1   -1    0    0  501    0 -0.00000000000E+00 -0.00000000000E+00 -0.48186920061E+03  0.48186920061E+03  0.00000000000E+00 0. -1.
         25    2    1    2    0    0  0.32679766296E+02  0.97485507825E+02 -0.18399887411E+03  0.24504899640E+03  0.12498813385E+03 0.  0.
          2    1    1    2  501    0  0.17626568123E+02 -0.56553975301E+02 -0.26107832463E+03  0.26771428728E+03  0.00000000000E+00 0. -1.
          1    1    1    2  502    0 -0.50306334419E+02 -0.40931532523E+02  0.35362746889E+03  0.35952538768E+03  0.00000000000E+00 0. -1.
         22    1    3    3    0    0  0.39348697014E+02  0.77133123608E+02 -0.33199643531E+02  0.92736481736E+02  0.00000000000E+00 0.  1.
         22    1    3    3    0    0 -0.66689307177E+01  0.20352384217E+02 -0.15079923058E+03  0.15231251466E+03  0.00000000000E+00 0.  1.
</event>
<event>
 7    1  0.5676357E-006  0.1448012E+03  0.7818608E-02  0.1401582E+00
          2   -1    0    0  502    0  0.00000000000E+00  0.00000000000E+00  0.10638453290E+04  0.10638453290E+04  0.00000000000E+00 0. -1.
          1   -1    0    0  501    0 -0.00000000000E+00 -0.00000000000E+00 -0.52358358976E+03  0.52358358976E+03  0.00000000000E+00 0. -1.
         25    2    1    2    0    0 -0.20600078220E+02  0.13489426286E+03  0.45489222705E+03  0.49109501012E+03  0.12500618128E+03 0.  0.
          2    1    1    2  501    0 -0.22632264543E+02  0.83804903171E+01 -0.49570747032E+03  0.49629461829E+03  0.00000000000E+00 0. -1.
          1    1    1    2  502    0  0.43232342763E+02 -0.14327475318E+03  0.58107698248E+03  0.60003929032E+03  0.00000000000E+00 0. -1.
         22    1    3    3    0    0  0.33284096048E+02  0.57793663311E+02  0.31852772855E+03  0.32543486664E+03  0.00000000000E+00 0. -1.
         22    1    3    3    0    0 -0.53884174268E+02  0.77100599548E+02  0.13636449850E+03  0.16566014348E+03  0.00000000000E+00 0. -1.
</event>
<event>
 7    1  0.5676357E-006  0.3368667E+03  0.7818608E-02  0.1088725E+00
          2   -1    0    0  502    0  0.00000000000E+00  0.00000000000E+00  0.30432517018E+04  0.30432517018E+04  0.00000000000E+00 0. -1.
          1   -1    0    0  501    0 -0.00000000000E+00 -0.00000000000E+00 -0.13602000525E+03  0.13602000525E+03  0.00000000000E+00 0. -1.
         25    2    1    2    0    0 -0.78469118475E+02 -0.25354462933E+03  0.44811683048E+03  0.53560779433E+03  0.12499893588E+03 0.  0.
          2    1    1    2  501    0  0.32782458210E+03  0.30726852427E+03  0.51738671917E+03  0.68525317935E+03  0.00000000000E+00 0. -1.
          1    1    1    2  502    0 -0.24935546362E+03 -0.53723894939E+02  0.19417281469E+04  0.19584107334E+04  0.00000000000E+00 0. -1.
         22    1    3    3    0    0 -0.10782891688E+03 -0.15932485772E+03  0.26334115012E+03  0.32612888089E+03  0.00000000000E+00 0. -1.
         22    1    3    3    0    0  0.29359798403E+02 -0.94219771605E+02  0.18477568037E+03  0.20947891345E+03  0.00000000000E+00 0. -1.
</event>
<event>
 7    1  0.5676357E-006  0.4404164E+02  0.7818608E-02  0.1509608E+00
          2   -1    0    0  502    0  0.00000000000E+00  0.00000000000E+00  0.23371972305E+04  0.23371972305E+04  0.00000000000E+00 0. -1.
          1   -1    0    0  501    0 -0.00000000000E+00 -0.00000000000E+00 -0.85900993350E+03  0.85900993350E+03  0.00000000000E+00 0. -1.
         25    2    1    2    0    0 -0.31641858085E+02  0.35292193568E+02  0.62157845644E+02  0.14742628921E+03  0.12499666742E+03 0.  0.
          2    1    1    2  501    0  0.34922908962E+02  0.86841010759E+01 -0.81576121167E+03  0.81655457726E+03  0.00000000000E+00 0. -1.
          1    1    1    2  502    0 -0.32810508767E+01 -0.43976294644E+02  0.22317906630E+04  0.22322262975E+04  0.00000000000E+00 0. -1.
         22    1    3    3    0    0 -0.74323069003E+02  0.39133082905E+02  0.62290210561E+02  0.10457240121E+03  0.00000000000E+00 0.  1.
         22    1    3    3    0    0  0.42681210918E+02 -0.38408893373E+01 -0.13236491687E+00  0.42853888001E+02  0.00000000000E+00 0.  1.
</event>
<event>
 7    1  0.5676357E-006  0.1816901E+03  0.7818608E-02  0.1218611E+00
          2   -1    0    0  502    0  0.00000000000E+00  0.00000000000E+00  0.18549668021E+04  0.18549668021E+04  0.00000000000E+00 0. -1.
          1   -1    0    0  501    0 -0.00000000000E+00 -0.00000000000E+00 -0.62935427651E+03  0.62935427651E+03  0.00000000000E+00 0. -1.
         25    2    1    2    0    0 -0.10520376386E+03 -0.22554052848E+02 -0.29175189415E+02  0.16749334623E+03  0.12500524838E+03 0.  0.
          2    1    1    2  501    0  0.18314727617E+03  0.88376835132E+02 -0.51002387726E+03  0.54906989094E+03  0.00000000000E+00 0. -1.
          1    1    1    2  502    0 -0.77943512307E+02 -0.65822782284E+02  0.17648115922E+04  0.17677578414E+04  0.00000000000E+00 0. -1.
         22    1    3    3    0    0  0.19867399754E+02 -0.22389690454E+02  0.16696756196E+02  0.34275260452E+02  0.00000000000E+00 0.  1.
         22    1    3    3    0    0 -0.12507116362E+03 -0.16436239374E+00 -0.45871945611E+02  0.13321808577E+03  0.00000000000E+00 0.  1.
</event>
<event>
 7    1  0.5676357E-006  0.4808567E+02  0.7818608E-02  0.1509669E+00
          2   -1    0    0  502    0  0.00000000000E+00  0.00000000000E+00  0.43069773671E+03  0.43069773671E+03  0.00000000000E+00 0. -1.
          1   -1    0    0  501    0 -0.00000000000E+00 -0.00000000000E+00 -0.17541669098E+04  0.17541669098E+04  0.00000000000E+00 0. -1.
         25    2    1    2    0    0  0.72049946642E+01 -0.13640613122E+02 -0.50736154215E+03  0.52276190606E+03  0.12500519073E+03 0.  0.
          2    1    1    2  501    0  0.94475236724E+01 -0.31562661535E+02 -0.12375136854E+04  0.12379521715E+04  0.00000000000E+00 0. -1.
          1    1    1    2  502    0 -0.16652518337E+02  0.45203274658E+02  0.42140605447E+03  0.42415056896E+03  0.00000000000E+00 0. -1.
         22    1    3    3    0    0  0.23887528483E+01 -0.42317101126E+02 -0.54853894379E+02  0.69320941399E+02  0.00000000000E+00 0. -1.
         22    1    3    3    0    0  0.48162418160E+01  0.28676488004E+02 -0.45250764777E+03  0.45344096467E+03  0.00000000000E+00 0. -1.
</event>
<event>
 7    1  0.5676357E-006  0.1015957E+03  0.7818608E-02  0.1283120E+00
          2   -1    0    0  502    0  0.00000000000E+00  0.00000000000E+00  0.15771211041E+04  0.15771211041E+04  0.00000000000E+00 0. -1.
          1   -1    0    0  501    0 -0.00000000000E+00 -0.00000000000E+00 -0.14642875386E+04  0.14642875386E+04  0.00000000000E+00 0. -1.
         25    2    1    2    0    0  0.12314919756E+03  0.99260114478E+02  0.17327520714E+03  0.26583271728E+03  0.12499776391E+03 0.  0.
          2    1    1    2  501    0 -0.10119143676E+03 -0.59832201670E+01 -0.14145017217E+04  0.14181292700E+04  0.00000000000E+00 0. -1.
          1    1    1    2  502    0 -0.21957760792E+02 -0.93276894310E+02  0.13540600800E+04  0.13574466555E+04  0.00000000000E+00 0. -1.
         22    1    3    3    0    0  0.33997435636E+02  0.50637285750E+02  0.14960716679E+03  0.16156195311E+03  0.00000000000E+00 0.  1.
         22    1    3    3    0    0  0.89151761921E+02  0.48622828727E+02  0.23668040355E+02  0.10427076417E+03  0.00000000000E+00 0.  1.
</event>
<event>
 7    1  0.5676357E-006  0.4585610E+02  0.7818608E-02  0.1571671E+00
          2   -1    0    0  502    0  0.00000000000E+00  0.00000000000E+00  0.14201604781E+04  0.14201604781E+04  0.00000000000E+00 0. -1.
          1   -1    0    0  501    0 -0.00000000000E+00 -0.00000000000E+00 -0.15429887087E+03  0.15429887087E+03  0.00000000000E+00 0. -1.
         25    2    1    2    0    0 -0.50583283356E+02 -0.33989103848E+02 -0.91536350688E+02  0.16648656334E+03  0.12499977817E+03 0.  0.
          2    1    1    2  501    0  0.28295564357E+02  0.27993089116E+02 -0.94669600382E+01  0.40913021557E+02  0.00000000000E+00 0. -1.
          1    1    1    2  502    0  0.22287718999E+02  0.59960147320E+01  0.13668649180E+04  0.13670597641E+04  0.00000000000E+00 0. -1.
         22    1    3    3    0    0 -0.30098054918E+02 -0.81717421008E+02 -0.59298016295E+02  0.10535598959E+03  0.00000000000E+00 0.  1.
         22    1    3    3    0    0 -0.20485228439E+02  0.47728317160E+02 -0.32238334393E+02  0.61130573754E+02  0.00000000000E+00 0.  1.
</event>
<event>
 7    1  0.8372514E-006  0.5734225E+02  0.7818608E-02  0.1480060E+00
          2   -1    0    0  502    0  0.00000000000E+00  0.00000000000E+00  0.26918195172E+04  0.26918195172E+04  0.00000000000E+00 0. -1.
          1   -1    0    0  501    0 -0.00000000000E+00 -0.00000000000E+00 -0.24170302631E+04  0.24170302631E+04  0.00000000000E+00 0. -1.
         25    2    1    2    0    0 -0.45378714229E+02 -0.35562878878E+02 -0.13211367206E+04  0.13282887622E+04  0.12499942065E+03 0.  0.
          2    1    1    2  501    0  0.28025193938E+02 -0.19092830918E+02 -0.10917484159E+04  0.10922749431E+04  0.00000000000E+00 0. -1.
          1    1    1    2  502    0  0.17353520291E+02  0.54655709796E+02  0.26876743906E+04  0.26882860750E+04  0.00000000000E+00 0. -1.
         22    1    3    3    0    0  0.42964083970E+02 -0.66892958218E+01 -0.50806236982E+03  0.50991963173E+03  0.00000000000E+00 0.  1.
         22    1    3    3    0    0 -0.88342798199E+02 -0.28873583056E+02 -0.81307435081E+03  0.81836913049E+03  0.00000000000E+00 0.  1.
</event>
<event>
 7    1  0.5676357E-006  0.7206494E+02  0.7818608E-02  0.1388386E+00
          2   -1    0    0  502    0  0.00000000000E+00  0.00000000000E+00  0.78067824127E+03  0.78067824127E+03  0.00000000000E+00 0. -1.
          1   -1    0    0  501    0 -0.00000000000E+00 -0.00000000000E+00 -0.24204606219E+04  0.24204606219E+04  0.00000000000E+00 0. -1.
         25    2    1    2    0    0 -0.20278334955E+02  0.71761360933E+01  0.56648631004E+02  0.13891339368E+03  0.12500062300E+03 0.  0.
          2    1    1    2  501    0  0.50668229242E+02 -0.51662011716E+02 -0.23777143751E+04  0.23788152266E+04  0.00000000000E+00 0. -1.
          1    1    1    2  502    0 -0.30389894288E+02  0.44485875622E+02  0.68128336343E+03  0.68341024290E+03  0.00000000000E+00 0. -1.
         22    1    3    3    0    0 -0.66619511906E+02  0.14619727624E+02  0.39140517818E+01  0.68317022796E+02  0.00000000000E+00 0.  1.
         22    1    3    3    0    0  0.46341176952E+02 -0.74435915308E+01  0.52734579222E+02  0.70596370883E+02  0.00000000000E+00 0.  1.
</event>
<event>
 7    1  0.5676357E-006  0.3308779E+03  0.7818608E-02  0.1128258E+00
          2   -1    0    0  502    0  0.00000000000E+00  0.00000000000E+00  0.14526027817E+04  0.14526027817E+04  0.00000000000E+00 0. -1.
          1   -1    0    0  501    0 -0.00000000000E+00 -0.00000000000E+00 -0.69624175605E+03  0.69624175605E+03  0.00000000000E+00 0. -1.
         25    2    1    2    0    0  0.93811389305E+02 -0.28166010122E+03 -0.17103036083E+03  0.36470410468E+03  0.12499884106E+03 0.  0.
          2    1    1    2  501    0  0.35013543009E+02  0.37090340066E+03 -0.34163148487E+03  0.50547735090E+03  0.00000000000E+00 0. -1.
          1    1    1    2  502    0 -0.12882493231E+03 -0.89243299445E+02  0.12690228714E+04  0.12786630822E+04  0.00000000000E+00 0. -1.
         22    1    3    3    0    0  0.92378213359E+02 -0.29451876493E+03 -0.15983693889E+03  0.34759586338E+03  0.00000000000E+00 0.  1.
         22    1    3    3    0    0  0.14331759453E+01  0.12858663718E+02 -0.11193421938E+02  0.17108241306E+02  0.00000000000E+00 0.  1.
</event>
<event>
 7    1  0.5676357E-006  0.7993149E+02  0.7818608E-02  0.1412860E+00
          2   -1    0    0  502    0  0.00000000000E+00  0.00000000000E+00  0.23928222735E+04  0.23928222735E+04  0.00000000000E+00 0. -1.
          1   -1    0    0  501    0 -0.00000000000E+00 -0.00000000000E+00 -0.29782243458E+02  0.29782243458E+02  0.00000000000E+00 0. -1.
         25    2    1    2    0    0 -0.11163022973E+02 -0.31185290831E+01  0.17755923673E+04  0.17800240039E+04  0.12499144609E+03 0.  0.
          2    1    1    2  501    0 -0.47527715442E+02 -0.64266316458E+02  0.42835514020E+02  0.90685855720E+02  0.00000000000E+00 0. -1.
          1    1    1    2  502    0  0.58690738416E+02  0.67384845541E+02  0.54461214878E+03  0.55189465733E+03  0.00000000000E+00 0. -1.
         22    1    3    3    0    0 -0.64731046522E+02 -0.22543306996E+02  0.97492851626E+03  0.97733511187E+03  0.00000000000E+00 0.  1.
         22    1    3    3    0    0  0.53568023549E+02  0.19424777913E+02  0.80066385101E+03  0.80268889207E+03  0.00000000000E+00 0.  1.
</event>
<event>
 7    1  0.5676357E-006  0.4145321E+02  0.7818608E-02  0.1522583E+00
          2   -1    0    0  502    0  0.00000000000E+00  0.00000000000E+00  0.53046933019E+03  0.53046933019E+03  0.00000000000E+00 0. -1.
          1   -1    0    0  501    0 -0.00000000000E+00 -0.00000000000E+00 -0.84866371111E+03  0.84866371111E+03  0.00000000000E+00 0. -1.
         25    2    1    2    0    0 -0.20087238946E+02 -0.37749648602E+02 -0.22513030935E+03  0.26102480479E+03  0.12498703690E+03 0.  0.
          2    1    1    2  501    0 -0.14921620741E+02  0.39231484267E+02 -0.60425837516E+03  0.60571441131E+03  0.00000000000E+00 0. -1.
          1    1    1    2  502    0  0.35008859686E+02 -0.14818356649E+01  0.51119430358E+03  0.51239382520E+03  0.00000000000E+00 0. -1.
         22    1    3    3    0    0 -0.58696277765E+02  0.78928580275E+01 -0.55488040354E+02  0.81157087513E+02  0.00000000000E+00 0.  1.
         22    1    3    3    0    0  0.38609038819E+02 -0.45642506630E+02 -0.16964226899E+03  0.17986771728E+03  0.00000000000E+00 0.  1.
</event>
<event>
 7    1  0.5676357E-006  0.6144570E+02  0.7818608E-02  0.1453124E+00
          2   -1    0    0  502    0  0.00000000000E+00  0.00000000000E+00  0.85388688625E+03  0.85388688625E+03  0.00000000000E+00 0. -1.
          1   -1    0    0  501    0 -0.00000000000E+00 -0.00000000000E+00 -0.11396231738E+03  0.11396231738E+03  0.00000000000E+00 0. -1.
         25    2    1    2    0    0  0.47733155088E+02  0.58095732444E+02  0.23653288528E+03  0.27789741414E+03  0.12500239495E+03 0.  0.
          2    1    1    2  501    0 -0.57600895026E+02 -0.20967903783E+02 -0.82512098799E+02  0.10278989515E+03  0.00000000000E+00 0. -1.
          1    1    1    2  502    0  0.98677399387E+01 -0.37127828661E+02  0.58590378239E+03  0.58716189434E+03  0.00000000000E+00 0. -1.
         22    1    3    3    0    0  0.73597828977E+02  0.41186730884E+01  0.18416109806E+03  0.19836560674E+03  0.00000000000E+00 0.  1.
         22    1    3    3    0    0 -0.25864673889E+02  0.53977059355E+02  0.52371787221E+02  0.79531807403E+02  0.00000000000E+00 0.  1.
</event>
<event>
 7    1  0.5676357E-006  0.1455767E+03  0.7818608E-02  0.1254590E+00
          2   -1    0    0  502    0  0.00000000000E+00  0.00000000000E+00  0.47857754124E+03  0.47857754124E+03  0.00000000000E+00 0. -1.
          1   -1    0    0  501    0 -0.00000000000E+00 -0.00000000000E+00 -0.55498773071E+03  0.55498773071E+03  0.00000000000E+00 0. -1.
         25    2    1    2    0    0  0.61392136316E+02 -0.11324236626E+03  0.27901557488E+03  0.33176240501E+03  0.12499509766E+03 0.  0.
          2    1    1    2  501    0 -0.46858903375E+02 -0.74686276244E+02 -0.47200851137E+03  0.48017271007E+03  0.00000000000E+00 0. -1.
          1    1    1    2  502    0 -0.14533232942E+02  0.18792864250E+03  0.11658274702E+03  0.22163015687E+03  0.00000000000E+00 0. -1.
         22    1    3    3    0    0 -0.36767917887E+02 -0.24371442932E+02  0.98146731056E+02  0.10760403261E+03  0.00000000000E+00 0. -1.
         22    1    3    3    0    0  0.98160054203E+02 -0.88870923323E+02  0.18086884383E+03  0.22415837241E+03  0.00000000000E+00 0. -1.
</event>
<event>
 7    1  0.5676357E-006  0.8607016E+02  0.7818608E-02  0.1450493E+00
          2   -1    0    0  502    0  0.00000000000E+00  0.00000000000E+00  0.12839621685E+04  0.12839621685E+04  0.00000000000E+00 0. -1.
          1   -1    0    0  501    0 -0.00000000000E+00 -0.00000000000E+00 -0.43674270002E+03  0.43674270002E+03  0.00000000000E+00 0. -1.
         25    2    1    2    0    0  0.10956869784E+03 -0.62317968911E+01  0.52340177332E+03  0.54919773233E+03  0.12499839214E+03 0.  0.
          2    1    1    2  501    0 -0.27639865550E+02  0.42275941734E+01 -0.42113392964E+03  0.42206115838E+03  0.00000000000E+00 0. -1.
          1    1    1    2  502    0 -0.81928832288E+02  0.20042027177E+01  0.74495162484E+03  0.74944597787E+03  0.00000000000E+00 0. -1.
         22    1    3    3    0    0  0.67001253366E+02 -0.67402232750E+01  0.49126570347E+03  0.49585944578E+03  0.00000000000E+00 0.  1.
         22    1    3    3    0    0  0.42567444473E+02  0.50842638386E+00  0.32136069854E+02  0.53338286549E+02  0.00000000000E+00 0.  1.
</event>
<event>
 7    1  0.5676357E-006  0.1914583E+03  0.7818608E-02  0.1279179E+00
          2   -1    0    0  502    0  0.00000000000E+00  0.00000000000E+00  0.90809985980E+03  0.90809985980E+03  0.00000000000E+00 0. -1.
          1   -1    0    0  501    0 -0.00000000000E+00 -0.00000000000E+00 -0.22155304830E+03  0.22155304830E+03  0.00000000000E+00 0. -1.
         25    2    1    2    0    0  0.33433653567E+01 -0.22707424471E+03  0.25648349291E+03  0.36466787123E+03  0.12499993385E+03 0.  0.
          2    1    1    2  501    0 -0.32462818519E+02  0.18304340122E+03 -0.11419513641E+03  0.21817252461E+03  0.00000000000E+00 0. -1.
          1    1    1    2  502    0  0.29119453162E+02  0.44030843494E+02  0.54425845500E+03  0.54681251226E+03  0.00000000000E+00 0. -1.
         22    1    3    3    0    0 -0.69378501108E+01 -0.51814583113E+01 -0.12884751956E+02  0.15524113738E+02  0.00000000000E+00 0.  1.
         22    1    3    3    0    0  0.10281215468E+02 -0.22189278640E+03  0.26936824487E+03  0.34914375749E+03  0.00000000000E+00 0.  1.
</event>
<event>
 7    1  0.5676357E-006  0.7178664E+02  0.7818608E-02  0.1499325E+00
          2   -1    0    0  502    0  0.00000000000E+00  0.00000000000E+00  0.14803406341E+04  0.14803406341E+04  0.00000000000E+00 0. -1.
          1   -1    0    0  501    0 -0.00000000000E+00 -0.00000000000E+00 -0.11592155156E+02  0.11592155156E+02  0.00000000000E+00 0. -1.
         25    2    1    2    0    0 -0.54888647886E+02  0.72594736180E+02  0.77087302392E+03  0.78622689571E+03  0.12499901255E+03 0.  0.
          2    1    1    2  501    0  0.14339266181E+02 -0.18850068330E+02  0.63591214464E+02  0.67858545428E+02  0.00000000000E+00 0. -1.
          1    1    1    2  502    0  0.40549381705E+02 -0.53744667850E+02  0.63428424053E+03  0.63784734809E+03  0.00000000000E+00 0. -1.
         22    1    3    3    0    0 -0.84528930391E+02  0.34562277472E+02  0.31978264346E+03  0.33256673038E+03  0.00000000000E+00 0.  1.
         22    1    3    3    0    0  0.29640282504E+02  0.38032458707E+02  0.45109038046E+03  0.45366016533E+03  0.00000000000E+00 0.  1.
</event>
<event>
 7    1  0.5676357E-006  0.1837419E+03  0.7818608E-02  0.1273040E+00
          2   -1    0    0  502    0  0.00000000000E+00  0.00000000000E+00  0.37445286260E+03  0.37445286260E+03  0.00000000000E+00 0. -1.
          1   -1    0    0  501    0 -0.00000000000E+00 -0.00000000000E+00 -0.32877650183E+04  0.32877650183E+04  0.00000000000E+00 0. -1.
         25    2    1    2    0    0  0.68455329011E+02 -0.14090660610E+03 -0.67565731104E+02  0.21148985568E+03  0.12498810873E+03 0.  0.
          2    1    1    2  501    0 -0.27961023307E+02  0.18289855259E+03 -0.31426781863E+04  0.31481200552E+04  0.00000000000E+00 0. -1.
          1    1    1    2  502    0 -0.40494305704E+02 -0.41991946487E+02  0.29693176173E+03  0.30260796997E+03  0.00000000000E+00 0. -1.
         22    1    3    3    0    0  0.82649079452E+02 -0.15558761641E+03 -0.46628387120E+02  0.18224319795E+03  0.00000000000E+00 0.  1.
         22    1    3    3    0    0 -0.14193750441E+02  0.14681010307E+02 -0.20937343984E+02  0.29246657729E+02  0.00000000000E+00 0.  1.
</event>
<event>
 7    1  0.5676357E-006  0.5988952E+02  0.7818608E-02  0.1441288E+00
          2   -1    0    0  502    0  0.00000000000E+00  0.00000000000E+00  0.10191558599E+04  0.10191558599E+04  0.00000000000E+00 0. -1.
          1   -1    0    0  501    0 -0.00000000000E+00 -0.00000000000E+00 -0.57324164254E+03  0.57324164254E+03  0.00000000000E+00 0. -1.
         25    2    1    2    0    0 -0.85131736032E+02  0.33842467978E+02 -0.67734139374E+02  0.16913256851E+03  0.12500074790E+03 0.  0.
          2    1    1    2  501    0  0.42654546119E+02 -0.40662313181E+02 -0.45241860150E+03  0.45624053415E+03  0.00000000000E+00 0. -1.
          1    1    1    2  502    0  0.42477189914E+02  0.68198452024E+01  0.96606695828E+03  0.96702439981E+03  0.00000000000E+00 0. -1.
         22    1    3    3    0    0 -0.68032151140E+02  0.79817768657E+02 -0.36826986137E+02  0.11115519192E+03  0.00000000000E+00 0.  1.
         22    1    3    3    0    0 -0.17099584893E+02 -0.45975300678E+02 -0.30907153236E+02  0.57977376598E+02  0.00000000000E+00 0.  1.
</event>
<event>
 7    1  0.5676357E-006  0.1016742E+03  0.7818608E-02  0.1472431E+00
          2   -1    0    0  502    0  0.00000000000E+00  0.00000000000E+00  0.43782623978E+03  0.43782623978E+03  0.00000000000E+00 0. -1.
          1   -1    0    0  501    0 -0.00000000000E+00 -0.00000000000E+00 -0.47801199017E+03  0.47801199017E+03  0.00000000000E+00 0. -1.
         25    2    1    2    0    0  0.74048315177E+02 -0.37803810259E+02  0.12059037567E+03  0.19255906661E+03  0.12499869751E+03 0.  0.
          2    1    1    2  501    0 -0.87906250558E+02  0.52486408032E+02 -0.43572398966E+03  0.44759102659E+03  0.00000000000E+00 0. -1.
          1    1    1    2  502    0  0.13857935381E+02 -0.14682597773E+02  0.27494786359E+03  0.27568813675E+03  0.00000000000E+00 0. -1.
         22    1    3    3    0    0  0.67248775418E+02 -0.80794863938E+02  0.72501219493E+02  0.12769743405E+03  0.00000000000E+00 0.  1.
         22    1    3    3    0    0  0.67995397587E+01  0.42991053679E+02  0.48089156178E+02  0.64861632567E+02  0.00000000000E+00 0.  1.
</event>
<event>
 7    1  0.5676357E-006  0.9637710E+02  0.7818608E-02  0.1451982E+00
          2   -1    0    0  502    0  0.00000000000E+00  0.00000000000E+00  0.24582663106E+03  0.24582663106E+03  0.00000000000E+00 0. -1.
          1   -1    0    0  501    0 -0.00000000000E+00 -0.00000000000E+00 -0.59322531017E+03  0.59322531017E+03  0.00000000000E+00 0. -1.
         25    2    1    2    0    0 -0.88051517635E+02 -0.50444984442E+02 -0.61711506485E+02  0.17242621679E+03  0.12499889595E+03 0.  0.
          2    1    1    2  501    0  0.18704828122E+02 -0.16129771199E+02 -0.46367733544E+03  0.46433469773E+03  0.00000000000E+00 0. -1.
          1    1    1    2  502    0  0.69346689512E+02  0.66574755641E+02  0.17799016281E+03  0.20229102672E+03  0.00000000000E+00 0. -1.
         22    1    3    3    0    0 -0.78911649367E+02 -0.15595461018E+02  0.20205093905E+02  0.82936799010E+02  0.00000000000E+00 0.  1.
         22    1    3    3    0    0 -0.91398682675E+01 -0.34849523424E+02 -0.81916600390E+02  0.89489417778E+02  0.00000000000E+00 0.  1.
</event>
<event>
 7    1  0.5676357E-006  0.5574670E+02  0.7818608E-02  0.1491288E+00
          2   -1    0    0  502    0  0.00000000000E+00  0.00000000000E+00  0.36313358336E+03  0.36313358336E+03  0.00000000000E+00 0. -1.
          1   -1    0    0  501    0 -0.00000000000E+00 -0.00000000000E+00 -0.32775672739E+03  0.32775672739E+03  0.00000000000E+00 0. -1.
         25    2    1    2    0    0  0.15874638577E+02  0.78991394713E+02  0.12730328273E+03  0.19575822015E+03  0.12499404135E+03 0.  0.
          2    1    1    2  501    0 -0.19482435035E+02 -0.25690160810E+02 -0.28907802810E+03  0.29087051409E+03  0.00000000000E+00 0. -1.
          1    1    1    2  502    0  0.36077964578E+01 -0.53301233903E+02  0.19715160134E+03  0.20426157652E+03  0.00000000000E+00 0. -1.
         22    1    3    3    0    0  0.62825010694E+02  0.48189884548E+02  0.32533072932E+02  0.85601680917E+02  0.00000000000E+00 0. -1.
         22    1    3    3    0    0 -0.46950372117E+02  0.30801510166E+02  0.94770209797E+02  0.11015653923E+03  0.00000000000E+00 0. -1.
</event>
<event>
 7    1  0.5676357E-006  0.4377880E+02  0.7818608E-02  0.1522001E+00
          2   -1    0    0  502    0  0.00000000000E+00  0.00000000000E+00  0.55242771149E+03  0.55242771149E+03  0.00000000000E+00 0. -1.
          1   -1    0    0  501    0 -0.00000000000E+00 -0.00000000000E+00 -0.69576455293E+03  0.69576455293E+03  0.00000000000E+00 0. -1.
         25    2    1    2    0    0  0.14305310765E+02  0.29097069157E+01  0.30633174235E+03  0.33117656388E+03  0.12500268709E+03 0.  0.
          2    1    1    2  501    0 -0.39675841101E+02  0.18671483845E+02 -0.68144694653E+03  0.68285630817E+03  0.00000000000E+00 0. -1.
          1    1    1    2  502    0  0.25370530336E+02 -0.21581190761E+02  0.23177836274E+03  0.23415939237E+03  0.00000000000E+00 0. -1.
         22    1    3    3    0    0  0.28141288922E+02 -0.46917864334E+02  0.24461412987E+03  0.25065771615E+03  0.00000000000E+00 0.  1.
         22    1    3    3    0    0 -0.13835978157E+02  0.49827571250E+02  0.61717612485E+02  0.80518847725E+02  0.00000000000E+00 0.  1.
</event>
<event>
 7    1  0.5676357E-006  0.5883903E+02  0.7818608E-02  0.1512814E+00
          2   -1    0    0  502    0  0.00000000000E+00  0.00000000000E+00  0.37422235587E+03  0.37422235587E+03  0.00000000000E+00 0. -1.
          1   -1    0    0  501    0 -0.00000000000E+00 -0.00000000000E+00 -0.29749186064E+03  0.29749186064E+03  0.00000000000E+00 0. -1.
         25    2    1    2    0    0  0.55196399644E+02 -0.15792281642E+02  0.10461160971E+02  0.13794980316E+03  0.12499869444E+03 0.  0.
          2    1    1    2  501    0 -0.11262988630E+02 -0.23830576592E+02 -0.23007113726E+03  0.23157607712E+03  0.00000000000E+00 0. -1.
          1    1    1    2  502    0 -0.43933411015E+02  0.39622858234E+02  0.29634047152E+03  0.30218833624E+03  0.00000000000E+00 0. -1.
         22    1    3    3    0    0  0.39710361256E+02  0.19859443519E+00 -0.55551117361E+02  0.68285275652E+02  0.00000000000E+00 0.  1.
         22    1    3    3    0    0  0.15486038388E+02 -0.15990876077E+02  0.66012278332E+02  0.69664527510E+02  0.00000000000E+00 0.  1.
</event>
<event>
 7    1  0.5676357E-006  0.5246794E+02  0.7818608E-02  0.1484465E+00
          2   -1    0    0  502    0  0.00000000000E+00  0.00000000000E+00  0.61603200413E+03  0.61603200413E+03  0.00000000000E+00 0. -1.
          1   -1    0    0  501    0 -0.00000000000E+00 -0.00000000000E+00 -0.55936482351E+02  0.55936482351E+02  0.00000000000E+00 0. -1.
         25    2    1    2    0    0 -0.51641397055E+02  0.35427271115E+02  0.21568735149E+03  0.25703702815E+03  0.12500029929E+03 0.  0.
          2    1    1    2  501    0  0.52482579918E+02  0.49219796916E+00 -0.14324069142E+02  0.54404433740E+02  0.00000000000E+00 0. -1.
          1    1    1    2  502    0 -0.84118286308E+00 -0.35919469085E+02  0.35873223943E+03  0.36052702459E+03  0.00000000000E+00 0. -1.
         22    1    3    3    0    0 -0.45723440076E+02 -0.41998917927E+02  0.99986010221E+02  0.11769343363E+03  0.00000000000E+00 0. -1.
         22    1    3    3    0    0 -0.59179569798E+01  0.77426189042E+02  0.11570134126E+03  0.13934359452E+03  0.00000000000E+00 0. -1.
</event>
<event>
 7    1  0.5676357E-006  0.1322772E+03  0.7818608E-02  0.1246574E+00
          2   -1    0    0  502    0  0.00000000000E+00  0.00000000000E+00  0.45854024401E+03  0.45854024401E+03  0.00000000000E+00 0. -1.
          1   -1    0    0  501    0 -0.00000000000E+00 -0.00000000000E+00 -0.76373840535E+03  0.76373840535E+03  0.00000000000E+00 0. -1.
         25    2    1    2    0    0 -0.34671218993E+02  0.11120636244E+01 -0.24884876698E+03  0.28063363751E+03  0.12500479816E+03 0.  0.
          2    1    1    2  501    0 -0.89447774466E+02  0.55211385786E+02 -0.48271276042E+03  0.49402511125E+03  0.00000000000E+00 0. -1.
          1    1    1    2  502    0  0.12411899346E+03 -0.56323449411E+02  0.42636336606E+03  0.44761990059E+03  0.00000000000E+00 0. -1.
         22    1    3    3    0    0  0.37179747252E+02  0.29420076563E+02 -0.59071393309E+02  0.75744993354E+02  0.00000000000E+00 0. -1.
         22    1    3    3    0    0 -0.71850966245E+02 -0.28308012939E+02 -0.18977737367E+03  0.20488864416E+03  0.00000000000E+00 0. -1.
</event>
<event>
 7    1  0.5676357E-006  0.7792774E+02  0.7818608E-02  0.1408854E+00
          2   -1    0    0  502    0  0.00000000000E+00  0.00000000000E+00  0.17477418555E+03  0.17477418555E+03  0.00000000000E+00 0. -1.
          1   -1    0    0  501    0 -0.00000000000E+00 -0.00000000000E+00 -0.12561138137E+04  0.12561138137E+04  0.00000000000E+00 0. -1.
         25    2    1    2    0    0  0.14830328857E+02 -0.36573730407E+02 -0.18954833534E+03  0.23046176935E+03  0.12500591704E+03 0.  0.
          2    1    1    2  501    0 -0.18504712876E+02  0.78767941599E+02 -0.10416038371E+04  0.10447417702E+04  0.00000000000E+00 0. -1.
          1    1    1    2  502    0  0.36743840190E+01 -0.42194211192E+02  0.14981254429E+03  0.15568445967E+03  0.00000000000E+00 0. -1.
         22    1    3    3    0    0 -0.51588337684E+02 -0.26933524960E+02 -0.54856618726E+02  0.79975120943E+02  0.00000000000E+00 0. -1.
         22    1    3    3    0    0  0.66418666541E+02 -0.96402054468E+01 -0.13469171661E+03  0.15048664841E+03  0.00000000000E+00 0. -1.
</event>
<event>
 7    1  0.5676357E-006  0.7308699E+02  0.7818608E-02  0.1356986E+00
          2   -1    0    0  502    0  0.00000000000E+00  0.00000000000E+00  0.65440207621E+03  0.65440207621E+03  0.00000000000E+00 0. -1.
          1   -1    0    0  501    0 -0.00000000000E+00 -0.00000000000E+00 -0.30773593656E+03  0.30773593656E+03  0.00000000000E+00 0. -1.
         25    2    1    2    0    0 -0.11007657295E+03 -0.83387009210E+02 -0.46645810027E+02  0.19201695143E+03  0.12499773129E+03 0.  0.
          2    1    1    2  501    0  0.45604750940E+02  0.51541456593E+02 -0.17979717319E+03  0.19251841092E+03  0.00000000000E+00 0. -1.
          1    1    1    2  502    0  0.64471822008E+02  0.31845552617E+02  0.57310912287E+03  0.57760265042E+03  0.00000000000E+00 0. -1.
         22    1    3    3    0    0 -0.53091708953E+02 -0.18422234272E+02 -0.81366440086E+02  0.98886833539E+02  0.00000000000E+00 0.  1.
         22    1    3    3    0    0 -0.56984863996E+02 -0.64964774938E+02  0.34720630060E+02  0.93130117895E+02  0.00000000000E+00 0.  1.
</event>
<event>
 7    1  0.5676357E-006  0.5584738E+02  0.7818608E-02  0.1451903E+00
          2   -1    0    0  502    0  0.00000000000E+00  0.00000000000E+00  0.96351178762E+03  0.96351178762E+03  0.00000000000E+00 0. -1.
          1   -1    0    0  501    0 -0.00000000000E+00 -0.00000000000E+00 -0.82167673915E+02  0.82167673915E+02  0.00000000000E+00 0. -1.
         25    2    1    2    0    0 -0.54909934903E+01  0.74037127977E+02  0.21517629780E+03  0.25967933743E+03  0.12498348621E+03 0.  0.
          2    1    1    2  501    0 -0.28165949751E+02 -0.47843719891E+02 -0.46279055445E+02  0.72277888952E+02  0.00000000000E+00 0. -1.
          1    1    1    2  502    0  0.33656943241E+02 -0.26193408086E+02  0.71244687135E+03  0.71372223516E+03  0.00000000000E+00 0. -1.
         22    1    3    3    0    0  0.25746448292E+02  0.26468997124E+02  0.19626966613E+03  0.19971296716E+03  0.00000000000E+00 0. -1.
         22    1    3    3    0    0 -0.31237441782E+02  0.47568130853E+02  0.18906631663E+02  0.59966370265E+02  0.00000000000E+00 0. -1.
</event>
<event>
 7    1  0.5676357E-006  0.6519904E+02  0.7818608E-02  0.1512087E+00
          2   -1    0    0  502    0  0.00000000000E+00  0.00000000000E+00  0.14766340906E+04  0.14766340906E+04  0.00000000000E+00 0. -1.
          1   -1    0    0  501    0 -0.00000000000E+00 -0.00000000000E+00 -0.10766581777E+04  0.10766581777E+04  0.00000000000E+00 0. -1.
         25    2    1    2    0    0 -0.39807359740E+02 -0.16299848925E+02  0.12699672291E+03  0.18331185289E+03  0.12499902727E+03 0.  0.
          2    1    1    2  501    0  0.55725662263E+02  0.34132779852E+02 -0.10473741097E+04  0.10494107498E+04  0.00000000000E+00 0. -1.
          1    1    1    2  502    0 -0.15918302523E+02 -0.17832930927E+02  0.13203532997E+04  0.13205696656E+04  0.00000000000E+00 0. -1.
         22    1    3    3    0    0 -0.82439930905E+02 -0.55285256641E+01  0.10651133584E+03  0.13480197130E+03  0.00000000000E+00 0. -1.
         22    1    3    3    0    0  0.42632571165E+02 -0.10771323261E+02  0.20485387066E+02  0.48509881593E+02  0.00000000000E+00 0. -1.
</event>
<event>
 7    1  0.5676357E-006  0.7132596E+02  0.7818608E-02  0.1436409E+00
          2   -1    0    0  502    0  0.00000000000E+00  0.00000000000E+00  0.10349854565E+04  0.10349854565E+04  0.00000000000E+00 0. -1.
          1   -1    0    0  501    0 -0.00000000000E+00 -0.00000000000E+00 -0.17479143192E+03  0.17479143192E+03  0.00000000000E+00 0. -1.
         25    2    1    2    0    0 -0.79494788876E+02 -0.26503353204E+02  0.48921574191E+03  0.51183824839E+03  0.12499800473E+03 0.  0.
          2    1    1    2  501    0  0.99434606780E+01  0.36123121659E+02 -0.15898719437E+03  0.16334221837E+03  0.00000000000E+00 0. -1.
          1    1    1    2  502    0  0.69551328198E+02 -0.96197684546E+01  0.52996547706E+03  0.53459642168E+03  0.00000000000E+00 0. -1.
         22    1    3    3    0    0 -0.28108001976E+02 -0.38764670892E+02  0.42928362309E+03  0.43194581666E+03  0.00000000000E+00 0.  1.
         22    1    3    3    0    0 -0.51386786900E+02  0.12261317688E+02  0.59932118828E+02  0.79892431722E+02  0.00000000000E+00 0.  1.
</event>
<event>
 7    1  0.5676357E-006  0.6451311E+02  0.7818608E-02  0.1394114E+00
          2   -1    0    0  502    0  0.00000000000E+00  0.00000000000E+00  0.10681735927E+04  0.10681735927E+04  0.00000000000E+00 0. -1.
          1   -1    0    0  501    0 -0.00000000000E+00 -0.00000000000E+00 -0.23466036048E+03  0.23466036048E+03  0.00000000000E+00 0. -1.
         25    2    1    2    0    0 -0.41478887073E+02 -0.69415394111E+02 -0.11694152844E+02  0.14933394073E+03  0.12499951052E+03 0.  0.
          2    1    1    2  501    0 -0.21121812529E+02  0.53458461064E+02 -0.14770141904E+03  0.15849178909E+03  0.00000000000E+00 0. -1.
          1    1    1    2  502    0  0.62600699601E+02  0.15956933046E+02  0.99290880407E+03  0.99500822334E+03  0.00000000000E+00 0. -1.
         22    1    3    3    0    0  0.19770158059E+02 -0.65903664149E+02  0.30099990395E+02  0.75101008780E+02  0.00000000000E+00 0. -1.
         22    1    3    3    0    0 -0.61249045132E+02 -0.35117299620E+01 -0.41794143239E+02  0.74232931951E+02  0.00000000000E+00 0. -1.
</event>
<event>
 7    1  0.5676357E-006  0.6426693E+02  0.7818608E-02  0.1433543E+00
          2   -1    0    0  502    0  0.00000000000E+00  0.00000000000E+00  0.80672454941E+03  0.80672454941E+03  0.00000000000E+00 0. -1.
          1   -1    0    0  501    0 -0.00000000000E+00 -0.00000000000E+00 -0.26731814332E+03  0.26731814332E+03  0.00000000000E+00 0. -1.
         25    2    1    2    0    0 -0.58235006193E+02 -0.86136616665E+02  0.39999629714E+02  0.16743918795E+03  0.12500031443E+03 0.  0.
          2    1    1    2  501    0  0.28977515320E+02  0.55326163257E+02 -0.19814702648E+03  0.20775688878E+03  0.00000000000E+00 0. -1.
          1    1    1    2  502    0  0.29257490874E+02  0.30810453408E+02  0.69755380285E+03  0.69884661599E+03  0.00000000000E+00 0. -1.
         22    1    3    3    0    0 -0.35253755369E+02 -0.73411332160E+02  0.83490364452E+02  0.11663057881E+03  0.00000000000E+00 0. -1.
         22    1    3    3    0    0 -0.22981250824E+02 -0.12725284505E+02 -0.43490734738E+02  0.50808609145E+02  0.00000000000E+00 0. -1.
</event>
<event>
 7    1  0.5676357E-006  0.7268675E+02  0.7818608E-02  0.1387106E+00
          2   -1    0    0  502    0  0.00000000000E+00  0.00000000000E+00  0.90756669221E+03  0.90756669221E+03  0.00000000000E+00 0. -1.
          1   -1    0    0  501    0 -0.00000000000E+00 -0.00000000000E+00 -0.26546293614E+03  0.26546293614E+03  0.00000000000E+00 0. -1.
         25    2    1    2    0    0 -0.33341379026E+02  0.89994767340E+01  0.90491999780E+02  0.15813059363E+03  0.12499537783E+03 0.  0.
          2    1    1    2  501    0 -0.34397148463E+02 -0.41586566439E+02 -0.22666462808E+03  0.23300098703E+03  0.00000000000E+00 0. -1.
          1    1    1    2  502    0  0.67738527489E+02  0.32587089704E+02  0.77827638438E+03  0.78189804770E+03  0.00000000000E+00 0. -1.
         22    1    3    3    0    0 -0.22450532245E+02  0.26927133347E+02  0.11825029116E+03  0.12333786226E+03  0.00000000000E+00 0. -1.
         22    1    3    3    0    0 -0.10890846780E+02 -0.17927656613E+02 -0.27758291381E+02  0.34792731362E+02  0.00000000000E+00 0. -1.
</event>
<event>
 7    1  0.5676357E-006  0.1236286E+03  0.7818608E-02  0.1276574E+00
          2   -1    0    0  502    0  0.00000000000E+00  0.00000000000E+00  0.91888992988E+03  0.91888992988E+03  0.00000000000E+00 0. -1.
          1   -1    0    0  501    0 -0.00000000000E+00 -0.00000000000E+00 -0.85303607034E+03  0.85303607034E+03  0.00000000000E+00 0. -1.
         25    2    1    2    0    0 -0.16342178634E+02  0.12843366824E+03 -0.49647758119E+03  0.52808806695E+03  0.12499897554E+03 0.  0.
          2    1    1    2  501    0 -0.72445774811E+02 -0.42140868783E+02 -0.33126602105E+03  0.34170370178E+03  0.00000000000E+00 0. -1.
          1    1    1    2  502    0  0.88787953445E+02 -0.86292799459E+02  0.89359746179E+03  0.90213423149E+03  0.00000000000E+00 0. -1.
         22    1    3    3    0    0 -0.11279270134E+02 -0.23850368155E+02 -0.97481097760E+02  0.10098824890E+03  0.00000000000E+00 0.  1.
         22    1    3    3    0    0 -0.50629084997E+01  0.15228403640E+03 -0.39899648343E+03  0.42709981805E+03  0.00000000000E+00 0.  1.
</event>
<event>
 7    1  0.5676357E-006  0.6866705E+02  0.7818608E-02  0.1478141E+00
          2   -1    0    0  502    0  0.00000000000E+00  0.00000000000E+00  0.19113147563E+04  0.19113147563E+04  0.00000000000E+00 0. -1.
          1   -1    0    0  501    0 -0.00000000000E+00 -0.00000000000E+00 -0.14369787953E+03  0.14369787953E+03  0.00000000000E+00 0. -1.
         25    2    1    2    0    0  0.13186412748E+02  0.82418705709E+02  0.18280785158E+04  0.18342463523E+04  0.12498758616E+03 0.  0.
          2    1    1    2  501    0 -0.31972513156E+02 -0.60714433322E+02 -0.12919099811E+03  0.14628327999E+03  0.00000000000E+00 0. -1.
          1    1    1    2  502    0  0.18786100408E+02 -0.21704272386E+02  0.68729359150E+02  0.74483003548E+02  0.00000000000E+00 0. -1.
         22    1    3    3    0    0  0.85192277923E+01 -0.26642124468E+02  0.77938628790E+03  0.77988804697E+03  0.00000000000E+00 0.  1.
         22    1    3    3    0    0  0.46671849555E+01  0.10906083018E+03  0.10486922279E+04  0.10543583054E+04  0.00000000000E+00 0.  1.
</event>
<event>
 7    1  0.5676357E-006  0.2591098E+02  0.7818608E-02  0.1657812E+00
          2   -1    0    0  502    0  0.00000000000E+00  0.00000000000E+00  0.75672910339E+02  0.75672910339E+02  0.00000000000E+00 0. -1.
          1   -1    0    0  501    0 -0.00000000000E+00 -0.00000000000E+00 -0.25851289653E+03  0.25851289653E+03  0.00000000000E+00 0. -1.
         25    2    1    2    0    0 -0.12118560415E+02  0.76163174119E+01 -0.18993401316E+03  0.22782175197E+03  0.12499181380E+03 0.  0.
          2    1    1    2  501    0  0.24086833488E+01 -0.30169141996E+02 -0.41826084309E+02  0.51627514107E+02  0.00000000000E+00 0. -1.
          1    1    1    2  502    0  0.97098770664E+01  0.22552824584E+02  0.48920111284E+02  0.54736540788E+02  0.00000000000E+00 0. -1.
         22    1    3    3    0    0 -0.25692901448E+02 -0.55478214603E+02 -0.97610669741E+02  0.11517725612E+03  0.00000000000E+00 0. -1.
         22    1    3    3    0    0  0.13574341033E+02  0.63094532015E+02 -0.92323343423E+02  0.11264449585E+03  0.00000000000E+00 0. -1.
</event>
<event>
 7    1  0.5676357E-006  0.1827212E+03  0.7818608E-02  0.1363280E+00
          2   -1    0    0  502    0  0.00000000000E+00  0.00000000000E+00  0.58532810802E+02  0.58532810802E+02  0.00000000000E+00 0. -1.
          1   -1    0    0  501    0 -0.00000000000E+00 -0.00000000000E+00 -0.24171563629E+04  0.24171563629E+04  0.00000000000E+00 0. -1.
         25    2    1    2    0    0  0.10690289085E+03  0.15132352064E+03 -0.57194287800E+03  0.61406137030E+03  0.12500269925E+03 0.  0.
          2    1    1    2  501    0 -0.12524087292E+03 -0.13273716697E+03 -0.18143959227E+04  0.18235506563E+04  0.00000000000E+00 0. -1.
          1    1    1    2  502    0  0.18337982076E+02 -0.18586353670E+02  0.27715248588E+02  0.38077147132E+02  0.00000000000E+00 0. -1.
         22    1    3    3    0    0  0.62478023107E+02  0.10327411669E+01 -0.11339756783E+03  0.12947423804E+03  0.00000000000E+00 0.  1.
         22    1    3    3    0    0  0.44424867739E+02  0.15029077948E+03 -0.45854531017E+03  0.48458713226E+03  0.00000000000E+00 0.  1.
</event>
<event>
 7    1  0.5676357E-006  0.4494074E+02  0.7818608E-02  0.1593716E+00
          2   -1    0    0  502    0  0.00000000000E+00  0.00000000000E+00  0.16620660445E+04  0.16620660445E+04  0.00000000000E+00 0. -1.
          1   -1    0    0  501    0 -0.00000000000E+00 -0.00000000000E+00 -0.54600327221E+03  0.54600327221E+03  0.00000000000E+00 0. -1.
         25    2    1    2    0    0  0.64944125786E+02 -0.12791813154E+00 -0.62093467314E+02  0.15389535822E+03  0.12494169345E+03 0.  0.
          2    1    1    2  501    0 -0.20210327256E+02  0.37927246265E+01 -0.43745567364E+03  0.43793870403E+03  0.00000000000E+00 0. -1.
          1    1    1    2  502    0 -0.44733798530E+02 -0.36648064950E+01  0.16156119132E+04  0.16162352545E+04  0.00000000000E+00 0. -1.
         22    1    3    3    0    0  0.32145565866E+02  0.40658003158E+02 -0.82739049798E+02  0.97632786435E+02  0.00000000000E+00 0. -1.
         22    1    3    3    0    0  0.32798559921E+02 -0.40785921290E+02  0.20645582483E+02  0.56262571790E+02  0.00000000000E+00 0. -1.
</event>
<event>
 7    1  0.5676357E-006  0.1702636E+03  0.7818608E-02  0.1214350E+00
          2   -1    0    0  502    0  0.00000000000E+00  0.00000000000E+00  0.25944251367E+04  0.25944251367E+04  0.00000000000E+00 0. -1.
          1   -1    0    0  501    0 -0.00000000000E+00 -0.00000000000E+00 -0.40212120681E+03  0.40212120681E+03  0.00000000000E+00 0. -1.
         25    2    1    2    0    0 -0.14554720618E+03 -0.21568143875E+03  0.12952423973E+04  0.13270192956E+04  0.12499948349E+03 0.  0.
          2    1    1    2  501    0  0.60029419257E+02  0.96768520716E+02 -0.37353940878E+03  0.39051167421E+03  0.00000000000E+00 0. -1.
          1    1    1    2  502    0  0.85517786921E+02  0.11891291803E+03  0.12706009413E+04  0.12790153736E+04  0.00000000000E+00 0. -1.
         22    1    3    3    0    0 -0.78232927095E+02 -0.33682159241E+02  0.25548255767E+03  0.26930691786E+03  0.00000000000E+00 0.  1.
         22    1    3    3    0    0 -0.67314279083E+02 -0.18199927950E+03  0.10397598397E+04  0.10577123778E+04  0.00000000000E+00 0.  1.
</event>
<event>
 7    1  0.5676357E-006  0.2988955E+02  0.7818608E-02  0.1647487E+00
          2   -1    0    0  502    0  0.00000000000E+00  0.00000000000E+00  0.13876379360E+03  0.13876379360E+03  0.00000000000E+00 0. -1.
          1   -1    0    0  501    0 -0.00000000000E+00 -0.00000000000E+00 -0.12137345253E+04  0.12137345253E+04  0.00000000000E+00 0. -1.
         25    2    1    2    0    0  0.26039412243E+02  0.42562711291E+01  0.20535036279E+02  0.12939599219E+03  0.12500187296E+03 0.  0.
          2    1    1    2  501    0 -0.23757519275E+02  0.18187460720E+02 -0.11571103165E+04  0.11574970790E+04  0.00000000000E+00 0. -1.
          1    1    1    2  502    0 -0.22818929683E+01 -0.22443731849E+02  0.61604548473E+02  0.65605247712E+02  0.00000000000E+00 0. -1.
         22    1    3    3    0    0  0.45541696675E+02  0.45407193583E+02 -0.21109903568E+02  0.67686685499E+02  0.00000000000E+00 0. -1.
         22    1    3    3    0    0 -0.19502284432E+02 -0.41150922454E+02  0.41644939847E+02  0.61709306687E+02  0.00000000000E+00 0. -1.
</event>
<event>
 7    1  0.5676357E-006  0.1828028E+03  0.7818608E-02  0.1341517E+00
          2   -1    0    0  502    0  0.00000000000E+00  0.00000000000E+00  0.56762067789E+03  0.56762067789E+03  0.00000000000E+00 0. -1.
          1   -1    0    0  501    0 -0.00000000000E+00 -0.00000000000E+00 -0.86420771130E+03  0.86420771130E+03  0.00000000000E+00 0. -1.
         25    2    1    2    0    0  0.19347343790E+03  0.24919138785E+02 -0.61113820537E+02  0.23961101596E+03  0.12500242100E+03 0.  0.
          2    1    1    2  501    0 -0.18874302643E+02  0.25096870081E+02 -0.69623971913E+03  0.69694751501E+03  0.00000000000E+00 0. -1.
          1    1    1    2  502    0 -0.17459913526E+03 -0.50016008867E+02  0.46076650626E+03  0.49526985823E+03  0.00000000000E+00 0. -1.
         22    1    3    3    0    0  0.65527182606E+02  0.70136705154E+02 -0.25033916538E+02  0.99195090843E+02  0.00000000000E+00 0.  1.
         22    1    3    3    0    0  0.12794625530E+03 -0.45217566369E+02 -0.36079903999E+02  0.14041592511E+03  0.00000000000E+00 0.  1.
</event>
<event>
 7    1  0.5676357E-006  0.6438051E+02  0.7818608E-02  0.1381118E+00
          2   -1    0    0  502    0  0.00000000000E+00  0.00000000000E+00  0.76359442460E+02  0.76359442460E+02  0.00000000000E+00 0. -1.
          1   -1    0    0  501    0 -0.00000000000E+00 -0.00000000000E+00 -0.82041888367E+03  0.82041888367E+03  0.00000000000E+00 0. -1.
         25    2    1    2    0    0 -0.10152699647E+02  0.84878226449E+01 -0.63312841623E+03  0.64548594738E+03  0.12500158550E+03 0.  0.
          2    1    1    2  501    0 -0.40728356642E+02 -0.49860318996E+02 -0.15797159875E+03  0.17058685898E+03  0.00000000000E+00 0. -1.
          1    1    1    2  502    0  0.50881056289E+02  0.41372496351E+02  0.47040573763E+02  0.80705519782E+02  0.00000000000E+00 0. -1.
         22    1    3    3    0    0  0.18838395436E+01 -0.41310028989E+02 -0.80617880185E+02  0.90605242410E+02  0.00000000000E+00 0.  1.
         22    1    3    3    0    0 -0.12036539191E+02  0.49797851634E+02 -0.55251053605E+03  0.55488070497E+03  0.00000000000E+00 0.  1.
</event>
<event>
 7    1  0.5676357E-006  0.3377261E+02  0.7818608E-02  0.1574269E+00
          2   -1    0    0  502    0  0.00000000000E+00  0.00000000000E+00  0.20849530346E+04  0.20849530346E+04  0.00000000000E+00 0. -1.
          1   -1    0    0  501    0 -0.00000000000E+00 -0.00000000000E+00 -0.67323342836E+03  0.67323342836E+03  0.00000000000E+00 0. -1.
         25    2    1    2    0    0  0.30218243552E+01 -0.11817782100E+01  0.18504174479E+03  0.22333074178E+03  0.12500257953E+03 0.  0.
          2    1    1    2  501    0  0.30397872631E+02 -0.51723623113E+01 -0.65357158745E+03  0.65429855870E+03  0.00000000000E+00 0. -1.
          1    1    1    2  502    0 -0.33419696987E+02  0.63541405213E+01  0.18802494489E+04  0.18805571625E+04  0.00000000000E+00 0. -1.
         22    1    3    3    0    0  0.20442766846E+02 -0.31994494573E+02  0.18404468233E+03  0.18792019448E+03  0.00000000000E+00 0. -1.
         22    1    3    3    0    0 -0.17420942491E+02  0.30812716363E+02  0.99706246224E+00  0.35410547306E+02  0.00000000000E+00 0. -1.
</event>
<event>
 7    1  0.5676357E-006  0.5693100E+02  0.7818608E-02  0.1541279E+00
          2   -1    0    0  502    0  0.00000000000E+00  0.00000000000E+00  0.24030593744E+04  0.24030593744E+04  0.00000000000E+00 0. -1.
          1   -1    0    0  501    0 -0.00000000000E+00 -0.00000000000E+00 -0.59122549053E+01  0.59122549053E+01  0.00000000000E+00 0. -1.
         25    2    1    2    0    0 -0.19280409837E+02 -0.34303385711E+02  0.14169055845E+04  0.14229529396E+04  0.12500070541E+03 0.  0.
          2    1    1    2  501    0  0.35508310463E+02  0.49975976198E+02  0.34690436806E+03  0.35227983038E+03  0.00000000000E+00 0. -1.
          1    1    1    2  502    0 -0.16227900625E+02 -0.15672590487E+02  0.63333716691E+03  0.63373885935E+03  0.00000000000E+00 0. -1.
         22    1    3    3    0    0 -0.72401851952E+02 -0.23918133423E+02  0.75657390165E+03  0.76040658462E+03  0.00000000000E+00 0. -1.
         22    1    3    3    0    0  0.53121442115E+02 -0.10385252288E+02  0.66033168286E+03  0.66254635496E+03  0.00000000000E+00 0. -1.
</event>
<event>
 7    1  0.5676357E-006  0.1354238E+03  0.7818608E-02  0.1394323E+00
          2   -1    0    0  502    0  0.00000000000E+00  0.00000000000E+00  0.11568159355E+04  0.11568159355E+04  0.00000000000E+00 0. -1.
          1   -1    0    0  501    0 -0.00000000000E+00 -0.00000000000E+00 -0.16771226019E+03  0.16771226019E+03  0.00000000000E+00 0. -1.
         25    2    1    2    0    0 -0.81826852740E+02 -0.10777001781E+03  0.32653231896E+03  0.37490501764E+03  0.12498162408E+03 0.  0.
          2    1    1    2  501    0  0.10205641469E+03  0.89383900091E+02 -0.11117186960E+03  0.17539720056E+03  0.00000000000E+00 0. -1.
          1    1    1    2  502    0 -0.20229561954E+02  0.18386117724E+02  0.77374322596E+03  0.77422597749E+03  0.00000000000E+00 0. -1.
         22    1    3    3    0    0 -0.54812041611E+02 -0.61212409145E+02  0.30673937670E+03  0.31755371854E+03  0.00000000000E+00 0. -1.
         22    1    3    3    0    0 -0.27014811129E+02 -0.46557608670E+02  0.19792942257E+02  0.57351299101E+02  0.00000000000E+00 0. -1.
</event>
<event>
 7    1  0.5676357E-006  0.4445020E+02  0.7818608E-02  0.1484993E+00
          2   -1    0    0  502    0  0.00000000000E+00  0.00000000000E+00  0.26487410562E+02  0.26487410562E+02  0.00000000000E+00 0. -1.
          1   -1    0    0  501    0 -0.00000000000E+00 -0.00000000000E+00 -0.34035214633E+04  0.34035214633E+04  0.00000000000E+00 0. -1.
         25    2    1    2    0    0 -0.61749127152E+01 -0.34657422997E+00 -0.19540187131E+03  0.23204433617E+03  0.12499773189E+03 0.  0.
          2    1    1    2  501    0  0.23294876030E+02 -0.38282971988E+02 -0.31338881402E+04  0.31342085305E+04  0.00000000000E+00 0. -1.
          1    1    1    2  502    0 -0.17119963314E+02  0.38629546218E+02 -0.47744041272E+02  0.63756007261E+02  0.00000000000E+00 0. -1.
         22    1    3    3    0    0 -0.24158463541E+02 -0.56477929351E+01 -0.20798825518E+03  0.20946274900E+03  0.00000000000E+00 0. -1.
         22    1    3    3    0    0  0.17983550826E+02  0.53012187051E+01  0.12586383875E+02  0.22581587170E+02  0.00000000000E+00 0. -1.
</event>
<event>
 7    1  0.5676357E-006  0.4699083E+02  0.7818608E-02  0.1471019E+00
          2   -1    0    0  502    0  0.00000000000E+00  0.00000000000E+00  0.92399497716E+03  0.92399497716E+03  0.00000000000E+00 0. -1.
          1   -1    0    0  501    0 -0.00000000000E+00 -0.00000000000E+00 -0.79108624962E+02  0.79108624962E+02  0.00000000000E+00 0. -1.
         25    2    1    2    0    0  0.23716717361E+02 -0.41269768106E+01  0.44624425355E+03  0.46404559554E+03  0.12499946516E+03 0.  0.
          2    1    1    2  501    0  0.12328499811E+02  0.42370219363E+02 -0.61628042968E+02  0.75797381726E+02  0.00000000000E+00 0. -1.
          1    1    1    2  502    0 -0.36045217172E+02 -0.38243242553E+02  0.46027014161E+03  0.46326062486E+03  0.00000000000E+00 0. -1.
         22    1    3    3    0    0 -0.27596362880E+02 -0.49502304062E+02  0.16072150752E+03  0.17042136114E+03  0.00000000000E+00 0. -1.
         22    1    3    3    0    0  0.51313080242E+02  0.45375327251E+02  0.28552274603E+03  0.29362423440E+03  0.00000000000E+00 0. -1.
</event>
<event>
 7    1  0.5676357E-006  0.1781730E+03  0.7818608E-02  0.1283590E+00
          2   -1    0    0  502    0  0.00000000000E+00  0.00000000000E+00  0.19275585624E+04  0.19275585624E+04  0.00000000000E+00 0. -1.
          1   -1    0    0  501    0 -0.00000000000E+00 -0.00000000000E+00 -0.10011003708E+03  0.10011003708E+03  0.00000000000E+00 0. -1.
         25    2    1    2    0    0  0.88452786720E+02  0.12616457386E+03  0.22674081383E+03  0.30129294437E+03  0.12499858599E+03 0.  0.
          2    1    1    2  501    0 -0.73925956656E+02 -0.17858738723E+03  0.87459672240E+02  0.21215017373E+03  0.00000000000E+00 0. -1.
          1    1    1    2  502    0 -0.14526830064E+02  0.52422813374E+02  0.15132480393E+04  0.15142254814E+04  0.00000000000E+00 0. -1.
         22    1    3    3    0    0 -0.52355584083E+01  0.34782853090E+02 -0.46242839248E+01  0.35477344077E+02  0.00000000000E+00 0. -1.
         22    1    3    3    0    0  0.93688345128E+02  0.91381720765E+02  0.23136509775E+03  0.26581560029E+03  0.00000000000E+00 0. -1.
</event>
<event>
 7    1  0.5676357E-006  0.9240367E+02  0.7818608E-02  0.1301941E+00
          2   -1    0    0  502    0  0.00000000000E+00  0.00000000000E+00  0.11415634273E+04  0.11415634273E+04  0.00000000000E+00 0. -1.
          1   -1    0    0  501    0 -0.00000000000E+00 -0.00000000000E+00 -0.22847481239E+03  0.22847481239E+03  0.00000000000E+00 0. -1.
         25    2    1    2    0    0 -0.36494382384E+01  0.68086013551E+02  0.38760909631E+03  0.41293827830E+03  0.12501274533E+03 0.  0.
          2    1    1    2  501    0 -0.87723181911E+02 -0.10878454643E+02 -0.20262028461E+03  0.22106260913E+03  0.00000000000E+00 0. -1.
          1    1    1    2  502    0  0.91372620149E+02 -0.57207558908E+02  0.72809980319E+03  0.73603735226E+03  0.00000000000E+00 0. -1.
         22    1    3    3    0    0 -0.78580693794E+01 -0.35914274949E+02  0.12993659406E+03  0.13503741287E+03  0.00000000000E+00 0. -1.
         22    1    3    3    0    0  0.42086311411E+01  0.10400028850E+03  0.25767250225E+03  0.27790086542E+03  0.00000000000E+00 0. -1.
</event>
<event>
 7    1  0.5676357E-006  0.7783987E+02  0.7818608E-02  0.1386996E+00
          2   -1    0    0  502    0  0.00000000000E+00  0.00000000000E+00  0.14671385684E+04  0.14671385684E+04  0.00000000000E+00 0. -1.
          1   -1    0    0  501    0 -0.00000000000E+00 -0.00000000000E+00 -0.73920999472E+02  0.73920999472E+02  0.00000000000E+00 0. -1.
         25    2    1    2    0    0  0.11987511072E+03 -0.21009672748E+02  0.19233046123E+03  0.25966975808E+03  0.12500371364E+03 0.  0.
          2    1    1    2  501    0 -0.69612959291E+02  0.16772709046E+02 -0.74579598794E+01  0.71992423460E+02  0.00000000000E+00 0. -1.
          1    1    1    2  502    0 -0.50262151432E+02  0.42369637020E+01  0.12083450676E+04  0.12093973863E+04  0.00000000000E+00 0. -1.
         22    1    3    3    0    0  0.10295801367E+03  0.31370990977E+02  0.78461489583E+02  0.13319420784E+03  0.00000000000E+00 0. -1.
         22    1    3    3    0    0  0.16917097049E+02 -0.52380663725E+02  0.11386897164E+03  0.12647555024E+03  0.00000000000E+00 0. -1.
</event>
<event>
 7    1  0.5676357E-006  0.1172986E+03  0.7818608E-02  0.1275812E+00
          2   -1    0    0  502    0  0.00000000000E+00  0.00000000000E+00  0.16018249484E+04  0.16018249484E+04  0.00000000000E+00 0. -1.
          1   -1    0    0  501    0 -0.00000000000E+00 -0.00000000000E+00 -0.10263053064E+04  0.10263053064E+04  0.00000000000E+00 0. -1.
         25    2    1    2    0    0  0.23232380633E+02 -0.20357032467E+03 -0.92926502869E+02  0.25737191462E+03  0.12499738758E+03 0.  0.
          2    1    1    2  501    0 -0.15327135498E+02  0.87650719020E+02 -0.84660010646E+03  0.85126336106E+03  0.00000000000E+00 0. -1.
          1    1    1    2  502    0 -0.79052451352E+01  0.11591960565E+03  0.15150462514E+04  0.15194949791E+04  0.00000000000E+00 0. -1.
         22    1    3    3    0    0  0.11162770834E+02 -0.40761222813E+02  0.30996017420E+02  0.52410283664E+02  0.00000000000E+00 0.  1.
         22    1    3    3    0    0  0.12069609799E+02 -0.16280910186E+03 -0.12392252029E+03  0.20496163096E+03  0.00000000000E+00 0.  1.
</event>
<event>
 7    1  0.5676357E-006  0.2951634E+03  0.7818608E-02  0.1107620E+00
          2   -1    0    0  502    0  0.00000000000E+00  0.00000000000E+00  0.12150740635E+04  0.12150740635E+04  0.00000000000E+00 0. -1.
          1   -1    0    0  501    0 -0.00000000000E+00 -0.00000000000E+00 -0.28703000730E+03  0.28703000730E+03  0.00000000000E+00 0. -1.
         25    2    1    2    0    0  0.19410103058E+03  0.80497608147E+02  0.14941026183E+03  0.28653564985E+03  0.12499670918E+03 0.  0.
          2    1    1    2  501    0 -0.37858329968E+03  0.52856225441E+02 -0.22309511440E+02  0.38290574515E+03  0.00000000000E+00 0. -1.
          1    1    1    2  502    0  0.18448226910E+03 -0.13335383359E+03  0.80094330578E+03  0.83266267577E+03  0.00000000000E+00 0. -1.
         22    1    3    3    0    0  0.97599495319E+02  0.10597258221E+03  0.78153497826E+02  0.16390185749E+03  0.00000000000E+00 0. -1.
         22    1    3    3    0    0  0.96501535260E+02 -0.25474974065E+02  0.71256764002E+02  0.12263379235E+03  0.00000000000E+00 0. -1.
</event>
<event>
 7    1  0.5676357E-006  0.7271278E+02  0.7818608E-02  0.1396943E+00
          2   -1    0    0  502    0  0.00000000000E+00  0.00000000000E+00  0.86663612036E+03  0.86663612036E+03  0.00000000000E+00 0. -1.
          1   -1    0    0  501    0 -0.00000000000E+00 -0.00000000000E+00 -0.14308732401E+04  0.14308732401E+04  0.00000000000E+00 0. -1.
         25    2    1    2    0    0  0.26263580840E+02 -0.79997810879E+02  0.60569302984E+03  0.62416162358E+03  0.12499704211E+03 0.  0.
          2    1    1    2  501    0 -0.59053979682E+02  0.42435905691E+02 -0.14182289732E+04  0.14200921094E+04  0.00000000000E+00 0. -1.
          1    1    1    2  502    0  0.32790398842E+02  0.37561905188E+02  0.24829882371E+03  0.25325562744E+03  0.00000000000E+00 0. -1.
         22    1    3    3    0    0  0.25645705066E+02 -0.10727200461E+03  0.34877248872E+03  0.36579671137E+03  0.00000000000E+00 0. -1.
         22    1    3    3    0    0  0.61787577402E+00  0.27274193732E+02  0.25692054112E+03  0.25836491222E+03  0.00000000000E+00 0. -1.
</event>
<event>
 7    1  0.5676357E-006  0.2742507E+03  0.7818608E-02  0.1236568E+00
          2   -1    0    0  502    0  0.00000000000E+00  0.00000000000E+00  0.72614493128E+03  0.72614493128E+03  0.00000000000E+00 0. -1.
          1   -1    0    0  501    0 -0.00000000000E+00 -0.00000000000E+00 -0.79426665123E+03  0.79426665123E+03  0.00000000000E+00 0. -1.
         25    2    1    2    0    0  0.13256401114E+03  0.20138223584E+03  0.10486151179E+03  0.29111716949E+03  0.12500099102E+03 0.  0.
          2    1    1    2  501    0  0.52184775317E+02  0.20608705577E+02 -0.66037737745E+03  0.66275655423E+03  0.00000000000E+00 0. -1.
          1    1    1    2  502    0 -0.18474878646E+03 -0.22199094142E+03  0.48739414571E+03  0.56653785879E+03  0.00000000000E+00 0. -1.
         22    1    3    3    0    0  0.29074871643E+02 -0.41871690750E+01  0.44263294195E+02  0.53123627125E+02  0.00000000000E+00 0.  1.
         22    1    3    3    0    0  0.10348913950E+03  0.20556940492E+03  0.60598217593E+02  0.23799354237E+03  0.00000000000E+00 0.  1.
</event>
<event>
 7    1  0.5676357E-006  0.8839345E+02  0.7818608E-02  0.1404147E+00
          2   -1    0    0  502    0  0.00000000000E+00  0.00000000000E+00  0.15262847237E+04  0.15262847237E+04  0.00000000000E+00 0. -1.
          1   -1    0    0  501    0 -0.00000000000E+00 -0.00000000000E+00 -0.38378113926E+03  0.38378113926E+03  0.00000000000E+00 0. -1.
         25    2    1    2    0    0  0.95710933261E+02 -0.62975362188E+02 -0.95732182666E+02  0.19471736585E+03  0.12499489100E+03 0.  0.
          2    1    1    2  501    0 -0.11419091716E+02  0.37022281101E+02 -0.23565634176E+03  0.23881992456E+03  0.00000000000E+00 0. -1.
          1    1    1    2  502    0 -0.84291841545E+02  0.25953081087E+02  0.14738921089E+04  0.14765285726E+04  0.00000000000E+00 0. -1.
         22    1    3    3    0    0  0.22222361538E+02  0.30986681479E+02 -0.58359885271E+02  0.69712868183E+02  0.00000000000E+00 0. -1.
         22    1    3    3    0    0  0.73488571722E+02 -0.93962043666E+02 -0.37372297395E+02  0.12500449766E+03  0.00000000000E+00 0. -1.
</event>
<event>
 7    1  0.5676357E-006  0.1576250E+03  0.7818608E-02  0.1322890E+00
          2   -1    0    0  502    0  0.00000000000E+00  0.00000000000E+00  0.32956203430E+03  0.32956203430E+03  0.00000000000E+00 0. -1.
          1   -1    0    0  501    0 -0.00000000000E+00 -0.00000000000E+00 -0.18032694170E+04  0.18032694170E+04  0.00000000000E+00 0. -1.
         25    2    1    2    0    0 -0.19921179641E+03  0.89522887423E+01  0.14740361784E+03  0.27770186848E+03  0.12500007160E+03 0.  0.
          2    1    1    2  501    0  0.15691728362E+03 -0.18993086053E+01 -0.17305186972E+04  0.17376195218E+04  0.00000000000E+00 0. -1.
          1    1    1    2  502    0  0.42294512788E+02 -0.70529801371E+01  0.10940769668E+03  0.11751006099E+03  0.00000000000E+00 0. -1.
         22    1    3    3    0    0 -0.38433189908E+02  0.53785870332E+02  0.24823644938E+02  0.70613336431E+02  0.00000000000E+00 0.  1.
         22    1    3    3    0    0 -0.16077860650E+03 -0.44833581590E+02  0.12257997290E+03  0.20708853204E+03  0.00000000000E+00 0.  1.
</event>
<event>
 7    1  0.5676357E-006  0.8696076E+02  0.7818608E-02  0.1336611E+00
          2   -1    0    0  502    0  0.00000000000E+00  0.00000000000E+00  0.47668180132E+03  0.47668180132E+03  0.00000000000E+00 0. -1.
          1   -1    0    0  501    0 -0.00000000000E+00 -0.00000000000E+00 -0.90819717327E+03  0.90819717327E+03  0.00000000000E+00 0. -1.
         25    2    1    2    0    0 -0.38695627955E+02 -0.45864230206E+02 -0.12838095310E+02  0.13925985616E+03  0.12501044601E+03 0.  0.
          2    1    1    2  501    0  0.88774881472E+02 -0.14293058707E+01 -0.82688632933E+03  0.83163935941E+03  0.00000000000E+00 0. -1.
          1    1    1    2  502    0 -0.50079253517E+02  0.47293536077E+02  0.40820905269E+03  0.41397975903E+03  0.00000000000E+00 0. -1.
         22    1    3    3    0    0 -0.24270109489E+02  0.42239616947E+02 -0.11107951651E+02  0.49966088943E+02  0.00000000000E+00 0. -1.
         22    1    3    3    0    0 -0.14425518466E+02 -0.88103847153E+02 -0.17301436583E+01  0.89293767213E+02  0.00000000000E+00 0. -1.
</event>
<event>
 7    1  0.5676357E-006  0.1080906E+03  0.7818608E-02  0.1333871E+00
          2   -1    0    0  502    0  0.00000000000E+00  0.00000000000E+00  0.83838943589E+02  0.83838943589E+02  0.00000000000E+00 0. -1.
          1   -1    0    0  501    0 -0.00000000000E+00 -0.00000000000E+00 -0.16983253785E+04  0.16983253785E+04  0.00000000000E+00 0. -1.
         25    2    1    2    0    0 -0.15050247220E+03  0.57369074968E+02 -0.30340866690E+03  0.36554595954E+03  0.12499929795E+03 0.  0.
          2    1    1    2  501    0  0.99422032160E+02 -0.32626831583E+02 -0.13459452172E+04  0.13500065845E+04  0.00000000000E+00 0. -1.
          1    1    1    2  502    0  0.51080440040E+02 -0.24742243385E+02  0.34867449155E+02  0.66611778034E+02  0.00000000000E+00 0. -1.
         22    1    3    3    0    0 -0.12699744218E+03 -0.14594364946E+02 -0.18019968338E+03  0.22093725739E+03  0.00000000000E+00 0.  1.
         22    1    3    3    0    0 -0.23505030015E+02  0.71963439914E+02 -0.12320898352E+03  0.14460870216E+03  0.00000000000E+00 0.  1.
</event>
<event>
 7    1  0.5676357E-006  0.1141389E+03  0.7818608E-02  0.1362756E+00
          2   -1    0    0  502    0  0.00000000000E+00  0.00000000000E+00  0.91606106672E+02  0.91606106672E+02  0.00000000000E+00 0. -1.
          1   -1    0    0  501    0 -0.00000000000E+00 -0.00000000000E+00 -0.10122630600E+04  0.10122630600E+04  0.00000000000E+00 0. -1.
         25    2    1    2    0    0 -0.83059892758E+02  0.50756884669E+02 -0.68977169160E+02  0.17279464353E+03  0.12499972736E+03 0.  0.
          2    1    1    2  501    0 -0.10210432442E+02  0.40721771382E+02 -0.78178067141E+03  0.78290710419E+03  0.00000000000E+00 0. -1.
          1    1    1    2  502    0  0.93270325199E+02 -0.91478656051E+02 -0.69899112755E+02  0.14816741895E+03  0.00000000000E+00 0. -1.
         22    1    3    3    0    0  0.12982408364E+02  0.45584388833E+02  0.98836195085E+01  0.48416581527E+02  0.00000000000E+00 0.  1.
         22    1    3    3    0    0 -0.96042301121E+02  0.51724958364E+01 -0.78860788669E+02  0.12437806200E+03  0.00000000000E+00 0.  1.
</event>
<event>
 7    1  0.5676357E-006  0.4949705E+02  0.7818608E-02  0.1565599E+00
          2   -1    0    0  502    0  0.00000000000E+00  0.00000000000E+00  0.66624991881E+03  0.66624991881E+03  0.00000000000E+00 0. -1.
          1   -1    0    0  501    0 -0.00000000000E+00 -0.00000000000E+00 -0.63986762757E+02  0.63986762757E+02  0.00000000000E+00 0. -1.
         25    2    1    2    0    0 -0.10420663403E+02  0.43935929061E+02  0.19503402453E+03  0.23601203299E+03  0.12499781159E+03 0.  0.
          2    1    1    2  501    0 -0.21552930254E+02 -0.53699990086E+01 -0.39166695878E+02  0.45026611663E+02  0.00000000000E+00 0. -1.
          1    1    1    2  502    0  0.31973593657E+02 -0.38565930052E+02  0.44639582740E+03  0.44919803692E+03  0.00000000000E+00 0. -1.
         22    1    3    3    0    0  0.21170986121E+02  0.33007025598E+02  0.19856270045E+03  0.20239767885E+03  0.00000000000E+00 0. -1.
         22    1    3    3    0    0 -0.31591649524E+02  0.10928903463E+02 -0.35286759189E+01  0.33614354140E+02  0.00000000000E+00 0. -1.
</event>
<event>
 7    1  0.5676357E-006  0.9666950E+02  0.7818608E-02  0.1424893E+00
          2   -1    0    0  502    0  0.00000000000E+00  0.00000000000E+00  0.60439777893E+03  0.60439777893E+03  0.00000000000E+00 0. -1.
          1   -1    0    0  501    0 -0.00000000000E+00 -0.00000000000E+00 -0.10005849129E+04  0.10005849129E+04  0.00000000000E+00 0. -1.
         25    2    1    2    0    0  0.68284887350E+02  0.11586253253E+02 -0.24738645813E+03  0.28569497588E+03  0.12499796987E+03 0.  0.
          2    1    1    2  501    0  0.28776026750E+02 -0.90426756460E+01 -0.72970339125E+03  0.73032654950E+03  0.00000000000E+00 0. -1.
          1    1    1    2  502    0 -0.97060914100E+02 -0.25435776073E+01  0.58090271541E+03  0.58896116646E+03  0.00000000000E+00 0. -1.
         22    1    3    3    0    0 -0.20906445706E+02 -0.24784448768E+02 -0.18416233382E+02  0.37289489468E+02  0.00000000000E+00 0.  1.
         22    1    3    3    0    0  0.89191333056E+02  0.36370702021E+02 -0.22897022474E+03  0.24840548641E+03  0.00000000000E+00 0.  1.
</event>
<event>
 7    1  0.5676357E-006  0.8714175E+02  0.7818608E-02  0.1364815E+00
          2   -1    0    0  502    0  0.00000000000E+00  0.00000000000E+00  0.23657775473E+03  0.23657775473E+03  0.00000000000E+00 0. -1.
          1   -1    0    0  501    0 -0.00000000000E+00 -0.00000000000E+00 -0.71709361617E+03  0.71709361617E+03  0.00000000000E+00 0. -1.
         25    2    1    2    0    0  0.47378179788E+02  0.10026340894E+03  0.43420102883E+02  0.17264781716E+03  0.12499808136E+03 0.  0.
          2    1    1    2  501    0  0.49464141976E+01 -0.86712365318E+02 -0.64374965073E+03  0.64958226125E+03  0.00000000000E+00 0. -1.
          1    1    1    2  502    0 -0.52324593986E+02 -0.13551043625E+02  0.11981368641E+03  0.13144129248E+03  0.00000000000E+00 0. -1.
         22    1    3    3    0    0  0.27215766241E+02  0.15500932895E+01 -0.35434486513E+02  0.44706862513E+02  0.00000000000E+00 0. -1.
         22    1    3    3    0    0  0.20162413547E+02  0.98713315653E+02  0.78854589396E+02  0.12794095465E+03  0.00000000000E+00 0. -1.
</event>
<event>
 7    1  0.5676357E-006  0.8640863E+02  0.7818608E-02  0.1473378E+00
          2   -1    0    0  502    0  0.00000000000E+00  0.00000000000E+00  0.14961091839E+04  0.14961091839E+04  0.00000000000E+00 0. -1.
          1   -1    0    0  501    0 -0.00000000000E+00 -0.00000000000E+00 -0.38398978028E+03  0.38398978028E+03  0.00000000000E+00 0. -1.
         25    2    1    2    0    0 -0.69040150834E+02 -0.29850792594E+02 -0.10781830329E+02  0.14628893703E+03  0.12500637179E+03 0.  0.
          2    1    1    2  501    0  0.84283489524E+00 -0.23581495419E+02 -0.30368256612E+03  0.30459792885E+03  0.00000000000E+00 0. -1.
          1    1    1    2  502    0  0.68197315939E+02  0.53432288013E+02  0.14265838000E+04  0.14292120983E+04  0.00000000000E+00 0. -1.
         22    1    3    3    0    0 -0.10502502005E+03 -0.20018920649E+02  0.17683633472E+01  0.10693053413E+03  0.00000000000E+00 0.  1.
         22    1    3    3    0    0  0.35984869212E+02 -0.98318719453E+01 -0.12550193676E+02  0.39358402908E+02  0.00000000000E+00 0.  1.
</event>
<event>
 7    1  0.5676357E-006  0.8372805E+02  0.7818608E-02  0.1429430E+00
          2   -1    0    0  502    0  0.00000000000E+00  0.00000000000E+00  0.12447401769E+03  0.12447401769E+03  0.00000000000E+00 0. -1.
          1   -1    0    0  501    0 -0.00000000000E+00 -0.00000000000E+00 -0.76447896414E+03  0.76447896414E+03  0.00000000000E+00 0. -1.
         25    2    1    2    0    0  0.55694098698E+02 -0.67938101135E+02 -0.18227557557E+03  0.23783828685E+03  0.12500098810E+03 0.  0.
          2    1    1    2  501    0 -0.73964313618E+02  0.39687515123E+02 -0.54820097199E+03  0.55459005061E+03  0.00000000000E+00 0. -1.
          1    1    1    2  502    0  0.18270214920E+02  0.28250586012E+02  0.90471601110E+02  0.96524644370E+02  0.00000000000E+00 0. -1.
         22    1    3    3    0    0  0.63922339446E+02 -0.78270625219E+02 -0.65742050593E+02  0.12055858936E+03  0.00000000000E+00 0. -1.
         22    1    3    3    0    0 -0.82282407485E+01  0.10332524083E+02 -0.11653352498E+03  0.11727969749E+03  0.00000000000E+00 0. -1.
</event>
<event>
 7    1  0.5676357E-006  0.3037281E+02  0.7818608E-02  0.1656946E+00
          2   -1    0    0  502    0  0.00000000000E+00  0.00000000000E+00  0.71372344273E+03  0.71372344273E+03  0.00000000000E+00 0. -1.
          1   -1    0    0  501    0 -0.00000000000E+00 -0.00000000000E+00 -0.91717840714E+03  0.91717840714E+03  0.00000000000E+00 0. -1.
         25    2    1    2    0    0 -0.44784887367E+02 -0.35570970912E+01 -0.17164132020E+03  0.21703221981E+03  0.12499561016E+03 0.  0.
          2    1    1    2  501    0  0.28567348647E+02 -0.98611248248E+01 -0.72236532097E+03  0.72299722830E+03  0.00000000000E+00 0. -1.
          1    1    1    2  502    0  0.16217538720E+02  0.13418221916E+02  0.69055167676E+03  0.69087240177E+03  0.00000000000E+00 0. -1.
         22    1    3    3    0    0  0.48050182901E+00 -0.15821241687E+02 -0.16934026549E+03  0.17007841747E+03  0.00000000000E+00 0.  1.
         22    1    3    3    0    0 -0.45265389196E+02  0.12264144596E+02 -0.23010547112E+01  0.46953802344E+02  0.00000000000E+00 0.  1.
</event>
<event>
 7    1  0.5676357E-006  0.1391284E+03  0.7818608E-02  0.1223115E+00
          2   -1    0    0  502    0  0.00000000000E+00  0.00000000000E+00  0.85837682687E+03  0.85837682687E+03  0.00000000000E+00 0. -1.
          1   -1    0    0  501    0 -0.00000000000E+00 -0.00000000000E+00 -0.21104631634E+03  0.21104631634E+03  0.00000000000E+00 0. -1.
         25    2    1    2    0    0 -0.13507887911E+03 -0.10255033179E+03  0.38072351528E+03  0.43513082945E+03  0.12500227807E+03 0.  0.
          2    1    1    2  501    0  0.12103252577E+03 -0.38747519626E+02 -0.14856836838E+03  0.19550652842E+03  0.00000000000E+00 0. -1.
          1    1    1    2  502    0  0.14046353344E+02  0.14129785141E+03  0.41517536362E+03  0.43878578534E+03  0.00000000000E+00 0. -1.
         22    1    3    3    0    0  0.13427560693E+02 -0.83154490261E+00  0.10496101193E+03  0.10581968096E+03  0.00000000000E+00 0. -1.
         22    1    3    3    0    0 -0.14850643981E+03 -0.10171878688E+03  0.27576250336E+03  0.32931114850E+03  0.00000000000E+00 0. -1.
</event>
<event>
 7    1  0.1260274E-005  0.5443950E+02  0.7818608E-02  0.1422911E+00
          2   -1    0    0  502    0  0.00000000000E+00  0.00000000000E+00  0.21933665374E+04  0.21933665374E+04  0.00000000000E+00 0. -1.
          1   -1    0    0  501    0 -0.00000000000E+00 -0.00000000000E+00 -0.83480561156E+03  0.83480561156E+03  0.00000000000E+00 0. -1.
         25    2    1    2    0    0 -0.17719211593E+02  0.48195229958E+02 -0.71771754290E+02  0.15302224416E+03  0.12501148684E+03 0.  0.
          2    1    1    2  501    0  0.54541268140E+02 -0.80979136025E+01 -0.72101162052E+03  0.72311692212E+03  0.00000000000E+00 0. -1.
          1    1    1    2  502    0 -0.36822056547E+02 -0.40097316355E+02  0.21513443006E+04  0.21520329827E+04  0.00000000000E+00 0. -1.
         22    1    3    3    0    0  0.53294516605E+02  0.90781092855E+01 -0.27808268812E+02  0.60794879576E+02  0.00000000000E+00 0. -1.
         22    1    3    3    0    0 -0.71013728198E+02  0.39117120672E+02 -0.43963485479E+02  0.92227364582E+02  0.00000000000E+00 0. -1.
</event>
<event>
 7    1  0.5676357E-006  0.1041149E+03  0.7818608E-02  0.1368958E+00
          2   -1    0    0  502    0  0.00000000000E+00  0.00000000000E+00  0.20554870094E+03  0.20554870094E+03  0.00000000000E+00 0. -1.
          1   -1    0    0  501    0 -0.00000000000E+00 -0.00000000000E+00 -0.22653370817E+03  0.22653370817E+03  0.00000000000E+00 0. -1.
         25    2    1    2    0    0 -0.10539446482E+03 -0.61479274960E+02 -0.95623355333E+02  0.19913985271E+03  0.12500064156E+03 0.  0.
          2    1    1    2  501    0  0.93767477644E+02  0.19347163052E+02 -0.44838638923E+02  0.10572207018E+03  0.00000000000E+00 0. -1.
          1    1    1    2  502    0  0.11626987175E+02  0.42132111908E+02  0.11947698703E+03  0.12722048622E+03  0.00000000000E+00 0. -1.
         22    1    3    3    0    0 -0.19634878333E+02 -0.44695243674E+02 -0.10038265365E+03  0.11162378961E+03  0.00000000000E+00 0. -1.
         22    1    3    3    0    0 -0.85759586486E+02 -0.16784031286E+02  0.47592983127E+01  0.87516063102E+02  0.00000000000E+00 0. -1.
</event>
<event>
 7    1  0.5676357E-006  0.3198172E+02  0.7818608E-02  0.1643554E+00
          2   -1    0    0  502    0  0.00000000000E+00  0.00000000000E+00  0.55566664929E+03  0.55566664929E+03  0.00000000000E+00 0. -1.
          1   -1    0    0  501    0 -0.00000000000E+00 -0.00000000000E+00 -0.12019088341E+04  0.12019088341E+04  0.00000000000E+00 0. -1.
         25    2    1    2    0    0 -0.17562219377E+02  0.50510106979E+02  0.33906311270E+03  0.36530670927E+03  0.12500197991E+03 0.  0.
          2    1    1    2  501    0  0.93965043581E+01 -0.30556472699E+02 -0.11880003138E+04  0.11884303673E+04  0.00000000000E+00 0. -1.
          1    1    1    2  502    0  0.81657150193E+01 -0.19953634280E+02  0.20269501635E+03  0.20383840677E+03  0.00000000000E+00 0. -1.
         22    1    3    3    0    0  0.25717920544E+02 -0.70553804482E+01  0.24692355980E+03  0.24835948585E+03  0.00000000000E+00 0. -1.
         22    1    3    3    0    0 -0.43280139922E+02  0.57565487427E+02  0.92139552907E+02  0.11694722341E+03  0.00000000000E+00 0. -1.
</event>
<event>
 7    1  0.5676357E-006  0.4377470E+02  0.7818608E-02  0.1543096E+00
          2   -1    0    0  502    0  0.00000000000E+00  0.00000000000E+00  0.29785647310E+03  0.29785647310E+03  0.00000000000E+00 0. -1.
          1   -1    0    0  501    0 -0.00000000000E+00 -0.00000000000E+00 -0.11108645287E+04  0.11108645287E+04  0.00000000000E+00 0. -1.
         25    2    1    2    0    0  0.33713530665E+02 -0.63501469188E+02 -0.23867328384E+02  0.14616232850E+03  0.12499895267E+03 0.  0.
          2    1    1    2  501    0 -0.16018419774E+02  0.24171006626E+02 -0.10236782516E+04  0.10240888585E+04  0.00000000000E+00 0. -1.
          1    1    1    2  502    0 -0.17695110890E+02  0.39330462562E+02  0.23453752437E+03  0.23846981481E+03  0.00000000000E+00 0. -1.
         22    1    3    3    0    0  0.92727230164E+01 -0.70794554056E+02 -0.65791252464E+02  0.97089346361E+02  0.00000000000E+00 0.  1.
         22    1    3    3    0    0  0.24440807649E+02  0.72930848670E+01  0.41923924080E+02  0.49072982136E+02  0.00000000000E+00 0.  1.
</event>
<event>
 7    1  0.5676357E-006  0.1829525E+03  0.7818608E-02  0.1173415E+00
          2   -1    0    0  502    0  0.00000000000E+00  0.00000000000E+00  0.11228670746E+04  0.11228670746E+04  0.00000000000E+00 0. -1.
          1   -1    0    0  501    0 -0.00000000000E+00 -0.00000000000E+00 -0.77289746992E+03  0.77289746992E+03  0.00000000000E+00 0. -1.
         25    2    1    2    0    0  0.11568899845E+03  0.14325187468E+03  0.13316580509E+03  0.25935214979E+03  0.12500144798E+03 0.  0.
          2    1    1    2  501    0 -0.16001679626E+03  0.44526027845E+02 -0.68979509129E+03  0.70951054270E+03  0.00000000000E+00 0. -1.
          1    1    1    2  502    0  0.44327797812E+02 -0.18777790253E+03  0.90659889087E+03  0.92690185201E+03  0.00000000000E+00 0. -1.
         22    1    3    3    0    0  0.11543563433E+03  0.10304161688E+03  0.15023342616E+03  0.21566882672E+03  0.00000000000E+00 0. -1.
         22    1    3    3    0    0  0.25336411570E+00  0.40210257798E+02 -0.17067621076E+02  0.43683323073E+02  0.00000000000E+00 0. -1.
</event>
<event>
 7    1  0.5676357E-006  0.4147283E+02  0.7818608E-02  0.1540486E+00
          2   -1    0    0  502    0  0.00000000000E+00  0.00000000000E+00  0.44200736668E+03  0.44200736668E+03  0.00000000000E+00 0. -1.
          1   -1    0    0  501    0 -0.00000000000E+00 -0.00000000000E+00 -0.19882841436E+03  0.19882841436E+03  0.00000000000E+00 0. -1.
         25    2    1    2    0    0  0.13180747059E+02  0.15721557726E+02  0.21026027210E+02  0.12839879756E+03  0.12499303150E+03 0.  0.
          2    1    1    2  501    0 -0.16809390899E+02  0.26200974931E+02 -0.14224809766E+03  0.14561444982E+03  0.00000000000E+00 0. -1.
          1    1    1    2  502    0  0.36286438395E+01 -0.41922532657E+02  0.36440102277E+03  0.36682253365E+03  0.00000000000E+00 0. -1.
         22    1    3    3    0    0  0.55357644949E+01 -0.45106699990E+02 -0.24879768799E+02  0.51809863617E+02  0.00000000000E+00 0. -1.
         22    1    3    3    0    0  0.76449825643E+01  0.60828257716E+02  0.45905796009E+02  0.76588933942E+02  0.00000000000E+00 0. -1.
</event>
<event>
 7    1  0.5676357E-006  0.6750475E+02  0.7818608E-02  0.1425013E+00
          2   -1    0    0  502    0  0.00000000000E+00  0.00000000000E+00  0.15798266362E+04  0.15798266362E+04  0.00000000000E+00 0. -1.
          1   -1    0    0  501    0 -0.00000000000E+00 -0.00000000000E+00 -0.10071586505E+03  0.10071586505E+03  0.00000000000E+00 0. -1.
         25    2    1    2    0    0 -0.13265087398E+02 -0.81992910397E+02  0.53831133454E+02  0.15944151466E+03  0.12500002307E+03 0.  0.
          2    1    1    2  501    0 -0.30425086932E+02  0.30606100515E+02 -0.37254982106E+02  0.57011867144E+02  0.00000000000E+00 0. -1.
          1    1    1    2  502    0  0.43690174331E+02  0.51386809882E+02  0.14625346198E+04  0.14640891194E+04  0.00000000000E+00 0. -1.
         22    1    3    3    0    0  0.10134749909E+02 -0.84568666212E+02 -0.15188669232E+02  0.86517444100E+02  0.00000000000E+00 0. -1.
         22    1    3    3    0    0 -0.23399837307E+02  0.25757558152E+01  0.69019802685E+02  0.72924070558E+02  0.00000000000E+00 0. -1.
</event>
<event>
 7    1  0.5676357E-006  0.6009271E+02  0.7818608E-02  0.1511439E+00
          2   -1    0    0  502    0  0.00000000000E+00  0.00000000000E+00  0.46275838102E+03  0.46275838102E+03  0.00000000000E+00 0. -1.
          1   -1    0    0  501    0 -0.00000000000E+00 -0.00000000000E+00 -0.32275576218E+03  0.32275576218E+03  0.00000000000E+00 0. -1.
         25    2    1    2    0    0  0.74567308446E+02 -0.21141284934E+02  0.22075984892E+03  0.26526734808E+03  0.12499847058E+03 0.  0.
          2    1    1    2  501    0 -0.17109411957E+02  0.19642591511E+02 -0.29616200027E+03  0.29730538808E+03  0.00000000000E+00 0. -1.
          1    1    1    2  502    0 -0.57457896489E+02  0.14986934225E+01  0.21540477019E+03  0.22294140703E+03  0.00000000000E+00 0. -1.
         22    1    3    3    0    0  0.52932031404E+02  0.40554184828E+02  0.52873958529E+02  0.85100513196E+02  0.00000000000E+00 0. -1.
         22    1    3    3    0    0  0.21635277042E+02 -0.61695469762E+02  0.16788589039E+03  0.18016683489E+03  0.00000000000E+00 0. -1.
</event>
<event>
 7    1  0.5676357E-006  0.1195501E+03  0.7818608E-02  0.1317978E+00
          2   -1    0    0  502    0  0.00000000000E+00  0.00000000000E+00  0.24934153359E+04  0.24934153359E+04  0.00000000000E+00 0. -1.
          1   -1    0    0  501    0 -0.00000000000E+00 -0.00000000000E+00 -0.12750039132E+03  0.12750039132E+03  0.00000000000E+00 0. -1.
         25    2    1    2    0    0 -0.93815789293E+02 -0.70929021365E+02  0.11707961824E+03  0.20776243186E+03  0.12500105078E+03 0.  0.
          2    1    1    2  501    0  0.44667542461E+02 -0.38652301825E+02 -0.69782930659E+02  0.91426731305E+02  0.00000000000E+00 0. -1.
          1    1    1    2  502    0  0.49148246832E+02  0.10958132319E+03  0.23186182570E+04  0.23217265641E+04  0.00000000000E+00 0. -1.
         22    1    3    3    0    0 -0.22142320452E+02 -0.74146862326E+02  0.88148476957E+01  0.77882867742E+02  0.00000000000E+00 0. -1.
         22    1    3    3    0    0 -0.71673468841E+02  0.32178409611E+01  0.10826477054E+03  0.12987956412E+03  0.00000000000E+00 0. -1.
</event>
<event>
 7    1  0.5676357E-006  0.4045571E+03  0.7818608E-02  0.1180637E+00
          2   -1    0    0  502    0  0.00000000000E+00  0.00000000000E+00  0.84384375550E+03  0.84384375550E+03  0.00000000000E+00 0. -1.
          1   -1    0    0  501    0 -0.00000000000E+00 -0.00000000000E+00 -0.66556407876E+03  0.66556407876E+03  0.00000000000E+00 0. -1.
         25    2    1    2    0    0 -0.19615434847E+03 -0.31447342482E+03  0.31160076098E+02  0.39238791382E+03  0.12500904459E+03 0.  0.
          2    1    1    2  501    0  0.26433519014E+03  0.32647428972E+03 -0.39134919683E+03  0.57411910650E+03  0.00000000000E+00 0. -1.
          1    1    1    2  502    0 -0.68180841671E+02 -0.12000864896E+02  0.53846879747E+03  0.54290081394E+03  0.00000000000E+00 0. -1.
         22    1    3    3    0    0 -0.13928442821E+03 -0.23091851832E+03 -0.34484585659E+02  0.27186890351E+03  0.00000000000E+00 0. -1.
         22    1    3    3    0    0 -0.56869920267E+02 -0.83554906495E+02  0.65644661757E+02  0.12051901032E+03  0.00000000000E+00 0. -1.
</event>
<event>
 7    1  0.1233726E-005  0.9113266E+02  0.7818608E-02  0.1323973E+00
          2   -1    0    0  502    0  0.00000000000E+00  0.00000000000E+00  0.10457602941E+04  0.10457602941E+04  0.00000000000E+00 0. -1.
          1   -1    0    0  501    0 -0.00000000000E+00 -0.00000000000E+00 -0.18922397402E+04  0.18922397402E+04  0.00000000000E+00 0. -1.
         25    2    1    2    0    0 -0.25876794001E+02 -0.88908285217E+01 -0.19441192592E+03  0.23274123078E+03  0.12499531298E+03 0.  0.
          2    1    1    2  501    0  0.63349273383E+02  0.72066562354E+02 -0.16759752930E+04  0.16787197213E+04  0.00000000000E+00 0. -1.
          1    1    1    2  502    0 -0.37472479382E+02 -0.63175733832E+02  0.10239077729E+04  0.10265390823E+04  0.00000000000E+00 0. -1.
         22    1    3    3    0    0 -0.32754347075E+01  0.57453546468E+02 -0.95883144575E+02  0.11182672260E+03  0.00000000000E+00 0. -1.
         22    1    3    3    0    0 -0.22601359293E+02 -0.66344374990E+02 -0.98528781341E+02  0.12091450817E+03  0.00000000000E+00 0. -1.
</event>
<event>
 7    1  0.5676357E-006  0.1266422E+03  0.7818608E-02  0.1290483E+00
          2   -1    0    0  502    0  0.00000000000E+00  0.00000000000E+00  0.48028126892E+03  0.48028126892E+03  0.00000000000E+00 0. -1.
          1   -1    0    0  501    0 -0.00000000000E+00 -0.00000000000E+00 -0.74364564319E+03  0.74364564319E+03  0.00000000000E+00 0. -1.
         25    2    1    2    0    0 -0.36552194739E+02 -0.75094690240E+02  0.83034904198E+02  0.17174197981E+03  0.12500094748E+03 0.  0.
          2    1    1    2  501    0  0.26092194602E+02 -0.66812731149E+02 -0.68299368802E+03  0.68674967895E+03  0.00000000000E+00 0. -1.
          1    1    1    2  502    0  0.10460000137E+02  0.14190742139E+03  0.33659440955E+03  0.36543525335E+03  0.00000000000E+00 0. -1.
         22    1    3    3    0    0  0.25749789122E+02  0.15248611168E+02  0.47959310672E+02  0.56530233173E+02  0.00000000000E+00 0. -1.
         22    1    3    3    0    0 -0.62301983861E+02 -0.90343301408E+02  0.35075593525E+02  0.11521174664E+03  0.00000000000E+00 0. -1.
</event>
<event>
 7    1  0.5676357E-006  0.9588388E+02  0.7818608E-02  0.1361629E+00
          2   -1    0    0  502    0  0.00000000000E+00  0.00000000000E+00  0.13837851613E+04  0.13837851613E+04  0.00000000000E+00 0. -1.
          1   -1    0    0  501    0 -0.00000000000E+00 -0.00000000000E+00 -0.72122929030E+03  0.72122929030E+03  0.00000000000E+00 0. -1.
         25    2    1    2    0    0 -0.13481306301E+03  0.26908499055E+01  0.85473866039E+03  0.87429062525E+03  0.12499646874E+03 0.  0.
          2    1    1    2  501    0  0.92497283760E+02  0.24776616603E+02 -0.70699258464E+03  0.71344806606E+03  0.00000000000E+00 0. -1.
          1    1    1    2  502    0  0.42315779252E+02 -0.27467466508E+02  0.51480979522E+03  0.51727576025E+03  0.00000000000E+00 0. -1.
         22    1    3    3    0    0  0.95103184569E+01  0.33960448525E+02  0.13275677444E+03  0.13736127322E+03  0.00000000000E+00 0.  1.
         22    1    3    3    0    0 -0.14432338147E+03 -0.31269598620E+02  0.72198188595E+03  0.73692935203E+03  0.00000000000E+00 0.  1.
</event>
<event>
 7    1  0.5676357E-006  0.1336512E+03  0.7818608E-02  0.1325423E+00
          2   -1    0    0  502    0  0.00000000000E+00  0.00000000000E+00  0.57845250050E+03  0.57845250050E+03  0.00000000000E+00 0. -1.
          1   -1    0    0  501    0 -0.00000000000E+00 -0.00000000000E+00 -0.81548937238E+03  0.81548937238E+03  0.00000000000E+00 0. -1.
         25    2    1    2    0    0 -0.94138927786E+02  0.80269680923E+02  0.86508097972E+02  0.19599098967E+03  0.12499383032E+03 0.  0.
          2    1    1    2  501    0  0.63048831335E+02 -0.11871813489E+03 -0.75338157972E+03  0.76527965826E+03  0.00000000000E+00 0. -1.
          1    1    1    2  502    0  0.31090096451E+02  0.38448453964E+02  0.42983660987E+03  0.43267122494E+03  0.00000000000E+00 0. -1.
         22    1    3    3    0    0 -0.21650341706E+02  0.83943751441E+02  0.87816110151E+02  0.12339756847E+03  0.00000000000E+00 0. -1.
         22    1    3    3    0    0 -0.72488586080E+02 -0.36740705186E+01 -0.13080121790E+01  0.72593421203E+02  0.00000000000E+00 0. -1.
</event>
<event>
 7    1  0.5676357E-006  0.1898694E+03  0.7818608E-02  0.1323360E+00
          2   -1    0    0  502    0  0.00000000000E+00  0.00000000000E+00  0.69158777495E+03  0.69158777495E+03  0.00000000000E+00 0. -1.
          1   -1    0    0  501    0 -0.00000000000E+00 -0.00000000000E+00 -0.25786560285E+03  0.25786560285E+03  0.00000000000E+00 0. -1.
         25    2    1    2    0    0  0.95467570095E+02 -0.13157971866E+03  0.15844185252E+03  0.25914637701E+03  0.12500297911E+03 0.  0.
          2    1    1    2  501    0 -0.12529527200E+03  0.15073431981E+03 -0.16034637901E+03  0.25324040281E+03  0.00000000000E+00 0. -1.
          1    1    1    2  502    0  0.29827701905E+02 -0.19154601153E+02  0.43562669859E+03  0.43706659798E+03  0.00000000000E+00 0. -1.
         22    1    3    3    0    0  0.11237665254E+03 -0.14500912004E+03  0.14066208832E+03  0.23117521498E+03  0.00000000000E+00 0.  1.
         22    1    3    3    0    0 -0.16909082447E+02  0.13429401378E+02  0.17779764196E+02  0.27971162032E+02  0.00000000000E+00 0.  1.
</event>
<event>
 7    1  0.5676357E-006  0.9981826E+02  0.7818608E-02  0.1341249E+00
          2   -1    0    0  502    0  0.00000000000E+00  0.00000000000E+00  0.13328233147E+04  0.13328233147E+04  0.00000000000E+00 0. -1.
          1   -1    0    0  501    0 -0.00000000000E+00 -0.00000000000E+00 -0.37243239295E+03  0.37243239295E+03  0.00000000000E+00 0. -1.
         25    2    1    2    0    0  0.18076703791E+02  0.63069331179E+02  0.36142599820E+02  0.14572415245E+03  0.12499893331E+03 0.  0.
          2    1    1    2  501    0 -0.46224740690E+02  0.34436465179E+02 -0.31293155185E+03  0.31819609194E+03  0.00000000000E+00 0. -1.
          1    1    1    2  502    0  0.28148036898E+02 -0.97505796358E+02  0.12371798738E+04  0.12413354633E+04  0.00000000000E+00 0. -1.
         22    1    3    3    0    0 -0.40236721895E+02  0.54238085327E+02  0.51324448263E+02  0.84823125847E+02  0.00000000000E+00 0.  1.
         22    1    3    3    0    0  0.58313425687E+02  0.88312458517E+01 -0.15181848444E+02  0.60901026599E+02  0.00000000000E+00 0.  1.
</event>
<event>
 7    1  0.5676357E-006  0.9095156E+02  0.7818608E-02  0.1324521E+00
          2   -1    0    0  502    0  0.00000000000E+00  0.00000000000E+00  0.32515953073E+03  0.32515953073E+03  0.00000000000E+00 0. -1.
          1   -1    0    0  501    0 -0.00000000000E+00 -0.00000000000E+00 -0.24956434056E+04  0.24956434056E+04  0.00000000000E+00 0. -1.
         25    2    1    2    0    0 -0.82655292288E+02  0.43676844001E+02 -0.11884740649E+04  0.11986817445E+04  0.12501103068E+03 0.  0.
          2    1    1    2  501    0  0.28742630117E+02 -0.93254038494E+02 -0.12960168088E+04  0.12996853554E+04  0.00000000000E+00 0. -1.
          1    1    1    2  502    0  0.53912662171E+02  0.49577194493E+02  0.31400699872E+03  0.32243583641E+03  0.00000000000E+00 0. -1.
         22    1    3    3    0    0 -0.27186839190E+02  0.21160565497E+02 -0.64582318035E+02  0.73196786541E+02  0.00000000000E+00 0. -1.
         22    1    3    3    0    0 -0.55468453098E+02  0.22516278504E+02 -0.11238917468E+04  0.11254849580E+04  0.00000000000E+00 0. -1.
</event>
<event>
 7    1  0.5676357E-006  0.4324187E+03  0.7818608E-02  0.1109314E+00
          2   -1    0    0  502    0  0.00000000000E+00  0.00000000000E+00  0.12770951825E+04  0.12770951825E+04  0.00000000000E+00 0. -1.
          1   -1    0    0  501    0 -0.00000000000E+00 -0.00000000000E+00 -0.13111334676E+04  0.13111334676E+04  0.00000000000E+00 0. -1.
         25    2    1    2    0    0 -0.56438536145E+02  0.38960122744E+02  0.24724685290E+03  0.28540832269E+03  0.12499481935E+03 0.  0.
          2    1    1    2  501    0 -0.36878591366E+03 -0.22579386067E+03 -0.11988218809E+04  0.12744252900E+04  0.00000000000E+00 0. -1.
          1    1    1    2  502    0  0.42522444981E+03  0.18683373793E+03  0.91753674287E+03  0.10283950374E+04  0.00000000000E+00 0. -1.
         22    1    3    3    0    0 -0.73354829228E+02  0.59058398141E+02  0.24050728995E+03  0.25828778888E+03  0.00000000000E+00 0.  1.
         22    1    3    3    0    0  0.16916293082E+02 -0.20098275397E+02  0.67395629504E+01  0.27120533814E+02  0.00000000000E+00 0.  1.
</event>
<event>
 7    1  0.5676357E-006  0.2489903E+03  0.7818608E-02  0.1115630E+00
          2   -1    0    0  502    0  0.00000000000E+00  0.00000000000E+00  0.31801841260E+04  0.31801841260E+04  0.00000000000E+00 0. -1.
          1   -1    0    0  501    0 -0.00000000000E+00 -0.00000000000E+00 -0.35328406736E+03  0.35328406736E+03  0.00000000000E+00 0. -1.
         25    2    1    2    0    0  0.22825932017E+03  0.23860924961E+03  0.96602762078E+02  0.36604755822E+03  0.12498811941E+03 0.  0.
          2    1    1    2  501    0  0.15328894373E+02 -0.24743226419E+03 -0.14139996024E+03  0.28539735303E+03  0.00000000000E+00 0. -1.
          1    1    1    2  502    0 -0.24358821454E+03  0.88230145718E+01  0.28716972568E+04  0.28820232821E+04  0.00000000000E+00 0. -1.
         22    1    3    3    0    0  0.18263043135E+01  0.16023778275E+02 -0.21849159297E+02  0.27156631228E+02  0.00000000000E+00 0. -1.
         22    1    3    3    0    0  0.22643301586E+03  0.22258547134E+03  0.11845192138E+03  0.33889092699E+03  0.00000000000E+00 0. -1.
</event>
<event>
 7    1  0.5676357E-006  0.1608343E+03  0.7818608E-02  0.1224903E+00
          2   -1    0    0  502    0  0.00000000000E+00  0.00000000000E+00  0.47025337435E+03  0.47025337435E+03  0.00000000000E+00 0. -1.
          1   -1    0    0  501    0 -0.00000000000E+00 -0.00000000000E+00 -0.12804772308E+04  0.12804772308E+04  0.00000000000E+00 0. -1.
         25    2    1    2    0    0 -0.82485705159E+02 -0.49109175985E+02 -0.16437432135E+03  0.22772633322E+03  0.12499905041E+03 0.  0.
          2    1    1    2  501    0  0.17881872130E+03  0.50272555485E+00 -0.10702582286E+04  0.10850940345E+04  0.00000000000E+00 0. -1.
          1    1    1    2  502    0 -0.96333016140E+02  0.48606450430E+02  0.42440869344E+03  0.43791023748E+03  0.00000000000E+00 0. -1.
         22    1    3    3    0    0  0.23777227907E+02 -0.20358153483E+02 -0.17557939807E+01  0.31351137023E+02  0.00000000000E+00 0.  1.
         22    1    3    3    0    0 -0.10626293307E+03 -0.28751022502E+02 -0.16261852737E+03  0.19637519620E+03  0.00000000000E+00 0.  1.
</event>
<event>
 7    1  0.5676357E-006  0.2095191E+03  0.7818608E-02  0.1196515E+00
          2   -1    0    0  502    0  0.00000000000E+00  0.00000000000E+00  0.57867261115E+03  0.57867261115E+03  0.00000000000E+00 0. -1.
          1   -1    0    0  501    0 -0.00000000000E+00 -0.00000000000E+00 -0.22086787044E+04  0.22086787044E+04  0.00000000000E+00 0. -1.
         25    2    1    2    0    0  0.76277617320E+02 -0.16757856636E+03 -0.96033377173E+03  0.98578242769E+03  0.12500076322E+03 0.  0.
          2    1    1    2  501    0 -0.10429567943E+03 -0.41142856136E+02 -0.12133553872E+04  0.12185243613E+04  0.00000000000E+00 0. -1.
          1    1    1    2  502    0  0.28018062108E+02  0.20872142249E+03  0.54368306572E+03  0.58304452657E+03  0.00000000000E+00 0. -1.
         22    1    3    3    0    0  0.47975804473E+02 -0.16745745107E+03 -0.61220253684E+03  0.63650264874E+03  0.00000000000E+00 0. -1.
         22    1    3    3    0    0  0.28301812847E+02 -0.12111529133E+00 -0.34813123489E+03  0.34927977895E+03  0.00000000000E+00 0. -1.
</event>
<event>
 7    1  0.5676357E-006  0.6135098E+02  0.7818608E-02  0.1477825E+00
          2   -1    0    0  502    0  0.00000000000E+00  0.00000000000E+00  0.21782478612E+03  0.21782478612E+03  0.00000000000E+00 0. -1.
          1   -1    0    0  501    0 -0.00000000000E+00 -0.00000000000E+00 -0.37253073153E+03  0.37253073153E+03  0.00000000000E+00 0. -1.
         25    2    1    2    0    0  0.86811524077E+02 -0.12170309682E+02  0.43673746428E+02  0.15879839032E+03  0.12500070196E+03 0.  0.
          2    1    1    2  501    0 -0.28698271583E+02  0.14603507967E+02 -0.30681879306E+03  0.30850384926E+03  0.00000000000E+00 0. -1.
          1    1    1    2  502    0 -0.58113252493E+02 -0.24331982850E+01  0.10843910122E+03  0.12305327806E+03  0.00000000000E+00 0. -1.
         22    1    3    3    0    0 -0.63872315479E+01 -0.25693920720E+02  0.57795017266E+02  0.63570734695E+02  0.00000000000E+00 0.  1.
         22    1    3    3    0    0  0.93198755625E+02  0.13523611038E+02 -0.14121270839E+02  0.95227655624E+02  0.00000000000E+00 0.  1.
</event>
<event>
 7    1  0.5676357E-006  0.8914140E+02  0.7818608E-02  0.1329298E+00
          2   -1    0    0  502    0  0.00000000000E+00  0.00000000000E+00  0.62924222314E+02  0.62924222314E+02  0.00000000000E+00 0. -1.
          1   -1    0    0  501    0 -0.00000000000E+00 -0.00000000000E+00 -0.80593773774E+03  0.80593773774E+03  0.00000000000E+00 0. -1.
         25    2    1    2    0    0 -0.86525361268E+02 -0.16348684495E+02 -0.21494871408E+03  0.26378343572E+03  0.12499933459E+03 0.  0.
          2    1    1    2  501    0  0.50722094111E+02  0.78400555474E+02 -0.52514144307E+03  0.53337877082E+03  0.00000000000E+00 0. -1.
          1    1    1    2  502    0  0.35803267157E+02 -0.62051870978E+02 -0.29233582759E+01  0.71699753518E+02  0.00000000000E+00 0. -1.
         22    1    3    3    0    0 -0.52320578498E+01  0.39602999515E+02 -0.18676667727E+02  0.44097504661E+02  0.00000000000E+00 0.  1.
         22    1    3    3    0    0 -0.81293303418E+02 -0.55951684011E+02 -0.19627204635E+03  0.21968593106E+03  0.00000000000E+00 0.  1.
</event>
<event>
 7    1  0.5676357E-006  0.5160729E+02  0.7818608E-02  0.1457940E+00
          2   -1    0    0  502    0  0.00000000000E+00  0.00000000000E+00  0.68669479312E+02  0.68669479312E+02  0.00000000000E+00 0. -1.
          1   -1    0    0  501    0 -0.00000000000E+00 -0.00000000000E+00 -0.20975732437E+04  0.20975732437E+04  0.00000000000E+00 0. -1.
         25    2    1    2    0    0  0.93895815110E+02  0.42892708079E+01 -0.19001059595E+03  0.24609840931E+03  0.12500231419E+03 0.  0.
          2    1    1    2  501    0 -0.50106576797E+02 -0.99868837983E+01 -0.18670655692E+04  0.18677645051E+04  0.00000000000E+00 0. -1.
          1    1    1    2  502    0 -0.43789238313E+02  0.56976129904E+01  0.28172400741E+02  0.52379808603E+02  0.00000000000E+00 0. -1.
         22    1    3    3    0    0  0.73934074336E+02  0.50393218170E+02 -0.16982747731E+03  0.19195597369E+03  0.00000000000E+00 0. -1.
         22    1    3    3    0    0  0.19961740774E+02 -0.46103947362E+02 -0.20183118642E+02  0.54142435623E+02  0.00000000000E+00 0. -1.
</event>
<event>
 7    1  0.5676357E-006  0.8459788E+02  0.7818608E-02  0.1419865E+00
          2   -1    0    0  502    0  0.00000000000E+00  0.00000000000E+00  0.24727343569E+03  0.24727343569E+03  0.00000000000E+00 0. -1.
          1   -1    0    0  501    0 -0.00000000000E+00 -0.00000000000E+00 -0.20966591417E+03  0.20966591417E+03  0.00000000000E+00 0. -1.
         25    2    1    2    0    0 -0.21155866662E+02 -0.98261055787E+02  0.58703485291E+02  0.17080546368E+03  0.12500240582E+03 0.  0.
          2    1    1    2  501    0 -0.21782629030E+02  0.28438104596E+02 -0.13843782239E+03  0.14299734049E+03  0.00000000000E+00 0. -1.
          1    1    1    2  502    0  0.42938495692E+02  0.69822951191E+02  0.11734185862E+03  0.14313654568E+03  0.00000000000E+00 0. -1.
         22    1    3    3    0    0 -0.56159464847E+02 -0.10703402243E+03  0.59471823367E+02  0.13471104344E+03  0.00000000000E+00 0. -1.
         22    1    3    3    0    0  0.35003598185E+02  0.87729666407E+01 -0.76833807647E+00  0.36094420247E+02  0.00000000000E+00 0. -1.
</event>
<event>
 7    1  0.5676357E-006  0.1552191E+03  0.7818608E-02  0.1247618E+00
          2   -1    0    0  502    0  0.00000000000E+00  0.00000000000E+00  0.12510985161E+03  0.12510985161E+03  0.00000000000E+00 0. -1.
          1   -1    0    0  501    0 -0.00000000000E+00 -0.00000000000E+00 -0.22172338395E+04  0.22172338395E+04  0.00000000000E+00 0. -1.
         25    2    1    2    0    0 -0.10149891126E+03 -0.29715887826E+01 -0.43811341477E+03  0.46677512606E+03  0.12499917912E+03 0.  0.
          2    1    1    2  501    0  0.16189322783E+03 -0.61916299200E+02 -0.17420391215E+04  0.17506408387E+04  0.00000000000E+00 0. -1.
          1    1    1    2  502    0 -0.60394316572E+02  0.64887887983E+02  0.88028548370E+02  0.12492772634E+03  0.00000000000E+00 0. -1.
         22    1    3    3    0    0 -0.62021195041E+02  0.50221044601E+02 -0.33379316793E+03  0.34320061322E+03  0.00000000000E+00 0.  1.
         22    1    3    3    0    0 -0.39477716219E+02 -0.53192633384E+02 -0.10432024684E+03  0.12357451285E+03  0.00000000000E+00 0.  1.
</event>
<event>
 7    1  0.5676357E-006  0.3617780E+02  0.7818608E-02  0.1597140E+00
          2   -1    0    0  502    0  0.00000000000E+00  0.00000000000E+00  0.10713936269E+04  0.10713936269E+04  0.00000000000E+00 0. -1.
          1   -1    0    0  501    0 -0.00000000000E+00 -0.00000000000E+00 -0.78366749914E+03  0.78366749914E+03  0.00000000000E+00 0. -1.
         25    2    1    2    0    0 -0.56725176024E+01  0.60834156674E+02 -0.54896178793E+02  0.14957526896E+03  0.12500479416E+03 0.  0.
          2    1    1    2  501    0  0.15158883069E+01 -0.24973977310E+02 -0.68088377941E+03  0.68134331913E+03  0.00000000000E+00 0. -1.
          1    1    1    2  502    0  0.41566292954E+01 -0.35860179363E+02  0.10235060860E+04  0.10241425380E+04  0.00000000000E+00 0. -1.
         22    1    3    3    0    0 -0.27736746220E+02  0.94712207891E+02 -0.40019149666E+02  0.10649536025E+03  0.00000000000E+00 0. -1.
         22    1    3    3    0    0  0.22064228617E+02 -0.33878051217E+02 -0.14877029127E+02  0.43079908709E+02  0.00000000000E+00 0. -1.
</event>
<event>
 7    1  0.5676357E-006  0.1176250E+03  0.7818608E-02  0.1368826E+00
          2   -1    0    0  502    0  0.00000000000E+00  0.00000000000E+00  0.59981974775E+03  0.59981974775E+03  0.00000000000E+00 0. -1.
          1   -1    0    0  501    0 -0.00000000000E+00 -0.00000000000E+00 -0.89407643442E+03  0.89407643442E+03  0.00000000000E+00 0. -1.
         25    2    1    2    0    0  0.76956788805E+02  0.26490004685E+02 -0.29743167356E+03  0.33273725422E+03  0.12499764887E+03 0.  0.
          2    1    1    2  501    0  0.29582918933E+02  0.24996160338E+02 -0.57231806061E+03  0.57362698649E+03  0.00000000000E+00 0. -1.
          1    1    1    2  502    0 -0.10653970774E+03 -0.51486165023E+02  0.57549304750E+03  0.58753194146E+03  0.00000000000E+00 0. -1.
         22    1    3    3    0    0  0.26773269698E+02  0.72629640381E+02 -0.12153566298E+03  0.14409299083E+03  0.00000000000E+00 0.  1.
         22    1    3    3    0    0  0.50183519106E+02 -0.46139635696E+02 -0.17589601058E+03  0.18864426339E+03  0.00000000000E+00 0.  1.
</event>
<event>
 7    1  0.5676357E-006  0.5796318E+02  0.7818608E-02  0.1461851E+00
          2   -1    0    0  502    0  0.00000000000E+00  0.00000000000E+00  0.27648871324E+04  0.27648871324E+04  0.00000000000E+00 0. -1.
          1   -1    0    0  501    0 -0.00000000000E+00 -0.00000000000E+00 -0.24258726563E+03  0.24258726563E+03  0.00000000000E+00 0. -1.
         25    2    1    2    0    0 -0.47438117792E+02  0.63402363001E+02  0.13027153410E+04  0.13110909525E+04  0.12498796596E+03 0.  0.
          2    1    1    2  501    0  0.37327403040E+02 -0.81877883731E+01 -0.23632369178E+03  0.23939352997E+03  0.00000000000E+00 0. -1.
          1    1    1    2  502    0  0.10110714752E+02 -0.55214574628E+02  0.14559082176E+04  0.14569899155E+04  0.00000000000E+00 0. -1.
         22    1    3    3    0    0  0.42710856920E+02  0.27301882083E+02  0.47620390927E+03  0.47889432370E+03  0.00000000000E+00 0.  1.
         22    1    3    3    0    0 -0.90148974712E+02  0.36100480918E+02  0.82651143169E+03  0.83219662885E+03  0.00000000000E+00 0.  1.
</event>
<event>
 7    1  0.5676357E-006  0.3311729E+03  0.7818608E-02  0.1168617E+00
          2   -1    0    0  502    0  0.00000000000E+00  0.00000000000E+00  0.39774769314E+04  0.39774769314E+04  0.00000000000E+00 0. -1.
          1   -1    0    0  501    0 -0.00000000000E+00 -0.00000000000E+00 -0.29205024046E+03  0.29205024046E+03  0.00000000000E+00 0. -1.
         25    2    1    2    0    0  0.28214222180E+03  0.11259495774E+03  0.13757621903E+04  0.14144356486E+04  0.12499896752E+03 0.  0.
          2    1    1    2  501    0  0.11166796638E+01  0.96918162376E+02 -0.25164389823E+03  0.26966465970E+03  0.00000000000E+00 0. -1.
          1    1    1    2  502    0 -0.28325890146E+03 -0.20951312011E+03  0.25613083989E+04  0.25854268636E+04  0.00000000000E+00 0. -1.
         22    1    3    3    0    0 -0.65456126706E+01 -0.91306430087E+01  0.10594794179E+03  0.10654191690E+03  0.00000000000E+00 0. -1.
         22    1    3    3    0    0  0.28868783447E+03  0.12172560074E+03  0.12698142485E+04  0.13078937317E+04  0.00000000000E+00 0. -1.
</event>
<event>
 7    1  0.5676357E-006  0.9487528E+02  0.7818608E-02  0.1348468E+00
          2   -1    0    0  502    0  0.00000000000E+00  0.00000000000E+00  0.61656541935E+03  0.61656541935E+03  0.00000000000E+00 0. -1.
          1   -1    0    0  501    0 -0.00000000000E+00 -0.00000000000E+00 -0.69680105658E+03  0.69680105658E+03  0.00000000000E+00 0. -1.
         25    2    1    2    0    0 -0.12275861642E+03  0.33511549941E+02 -0.55004302617E+02  0.18666538301E+03  0.12500316005E+03 0.  0.
          2    1    1    2  501    0  0.29811417873E+02 -0.48576805698E+02 -0.57051118462E+03  0.57335106041E+03  0.00000000000E+00 0. -1.
          1    1    1    2  502    0  0.92947198550E+02  0.15065255757E+02  0.54527985001E+03  0.55335003251E+03  0.00000000000E+00 0. -1.
         22    1    3    3    0    0 -0.66468602721E+02  0.58145537641E+02 -0.81107946103E+02  0.11990612001E+03  0.00000000000E+00 0.  1.
         22    1    3    3    0    0 -0.56290013702E+02 -0.24633987701E+02  0.26103643486E+02  0.66759262997E+02  0.00000000000E+00 0.  1.
</event>
<event>
 7    1  0.5676357E-006  0.9380513E+02  0.7818608E-02  0.1338172E+00
          2   -1    0    0  502    0  0.00000000000E+00  0.00000000000E+00  0.14682115018E+04  0.14682115018E+04  0.00000000000E+00 0. -1.
          1   -1    0    0  501    0 -0.00000000000E+00 -0.00000000000E+00 -0.19000420982E+02  0.19000420982E+02  0.00000000000E+00 0. -1.
         25    2    1    2    0    0  0.75386415768E+02 -0.24299468134E+02  0.93813884408E+03  0.94973825463E+03  0.12499874281E+03 0.  0.
          2    1    1    2  501    0 -0.58766811708E+02  0.85061996493E+02  0.31753053116E+03  0.33393819731E+03  0.00000000000E+00 0. -1.
          1    1    1    2  502    0 -0.16619604060E+02 -0.60762528359E+02  0.19354170561E+03  0.20353547087E+03  0.00000000000E+00 0. -1.
         22    1    3    3    0    0  0.54302380136E+02 -0.16481143120E+02  0.13705642045E+03  0.14834028096E+03  0.00000000000E+00 0. -1.
         22    1    3    3    0    0  0.21084035632E+02 -0.78183250141E+01  0.80108242363E+03  0.80139797368E+03  0.00000000000E+00 0. -1.
</event>
<event>
 7    1  0.5676357E-006  0.1656709E+03  0.7818608E-02  0.1288079E+00
          2   -1    0    0  502    0  0.00000000000E+00  0.00000000000E+00  0.48832534683E+03  0.48832534683E+03  0.00000000000E+00 0. -1.
          1   -1    0    0  501    0 -0.00000000000E+00 -0.00000000000E+00 -0.42814550957E+03  0.42814550957E+03  0.00000000000E+00 0. -1.
         25    2    1    2    0    0  0.12166388171E+03  0.16012934432E+03  0.13107992483E+03  0.27064793214E+03  0.12499939782E+03 0.  0.
          2    1    1    2  501    0 -0.12513523564E+03 -0.10415748068E+03 -0.33679235529E+03  0.37408113901E+03  0.00000000000E+00 0. -1.
          1    1    1    2  502    0  0.34713539361E+01 -0.55971863638E+02  0.26589226772E+03  0.27174178525E+03  0.00000000000E+00 0. -1.
         22    1    3    3    0    0  0.14627324182E+02  0.78548908543E+02 -0.39589007510E+01  0.79997265836E+02  0.00000000000E+00 0.  1.
         22    1    3    3    0    0  0.10703655752E+03  0.81580435773E+02  0.13503882558E+03  0.19065066630E+03  0.00000000000E+00 0.  1.
</event>
<event>
 7    1  0.5676357E-006  0.1565189E+03  0.7818608E-02  0.1313397E+00
          2   -1    0    0  502    0  0.00000000000E+00  0.00000000000E+00  0.18151161273E+04  0.18151161273E+04  0.00000000000E+00 0. -1.
          1   -1    0    0  501    0 -0.00000000000E+00 -0.00000000000E+00 -0.75171478456E+03  0.75171478456E+03  0.00000000000E+00 0. -1.
         25    2    1    2    0    0 -0.15606124490E+03 -0.95813323722E+02  0.39757065993E+02  0.22525751055E+03  0.12500006641E+03 0.  0.
          2    1    1    2  501    0  0.14678688008E+03  0.49722115146E+02 -0.64951750464E+03  0.66775120047E+03  0.00000000000E+00 0. -1.
          1    1    1    2  502    0  0.92743648175E+01  0.46091208576E+02  0.16731617814E+04  0.16738222008E+04  0.00000000000E+00 0. -1.
         22    1    3    3    0    0 -0.13346185471E+03 -0.54219653995E+02  0.78529025234E+02  0.16406902617E+03  0.00000000000E+00 0.  1.
         22    1    3    3    0    0 -0.22599390184E+02 -0.41593669727E+02 -0.38771959241E+02  0.61188484386E+02  0.00000000000E+00 0.  1.
</event>
<event>
 7    1  0.5676357E-006  0.8677781E+02  0.7818608E-02  0.1341892E+00
          2   -1    0    0  502    0  0.00000000000E+00  0.00000000000E+00  0.77204128316E+03  0.77204128316E+03  0.00000000000E+00 0. -1.
          1   -1    0    0  501    0 -0.00000000000E+00 -0.00000000000E+00 -0.81853795462E+03  0.81853795462E+03  0.00000000000E+00 0. -1.
         25    2    1    2    0    0  0.13930358727E+02 -0.10738754887E+03  0.58461748775E+02  0.17541196128E+03  0.12500175817E+03 0.  0.
          2    1    1    2  501    0  0.47310591383E+02  0.45927271851E+02 -0.75574833141E+03  0.75861923703E+03  0.00000000000E+00 0. -1.
          1    1    1    2  502    0 -0.61240950110E+02  0.61460277015E+02  0.65078991119E+03  0.65654803947E+03  0.00000000000E+00 0. -1.
         22    1    3    3    0    0  0.61159212784E+02 -0.44560131694E+02  0.60350996089E+02  0.96789965254E+02  0.00000000000E+00 0. -1.
         22    1    3    3    0    0 -0.47228854057E+02 -0.62827417173E+02 -0.18892473135E+01  0.78621996029E+02  0.00000000000E+00 0. -1.
</event>
<event>
 7    1  0.5676357E-006  0.6391417E+02  0.7818608E-02  0.1519074E+00
          2   -1    0    0  502    0  0.00000000000E+00  0.00000000000E+00  0.11947957709E+04  0.11947957709E+04  0.00000000000E+00 0. -1.
          1   -1    0    0  501    0 -0.00000000000E+00 -0.00000000000E+00 -0.14493157799E+04  0.14493157799E+04  0.00000000000E+00 0. -1.
         25    2    1    2    0    0  0.74973903380E+02 -0.33289084041E+02  0.17468132945E+03  0.22992956766E+03  0.12499915968E+03 0.  0.
          2    1    1    2  501    0 -0.13279277192E+02  0.19103100265E+02 -0.14205868682E+04  0.14207773639E+04  0.00000000000E+00 0. -1.
          1    1    1    2  502    0 -0.61694626188E+02  0.14185983776E+02  0.99138552976E+03  0.99340461930E+03  0.00000000000E+00 0. -1.
         22    1    3    3    0    0 -0.22738468029E+02 -0.39074266699E+02  0.26700066563E+02  0.52504569333E+02  0.00000000000E+00 0. -1.
         22    1    3    3    0    0  0.97712371409E+02  0.57851826584E+01  0.14798126289E+03  0.17742499832E+03  0.00000000000E+00 0. -1.
</event>
<event>
 7    1  0.5676357E-006  0.9140820E+02  0.7818608E-02  0.1418376E+00
          2   -1    0    0  502    0  0.00000000000E+00  0.00000000000E+00  0.28037296474E+03  0.28037296474E+03  0.00000000000E+00 0. -1.
          1   -1    0    0  501    0 -0.00000000000E+00 -0.00000000000E+00 -0.14367488176E+03  0.14367488176E+03  0.00000000000E+00 0. -1.
         25    2    1    2    0    0 -0.46153169135E+02  0.98101212968E+02 -0.29518750367E+02  0.16807515900E+03  0.12499575770E+03 0.  0.
          2    1    1    2  501    0  0.17447154615E+02 -0.80764190532E+02 -0.37664158339E+01  0.82713019318E+02  0.00000000000E+00 0. -1.
          1    1    1    2  502    0  0.28706014520E+02 -0.17337022436E+02  0.16998324919E+03  0.17325966819E+03  0.00000000000E+00 0. -1.
         22    1    3    3    0    0 -0.18788918407E+02  0.11059961285E+03 -0.58311088868E+02  0.12643370161E+03  0.00000000000E+00 0.  1.
         22    1    3    3    0    0 -0.27364250727E+02 -0.12498399880E+02  0.28792338501E+02  0.41641457392E+02  0.00000000000E+00 0.  1.
</event>
<event>
 7    1  0.5676357E-006  0.2222534E+03  0.7818608E-02  0.1167941E+00
          2   -1    0    0  502    0  0.00000000000E+00  0.00000000000E+00  0.11546200743E+04  0.11546200743E+04  0.00000000000E+00 0. -1.
          1   -1    0    0  501    0 -0.00000000000E+00 -0.00000000000E+00 -0.27550076560E+03  0.27550076560E+03  0.00000000000E+00 0. -1.
         25    2    1    2    0    0  0.80730205325E+02  0.47173240694E+02 -0.44106775327E+02  0.16221897794E+03  0.12500763371E+03 0.  0.
          2    1    1    2  501    0  0.12402892133E+03  0.76166900927E+02 -0.12555787120E+03  0.19222213489E+03  0.00000000000E+00 0. -1.
          1    1    1    2  502    0 -0.20475912665E+03 -0.12334014162E+03  0.10487839552E+04  0.10756797271E+04  0.00000000000E+00 0. -1.
         22    1    3    3    0    0 -0.17142302450E+02  0.20802632322E+02 -0.54020568540E+02  0.60372426406E+02  0.00000000000E+00 0.  1.
         22    1    3    3    0    0  0.97872507775E+02  0.26370608373E+02  0.99137932129E+01  0.10184655154E+03  0.00000000000E+00 0.  1.
</event>
<event>
 7    1  0.5676357E-006  0.4519248E+02  0.7818608E-02  0.1501570E+00
          2   -1    0    0  502    0  0.00000000000E+00  0.00000000000E+00  0.10612902206E+04  0.10612902206E+04  0.00000000000E+00 0. -1.
          1   -1    0    0  501    0 -0.00000000000E+00 -0.00000000000E+00 -0.11398094660E+02  0.11398094660E+02  0.00000000000E+00 0. -1.
         25    2    1    2    0    0 -0.25191684330E+01  0.15776818604E+02  0.59652022279E+03  0.60968754704E+03  0.12500909809E+03 0.  0.
          2    1    1    2  501    0  0.46672978469E+02 -0.61434590466E+01  0.18774998963E+03  0.19356179276E+03  0.00000000000E+00 0. -1.
          1    1    1    2  502    0 -0.44153810036E+02 -0.96333595570E+01  0.26562191351E+03  0.26943897545E+03  0.00000000000E+00 0. -1.
         22    1    3    3    0    0  0.55378769301E+02 -0.52221950202E+01  0.17326334958E+03  0.18197326100E+03  0.00000000000E+00 0. -1.
         22    1    3    3    0    0 -0.57897937734E+02  0.20999013624E+02  0.42325687321E+03  0.42771428604E+03  0.00000000000E+00 0. -1.
</event>
<event>
 7    1  0.5676357E-006  0.9998352E+02  0.7818608E-02  0.1372803E+00
          2   -1    0    0  502    0  0.00000000000E+00  0.00000000000E+00  0.65031457177E+03  0.65031457177E+03  0.00000000000E+00 0. -1.
          1   -1    0    0  501    0 -0.00000000000E+00 -0.00000000000E+00 -0.51585188332E+03  0.51585188332E+03  0.00000000000E+00 0. -1.
         25    2    1    2    0    0 -0.12337727079E+02 -0.58406233826E+02  0.40158778878E+02  0.14423199321E+03  0.12500653056E+03 0.  0.
          2    1    1    2  501    0  0.34526633804E+02  0.96504698320E+02 -0.45726245690E+03  0.46860879178E+03  0.00000000000E+00 0. -1.
          1    1    1    2  502    0 -0.22188906724E+02 -0.38098464495E+02  0.55156636647E+03  0.55332567011E+03  0.00000000000E+00 0. -1.
         22    1    3    3    0    0  0.47737449427E+02  0.84642683777E+01  0.10841906037E+02  0.49679521369E+02  0.00000000000E+00 0. -1.
         22    1    3    3    0    0 -0.60075176506E+02 -0.66870502203E+02  0.29316872841E+02  0.94552471836E+02  0.00000000000E+00 0. -1.
</event>
<event>
 7    1  0.5676357E-006  0.1367273E+03  0.7818608E-02  0.1348122E+00
          2   -1    0    0  502    0  0.00000000000E+00  0.00000000000E+00  0.69016071148E+03  0.69016071148E+03  0.00000000000E+00 0. -1.
          1   -1    0    0  501    0 -0.00000000000E+00 -0.00000000000E+00 -0.39351340614E+03  0.39351340614E+03  0.00000000000E+00 0. -1.
         25    2    1    2    0    0 -0.79653089427E+02 -0.91316262195E+02 -0.18198203982E+03  0.25184374713E+03  0.12499814301E+03 0.  0.
          2    1    1    2  501    0  0.21646429215E+02 -0.33238953179E+02 -0.16704938011E+03  0.17169417957E+03  0.00000000000E+00 0. -1.
          1    1    1    2  502    0  0.58006660212E+02  0.12455521537E+03  0.64567872526E+03  0.66013619091E+03  0.00000000000E+00 0. -1.
         22    1    3    3    0    0  0.19011801415E+02 -0.70720601277E+02 -0.73109317374E+02  0.10347861772E+03  0.00000000000E+00 0. -1.
         22    1    3    3    0    0 -0.98664890842E+02 -0.20595660918E+02 -0.10887272244E+03  0.14836512941E+03  0.00000000000E+00 0. -1.
</event>
<event>
 7    1  0.5676357E-006  0.1182205E+03  0.7818608E-02  0.1284934E+00
          2   -1    0    0  502    0  0.00000000000E+00  0.00000000000E+00  0.23594795889E+03  0.23594795889E+03  0.00000000000E+00 0. -1.
          1   -1    0    0  501    0 -0.00000000000E+00 -0.00000000000E+00 -0.79707939332E+03  0.79707939332E+03  0.00000000000E+00 0. -1.
         25    2    1    2    0    0 -0.11588273254E+03  0.85570448340E+01  0.22354743800E+02  0.17212278977E+03  0.12499795787E+03 0.  0.
          2    1    1    2  501    0  0.96966370817E+02  0.70152491683E+02 -0.70489491713E+03  0.71498300214E+03  0.00000000000E+00 0. -1.
          1    1    1    2  502    0  0.18916361720E+02 -0.78709536518E+02  0.12140873890E+03  0.14592156030E+03  0.00000000000E+00 0. -1.
         22    1    3    3    0    0 -0.79065113976E+02  0.62150858259E+02 -0.69375343644E+01  0.10080749384E+03  0.00000000000E+00 0.  1.
         22    1    3    3    0    0 -0.36817618561E+02 -0.53593813425E+02  0.29292278164E+02  0.71315295932E+02  0.00000000000E+00 0.  1.
</event>
<event>
 7    1  0.5676357E-006  0.1123486E+03  0.7818608E-02  0.1284840E+00
          2   -1    0    0  502    0  0.00000000000E+00  0.00000000000E+00  0.89004609708E+03  0.89004609708E+03  0.00000000000E+00 0. -1.
          1   -1    0    0  501    0 -0.00000000000E+00 -0.00000000000E+00 -0.63334005278E+03  0.63334005278E+03  0.00000000000E+00 0. -1.
         25    2    1    2    0    0 -0.20137201081E+02  0.17722982880E+03  0.29186635206E+01  0.21783134217E+03  0.12500422374E+03 0.  0.
          2    1    1    2  501    0  0.50021023797E+02 -0.97381676490E+02 -0.51781251622E+03  0.52925900625E+03  0.00000000000E+00 0. -1.
          1    1    1    2  502    0 -0.29883822716E+02 -0.79848152311E+02  0.77159989700E+03  0.77629580144E+03  0.00000000000E+00 0. -1.
         22    1    3    3    0    0  0.36329869764E+02  0.28577056742E+02  0.31945640280E+02  0.56187467837E+02  0.00000000000E+00 0.  1.
         22    1    3    3    0    0 -0.56467070845E+02  0.14865277206E+03 -0.29026976759E+02  0.16164387434E+03  0.00000000000E+00 0.  1.
</event>
<event>
 7    1  0.5676357E-006  0.4638860E+03  0.7818608E-02  0.1167941E+00
          2   -1    0    0  502    0  0.00000000000E+00  0.00000000000E+00  0.23411060166E+04  0.23411060166E+04  0.00000000000E+00 0. -1.
          1   -1    0    0  501    0 -0.00000000000E+00 -0.00000000000E+00 -0.32297850342E+03  0.32297850342E+03  0.00000000000E+00 0. -1.
         25    2    1    2    0    0  0.30160957518E+03 -0.36212905009E+03  0.59794132035E+03  0.77153377407E+03  0.12499902879E+03 0.  0.
          2    1    1    2  501    0 -0.34542303293E+03  0.30787745624E+03 -0.78804032568E+01  0.46278256287E+03  0.00000000000E+00 0. -1.
          1    1    1    2  502    0  0.43813457752E+02  0.54251593846E+02  0.14280665960E+04  0.14297681830E+04  0.00000000000E+00 0. -1.
         22    1    3    3    0    0  0.19734323943E+03 -0.21691513266E+03  0.27296792574E+03  0.40063451849E+03  0.00000000000E+00 0. -1.
         22    1    3    3    0    0  0.10426633575E+03 -0.14521391742E+03  0.32497339461E+03  0.37089925558E+03  0.00000000000E+00 0. -1.
</event>
<event>
 7    1  0.5676357E-006  0.7855281E+02  0.7818608E-02  0.1359332E+00
          2   -1    0    0  502    0  0.00000000000E+00  0.00000000000E+00  0.49864060375E+03  0.49864060375E+03  0.00000000000E+00 0. -1.
          1   -1    0    0  501    0 -0.00000000000E+00 -0.00000000000E+00 -0.21399171255E+03  0.21399171255E+03  0.00000000000E+00 0. -1.
         25    2    1    2    0    0  0.49231469436E+02 -0.38217679577E+02  0.62950588848E+02  0.15320528409E+03  0.12499901529E+03 0.  0.
          2    1    1    2  501    0 -0.44995209735E+02 -0.43779117628E+02 -0.15849165888E+03  0.17047224400E+03  0.00000000000E+00 0. -1.
          1    1    1    2  502    0 -0.42362597010E+01  0.81996797205E+02  0.38018996123E+03  0.38895478820E+03  0.00000000000E+00 0. -1.
         22    1    3    3    0    0  0.10113407300E+02  0.28642858197E+02  0.69116610716E+02  0.75497021198E+02  0.00000000000E+00 0. -1.
         22    1    3    3    0    0  0.39118062136E+02 -0.66860537774E+02 -0.61660218680E+01  0.77708262897E+02  0.00000000000E+00 0. -1.
</event>
<event>
 7    1  0.5676357E-006  0.1110767E+03  0.7818608E-02  0.1412858E+00
          2   -1    0    0  502    0  0.00000000000E+00  0.00000000000E+00  0.21587364966E+04  0.21587364966E+04  0.00000000000E+00 0. -1.
          1   -1    0    0  501    0 -0.00000000000E+00 -0.00000000000E+00 -0.27644527728E+03  0.27644527728E+03  0.00000000000E+00 0. -1.
         25    2    1    2    0    0  0.25689157881E+02 -0.78887617140E+02 -0.60532855168E+02  0.16178387829E+03  0.12500643083E+03 0.  0.
          2    1    1    2  501    0  0.13471391250E+02 -0.25456420495E+02 -0.16254706038E+03  0.16507893435E+03  0.00000000000E+00 0. -1.
          1    1    1    2  502    0 -0.39160549130E+02  0.10434403763E+03  0.21053711348E+04  0.21083189612E+04  0.00000000000E+00 0. -1.
         22    1    3    3    0    0 -0.30042288458E+02 -0.88514994708E+02 -0.37365417155E+02  0.10066587199E+03  0.00000000000E+00 0. -1.
         22    1    3    3    0    0  0.55731446338E+02  0.96273775679E+01 -0.23167438013E+02  0.61118006298E+02  0.00000000000E+00 0. -1.
</event>
<event>
 7    1  0.5676357E-006  0.5093613E+02  0.7818608E-02  0.1514434E+00
          2   -1    0    0  502    0  0.00000000000E+00  0.00000000000E+00  0.42479810910E+03  0.42479810910E+03  0.00000000000E+00 0. -1.
          1   -1    0    0  501    0 -0.00000000000E+00 -0.00000000000E+00 -0.17360371642E+03  0.17360371642E+03  0.00000000000E+00 0. -1.
         25    2    1    2    0    0  0.77540938528E+01  0.72912269506E+02  0.16496197690E+03  0.21958311878E+03  0.12501186830E+03 0.  0.
          2    1    1    2  501    0  0.10950827009E+02 -0.49308255831E+02 -0.14090958911E+03  0.14968880054E+03  0.00000000000E+00 0. -1.
          1    1    1    2  502    0 -0.18704920862E+02 -0.23604013675E+02  0.22714200489E+03  0.22912990619E+03  0.00000000000E+00 0. -1.
         22    1    3    3    0    0  0.53084104781E+02  0.64646427999E+02  0.54342275856E+02  0.99750517686E+02  0.00000000000E+00 0. -1.
         22    1    3    3    0    0 -0.45330010928E+02  0.82658415070E+01  0.11061970104E+03  0.11983260109E+03  0.00000000000E+00 0. -1.
</event>
<event>
 7    1  0.5676357E-006  0.5452441E+02  0.7818608E-02  0.1471995E+00
          2   -1    0    0  502    0  0.00000000000E+00  0.00000000000E+00  0.11201833186E+03  0.11201833186E+03  0.00000000000E+00 0. -1.
          1   -1    0    0  501    0 -0.00000000000E+00 -0.00000000000E+00 -0.83791010895E+03  0.83791010895E+03  0.00000000000E+00 0. -1.
         25    2    1    2    0    0  0.32966102619E+02  0.95293542952E+01 -0.23595036712E+01  0.12964497633E+03  0.12499872045E+03 0.  0.
          2    1    1    2  501    0  0.82952411848E+01  0.36843732261E+02 -0.75132472922E+03  0.75227330165E+03  0.00000000000E+00 0. -1.
          1    1    1    2  502    0 -0.41261343804E+02 -0.46373086556E+02  0.27792455796E+02  0.68010162832E+02  0.00000000000E+00 0. -1.
         22    1    3    3    0    0 -0.37535090561E+01  0.62479876258E+02 -0.14065982762E+02  0.64153531769E+02  0.00000000000E+00 0. -1.
         22    1    3    3    0    0  0.36719611675E+02 -0.52950521962E+02  0.11706479091E+02  0.65491444559E+02  0.00000000000E+00 0. -1.
</event>
<event>
 7    1  0.5676357E-006  0.5211981E+02  0.7818608E-02  0.1522121E+00
          2   -1    0    0  502    0  0.00000000000E+00  0.00000000000E+00  0.13881167877E+04  0.13881167877E+04  0.00000000000E+00 0. -1.
          1   -1    0    0  501    0 -0.00000000000E+00 -0.00000000000E+00 -0.36241585416E+02  0.36241585416E+02  0.00000000000E+00 0. -1.
         25    2    1    2    0    0  0.24785116339E+02  0.69571117402E+02  0.22084990609E+03  0.26430091070E+03  0.12500339199E+03 0.  0.
          2    1    1    2  501    0 -0.68284949371E+01 -0.48145964419E+02  0.26888156619E+02  0.55566493495E+02  0.00000000000E+00 0. -1.
          1    1    1    2  502    0 -0.17956621402E+02 -0.21425152984E+02  0.11041371396E+04  0.11044909689E+04  0.00000000000E+00 0. -1.
         22    1    3    3    0    0  0.46272242906E+02  0.48115880017E+02  0.33841233206E+02  0.74843085441E+02  0.00000000000E+00 0. -1.
         22    1    3    3    0    0 -0.21487126567E+02  0.21455237386E+02  0.18700867288E+03  0.18945782526E+03  0.00000000000E+00 0. -1.
</event>
<event>
 7    1  0.5676357E-006  0.5252378E+02  0.7818608E-02  0.1570103E+00
          2   -1    0    0  502    0  0.00000000000E+00  0.00000000000E+00  0.13261480922E+04  0.13261480922E+04  0.00000000000E+00 0. -1.
          1   -1    0    0  501    0 -0.00000000000E+00 -0.00000000000E+00 -0.55644082522E+03  0.55644082522E+03  0.00000000000E+00 0. -1.
         25    2    1    2    0    0  0.30470142811E+01  0.71140953663E+02 -0.87545160536E+02  0.16840370598E+03  0.12500133388E+03 0.  0.
          2    1    1    2  501    0 -0.75699726282E+01 -0.18888195811E+02 -0.42768951272E+03  0.42817331505E+03  0.00000000000E+00 0. -1.
          1    1    1    2  502    0  0.45229583471E+01 -0.52252757852E+02  0.12849419403E+04  0.12860118964E+04  0.00000000000E+00 0. -1.
         22    1    3    3    0    0  0.56075991732E+02  0.11777585937E+02 -0.11753365780E+02  0.58492478032E+02  0.00000000000E+00 0. -1.
         22    1    3    3    0    0 -0.53028977451E+02  0.59363367726E+02 -0.75791794756E+02  0.10991122795E+03  0.00000000000E+00 0. -1.
</event>
<event>
 7    1  0.5676357E-006  0.1195661E+03  0.7818608E-02  0.1314958E+00
          2   -1    0    0  502    0  0.00000000000E+00  0.00000000000E+00  0.51348730683E+03  0.51348730683E+03  0.00000000000E+00 0. -1.
          1   -1    0    0  501    0 -0.00000000000E+00 -0.00000000000E+00 -0.32778670593E+03  0.32778670593E+03  0.00000000000E+00 0. -1.
         25    2    1    2    0    0 -0.17654969878E+03 -0.81257197561E+01  0.19926616676E+03  0.29422466638E+03  0.12500130251E+03 0.  0.
          2    1    1    2  501    0  0.11603690173E+03  0.12700000113E+02 -0.26437733043E+03  0.28900038999E+03  0.00000000000E+00 0. -1.
          1    1    1    2  502    0  0.60512797051E+02 -0.45742803566E+01  0.25081176457E+03  0.25804895639E+03  0.00000000000E+00 0. -1.
         22    1    3    3    0    0 -0.58978603398E+02 -0.46284668073E+02  0.22028784619E+02  0.78140984824E+02  0.00000000000E+00 0.  1.
         22    1    3    3    0    0 -0.11757109538E+03  0.38158948316E+02  0.17723738214E+03  0.21608368155E+03  0.00000000000E+00 0.  1.
</event>
<event>
 7    1  0.5676357E-006  0.4717691E+02  0.7818608E-02  0.1476536E+00
          2   -1    0    0  502    0  0.00000000000E+00  0.00000000000E+00  0.94378210671E+03  0.94378210671E+03  0.00000000000E+00 0. -1.
          1   -1    0    0  501    0 -0.00000000000E+00 -0.00000000000E+00 -0.28863671505E+02  0.28863671505E+02  0.00000000000E+00 0. -1.
         25    2    1    2    0    0 -0.18138360319E+02 -0.29239222913E+02  0.28709793840E+03  0.31501453590E+03  0.12499999731E+03 0.  0.
          2    1    1    2  501    0  0.51147882174E+02  0.28533250351E+01  0.32185900744E+02  0.60499417529E+02  0.00000000000E+00 0. -1.
          1    1    1    2  502    0 -0.33009521855E+02  0.26385897878E+02  0.59563459607E+03  0.59713182479E+03  0.00000000000E+00 0. -1.
         22    1    3    3    0    0 -0.22648107708E+02  0.89588047624E+01 -0.98469405516E+00  0.24375532566E+02  0.00000000000E+00 0. -1.
         22    1    3    3    0    0  0.45097473890E+01 -0.38198027676E+02  0.28808263245E+03  0.29063900334E+03  0.00000000000E+00 0. -1.
</event>
<event>
 7    1  0.5676357E-006  0.6395259E+02  0.7818608E-02  0.1468823E+00
          2   -1    0    0  502    0  0.00000000000E+00  0.00000000000E+00  0.22386768145E+03  0.22386768145E+03  0.00000000000E+00 0. -1.
          1   -1    0    0  501    0 -0.00000000000E+00 -0.00000000000E+00 -0.15907845002E+04  0.15907845002E+04  0.00000000000E+00 0. -1.
         25    2    1    2    0    0  0.93879694926E+02 -0.10946342451E+02  0.13278844141E+03  0.20540465027E+03  0.12500032259E+03 0.  0.
          2    1    1    2  501    0 -0.61515006837E+02  0.17064791191E+02 -0.15488066815E+04  0.15501217500E+04  0.00000000000E+00 0. -1.
          1    1    1    2  502    0 -0.32364688089E+02 -0.61184487394E+01  0.49101421326E+02  0.59125781401E+02  0.00000000000E+00 0. -1.
         22    1    3    3    0    0  0.55664294079E+02 -0.67059366282E+02  0.89302007362E+02  0.12478109136E+03  0.00000000000E+00 0.  1.
         22    1    3    3    0    0  0.38215400847E+02  0.56113023830E+02  0.43486434047E+02  0.80623558911E+02  0.00000000000E+00 0.  1.
</event>
<event>
 7    1  0.5676357E-006  0.2671885E+03  0.7818608E-02  0.1179319E+00
          2   -1    0    0  502    0  0.00000000000E+00  0.00000000000E+00  0.55332554139E+03  0.55332554139E+03  0.00000000000E+00 0. -1.
          1   -1    0    0  501    0 -0.00000000000E+00 -0.00000000000E+00 -0.11809173840E+04  0.11809173840E+04  0.00000000000E+00 0. -1.
         25    2    1    2    0    0  0.11663283064E+03 -0.32534711299E+03 -0.92219510536E+02  0.37892352024E+03  0.12499853980E+03 0.  0.
          2    1    1    2  501    0 -0.36241150940E+02  0.25566889578E+03 -0.92036222937E+03  0.95590095645E+03  0.00000000000E+00 0. -1.
          1    1    1    2  502    0 -0.80391679701E+02  0.69678217210E+02  0.38498989731E+03  0.39941844869E+03  0.00000000000E+00 0. -1.
         22    1    3    3    0    0  0.12581012111E+03 -0.32533934828E+03 -0.10399874945E+03  0.36399123341E+03  0.00000000000E+00 0.  1.
         22    1    3    3    0    0 -0.91772904642E+01 -0.77647085774E-02  0.11779238912E+02  0.14932286828E+02  0.00000000000E+00 0.  1.
</event>
<event>
 7    1  0.5676357E-006  0.9623579E+02  0.7818608E-02  0.1327031E+00
          2   -1    0    0  502    0  0.00000000000E+00  0.00000000000E+00  0.47800232923E+03  0.47800232923E+03  0.00000000000E+00 0. -1.
          1   -1    0    0  501    0 -0.00000000000E+00 -0.00000000000E+00 -0.97481674994E+02  0.97481674994E+02  0.00000000000E+00 0. -1.
         25    2    1    2    0    0  0.44789025584E+02  0.56588576504E+02  0.13391272130E+03  0.19689134406E+03  0.12500104254E+03 0.  0.
          2    1    1    2  501    0  0.69249090841E+00 -0.10673458344E+03 -0.15523864578E+02  0.10785982207E+03  0.00000000000E+00 0. -1.
          1    1    1    2  502    0 -0.45481516492E+02  0.50146006935E+02  0.26213179751E+03  0.27073283809E+03  0.00000000000E+00 0. -1.
         22    1    3    3    0    0 -0.32457945764E+02  0.57215556682E+02  0.74865618094E+02  0.99659414720E+02  0.00000000000E+00 0.  1.
         22    1    3    3    0    0  0.77246971348E+02 -0.62698017753E+00  0.59047103208E+02  0.97231929343E+02  0.00000000000E+00 0.  1.
</event>
<event>
 7    1  0.5676357E-006  0.1251370E+03  0.7818608E-02  0.1379689E+00
          2   -1    0    0  502    0  0.00000000000E+00  0.00000000000E+00  0.27420774830E+03  0.27420774830E+03  0.00000000000E+00 0. -1.
          1   -1    0    0  501    0 -0.00000000000E+00 -0.00000000000E+00 -0.80061896870E+03  0.80061896870E+03  0.00000000000E+00 0. -1.
         25    2    1    2    0    0 -0.21431455673E+02  0.14699601855E+03 -0.37730684487E+03  0.42432561706E+03  0.12499854939E+03 0.  0.
          2    1    1    2  501    0  0.82131549487E+01 -0.11644000686E+03 -0.39011368935E+03  0.40720317009E+03  0.00000000000E+00 0. -1.
          1    1    1    2  502    0  0.13218300724E+02 -0.30556011685E+02  0.24100931382E+03  0.24329792985E+03  0.00000000000E+00 0. -1.
         22    1    3    3    0    0 -0.66155796142E+02  0.37918599444E+02 -0.14885931808E+03  0.16725282098E+03  0.00000000000E+00 0. -1.
         22    1    3    3    0    0  0.44724340469E+02  0.10907741910E+03 -0.22844752679E+03  0.25707279608E+03  0.00000000000E+00 0. -1.
</event>
<event>
 7    1  0.5676357E-006  0.1117886E+03  0.7818608E-02  0.1281190E+00
          2   -1    0    0  502    0  0.00000000000E+00  0.00000000000E+00  0.17562192188E+03  0.17562192188E+03  0.00000000000E+00 0. -1.
          1   -1    0    0  501    0 -0.00000000000E+00 -0.00000000000E+00 -0.18887407004E+04  0.18887407004E+04  0.00000000000E+00 0. -1.
         25    2    1    2    0    0 -0.29377121168E+02  0.40193855956E+01  0.34109776315E+02  0.13292035253E+03  0.12500069027E+03 0.  0.
          2    1    1    2  501    0  0.10625135925E+03  0.40225234886E+02 -0.18157868003E+04  0.18193375511E+04  0.00000000000E+00 0. -1.
          1    1    1    2  502    0 -0.76874238083E+02 -0.44244620482E+02  0.68558245435E+02  0.11210471863E+03  0.00000000000E+00 0. -1.
         22    1    3    3    0    0 -0.43596871138E+02  0.58049614715E+02  0.18977884925E+02  0.75037357748E+02  0.00000000000E+00 0.  1.
         22    1    3    3    0    0  0.14219749969E+02 -0.54030229119E+02  0.15131891390E+02  0.57882994782E+02  0.00000000000E+00 0.  1.
</event>
<event>
 7    1  0.5676357E-006  0.1375451E+03  0.7818608E-02  0.1312963E+00
          2   -1    0    0  502    0  0.00000000000E+00  0.00000000000E+00  0.10296037336E+03  0.10296037336E+03  0.00000000000E+00 0. -1.
          1   -1    0    0  501    0 -0.00000000000E+00 -0.00000000000E+00 -0.35825881404E+03  0.35825881404E+03  0.00000000000E+00 0. -1.
         25    2    1    2    0    0 -0.74462491129E+02  0.14862813638E+03 -0.14287253317E+03  0.25233392598E+03  0.12499945583E+03 0.  0.
          2    1    1    2  501    0 -0.16506304215E+01 -0.53685399431E+02 -0.26295760292E+02  0.59802288436E+02  0.00000000000E+00 0. -1.
          1    1    1    2  502    0  0.76113121551E+02 -0.94942736948E+02 -0.86130147223E+02  0.14908297298E+03  0.00000000000E+00 0. -1.
         22    1    3    3    0    0 -0.88803918788E+02  0.54106652404E+02 -0.38739595875E+02  0.11097036593E+03  0.00000000000E+00 0.  1.
         22    1    3    3    0    0  0.14341427659E+02  0.94521483976E+02 -0.10413293729E+03  0.14136356005E+03  0.00000000000E+00 0.  1.
</event>
<event>
 7    1  0.5676357E-006  0.1278699E+03  0.7818608E-02  0.1360908E+00
          2   -1    0    0  502    0  0.00000000000E+00  0.00000000000E+00  0.78665912765E+03  0.78665912765E+03  0.00000000000E+00 0. -1.
          1   -1    0    0  501    0 -0.00000000000E+00 -0.00000000000E+00 -0.97642852659E+02  0.97642852659E+02  0.00000000000E+00 0. -1.
         25    2    1    2    0    0  0.72440640384E+02  0.12292931402E+03  0.79808297134E+02  0.20580123969E+03  0.12500209335E+03 0.  0.
          2    1    1    2  501    0 -0.35683481582E+02 -0.11306045477E+03  0.69448485051E+02  0.13740112578E+03  0.00000000000E+00 0. -1.
          1    1    1    2  502    0 -0.36757158802E+02 -0.98688592552E+01  0.53975949281E+03  0.54109961484E+03  0.00000000000E+00 0. -1.
         22    1    3    3    0    0  0.77688656396E+02  0.12357002516E+03  0.10516317636E+03  0.17990100642E+03  0.00000000000E+00 0.  1.
         22    1    3    3    0    0 -0.52480160121E+01 -0.64071113827E+00 -0.25354879224E+02  0.25900233267E+02  0.00000000000E+00 0.  1.
</event>
<event>
 7    1  0.5676357E-006  0.1054867E+03  0.7818608E-02  0.1310396E+00
          2   -1    0    0  502    0  0.00000000000E+00  0.00000000000E+00  0.93908343410E+02  0.93908343410E+02  0.00000000000E+00 0. -1.
          1   -1    0    0  501    0 -0.00000000000E+00 -0.00000000000E+00 -0.14039359567E+04  0.14039359567E+04  0.00000000000E+00 0. -1.
         25    2    1    2    0    0  0.78636647195E+02  0.59879707191E+02 -0.20620151438E+03  0.26060162067E+03  0.12499935420E+03 0.  0.
          2    1    1    2  501    0 -0.53327240886E+02  0.47897749634E+02 -0.11226572726E+04  0.11249432611E+04  0.00000000000E+00 0. -1.
          1    1    1    2  502    0 -0.25309406310E+02 -0.10777745683E+03  0.18831173697E+02  0.11229941830E+03  0.00000000000E+00 0. -1.
         22    1    3    3    0    0  0.79915946773E+02  0.91433558702E+02 -0.18897468300E+03  0.22462877158E+03  0.00000000000E+00 0.  1.
         22    1    3    3    0    0 -0.12792995781E+01 -0.31553851511E+02 -0.17226831377E+02  0.35972849093E+02  0.00000000000E+00 0.  1.
</event>
<event>
 7    1  0.5676357E-006  0.1418744E+03  0.7818608E-02  0.1422758E+00
          2   -1    0    0  502    0  0.00000000000E+00  0.00000000000E+00  0.59001245797E+03  0.59001245797E+03  0.00000000000E+00 0. -1.
          1   -1    0    0  501    0 -0.00000000000E+00 -0.00000000000E+00 -0.86757381908E+03  0.86757381908E+03  0.00000000000E+00 0. -1.
         25    2    1    2    0    0 -0.15468660654E+03 -0.21951748666E+02  0.17715412311E+03  0.26724281379E+03  0.12500125069E+03 0.  0.
          2    1    1    2  501    0  0.14138065855E+03  0.58462875885E+01 -0.81613990841E+03  0.82831577299E+03  0.00000000000E+00 0. -1.
          1    1    1    2  502    0  0.13305947995E+02  0.16105461077E+02  0.36142442418E+03  0.36202769027E+03  0.00000000000E+00 0. -1.
         22    1    3    3    0    0 -0.71546828364E+02 -0.49163054039E+02  0.15394902107E+03  0.17673781605E+03  0.00000000000E+00 0.  1.
         22    1    3    3    0    0 -0.83139778176E+02  0.27211305374E+02  0.23205102037E+02  0.90504997740E+02  0.00000000000E+00 0.  1.
</event>
<event>
 7    1  0.5676357E-006  0.1331900E+03  0.7818608E-02  0.1242845E+00
          2   -1    0    0  502    0  0.00000000000E+00  0.00000000000E+00  0.14660913617E+04  0.14660913617E+04  0.00000000000E+00 0. -1.
          1   -1    0    0  501    0 -0.00000000000E+00 -0.00000000000E+00 -0.66484193434E+03  0.66484193434E+03  0.00000000000E+00 0. -1.
         25    2    1    2    0    0 -0.90196510623E+02 -0.12439370248E+03  0.24086420446E+03  0.31184834779E+03  0.12499849312E+03 0.  0.
          2    1    1    2  501    0  0.13152385661E+03  0.24189722155E+02 -0.61973402046E+03  0.63399836248E+03  0.00000000000E+00 0. -1.
          1    1    1    2  502    0 -0.41327345986E+02  0.10020398033E+03  0.11801192434E+04  0.11850865858E+04  0.00000000000E+00 0. -1.
         22    1    3    3    0    0  0.99314755562E+01 -0.67273947844E+02  0.15126316223E+03  0.16584620138E+03  0.00000000000E+00 0.  1.
         22    1    3    3    0    0 -0.10012798618E+03 -0.57119754638E+02  0.89601042227E+02  0.14600214640E+03  0.00000000000E+00 0.  1.
</event>
<event>
 7    1  0.5676357E-006  0.1934751E+03  0.7818608E-02  0.1260209E+00
          2   -1    0    0  502    0  0.00000000000E+00  0.00000000000E+00  0.74465418990E+02  0.74465418990E+02  0.00000000000E+00 0. -1.
          1   -1    0    0  501    0 -0.00000000000E+00 -0.00000000000E+00 -0.26680695674E+04  0.26680695674E+04  0.00000000000E+00 0. -1.
         25    2    1    2    0    0 -0.14780667526E+03 -0.51363955881E+02 -0.67824933489E+03  0.70720518066E+03  0.12502774920E+03 0.  0.
          2    1    1    2  501    0  0.20650368339E+03  0.29143000023E+02 -0.19516950837E+04  0.19628058450E+04  0.00000000000E+00 0. -1.
          1    1    1    2  502    0 -0.58697008131E+02  0.22220955859E+02  0.36340270130E+02  0.72523960702E+02  0.00000000000E+00 0. -1.
         22    1    3    3    0    0 -0.16021197805E+02 -0.65729475956E+02 -0.23824703104E+03  0.24766649064E+03  0.00000000000E+00 0.  1.
         22    1    3    3    0    0 -0.13178547745E+03  0.14365520075E+02 -0.44000230385E+03  0.45953869002E+03  0.00000000000E+00 0.  1.
</event>
<event>
 7    1  0.5676357E-006  0.9474231E+02  0.7818608E-02  0.1377661E+00
          2   -1    0    0  502    0  0.00000000000E+00  0.00000000000E+00  0.16252112538E+04  0.16252112538E+04  0.00000000000E+00 0. -1.
          1   -1    0    0  501    0 -0.00000000000E+00 -0.00000000000E+00 -0.66048307377E+03  0.66048307377E+03  0.00000000000E+00 0. -1.
         25    2    1    2    0    0  0.37113961877E+02 -0.83954833629E+02  0.64333711084E+03  0.66176541088E+03  0.12499984236E+03 0.  0.
          2    1    1    2  501    0 -0.74214060214E+02  0.59006887134E+02 -0.64729983028E+03  0.65420685547E+03  0.00000000000E+00 0. -1.
          1    1    1    2  502    0  0.37100098338E+02  0.24947946496E+02  0.96869089951E+03  0.96972206127E+03  0.00000000000E+00 0. -1.
         22    1    3    3    0    0  0.16647631740E+02  0.23714108777E+02  0.45333402619E+02  0.53801672750E+02  0.00000000000E+00 0.  1.
         22    1    3    3    0    0  0.20466330136E+02 -0.10766894241E+03  0.59800370823E+03  0.60796373813E+03  0.00000000000E+00 0.  1.
</event>
<event>
 7    1  0.5676357E-006  0.8817065E+02  0.7818608E-02  0.1379418E+00
          2   -1    0    0  502    0  0.00000000000E+00  0.00000000000E+00  0.19130598815E+04  0.19130598815E+04  0.00000000000E+00 0. -1.
          1   -1    0    0  501    0 -0.00000000000E+00 -0.00000000000E+00 -0.25207737319E+03  0.25207737319E+03  0.00000000000E+00 0. -1.
         25    2    1    2    0    0  0.15266141709E+02 -0.94839199642E+02  0.39804132870E+03  0.42812290483E+03  0.12499917366E+03 0.  0.
          2    1    1    2  501    0  0.30534303188E+02  0.82804369053E+02 -0.22843284104E+03  0.24488868915E+03  0.00000000000E+00 0. -1.
          1    1    1    2  502    0 -0.45800444897E+02  0.12034830590E+02  0.14913740207E+04  0.14921256607E+04  0.00000000000E+00 0. -1.
         22    1    3    3    0    0  0.21541320005E+02  0.19654910410E+02  0.26904201408E+02  0.39675937597E+02  0.00000000000E+00 0.  1.
         22    1    3    3    0    0 -0.62751782961E+01 -0.11449411005E+03  0.37113712729E+03  0.38844696723E+03  0.00000000000E+00 0.  1.
</event>
<event>
 7    1  0.5676357E-006  0.2745375E+02  0.7818608E-02  0.1640561E+00
          2   -1    0    0  502    0  0.00000000000E+00  0.00000000000E+00  0.45773194886E+03  0.45773194886E+03  0.00000000000E+00 0. -1.
          1   -1    0    0  501    0 -0.00000000000E+00 -0.00000000000E+00 -0.31123424851E+03  0.31123424851E+03  0.00000000000E+00 0. -1.
         25    2    1    2    0    0  0.16885063049E+02  0.19462834374E+02  0.31751409174E+02  0.13152057593E+03  0.12500241050E+03 0.  0.
          2    1    1    2  501    0 -0.24559609428E+02  0.70378610295E+01 -0.26021726995E+03  0.26146841775E+03  0.00000000000E+00 0. -1.
          1    1    1    2  502    0  0.76745463790E+01 -0.26500695404E+02  0.37496356113E+03  0.37597720369E+03  0.00000000000E+00 0. -1.
         22    1    3    3    0    0 -0.49285421212E+02  0.11344989681E+02  0.39817709191E+02  0.64367783092E+02  0.00000000000E+00 0.  1.
         22    1    3    3    0    0  0.66170484261E+02  0.81178446930E+01 -0.80663000173E+01  0.67152792837E+02  0.00000000000E+00 0.  1.
</event>
<event>
 7    1  0.5676357E-006  0.8942560E+02  0.7818608E-02  0.1321049E+00
          2   -1    0    0  502    0  0.00000000000E+00  0.00000000000E+00  0.16424105227E+03  0.16424105227E+03  0.00000000000E+00 0. -1.
          1   -1    0    0  501    0 -0.00000000000E+00 -0.00000000000E+00 -0.23293062443E+04  0.23293062443E+04  0.00000000000E+00 0. -1.
         25    2    1    2    0    0  0.70852153244E+02 -0.37598912300E+02 -0.58616727453E+03  0.60468619975E+03  0.12497848061E+03 0.  0.
          2    1    1    2  501    0 -0.17534161099E+02  0.92915079309E+02 -0.17229813116E+04  0.17255738926E+04  0.00000000000E+00 0. -1.
          1    1    1    2  502    0 -0.53317992145E+02 -0.55316167009E+02  0.14408339407E+03  0.16328720423E+03  0.00000000000E+00 0. -1.
         22    1    3    3    0    0  0.85916142945E+02  0.10063122680E+02 -0.47479712003E+03  0.48261284198E+03  0.00000000000E+00 0. -1.
         22    1    3    3    0    0 -0.15063989701E+02 -0.47662034981E+02 -0.11137015450E+03  0.12207335777E+03  0.00000000000E+00 0. -1.
</event>
<event>
 7    1  0.5676357E-006  0.7772630E+02  0.7818608E-02  0.1428067E+00
          2   -1    0    0  502    0  0.00000000000E+00  0.00000000000E+00  0.12201823931E+04  0.12201823931E+04  0.00000000000E+00 0. -1.
          1   -1    0    0  501    0 -0.00000000000E+00 -0.00000000000E+00 -0.38913798564E+03  0.38913798564E+03  0.00000000000E+00 0. -1.
         25    2    1    2    0    0  0.11088136968E+03  0.10511889034E+02  0.13894500317E+03  0.21756833794E+03  0.12500035927E+03 0.  0.
          2    1    1    2  501    0 -0.74934802761E+02 -0.17494751652E+02 -0.34526776041E+03  0.35373876997E+03  0.00000000000E+00 0. -1.
          1    1    1    2  502    0 -0.35946566914E+02  0.69828626184E+01  0.10373671647E+04  0.10380132708E+04  0.00000000000E+00 0. -1.
         22    1    3    3    0    0 -0.18861555130E+02  0.28300070341E+02  0.44970318151E+02  0.56382459665E+02  0.00000000000E+00 0. -1.
         22    1    3    3    0    0  0.12974292481E+03 -0.17788181308E+02  0.93974685021E+02  0.16118587828E+03  0.00000000000E+00 0. -1.
</event>
<event>
 7    1  0.1091970E-005  0.1243713E+03  0.7818608E-02  0.1308646E+00
          2   -1    0    0  502    0  0.00000000000E+00  0.00000000000E+00  0.14551545879E+04  0.14551545879E+04  0.00000000000E+00 0. -1.
          1   -1    0    0  501    0 -0.00000000000E+00 -0.00000000000E+00 -0.11687525952E+04  0.11687525952E+04  0.00000000000E+00 0. -1.
         25    2    1    2    0    0 -0.63155672643E+02  0.95249884832E+02 -0.28243534268E+03  0.32932354357E+03  0.12499237579E+03 0.  0.
          2    1    1    2  501    0 -0.47971722868E+02 -0.38913240389E+02 -0.85905150402E+03  0.86126941954E+03  0.00000000000E+00 0. -1.
          1    1    1    2  502    0  0.11112739551E+03 -0.56336644443E+02  0.14278888394E+04  0.14333142200E+04  0.00000000000E+00 0. -1.
         22    1    3    3    0    0 -0.55483157297E+02  0.18216249193E+02 -0.30743697486E+02  0.65995359030E+02  0.00000000000E+00 0. -1.
         22    1    3    3    0    0 -0.76725153461E+01  0.77033635639E+02 -0.25169164519E+03  0.26332818454E+03  0.00000000000E+00 0. -1.
</event>
<event>
 7    1  0.5676357E-006  0.6255540E+02  0.7818608E-02  0.1466568E+00
          2   -1    0    0  502    0  0.00000000000E+00  0.00000000000E+00  0.82850728642E+03  0.82850728642E+03  0.00000000000E+00 0. -1.
          1   -1    0    0  501    0 -0.00000000000E+00 -0.00000000000E+00 -0.14590259456E+04  0.14590259456E+04  0.00000000000E+00 0. -1.
         25    2    1    2    0    0  0.41712329219E+01 -0.56348961477E+02 -0.18045626467E+02  0.13835737417E+03  0.12499805482E+03 0.  0.
          2    1    1    2  501    0  0.33654213166E+02  0.62175821462E+01 -0.13793285937E+04  0.13797531061E+04  0.00000000000E+00 0. -1.
          1    1    1    2  502    0 -0.37825446088E+02  0.50131379331E+02  0.76685556096E+03  0.76942275177E+03  0.00000000000E+00 0. -1.
         22    1    3    3    0    0 -0.55575032705E+02 -0.15735744847E+02  0.13833472793E+02  0.59393289988E+02  0.00000000000E+00 0. -1.
         22    1    3    3    0    0  0.59746265627E+02 -0.40613216630E+02 -0.31879099260E+02  0.78964084185E+02  0.00000000000E+00 0. -1.
</event>
<event>
 7    1  0.5676357E-006  0.6675028E+02  0.7818608E-02  0.1385339E+00
          2   -1    0    0  502    0  0.00000000000E+00  0.00000000000E+00  0.59586635886E+03  0.59586635886E+03  0.00000000000E+00 0. -1.
          1   -1    0    0  501    0 -0.00000000000E+00 -0.00000000000E+00 -0.14223365354E+04  0.14223365354E+04  0.00000000000E+00 0. -1.
         25    2    1    2    0    0  0.57207281715E+02 -0.12224397810E+02 -0.11150096554E+03  0.17742500686E+03  0.12500023503E+03 0.  0.
          2    1    1    2  501    0 -0.25465681924E+02  0.62684372542E+02 -0.12753960214E+04  0.12771894312E+04  0.00000000000E+00 0. -1.
          1    1    1    2  502    0 -0.31741599791E+02 -0.50459974733E+02  0.56042681043E+03  0.56358845628E+03  0.00000000000E+00 0. -1.
         22    1    3    3    0    0  0.67027736061E+02  0.44404519455E+02 -0.68876797365E+02  0.10587016560E+03  0.00000000000E+00 0. -1.
         22    1    3    3    0    0 -0.98204543453E+01 -0.56628917265E+02 -0.42624168176E+02  0.71554841253E+02  0.00000000000E+00 0. -1.
</event>
<event>
 7    1  0.5676357E-006  0.1010986E+03  0.7818608E-02  0.1415523E+00
          2   -1    0    0  502    0  0.00000000000E+00  0.00000000000E+00  0.89177362447E+03  0.89177362447E+03  0.00000000000E+00 0. -1.
          1   -1    0    0  501    0 -0.00000000000E+00 -0.00000000000E+00 -0.68271275417E+03  0.68271275417E+03  0.00000000000E+00 0. -1.
         25    2    1    2    0    0 -0.82042410211E+02  0.14938654004E+02  0.56905818866E+02  0.16068104183E+03  0.12500401804E+03 0.  0.
          2    1    1    2  501    0  0.91699856807E+02 -0.44392191771E+02 -0.62640126684E+03  0.63463223802E+03  0.00000000000E+00 0. -1.
          1    1    1    2  502    0 -0.96574465960E+01  0.29453537767E+02  0.77855631828E+03  0.77917309880E+03  0.00000000000E+00 0. -1.
         22    1    3    3    0    0  0.15782060935E+02  0.45034539174E+02  0.14284970430E+02  0.49812082331E+02  0.00000000000E+00 0. -1.
         22    1    3    3    0    0 -0.97824471146E+02 -0.30095885170E+02  0.42620848436E+02  0.11086895950E+03  0.00000000000E+00 0. -1.
</event>
<event>
 7    1  0.5676357E-006  0.7319511E+02  0.7818608E-02  0.1364346E+00
          2   -1    0    0  502    0  0.00000000000E+00  0.00000000000E+00  0.27130654717E+03  0.27130654717E+03  0.00000000000E+00 0. -1.
          1   -1    0    0  501    0 -0.00000000000E+00 -0.00000000000E+00 -0.13268085144E+04  0.13268085144E+04  0.00000000000E+00 0. -1.
         25    2    1    2    0    0  0.11732538656E+03  0.62718099424E+02  0.87978288147E+01  0.18274742289E+03  0.12498164846E+03 0.  0.
          2    1    1    2  501    0 -0.58341531171E+02 -0.27743081333E+02 -0.12322579537E+04  0.12339501924E+04  0.00000000000E+00 0. -1.
          1    1    1    2  502    0 -0.58983855393E+02 -0.34975018091E+02  0.16795815767E+03  0.18141744628E+03  0.00000000000E+00 0. -1.
         22    1    3    3    0    0 -0.22951509284E+02  0.80039308441E+01 -0.17429870683E+02  0.29910451007E+02  0.00000000000E+00 0.  1.
         22    1    3    3    0    0  0.14027689585E+03  0.54714168580E+02  0.26227699498E+02  0.15283697188E+03  0.00000000000E+00 0.  1.
</event>
<event>
 7    1  0.5676357E-006  0.6398486E+02  0.7818608E-02  0.1398739E+00
          2   -1    0    0  502    0  0.00000000000E+00  0.00000000000E+00  0.35141993204E+03  0.35141993204E+03  0.00000000000E+00 0. -1.
          1   -1    0    0  501    0 -0.00000000000E+00 -0.00000000000E+00 -0.25033380305E+03  0.25033380305E+03  0.00000000000E+00 0. -1.
         25    2    1    2    0    0  0.68065793958E+02  0.11805998919E+02  0.15392090965E+03  0.20997220020E+03  0.12499737802E+03 0.  0.
          2    1    1    2  501    0 -0.33066472157E+02 -0.55341403383E+02 -0.21279627478E+03  0.22234728932E+03  0.00000000000E+00 0. -1.
          1    1    1    2  502    0 -0.34999321801E+02  0.43535404464E+02  0.15996149412E+03  0.16943424556E+03  0.00000000000E+00 0. -1.
         22    1    3    3    0    0  0.88305106107E+02 -0.31728926437E+02  0.11308366602E+03  0.14694363565E+03  0.00000000000E+00 0.  1.
         22    1    3    3    0    0 -0.20239312148E+02  0.43534925356E+02  0.40837243632E+02  0.63028564552E+02  0.00000000000E+00 0.  1.
</event>
<event>
 7    1  0.5676357E-006  0.7217820E+02  0.7818608E-02  0.1395277E+00
          2   -1    0    0  502    0  0.00000000000E+00  0.00000000000E+00  0.20913427372E+04  0.20913427372E+04  0.00000000000E+00 0. -1.
          1   -1    0    0  501    0 -0.00000000000E+00 -0.00000000000E+00 -0.53353095045E+02  0.53353095045E+02  0.00000000000E+00 0. -1.
         25    2    1    2    0    0 -0.77415187504E+02 -0.31273311276E+02  0.34736569078E+03  0.37849590668E+03  0.12500038794E+03 0.  0.
          2    1    1    2  501    0  0.70025465331E+02 -0.19088427007E+02 -0.21971019509E+01  0.72613780355E+02  0.00000000000E+00 0. -1.
          1    1    1    2  502    0  0.73897221731E+01  0.50361738282E+02  0.16928210533E+04  0.16935861452E+04  0.00000000000E+00 0. -1.
         22    1    3    3    0    0  0.24994037739E+02 -0.32341276317E+02  0.53712119070E+02  0.67495568827E+02  0.00000000000E+00 0.  1.
         22    1    3    3    0    0 -0.10240922524E+03  0.10679650409E+01  0.29365357171E+03  0.31100033785E+03  0.00000000000E+00 0.  1.
</event>
<event>
 7    1  0.5676357E-006  0.5268329E+02  0.7818608E-02  0.1435945E+00
          2   -1    0    0  502    0  0.00000000000E+00  0.00000000000E+00  0.20555688329E+04  0.20555688329E+04  0.00000000000E+00 0. -1.
          1   -1    0    0  501    0 -0.00000000000E+00 -0.00000000000E+00 -0.16272091522E+02  0.16272091522E+02  0.00000000000E+00 0. -1.
         25    2    1    2    0    0 -0.17113902879E+02  0.91715949540E+02  0.49454892543E+03  0.51856360971E+03  0.12499950640E+03 0.  0.
          2    1    1    2  501    0  0.29095549169E+02 -0.41766742624E+02  0.16730366266E+03  0.17487574820E+03  0.00000000000E+00 0. -1.
          1    1    1    2  502    0 -0.11981646291E+02 -0.49949206916E+02  0.13774441533E+04  0.13784015665E+04  0.00000000000E+00 0. -1.
         22    1    3    3    0    0 -0.50376229044E+02  0.10624957653E+03  0.41054429922E+03  0.42705193898E+03  0.00000000000E+00 0.  1.
         22    1    3    3    0    0  0.33262326165E+02 -0.14533626986E+02  0.84004626214E+02  0.91511670735E+02  0.00000000000E+00 0.  1.
</event>
<event>
 7    1  0.5676357E-006  0.1640371E+03  0.7818608E-02  0.1312166E+00
          2   -1    0    0  502    0  0.00000000000E+00  0.00000000000E+00  0.12410738582E+04  0.12410738582E+04  0.00000000000E+00 0. -1.
          1   -1    0    0  501    0 -0.00000000000E+00 -0.00000000000E+00 -0.18094808445E+03  0.18094808445E+03  0.00000000000E+00 0. -1.
         25    2    1    2    0    0 -0.24848375073E+02  0.14259641318E+03  0.15706078349E+03  0.24747589017E+03  0.12500019083E+03 0.  0.
          2    1    1    2  501    0  0.68267288599E+02 -0.15573116330E+03 -0.81763066199E+02  0.18867383738E+03  0.00000000000E+00 0. -1.
          1    1    1    2  502    0 -0.43418913526E+02  0.13134750119E+02  0.98482805644E+03  0.98587221508E+03  0.00000000000E+00 0. -1.
         22    1    3    3    0    0 -0.19430711896E+02  0.28074075655E+02  0.12332680354E+03  0.12796564680E+03  0.00000000000E+00 0.  1.
         22    1    3    3    0    0 -0.54176631766E+01  0.11452233753E+03  0.33733979947E+02  0.11951024337E+03  0.00000000000E+00 0.  1.
</event>
<event>
 7    1  0.5676357E-006  0.4994833E+02  0.7818608E-02  0.1449030E+00
          2   -1    0    0  502    0  0.00000000000E+00  0.00000000000E+00  0.13583797102E+04  0.13583797102E+04  0.00000000000E+00 0. -1.
          1   -1    0    0  501    0 -0.00000000000E+00 -0.00000000000E+00 -0.18974365856E+04  0.18974365856E+04  0.00000000000E+00 0. -1.
         25    2    1    2    0    0 -0.72471676458E+02 -0.38947263914E+02  0.24560585901E+03  0.28760402059E+03  0.12499920569E+03 0.  0.
          2    1    1    2  501    0  0.49753099553E+02 -0.41341524075E+01 -0.18755619848E+04  0.18762263245E+04  0.00000000000E+00 0. -1.
          1    1    1    2  502    0  0.22718576905E+02  0.43081416322E+02  0.10908992503E+04  0.10919859507E+04  0.00000000000E+00 0. -1.
         22    1    3    3    0    0 -0.12556514470E+02  0.44344525562E+02  0.91739058157E+02  0.10266527063E+03  0.00000000000E+00 0.  1.
         22    1    3    3    0    0 -0.59915161989E+02 -0.83291789476E+02  0.15386680085E+03  0.18493874996E+03  0.00000000000E+00 0.  1.
</event>
<event>
 7    1  0.5676357E-006  0.2306731E+03  0.7818608E-02  0.1235191E+00
          2   -1    0    0  502    0  0.00000000000E+00  0.00000000000E+00  0.20834080551E+04  0.20834080551E+04  0.00000000000E+00 0. -1.
          1   -1    0    0  501    0 -0.00000000000E+00 -0.00000000000E+00 -0.49847533506E+03  0.49847533506E+03  0.00000000000E+00 0. -1.
         25    2    1    2    0    0  0.16368555764E+03 -0.20829041287E+03  0.10836682864E+04  0.11225589111E+04  0.12499478477E+03 0.  0.
          2    1    1    2  501    0 -0.54024254676E+01  0.67435815446E+02 -0.46510516994E+03  0.46999956863E+03  0.00000000000E+00 0. -1.
          1    1    1    2  502    0 -0.15828313217E+03  0.14085459742E+03  0.96636960361E+03  0.98932491039E+03  0.00000000000E+00 0. -1.
         22    1    3    3    0    0  0.11506901755E+03 -0.47796442258E+02  0.42611729811E+03  0.44396095599E+03  0.00000000000E+00 0. -1.
         22    1    3    3    0    0  0.48616540086E+02 -0.16049397061E+03  0.65755098826E+03  0.67859795515E+03  0.00000000000E+00 0. -1.
</event>
<event>
 7    1  0.5676357E-006  0.6359912E+02  0.7818608E-02  0.1519001E+00
          2   -1    0    0  502    0  0.00000000000E+00  0.00000000000E+00  0.76479216533E+02  0.76479216533E+02  0.00000000000E+00 0. -1.
          1   -1    0    0  501    0 -0.00000000000E+00 -0.00000000000E+00 -0.54197864820E+03  0.54197864820E+03  0.00000000000E+00 0. -1.
         25    2    1    2    0    0  0.28214236243E+02 -0.32481107364E+02 -0.16411386406E+03  0.21073446319E+03  0.12499835252E+03 0.  0.
          2    1    1    2  501    0 -0.44964300958E+02  0.48809350111E+02 -0.34869122223E+03  0.35495029156E+03  0.00000000000E+00 0. -1.
          1    1    1    2  502    0  0.16750064715E+02 -0.16328242748E+02  0.47305654622E+02  0.52773109993E+02  0.00000000000E+00 0. -1.
         22    1    3    3    0    0  0.87635484360E+01  0.45493527634E+02 -0.32743477097E+02  0.56732672511E+02  0.00000000000E+00 0.  1.
         22    1    3    3    0    0  0.19450687807E+02 -0.77974634998E+02 -0.13137038697E+03  0.15400179067E+03  0.00000000000E+00 0.  1.
</event>
<event>
 7    1  0.5676357E-006  0.1905149E+03  0.7818608E-02  0.1248356E+00
          2   -1    0    0  502    0  0.00000000000E+00  0.00000000000E+00  0.38137167494E+03  0.38137167494E+03  0.00000000000E+00 0. -1.
          1   -1    0    0  501    0 -0.00000000000E+00 -0.00000000000E+00 -0.15221860253E+04  0.15221860253E+04  0.00000000000E+00 0. -1.
         25    2    1    2    0    0  0.20785229223E+03 -0.50387522351E+02  0.10373797158E+02  0.24794497435E+03  0.12501046694E+03 0.  0.
          2    1    1    2  501    0 -0.22396567329E+02  0.68101844026E+02 -0.13679301054E+04  0.13698073736E+04  0.00000000000E+00 0. -1.
          1    1    1    2  502    0 -0.18545572490E+03 -0.17714321675E+02  0.21674195791E+03  0.28580535231E+03  0.00000000000E+00 0. -1.
         22    1    3    3    0    0  0.15973955585E+03 -0.66154386422E+02 -0.38984195354E+02  0.17723683600E+03  0.00000000000E+00 0. -1.
         22    1    3    3    0    0  0.48112736375E+02  0.15766864070E+02  0.49357992512E+02  0.70708138349E+02  0.00000000000E+00 0. -1.
</event>
<event>
 7    1  0.5676357E-006  0.1161215E+03  0.7818608E-02  0.1282534E+00
          2   -1    0    0  502    0  0.00000000000E+00  0.00000000000E+00  0.11614039840E+04  0.11614039840E+04  0.00000000000E+00 0. -1.
          1   -1    0    0  501    0 -0.00000000000E+00 -0.00000000000E+00 -0.75393752789E+03  0.75393752789E+03  0.00000000000E+00 0. -1.
         25    2    1    2    0    0  0.13008086847E+03  0.13523154349E+03 -0.83858080221E+02  0.24055333770E+03  0.12500051185E+03 0.  0.
          2    1    1    2  501    0 -0.77575601994E+02 -0.33008960181E+02 -0.58565646223E+03  0.59169338110E+03  0.00000000000E+00 0. -1.
          1    1    1    2  502    0 -0.52505266477E+02 -0.10222258331E+03  0.10769809986E+04  0.10830947931E+04  0.00000000000E+00 0. -1.
         22    1    3    3    0    0  0.43467047974E+02  0.10658192658E+03 -0.94203706816E+02  0.14873946925E+03  0.00000000000E+00 0. -1.
         22    1    3    3    0    0  0.86613820497E+02  0.28649616906E+02  0.10345626595E+02  0.91813868449E+02  0.00000000000E+00 0. -1.
</event>
<event>
 7    1  0.5676357E-006  0.1790864E+03  0.7818608E-02  0.1288508E+00
          2   -1    0    0  502    0  0.00000000000E+00  0.00000000000E+00  0.72247119324E+02  0.72247119324E+02  0.00000000000E+00 0. -1.
          1   -1    0    0  501    0 -0.00000000000E+00 -0.00000000000E+00 -0.16984743086E+04  0.16984743086E+04  0.00000000000E+00 0. -1.
         25    2    1    2    0    0 -0.15001318858E+02 -0.13595302190E+03 -0.21754681462E+03  0.28576211771E+03  0.12500043053E+03 0.  0.
          2    1    1    2  501    0  0.51385350642E+01  0.18667314770E+03 -0.14198647070E+04  0.14320925441E+04  0.00000000000E+00 0. -1.
          1    1    1    2  502    0  0.98627837940E+01 -0.50720125796E+02  0.11184332401E+02  0.52866766084E+02  0.00000000000E+00 0. -1.
         22    1    3    3    0    0 -0.51309035182E+02 -0.75703683942E+02 -0.18877656218E+03  0.20976237814E+03  0.00000000000E+00 0.  1.
         22    1    3    3    0    0  0.36307716324E+02 -0.60249337960E+02 -0.28770252441E+02  0.75999739571E+02  0.00000000000E+00 0.  1.
</event>
<event>
 7    1  0.5676357E-006  0.8914183E+02  0.7818608E-02  0.1348157E+00
          2   -1    0    0  502    0  0.00000000000E+00  0.00000000000E+00  0.19428858624E+04  0.19428858624E+04  0.00000000000E+00 0. -1.
          1   -1    0    0  501    0 -0.00000000000E+00 -0.00000000000E+00 -0.55679757290E+02  0.55679757290E+02  0.00000000000E+00 0. -1.
         25    2    1    2    0    0  0.38244286005E+02 -0.66491720370E+01  0.32778509576E+03  0.35295068898E+03  0.12499713178E+03 0.  0.
          2    1    1    2  501    0  0.42850004060E+02 -0.43165478673E+02 -0.19466379236E+02  0.63861735942E+02  0.00000000000E+00 0. -1.
          1    1    1    2  502    0 -0.81094290065E+02  0.49814650710E+02  0.15788873886E+04  0.15817531948E+04  0.00000000000E+00 0. -1.
         22    1    3    3    0    0  0.76863200472E+02  0.25110261776E+02  0.20582771115E+03  0.22114141066E+03  0.00000000000E+00 0.  1.
         22    1    3    3    0    0 -0.38618914466E+02 -0.31759433813E+02  0.12195738461E+03  0.13180927832E+03  0.00000000000E+00 0.  1.
</event>
<event>
 7    1  0.5676357E-006  0.1523177E+03  0.7818608E-02  0.1231904E+00
          2   -1    0    0  502    0  0.00000000000E+00  0.00000000000E+00  0.11267440905E+04  0.11267440905E+04  0.00000000000E+00 0. -1.
          1   -1    0    0  501    0 -0.00000000000E+00 -0.00000000000E+00 -0.57497433854E+02  0.57497433854E+02  0.00000000000E+00 0. -1.
         25    2    1    2    0    0 -0.42712190484E+02 -0.97293267690E+02  0.15486356484E+03  0.22559607742E+03  0.12498221984E+03 0.  0.
          2    1    1    2  501    0  0.79539853851E+02 -0.70020447025E+02  0.23151145511E+03  0.25461147893E+03  0.00000000000E+00 0. -1.
          1    1    1    2  502    0 -0.36827663367E+02  0.16731371471E+03  0.68287163673E+03  0.70403396805E+03  0.00000000000E+00 0. -1.
         22    1    3    3    0    0 -0.57927115613E+02 -0.12140887352E+03  0.11761709412E+03  0.17868812530E+03  0.00000000000E+00 0. -1.
         22    1    3    3    0    0  0.15214925128E+02  0.24115605827E+02  0.37246470722E+02  0.46907952123E+02  0.00000000000E+00 0. -1.
</event>
<event>
 7    1  0.5678759E-006  0.1042291E+03  0.7818608E-02  0.1282066E+00
          2   -1    0    0  502    0  0.00000000000E+00  0.00000000000E+00  0.13549508407E+04  0.13549508407E+04  0.00000000000E+00 0. -1.
          1   -1    0    0  501    0 -0.00000000000E+00 -0.00000000000E+00 -0.80217444734E+03  0.80217444734E+03  0.00000000000E+00 0. -1.
         25    2    1    2    0    0 -0.11532586038E+02  0.29292909579E+02 -0.11194013225E+02  0.12939597073E+03  0.12500774463E+03 0.  0.
          2    1    1    2  501    0  0.10586685933E+03 -0.30585372926E+02 -0.72599903092E+03  0.73431454421E+03  0.00000000000E+00 0. -1.
          1    1    1    2  502    0 -0.94334273296E+02  0.12924633471E+01  0.12899694375E+04  0.12934147731E+04  0.00000000000E+00 0. -1.
         22    1    3    3    0    0 -0.67478859394E+02  0.21301689325E+02  0.40024158620E+01  0.70874380181E+02  0.00000000000E+00 0.  1.
         22    1    3    3    0    0  0.55946273357E+02  0.79912202534E+01 -0.15196429087E+02  0.58521590551E+02  0.00000000000E+00 0.  1.
</event>
<event>
 7    1  0.5676357E-006  0.1064111E+03  0.7818608E-02  0.1351424E+00
          2   -1    0    0  502    0  0.00000000000E+00  0.00000000000E+00  0.40967309913E+03  0.40967309913E+03  0.00000000000E+00 0. -1.
          1   -1    0    0  501    0 -0.00000000000E+00 -0.00000000000E+00 -0.16397517013E+03  0.16397517013E+03  0.00000000000E+00 0. -1.
         25    2    1    2    0    0 -0.88321930855E+02 -0.41382956749E+02  0.47616618618E+02  0.16554729874E+03  0.12500101269E+03 0.  0.
          2    1    1    2  501    0 -0.21136259320E+02  0.44816608262E+02 -0.88434076570E+02  0.10136989559E+03  0.00000000000E+00 0. -1.
          1    1    1    2  502    0  0.10945819018E+03 -0.34336515127E+01  0.28651538695E+03  0.30673107492E+03  0.00000000000E+00 0. -1.
         22    1    3    3    0    0  0.30890534252E+02 -0.63743557632E+01  0.22612828836E+02  0.38809760960E+02  0.00000000000E+00 0.  1.
         22    1    3    3    0    0 -0.11921246511E+03 -0.35008600986E+02  0.25003789781E+02  0.12673753778E+03  0.00000000000E+00 0.  1.
</event>
<event>
 7    1  0.5676357E-006  0.4482293E+02  0.7818608E-02  0.1531707E+00
          2   -1    0    0  502    0  0.00000000000E+00  0.00000000000E+00  0.17039041082E+04  0.17039041082E+04  0.00000000000E+00 0. -1.
          1   -1    0    0  501    0 -0.00000000000E+00 -0.00000000000E+00 -0.52920945926E+03  0.52920945926E+03  0.00000000000E+00 0. -1.
         25    2    1    2    0    0  0.14958656649E+02 -0.17808984274E+02 -0.87412455595E+02  0.15429905734E+03  0.12500536138E+03 0.  0.
          2    1    1    2  501    0  0.29093010571E+02  0.91760175524E+01 -0.40748187527E+03  0.40862217419E+03  0.00000000000E+00 0. -1.
          1    1    1    2  502    0 -0.44051667220E+02  0.86329667211E+01  0.16695889798E+04  0.16701923359E+04  0.00000000000E+00 0. -1.
         22    1    3    3    0    0 -0.23908524751E+02 -0.36214419819E+02  0.12804725983E+02  0.45244477742E+02  0.00000000000E+00 0.  1.
         22    1    3    3    0    0  0.38867181400E+02  0.18405435546E+02 -0.10021718158E+03  0.10905457960E+03  0.00000000000E+00 0.  1.
</event>
<event>
 7    1  0.5676357E-006  0.5368222E+02  0.7818608E-02  0.1489910E+00
          2   -1    0    0  502    0  0.00000000000E+00  0.00000000000E+00  0.15328482435E+04  0.15328482435E+04  0.00000000000E+00 0. -1.
          1   -1    0    0  501    0 -0.00000000000E+00 -0.00000000000E+00 -0.10226045714E+03  0.10226045714E+03  0.00000000000E+00 0. -1.
         25    2    1    2    0    0 -0.73236938324E+02  0.47177808546E+02  0.82750887757E+03  0.84141850682E+03  0.12499906567E+03 0.  0.
          2    1    1    2  501    0  0.45770798957E+02 -0.27470897402E+02 -0.87384612974E+02  0.10239964270E+03  0.00000000000E+00 0. -1.
          1    1    1    2  502    0  0.27466139367E+02 -0.19706911144E+02  0.69046352180E+03  0.69129055114E+03  0.00000000000E+00 0. -1.
         22    1    3    3    0    0  0.34632744526E+01 -0.33666979193E+02  0.10375666490E+03  0.10913709392E+03  0.00000000000E+00 0.  1.
         22    1    3    3    0    0 -0.76700212777E+02  0.80844787739E+02  0.72375221267E+03  0.73228141291E+03  0.00000000000E+00 0.  1.
</event>
<event>
 7    1  0.5676357E-006  0.6805901E+02  0.7818608E-02  0.1496222E+00
          2   -1    0    0  502    0  0.00000000000E+00  0.00000000000E+00  0.62790364301E+03  0.62790364301E+03  0.00000000000E+00 0. -1.
          1   -1    0    0  501    0 -0.00000000000E+00 -0.00000000000E+00 -0.14117594823E+04  0.14117594823E+04  0.00000000000E+00 0. -1.
         25    2    1    2    0    0  0.88837032372E+02 -0.10951340750E+02  0.51082387502E+03  0.53345811619E+03  0.12499832097E+03 0.  0.
          2    1    1    2  501    0 -0.64999696596E+02  0.20068503137E+02 -0.13980635664E+04  0.13997176291E+04  0.00000000000E+00 0. -1.
          1    1    1    2  502    0 -0.23837335777E+02 -0.91171623873E+01  0.10338385213E+03  0.10648738004E+03  0.00000000000E+00 0. -1.
         22    1    3    3    0    0 -0.26013587416E+02  0.22119858728E+02  0.10659811460E+03  0.11193369875E+03  0.00000000000E+00 0.  1.
         22    1    3    3    0    0  0.11485061979E+03 -0.33071199478E+02  0.40422576043E+03  0.42152441744E+03  0.00000000000E+00 0.  1.
</event>
<event>
 7    1  0.6645940E-006  0.9881018E+02  0.7818608E-02  0.1334698E+00
          2   -1    0    0  502    0  0.00000000000E+00  0.00000000000E+00  0.13587482098E+04  0.13587482098E+04  0.00000000000E+00 0. -1.
          1   -1    0    0  501    0 -0.00000000000E+00 -0.00000000000E+00 -0.14686850954E+04  0.14686850954E+04  0.00000000000E+00 0. -1.
         25    2    1    2    0    0  0.66448513286E+02  0.10247854526E+03 -0.20710802138E+03  0.27100789109E+03  0.12503714391E+03 0.  0.
          2    1    1    2  501    0 -0.49569014018E+01 -0.98193532756E+02 -0.12269436598E+04  0.12308766327E+04  0.00000000000E+00 0. -1.
          1    1    1    2  502    0 -0.61491611885E+02 -0.42850125062E+01  0.13241147956E+04  0.13255487813E+04  0.00000000000E+00 0. -1.
         22    1    3    3    0    0  0.64347872339E+02  0.10681942261E+03 -0.22239861108E+03  0.25497486137E+03  0.00000000000E+00 0. -1.
         22    1    3    3    0    0  0.21006409471E+01 -0.43408773488E+01  0.15290589702E+02  0.16033029719E+02  0.00000000000E+00 0. -1.
</event>
<event>
 7    1  0.5676357E-006  0.7732462E+02  0.7818608E-02  0.1423612E+00
          2   -1    0    0  502    0  0.00000000000E+00  0.00000000000E+00  0.40156184557E+03  0.40156184557E+03  0.00000000000E+00 0. -1.
          1   -1    0    0  501    0 -0.00000000000E+00 -0.00000000000E+00 -0.16655289732E+04  0.16655289732E+04  0.00000000000E+00 0. -1.
         25    2    1    2    0    0  0.10445424062E+03  0.47194270194E+02 -0.76739988216E+02  0.18615374407E+03  0.12500481238E+03 0.  0.
          2    1    1    2  501    0 -0.68765615436E+02 -0.33910355616E+02 -0.15320753455E+04  0.15339926618E+04  0.00000000000E+00 0. -1.
          1    1    1    2  502    0 -0.35688625179E+02 -0.13283914578E+02  0.34484820614E+03  0.34694441288E+03  0.00000000000E+00 0. -1.
         22    1    3    3    0    0  0.86992223948E+02  0.76815817261E+02 -0.92424839707E+02  0.14835992654E+03  0.00000000000E+00 0.  1.
         22    1    3    3    0    0  0.17462016668E+02 -0.29621547067E+02  0.15684851491E+02  0.37793817525E+02  0.00000000000E+00 0.  1.
</event>
<event>
 7    1  0.5676357E-006  0.1074337E+03  0.7818608E-02  0.1271768E+00
          2   -1    0    0  502    0  0.00000000000E+00  0.00000000000E+00  0.12299205802E+04  0.12299205802E+04  0.00000000000E+00 0. -1.
          1   -1    0    0  501    0 -0.00000000000E+00 -0.00000000000E+00 -0.19857075172E+03  0.19857075172E+03  0.00000000000E+00 0. -1.
         25    2    1    2    0    0  0.85121042396E+02  0.34423520199E+02  0.22810114956E+03  0.27583468985E+03  0.12499628432E+03 0.  0.
          2    1    1    2  501    0 -0.78178843408E+02  0.73689033786E+02 -0.15484097215E+03  0.18846148655E+03  0.00000000000E+00 0. -1.
          1    1    1    2  502    0 -0.69421989879E+01 -0.10811255399E+03  0.95808965110E+03  0.96419515555E+03  0.00000000000E+00 0. -1.
         22    1    3    3    0    0  0.82592039348E+02  0.42783254964E+02  0.67330635973E+02  0.11482711531E+03  0.00000000000E+00 0. -1.
         22    1    3    3    0    0  0.25290030482E+01 -0.83597347645E+01  0.16077051359E+03  0.16100757454E+03  0.00000000000E+00 0. -1.
</event>
<event>
 7    1  0.5676357E-006  0.4467798E+02  0.7818608E-02  0.1527676E+00
          2   -1    0    0  502    0  0.00000000000E+00  0.00000000000E+00  0.44089304598E+03  0.44089304598E+03  0.00000000000E+00 0. -1.
          1   -1    0    0  501    0 -0.00000000000E+00 -0.00000000000E+00 -0.51502792070E+03  0.51502792070E+03  0.00000000000E+00 0. -1.
         25    2    1    2    0    0  0.70133744759E+02  0.27966223992E+02  0.13116569870E+02  0.14662607244E+03  0.12500523540E+03 0.  0.
          2    1    1    2  501    0 -0.40077818332E+02 -0.18774794408E+02 -0.44649298413E+03  0.44868107750E+03  0.00000000000E+00 0. -1.
          1    1    1    2  502    0 -0.30055926427E+02 -0.91914295839E+01  0.35924153954E+03  0.36061381674E+03  0.00000000000E+00 0. -1.
         22    1    3    3    0    0  0.93963902304E+02  0.28967825227E+02  0.43900948726E+02  0.10768306800E+03  0.00000000000E+00 0. -1.
         22    1    3    3    0    0 -0.23830157545E+02 -0.10016012358E+01 -0.30784378857E+02  0.38943004446E+02  0.00000000000E+00 0. -1.
</event>
<event>
 7    1  0.5676357E-006  0.1047075E+03  0.7818608E-02  0.1352319E+00
          2   -1    0    0  502    0  0.00000000000E+00  0.00000000000E+00  0.21806663409E+04  0.21806663409E+04  0.00000000000E+00 0. -1.
          1   -1    0    0  501    0 -0.00000000000E+00 -0.00000000000E+00 -0.15747883251E+02  0.15747883251E+02  0.00000000000E+00 0. -1.
         25    2    1    2    0    0 -0.65814230878E+02 -0.37720376093E+02  0.83695831423E+03  0.84963459554E+03  0.12500154568E+03 0.  0.
          2    1    1    2  501    0 -0.49186947826E+02  0.88386455041E+01  0.88295556225E+02  0.10145729515E+03  0.00000000000E+00 0. -1.
          1    1    1    2  502    0  0.11500117870E+03  0.28881730589E+02  0.12396645872E+04  0.12453223334E+04  0.00000000000E+00 0. -1.
         22    1    3    3    0    0  0.28010810551E+02 -0.42361784056E+02  0.35409038990E+03  0.35771375494E+03  0.00000000000E+00 0.  1.
         22    1    3    3    0    0 -0.93825041430E+02  0.46414079635E+01  0.48286792433E+03  0.49192084060E+03  0.00000000000E+00 0.  1.
</event>
<event>
 7    1  0.5676357E-006  0.9567711E+02  0.7818608E-02  0.1342707E+00
          2   -1    0    0  502    0  0.00000000000E+00  0.00000000000E+00  0.17437655424E+04  0.17437655424E+04  0.00000000000E+00 0. -1.
          1   -1    0    0  501    0 -0.00000000000E+00 -0.00000000000E+00 -0.42499752333E+03  0.42499752333E+03  0.00000000000E+00 0. -1.
         25    2    1    2    0    0  0.68091510952E+02 -0.11010875709E+03  0.44114812537E+03  0.47644295735E+03  0.12500332329E+03 0.  0.
          2    1    1    2  501    0 -0.10711603055E+02  0.94810783686E+02 -0.40106431345E+03  0.41225769449E+03  0.00000000000E+00 0. -1.
          1    1    1    2  502    0 -0.57379907896E+02  0.15297973404E+02  0.12786842071E+04  0.12800624139E+04  0.00000000000E+00 0. -1.
         22    1    3    3    0    0  0.25489290095E+02  0.23389029634E+01  0.78560991610E+01  0.26774851459E+02  0.00000000000E+00 0. -1.
         22    1    3    3    0    0  0.42602220857E+02 -0.11244766005E+03  0.43329202621E+03  0.44966810589E+03  0.00000000000E+00 0. -1.
</event>
<event>
 7    1  0.5676357E-006  0.5769187E+02  0.7818608E-02  0.1420110E+00
          2   -1    0    0  502    0  0.00000000000E+00  0.00000000000E+00  0.86146111569E+03  0.86146111569E+03  0.00000000000E+00 0. -1.
          1   -1    0    0  501    0 -0.00000000000E+00 -0.00000000000E+00 -0.59569209623E+03  0.59569209623E+03  0.00000000000E+00 0. -1.
         25    2    1    2    0    0 -0.85686938870E+02  0.28126763644E+02  0.13126362980E+02  0.15469239605E+03  0.12499627860E+03 0.  0.
          2    1    1    2  501    0  0.55434949191E+02  0.14694381845E+02 -0.52245439288E+03  0.52559257138E+03  0.00000000000E+00 0. -1.
          1    1    1    2  502    0  0.30251989680E+02 -0.42821145488E+02  0.77509704936E+03  0.77686824450E+03  0.00000000000E+00 0. -1.
         22    1    3    3    0    0  0.29574828187E+02 -0.77811710775E+01  0.14757446032E+02  0.33955843370E+02  0.00000000000E+00 0. -1.
         22    1    3    3    0    0 -0.11526176706E+03  0.35907934721E+02 -0.16310830514E+01  0.12073655268E+03  0.00000000000E+00 0. -1.
</event>
<event>
 7    1  0.5676357E-006  0.1831372E+03  0.7818608E-02  0.1205770E+00
          2   -1    0    0  502    0  0.00000000000E+00  0.00000000000E+00  0.11278353845E+04  0.11278353845E+04  0.00000000000E+00 0. -1.
          1   -1    0    0  501    0 -0.00000000000E+00 -0.00000000000E+00 -0.27495971607E+03  0.27495971607E+03  0.00000000000E+00 0. -1.
         25    2    1    2    0    0  0.75074712489E+02  0.46875703244E+02  0.33063683860E+03  0.36438923975E+03  0.12500101999E+03 0.  0.
          2    1    1    2  501    0 -0.11563384634E+03 -0.15558145031E+03 -0.21650573172E+03  0.29060541283E+03  0.00000000000E+00 0. -1.
          1    1    1    2  502    0  0.40559133848E+02  0.10870574706E+03  0.73874456157E+03  0.74780044800E+03  0.00000000000E+00 0. -1.
         22    1    3    3    0    0  0.14523246811E+02  0.92528937098E+00  0.26067550648E+03  0.26108140596E+03  0.00000000000E+00 0. -1.
         22    1    3    3    0    0  0.60551465678E+02  0.45950413873E+02  0.69961332116E+02  0.10330783379E+03  0.00000000000E+00 0. -1.
</event>
<event>
 7    1  0.5676357E-006  0.1711387E+03  0.7818608E-02  0.1383467E+00
          2   -1    0    0  502    0  0.00000000000E+00  0.00000000000E+00  0.14101981378E+04  0.14101981378E+04  0.00000000000E+00 0. -1.
          1   -1    0    0  501    0 -0.00000000000E+00 -0.00000000000E+00 -0.18538058168E+03  0.18538058168E+03  0.00000000000E+00 0. -1.
         25    2    1    2    0    0  0.11247784569E+02  0.15576429448E+03  0.15203630751E+03  0.25125401373E+03  0.12499805006E+03 0.  0.
          2    1    1    2  501    0 -0.16098364020E+02  0.17266173960E+02 -0.12849281854E+03  0.13064334084E+03  0.00000000000E+00 0. -1.
          1    1    1    2  502    0  0.48505794513E+01 -0.17303046844E+03  0.12012740672E+04  0.12136813650E+04  0.00000000000E+00 0. -1.
         22    1    3    3    0    0  0.20275825415E+02  0.16950913633E+03  0.15909597349E+03  0.23335806216E+03  0.00000000000E+00 0.  1.
         22    1    3    3    0    0 -0.90280408461E+01 -0.13744841842E+02 -0.70596659793E+01  0.17895951568E+02  0.00000000000E+00 0.  1.
</event>
<event>
 7    1  0.5676357E-006  0.5877513E+02  0.7818608E-02  0.1448930E+00
          2   -1    0    0  502    0  0.00000000000E+00  0.00000000000E+00  0.73540924696E+03  0.73540924696E+03  0.00000000000E+00 0. -1.
          1   -1    0    0  501    0 -0.00000000000E+00 -0.00000000000E+00 -0.28011956218E+03  0.28011956218E+03  0.00000000000E+00 0. -1.
         25    2    1    2    0    0 -0.15507663981E+02  0.12380348977E+02  0.76858619615E+02  0.14806673554E+03  0.12499100001E+03 0.  0.
          2    1    1    2  501    0 -0.39381207801E+02  0.12837173403E+02 -0.24128229508E+03  0.24481180214E+03  0.00000000000E+00 0. -1.
          1    1    1    2  502    0  0.54888871782E+02 -0.25217522380E+02  0.61971336024E+03  0.62265027145E+03  0.00000000000E+00 0. -1.
         22    1    3    3    0    0  0.16901547257E+02  0.43705898238E+01 -0.30771126921E+02  0.35378335279E+02  0.00000000000E+00 0. -1.
         22    1    3    3    0    0 -0.32409211238E+02  0.80097591531E+01  0.10762974654E+03  0.11268840026E+03  0.00000000000E+00 0. -1.
</event>
<event>
 7    1  0.5676357E-006  0.6878312E+02  0.7818608E-02  0.1469634E+00
          2   -1    0    0  502    0  0.00000000000E+00  0.00000000000E+00  0.37978373451E+03  0.37978373451E+03  0.00000000000E+00 0. -1.
          1   -1    0    0  501    0 -0.00000000000E+00 -0.00000000000E+00 -0.26052763457E+03  0.26052763457E+03  0.00000000000E+00 0. -1.
         25    2    1    2    0    0  0.38764605119E+02  0.57498821640E+02 -0.78879473968E+02  0.16326705683E+03  0.12500140532E+03 0.  0.
          2    1    1    2  501    0  0.20602772548E+02 -0.22417624300E+02 -0.13420992507E+03  0.13762023144E+03  0.00000000000E+00 0. -1.
          1    1    1    2  502    0 -0.59367377668E+02 -0.35081197340E+02  0.33234549898E+03  0.33942408080E+03  0.00000000000E+00 0. -1.
         22    1    3    3    0    0  0.55819117486E+02  0.33520887571E+02  0.13343246397E+02  0.66464020379E+02  0.00000000000E+00 0. -1.
         22    1    3    3    0    0 -0.17054512367E+02  0.23977934069E+02 -0.92222720365E+02  0.96803036449E+02  0.00000000000E+00 0. -1.
</event>
<event>
 7    1  0.5676357E-006  0.9379875E+02  0.7818608E-02  0.1367947E+00
          2   -1    0    0  502    0  0.00000000000E+00  0.00000000000E+00  0.97377893813E+03  0.97377893813E+03  0.00000000000E+00 0. -1.
          1   -1    0    0  501    0 -0.00000000000E+00 -0.00000000000E+00 -0.64368788406E+03  0.64368788406E+03  0.00000000000E+00 0. -1.
         25    2    1    2    0    0  0.73131386453E+02  0.10270431346E+03 -0.19807206849E+03  0.26599333736E+03  0.12499414193E+03 0.  0.
          2    1    1    2  501    0 -0.71973368110E+02 -0.53795470437E+02 -0.40610408386E+03  0.41592624982E+03  0.00000000000E+00 0. -1.
          1    1    1    2  502    0 -0.11580183432E+01 -0.48908843027E+02  0.93426720643E+03  0.93554723501E+03  0.00000000000E+00 0. -1.
         22    1    3    3    0    0  0.32460647896E+02  0.10579964745E+03 -0.19608206028E+03  0.22515646432E+03  0.00000000000E+00 0. -1.
         22    1    3    3    0    0  0.40670738557E+02 -0.30953339848E+01 -0.19900082141E+01  0.40836873043E+02  0.00000000000E+00 0. -1.
</event>
<event>
 7    1  0.5676357E-006  0.1162682E+03  0.7818608E-02  0.1454339E+00
          2   -1    0    0  502    0  0.00000000000E+00  0.00000000000E+00  0.65810376033E+03  0.65810376033E+03  0.00000000000E+00 0. -1.
          1   -1    0    0  501    0 -0.00000000000E+00 -0.00000000000E+00 -0.34735500211E+03  0.34735500211E+03  0.00000000000E+00 0. -1.
         25    2    1    2    0    0  0.11544122251E+03  0.63106006200E+02  0.24069339799E+03  0.30144277078E+03  0.12500155338E+03 0.  0.
          2    1    1    2  501    0 -0.95448212353E+02 -0.65386240064E+02 -0.30614524120E+03  0.32727760440E+03  0.00000000000E+00 0. -1.
          1    1    1    2  502    0 -0.19993010161E+02  0.22802338647E+01  0.37620060142E+03  0.37673838726E+03  0.00000000000E+00 0. -1.
         22    1    3    3    0    0  0.44884425253E+02  0.68203925735E+00  0.21165189959E+01  0.44939475526E+02  0.00000000000E+00 0.  1.
         22    1    3    3    0    0  0.70556797261E+02  0.62423966942E+02  0.23857687899E+03  0.25650329526E+03  0.00000000000E+00 0.  1.
</event>
<event>
 7    1  0.5676357E-006  0.3919332E+02  0.7818608E-02  0.1573382E+00
          2   -1    0    0  502    0  0.00000000000E+00  0.00000000000E+00  0.36115954645E+02  0.36115954645E+02  0.00000000000E+00 0. -1.
          1   -1    0    0  501    0 -0.00000000000E+00 -0.00000000000E+00 -0.23951060785E+04  0.23951060785E+04  0.00000000000E+00 0. -1.
         25    2    1    2    0    0  0.28358173101E+02  0.28733741397E+02 -0.15966677380E+04  0.16020619645E+04  0.12499943459E+03 0.  0.
          2    1    1    2  501    0  0.10662719249E+02 -0.24497237614E+02 -0.78390985837E+03  0.78436501342E+03  0.00000000000E+00 0. -1.
          1    1    1    2  502    0 -0.39020892350E+02 -0.42365037827E+01  0.21587472506E+02  0.44795055233E+02  0.00000000000E+00 0. -1.
         22    1    3    3    0    0  0.27570616641E+02 -0.34372903542E+02 -0.24563747499E+03  0.24955841905E+03  0.00000000000E+00 0. -1.
         22    1    3    3    0    0  0.78755646040E+00  0.63106644939E+02 -0.13510302631E+04  0.13525035455E+04  0.00000000000E+00 0. -1.
</event>
<event>
 7    1  0.5676357E-006  0.4543781E+02  0.7818608E-02  0.1514988E+00
          2   -1    0    0  502    0  0.00000000000E+00  0.00000000000E+00  0.21721012621E+03  0.21721012621E+03  0.00000000000E+00 0. -1.
          1   -1    0    0  501    0 -0.00000000000E+00 -0.00000000000E+00 -0.24732503383E+03  0.24732503383E+03  0.00000000000E+00 0. -1.
         25    2    1    2    0    0  0.74282066953E+01 -0.38395381381E+02 -0.52324786322E+02  0.14104027999E+03  0.12500037500E+03 0.  0.
          2    1    1    2  501    0  0.26204270757E+02  0.38848043712E+02 -0.14528555032E+03  0.15265557781E+03  0.00000000000E+00 0. -1.
          1    1    1    2  502    0 -0.33632477452E+02 -0.45266233090E+00  0.16749542903E+03  0.17083930223E+03  0.00000000000E+00 0. -1.
         22    1    3    3    0    0  0.35484517288E+02 -0.75521697190E+02 -0.25144610846E+02  0.87148890803E+02  0.00000000000E+00 0.  1.
         22    1    3    3    0    0 -0.28056310593E+02  0.37126315809E+02 -0.27180175476E+02  0.53891389188E+02  0.00000000000E+00 0.  1.
</event>
<event>
 7    1  0.5676357E-006  0.4825030E+02  0.7818608E-02  0.1467495E+00
          2   -1    0    0  502    0  0.00000000000E+00  0.00000000000E+00  0.36660425549E+04  0.36660425549E+04  0.00000000000E+00 0. -1.
          1   -1    0    0  501    0 -0.00000000000E+00 -0.00000000000E+00 -0.94715908742E+02  0.94715908742E+02  0.00000000000E+00 0. -1.
         25    2    1    2    0    0 -0.39229622398E+02  0.19219401890E+02  0.76936485021E+03  0.78067616400E+03  0.12499860645E+03 0.  0.
          2    1    1    2  501    0  0.59287025717E+01 -0.48092940479E+02 -0.82288124761E+02  0.95495632962E+02  0.00000000000E+00 0. -1.
          1    1    1    2  502    0  0.33300919827E+02  0.28873538589E+02  0.28842499207E+04  0.28845866666E+04  0.00000000000E+00 0. -1.
         22    1    3    3    0    0  0.40485568950E+02 -0.18129894860E+02  0.25118984945E+03  0.25507668425E+03  0.00000000000E+00 0. -1.
         22    1    3    3    0    0 -0.79715191348E+02  0.37349296750E+02  0.51817500076E+03  0.52559947975E+03  0.00000000000E+00 0. -1.
</event>
<event>
 7    1  0.5676357E-006  0.1513313E+03  0.7818608E-02  0.1301287E+00
          2   -1    0    0  502    0  0.00000000000E+00  0.00000000000E+00  0.56487980833E+03  0.56487980833E+03  0.00000000000E+00 0. -1.
          1   -1    0    0  501    0 -0.00000000000E+00 -0.00000000000E+00 -0.14432727230E+03  0.14432727230E+03  0.00000000000E+00 0. -1.
         25    2    1    2    0    0 -0.10847217093E+03  0.76864131538E+02  0.22179031368E+02  0.18382322782E+03  0.12499905229E+03 0.  0.
          2    1    1    2  501    0 -0.41390096905E+02 -0.35147204290E+02 -0.35225243574E+02  0.64724677489E+02  0.00000000000E+00 0. -1.
          1    1    1    2  502    0  0.14986226783E+03 -0.41716927248E+02  0.43359874824E+03  0.46065917533E+03  0.00000000000E+00 0. -1.
         22    1    3    3    0    0 -0.93305847026E+02  0.16441428282E+01  0.45227785146E+02  0.10370263663E+03  0.00000000000E+00 0. -1.
         22    1    3    3    0    0 -0.15166323899E+02  0.75219988710E+02 -0.23048753778E+02  0.80120591191E+02  0.00000000000E+00 0. -1.
</event>
<event>
 7    1  0.5676357E-006  0.6449120E+02  0.7818608E-02  0.1499801E+00
          2   -1    0    0  502    0  0.00000000000E+00  0.00000000000E+00  0.11406680506E+03  0.11406680506E+03  0.00000000000E+00 0. -1.
          1   -1    0    0  501    0 -0.00000000000E+00 -0.00000000000E+00 -0.10625607460E+04  0.10625607460E+04  0.00000000000E+00 0. -1.
         25    2    1    2    0    0 -0.48080026523E+02 -0.33699503697E+02 -0.19523457233E+02  0.13947564210E+03  0.12499977543E+03 0.  0.
          2    1    1    2  501    0  0.12537089590E+02 -0.23093585800E+02 -0.96206634043E+03  0.96242513252E+03  0.00000000000E+00 0. -1.
          1    1    1    2  502    0  0.35542936933E+02  0.56793089497E+02  0.33095856739E+02  0.74726776417E+02  0.00000000000E+00 0. -1.
         22    1    3    3    0    0  0.10365613061E+02  0.98944184715E+01  0.41809349895E+02  0.44196913802E+02  0.00000000000E+00 0. -1.
         22    1    3    3    0    0 -0.58445639584E+02 -0.43593922168E+02 -0.61332807128E+02  0.95278728301E+02  0.00000000000E+00 0. -1.
</event>
<event>
 7    1  0.5676357E-006  0.7255059E+02  0.7818608E-02  0.1506586E+00
          2   -1    0    0  502    0  0.00000000000E+00  0.00000000000E+00  0.23453597353E+03  0.23453597353E+03  0.00000000000E+00 0. -1.
          1   -1    0    0  501    0 -0.00000000000E+00 -0.00000000000E+00 -0.75920290343E+03  0.75920290343E+03  0.00000000000E+00 0. -1.
         25    2    1    2    0    0 -0.91888607005E+02 -0.43157414180E+01 -0.21626285407E+03  0.26619049728E+03  0.12500246825E+03 0.  0.
          2    1    1    2  501    0  0.20029571690E+02  0.98006440531E+01 -0.51153041538E+03  0.51201621285E+03  0.00000000000E+00 0. -1.
          1    1    1    2  502    0  0.71859035315E+02 -0.54849026351E+01  0.20312633955E+03  0.21553216682E+03  0.00000000000E+00 0. -1.
         22    1    3    3    0    0 -0.92327753617E+02 -0.31764433295E+02 -0.21781126469E+03  0.23869465921E+03  0.00000000000E+00 0.  1.
         22    1    3    3    0    0  0.43914661133E+00  0.27448691877E+02  0.15484106183E+01  0.27495838066E+02  0.00000000000E+00 0.  1.
</event>
<event>
 7    1  0.5676357E-006  0.6250473E+02  0.7818608E-02  0.1456598E+00
          2   -1    0    0  502    0  0.00000000000E+00  0.00000000000E+00  0.11473656440E+04  0.11473656440E+04  0.00000000000E+00 0. -1.
          1   -1    0    0  501    0 -0.00000000000E+00 -0.00000000000E+00 -0.40204451900E+02  0.40204451900E+02  0.00000000000E+00 0. -1.
         25    2    1    2    0    0  0.37977039811E+02  0.31905133942E+02  0.39022844457E+03  0.41275177161E+03  0.12500237154E+03 0.  0.
          2    1    1    2  501    0  0.26846931877E+02 -0.25195334996E+02 -0.15169922514E+02  0.39820713277E+02  0.00000000000E+00 0. -1.
          1    1    1    2  502    0 -0.64823971688E+02 -0.67097989465E+01  0.73210267001E+03  0.73499761098E+03  0.00000000000E+00 0. -1.
         22    1    3    3    0    0  0.96254472716E+01 -0.15925398475E+02  0.26553622665E-01  0.18608284630E+02  0.00000000000E+00 0.  1.
         22    1    3    3    0    0  0.28351592539E+02  0.47830532417E+02  0.39020189095E+03  0.39414348698E+03  0.00000000000E+00 0.  1.
</event>
<event>
 7    1  0.5676357E-006  0.1246022E+03  0.7818608E-02  0.1311084E+00
          2   -1    0    0  502    0  0.00000000000E+00  0.00000000000E+00  0.39962369611E+04  0.39962369611E+04  0.00000000000E+00 0. -1.
          1   -1    0    0  501    0 -0.00000000000E+00 -0.00000000000E+00 -0.80863051648E+03  0.80863051648E+03  0.00000000000E+00 0. -1.
         25    2    1    2    0    0  0.14907450464E+03  0.10401777501E+03  0.11208495761E+04  0.11423536272E+04  0.12500052742E+03 0.  0.
          2    1    1    2  501    0 -0.92505002407E+02 -0.83120419858E+02 -0.79271260048E+03  0.80240852852E+03  0.00000000000E+00 0. -1.
          1    1    1    2  502    0 -0.56569502228E+02 -0.20897355148E+02  0.28594694690E+04  0.28601053218E+04  0.00000000000E+00 0. -1.
         22    1    3    3    0    0  0.10795275666E+02 -0.59978963402E+01  0.39898039754E+03  0.39917147989E+03  0.00000000000E+00 0. -1.
         22    1    3    3    0    0  0.13827922897E+03  0.11001567135E+03  0.72186917861E+03  0.74318214735E+03  0.00000000000E+00 0. -1.
</event>
<event>
 7    1  0.5676357E-006  0.4591286E+02  0.7818608E-02  0.1480266E+00
          2   -1    0    0  502    0  0.00000000000E+00  0.00000000000E+00  0.16143529799E+04  0.16143529799E+04  0.00000000000E+00 0. -1.
          1   -1    0    0  501    0 -0.00000000000E+00 -0.00000000000E+00 -0.71160463067E+02  0.71160463067E+02  0.00000000000E+00 0. -1.
         25    2    1    2    0    0  0.38837381144E+01  0.15902303166E+02  0.27210854218E+03  0.29989459301E+03  0.12500296604E+03 0.  0.
          2    1    1    2  501    0  0.35616276162E+02 -0.31011318204E+02 -0.47134343970E+02  0.66722315351E+02  0.00000000000E+00 0. -1.
          1    1    1    2  502    0 -0.39500014277E+02  0.15109015037E+02  0.13182183187E+04  0.13188965347E+04  0.00000000000E+00 0. -1.
         22    1    3    3    0    0  0.15529300852E+02  0.61019216774E+02  0.22496331432E+03  0.23360864024E+03  0.00000000000E+00 0. -1.
         22    1    3    3    0    0 -0.11645562737E+02 -0.45116913608E+02  0.47145227859E+02  0.66285952772E+02  0.00000000000E+00 0. -1.
</event>
<event>
 7    1  0.5676357E-006  0.5151093E+02  0.7818608E-02  0.1487245E+00
          2   -1    0    0  502    0  0.00000000000E+00  0.00000000000E+00  0.15157884546E+03  0.15157884546E+03  0.00000000000E+00 0. -1.
          1   -1    0    0  501    0 -0.00000000000E+00 -0.00000000000E+00 -0.15351676102E+03  0.15351676102E+03  0.00000000000E+00 0. -1.
         25    2    1    2    0    0 -0.60602194609E+01 -0.35956657610E+02 -0.48685526212E+02  0.13903286773E+03  0.12502099967E+03 0.  0.
          2    1    1    2  501    0 -0.25761314815E+02  0.52556452277E+02 -0.40864294063E+02  0.71384287811E+02  0.00000000000E+00 0. -1.
          1    1    1    2  502    0  0.31821534276E+02 -0.16599794668E+02  0.87611904710E+02  0.94678450946E+02  0.00000000000E+00 0. -1.
         22    1    3    3    0    0  0.19447146226E+02  0.42809910848E+02 -0.23017679378E+02  0.52351633471E+02  0.00000000000E+00 0.  1.
         22    1    3    3    0    0 -0.25507365687E+02 -0.78766568458E+02 -0.25667846834E+02  0.86681234255E+02  0.00000000000E+00 0.  1.
</event>
<event>
 7    1  0.5676357E-006  0.1932433E+03  0.7818608E-02  0.1265903E+00
          2   -1    0    0  502    0  0.00000000000E+00  0.00000000000E+00  0.68976752854E+03  0.68976752854E+03  0.00000000000E+00 0. -1.
          1   -1    0    0  501    0 -0.00000000000E+00 -0.00000000000E+00 -0.78294240211E+03  0.78294240211E+03  0.00000000000E+00 0. -1.
         25    2    1    2    0    0 -0.17497546142E+03 -0.89967100343E+02 -0.29956127263E+03  0.37956888244E+03  0.12500035685E+03 0.  0.
          2    1    1    2  501    0  0.13833822606E+03  0.13676644734E+03 -0.42056638487E+03  0.46337739478E+03  0.00000000000E+00 0. -1.
          1    1    1    2  502    0  0.36637235365E+02 -0.46799346999E+02  0.62695278393E+03  0.62976365342E+03  0.00000000000E+00 0. -1.
         22    1    3    3    0    0 -0.43642399233E+02  0.99355635537E+00 -0.16505089008E+03  0.17072622084E+03  0.00000000000E+00 0. -1.
         22    1    3    3    0    0 -0.13133306219E+03 -0.90960656699E+02 -0.13451038255E+03  0.20884266160E+03  0.00000000000E+00 0. -1.
</event>
<event>
 7    1  0.5676357E-006  0.1218601E+03  0.7818608E-02  0.1310485E+00
          2   -1    0    0  502    0  0.00000000000E+00  0.00000000000E+00  0.28433031947E+04  0.28433031947E+04  0.00000000000E+00 0. -1.
          1   -1    0    0  501    0 -0.00000000000E+00 -0.00000000000E+00 -0.11911145177E+03  0.11911145177E+03  0.00000000000E+00 0. -1.
         25    2    1    2    0    0  0.11039839491E+03 -0.62665631721E+02  0.65193820453E+03  0.67584150808E+03  0.12499413794E+03 0.  0.
          2    1    1    2  501    0 -0.64299103062E+02  0.10412297196E+03 -0.71626531561E+02  0.14179678406E+03  0.00000000000E+00 0. -1.
          1    1    1    2  502    0 -0.46099291846E+02 -0.41457340244E+02  0.21438800700E+04  0.21447763543E+04  0.00000000000E+00 0. -1.
         22    1    3    3    0    0  0.84533996794E+02  0.21402710809E+02  0.26291744270E+03  0.27700118108E+03  0.00000000000E+00 0. -1.
         22    1    3    3    0    0  0.25864398114E+02 -0.84068342530E+02  0.38902076183E+03  0.39884032700E+03  0.00000000000E+00 0. -1.
</event>
<event>
 7    1  0.5676357E-006  0.6310292E+02  0.7818608E-02  0.1472492E+00
          2   -1    0    0  502    0  0.00000000000E+00  0.00000000000E+00  0.13738094447E+03  0.13738094447E+03  0.00000000000E+00 0. -1.
          1   -1    0    0  501    0 -0.00000000000E+00 -0.00000000000E+00 -0.17404712857E+04  0.17404712857E+04  0.00000000000E+00 0. -1.
         25    2    1    2    0    0 -0.35833254974E+01  0.52321323879E+02 -0.11828999098E+04  0.11906422040E+04  0.12500520044E+03 0.  0.
          2    1    1    2  501    0  0.32267797316E+02  0.40135939612E+01 -0.54570566435E+03  0.54667356968E+03  0.00000000000E+00 0. -1.
          1    1    1    2  502    0 -0.28684471818E+02 -0.56334917841E+02  0.12551523296E+03  0.14053645647E+03  0.00000000000E+00 0. -1.
         22    1    3    3    0    0  0.51764894345E+02  0.16882456210E+02 -0.82240344128E+03  0.82420388367E+03  0.00000000000E+00 0. -1.
         22    1    3    3    0    0 -0.55348219842E+02  0.35438867669E+02 -0.36049646855E+03  0.36643832034E+03  0.00000000000E+00 0. -1.
</event>
<event>
 7    1  0.5676357E-006  0.1014528E+03  0.7818608E-02  0.1441974E+00
          2   -1    0    0  502    0  0.00000000000E+00  0.00000000000E+00  0.63594343791E+03  0.63594343791E+03  0.00000000000E+00 0. -1.
          1   -1    0    0  501    0 -0.00000000000E+00 -0.00000000000E+00 -0.58865963920E+02  0.58865963920E+02  0.00000000000E+00 0. -1.
         25    2    1    2    0    0 -0.95978842688E+02  0.21522886959E+02  0.13779226959E+03  0.21044638329E+03  0.12500319106E+03 0.  0.
          2    1    1    2  501    0  0.93913113030E+02 -0.46704983230E+02  0.10257462350E+03  0.14670576555E+03  0.00000000000E+00 0. -1.
          1    1    1    2  502    0  0.20657296578E+01  0.25182096271E+02  0.33671058090E+03  0.33765725300E+03  0.00000000000E+00 0. -1.
         22    1    3    3    0    0 -0.74966454999E+02 -0.35425712022E+02  0.32795039736E+02  0.89165380494E+02  0.00000000000E+00 0. -1.
         22    1    3    3    0    0 -0.21012387689E+02  0.56948598982E+02  0.10499722985E+03  0.12128100280E+03  0.00000000000E+00 0. -1.
</event>
<event>
 7    1  0.5676357E-006  0.3991509E+02  0.7818608E-02  0.1577969E+00
          2   -1    0    0  502    0  0.00000000000E+00  0.00000000000E+00  0.35718385403E+02  0.35718385403E+02  0.00000000000E+00 0. -1.
          1   -1    0    0  501    0 -0.00000000000E+00 -0.00000000000E+00 -0.90589726467E+03  0.90589726467E+03  0.00000000000E+00 0. -1.
         25    2    1    2    0    0 -0.20302352669E+02 -0.79782116988E+01 -0.29034928230E+03  0.31686476639E+03  0.12499894824E+03 0.  0.
          2    1    1    2  501    0  0.24190380968E+02  0.33177468716E+02 -0.59410972568E+03  0.59552689705E+03  0.00000000000E+00 0. -1.
          1    1    1    2  502    0 -0.38880282992E+01 -0.25199257018E+02  0.14280128718E+02  0.29223986629E+02  0.00000000000E+00 0. -1.
         22    1    3    3    0    0 -0.64213044523E+01 -0.56310920963E+02 -0.23645994166E+03  0.24315726800E+03  0.00000000000E+00 0.  1.
         22    1    3    3    0    0 -0.13881048217E+02  0.48332709264E+02 -0.53889340639E+02  0.73707498390E+02  0.00000000000E+00 0.  1.
</event>
<event>
 7    1  0.5676357E-006  0.1713061E+03  0.7818608E-02  0.1375350E+00
          2   -1    0    0  502    0  0.00000000000E+00  0.00000000000E+00  0.13894053772E+03  0.13894053772E+03  0.00000000000E+00 0. -1.
          1   -1    0    0  501    0 -0.00000000000E+00 -0.00000000000E+00 -0.35197393435E+03  0.35197393435E+03  0.00000000000E+00 0. -1.
         25    2    1    2    0    0 -0.15428880137E+03 -0.75655893115E+01 -0.51334810332E+01  0.19878112348E+03  0.12500124020E+03 0.  0.
          2    1    1    2  501    0  0.17620096437E+03  0.20009686015E+02 -0.19583741885E+03  0.26419587809E+03  0.00000000000E+00 0. -1.
          1    1    1    2  502    0 -0.21912162996E+02 -0.12444096703E+02 -0.12062496746E+02  0.27937470495E+02  0.00000000000E+00 0. -1.
         22    1    3    3    0    0 -0.14221063109E+03  0.24890400779E+02  0.32136138883E+02  0.14790580472E+03  0.00000000000E+00 0. -1.
         22    1    3    3    0    0 -0.12078170281E+02 -0.32455990091E+02 -0.37269619916E+02  0.50875318759E+02  0.00000000000E+00 0. -1.
</event>
<event>
 7    1  0.5676357E-006  0.8017721E+02  0.7818608E-02  0.1434837E+00
          2   -1    0    0  502    0  0.00000000000E+00  0.00000000000E+00  0.16992660722E+03  0.16992660722E+03  0.00000000000E+00 0. -1.
          1   -1    0    0  501    0 -0.00000000000E+00 -0.00000000000E+00 -0.23315104927E+03  0.23315104927E+03  0.00000000000E+00 0. -1.
         25    2    1    2    0    0 -0.51636410281E+02  0.56897746599E+02 -0.25345100391E+02  0.14889856250E+03  0.12499894146E+03 0.  0.
          2    1    1    2  501    0  0.25261356602E+02 -0.77918242992E+02 -0.13135693951E+03  0.15480321148E+03  0.00000000000E+00 0. -1.
          1    1    1    2  502    0  0.26375053678E+02  0.21020496393E+02  0.93477597850E+02  0.99375882511E+02  0.00000000000E+00 0. -1.
         22    1    3    3    0    0 -0.46937788270E+01 -0.35537870133E+02 -0.27538018193E+02  0.45203033297E+02  0.00000000000E+00 0.  1.
         22    1    3    3    0    0 -0.46942631454E+02  0.92435616732E+02  0.21929178018E+01  0.10369552920E+03  0.00000000000E+00 0.  1.
</event>
<event>
 7    1  0.5676357E-006  0.6365013E+02  0.7818608E-02  0.1454200E+00
          2   -1    0    0  502    0  0.00000000000E+00  0.00000000000E+00  0.97231868437E+03  0.97231868437E+03  0.00000000000E+00 0. -1.
          1   -1    0    0  501    0 -0.00000000000E+00 -0.00000000000E+00 -0.33778294365E+04  0.33778294365E+04  0.00000000000E+00 0. -1.
         25    2    1    2    0    0  0.26547764072E+02  0.12443249459E+02 -0.46845731210E+02  0.13667129497E+03  0.12499960840E+03 0.  0.
          2    1    1    2  501    0 -0.63211007925E+02 -0.93318073644E+01 -0.32853951962E+04  0.32860164804E+04  0.00000000000E+00 0. -1.
          1    1    1    2  502    0  0.36663243853E+02 -0.31114420942E+01  0.92673017534E+03  0.92746034546E+03  0.00000000000E+00 0. -1.
         22    1    3    3    0    0  0.50207388697E+02 -0.44224109393E+02 -0.22064337907E+02  0.70451321767E+02  0.00000000000E+00 0.  1.
         22    1    3    3    0    0 -0.23659624625E+02  0.56667358852E+02 -0.24781393303E+02  0.66219973200E+02  0.00000000000E+00 0.  1.
</event>
<event>
 7    1  0.5676357E-006  0.4865458E+02  0.7818608E-02  0.1495078E+00
          2   -1    0    0  502    0  0.00000000000E+00  0.00000000000E+00  0.27072330493E+03  0.27072330493E+03  0.00000000000E+00 0. -1.
          1   -1    0    0  501    0 -0.00000000000E+00 -0.00000000000E+00 -0.44680613163E+03  0.44680613163E+03  0.00000000000E+00 0. -1.
         25    2    1    2    0    0  0.80130367741E+02  0.10877574403E+02  0.11124842390E+03  0.18586215271E+03  0.12501732092E+03 0.  0.
          2    1    1    2  501    0 -0.35203906566E+02 -0.74490727430E+01 -0.40451889026E+03  0.40611616109E+03  0.00000000000E+00 0. -1.
          1    1    1    2  502    0 -0.44926461175E+02 -0.34285016597E+01  0.11718763966E+03  0.12555112276E+03  0.00000000000E+00 0. -1.
         22    1    3    3    0    0  0.73071728483E+02  0.61568560181E+02  0.87012685178E+02  0.12923379004E+03  0.00000000000E+00 0.  1.
         22    1    3    3    0    0  0.70586392577E+01 -0.50690985779E+02  0.24235738726E+02  0.56628362672E+02  0.00000000000E+00 0.  1.
</event>
<event>
 7    1  0.5676357E-006  0.8149697E+02  0.7818608E-02  0.1370710E+00
          2   -1    0    0  502    0  0.00000000000E+00  0.00000000000E+00  0.34431189984E+03  0.34431189984E+03  0.00000000000E+00 0. -1.
          1   -1    0    0  501    0 -0.00000000000E+00 -0.00000000000E+00 -0.33745502276E+03  0.33745502276E+03  0.00000000000E+00 0. -1.
         25    2    1    2    0    0 -0.47121175265E+02  0.13181585575E+02 -0.87035325668E+02  0.15998519870E+03  0.12500382607E+03 0.  0.
          2    1    1    2  501    0  0.89240434099E+02  0.22238334508E+02 -0.20139985765E+03  0.22140528734E+03  0.00000000000E+00 0. -1.
          1    1    1    2  502    0 -0.42119258834E+02 -0.35419920083E+02  0.29529206039E+03  0.30037643655E+03  0.00000000000E+00 0. -1.
         22    1    3    3    0    0  0.70709277294E+01 -0.13585230752E+02 -0.97455417497E+02  0.98651482062E+02  0.00000000000E+00 0.  1.
         22    1    3    3    0    0 -0.54192102995E+02  0.26766816327E+02  0.10420091829E+02  0.61333716641E+02  0.00000000000E+00 0.  1.
</event>
<event>
 7    1  0.5676357E-006  0.5465375E+02  0.7818608E-02  0.1453347E+00
          2   -1    0    0  502    0  0.00000000000E+00  0.00000000000E+00  0.45986760984E+02  0.45986760984E+02  0.00000000000E+00 0. -1.
          1   -1    0    0  501    0 -0.00000000000E+00 -0.00000000000E+00 -0.15952136239E+04  0.15952136239E+04  0.00000000000E+00 0. -1.
         25    2    1    2    0    0 -0.77238667501E+01  0.97857486435E+01 -0.86111630454E+03  0.87023140503E+03  0.12500395736E+03 0.  0.
          2    1    1    2  501    0 -0.28255080053E+02  0.32573423736E+02 -0.70994766139E+03  0.71125597319E+03  0.00000000000E+00 0. -1.
          1    1    1    2  502    0  0.35978946803E+02 -0.42359172380E+02  0.21837103012E+02  0.59713006671E+02  0.00000000000E+00 0. -1.
         22    1    3    3    0    0  0.42004369348E+02  0.43137606631E+02 -0.55940859110E+03  0.56263948666E+03  0.00000000000E+00 0.  1.
         22    1    3    3    0    0 -0.49728236098E+02 -0.33351857987E+02 -0.30170771344E+03  0.30759191837E+03  0.00000000000E+00 0.  1.
</event>
<event>
 7    1  0.5676357E-006  0.6088786E+02  0.7818608E-02  0.1428940E+00
          2   -1    0    0  502    0  0.00000000000E+00  0.00000000000E+00  0.69056844043E+03  0.69056844043E+03  0.00000000000E+00 0. -1.
          1   -1    0    0  501    0 -0.00000000000E+00 -0.00000000000E+00 -0.30696839858E+03  0.30696839858E+03  0.00000000000E+00 0. -1.
         25    2    1    2    0    0 -0.69102549338E+02  0.26199065204E+02  0.24676063186E+03  0.28631611800E+03  0.12499822659E+03 0.  0.
          2    1    1    2  501    0  0.38171336218E+02  0.26444155422E+02 -0.28309117601E+03  0.28687446418E+03  0.00000000000E+00 0. -1.
          1    1    1    2  502    0  0.30931213120E+02 -0.52643220626E+02  0.41993058600E+03  0.42434625682E+03  0.00000000000E+00 0. -1.
         22    1    3    3    0    0 -0.20824030866E+02 -0.30795205742E+02  0.18699593770E+03  0.19065535836E+03  0.00000000000E+00 0.  1.
         22    1    3    3    0    0 -0.48278518472E+02  0.56994270946E+02  0.59764694162E+02  0.95660759640E+02  0.00000000000E+00 0.  1.
</event>
<event>
 7    1  0.5676357E-006  0.1333157E+03  0.7818608E-02  0.1314978E+00
          2   -1    0    0  502    0  0.00000000000E+00  0.00000000000E+00  0.16530147380E+04  0.16530147380E+04  0.00000000000E+00 0. -1.
          1   -1    0    0  501    0 -0.00000000000E+00 -0.00000000000E+00 -0.15409255421E+03  0.15409255421E+03  0.00000000000E+00 0. -1.
         25    2    1    2    0    0  0.12944480102E+03 -0.10761497709E+03  0.19376225044E+03  0.28549073662E+03  0.12499684473E+03 0.  0.
          2    1    1    2  501    0 -0.54416695411E+02 -0.19544264098E+00 -0.98121762529E+02  0.11220113733E+03  0.00000000000E+00 0. -1.
          1    1    1    2  502    0 -0.75028105609E+02  0.10781041973E+03  0.14032816959E+04  0.14094154183E+04  0.00000000000E+00 0. -1.
         22    1    3    3    0    0  0.42195960205E+02 -0.58931872908E+02  0.59101620659E+01  0.72721349807E+02  0.00000000000E+00 0.  1.
         22    1    3    3    0    0  0.87248840814E+02 -0.48683104186E+02  0.18785208838E+03  0.21276938681E+03  0.00000000000E+00 0.  1.
</event>
<event>
 7    1  0.5676357E-006  0.9808894E+02  0.7818608E-02  0.1334404E+00
          2   -1    0    0  502    0  0.00000000000E+00  0.00000000000E+00  0.14266527668E+03  0.14266527668E+03  0.00000000000E+00 0. -1.
          1   -1    0    0  501    0 -0.00000000000E+00 -0.00000000000E+00 -0.33086852242E+03  0.33086852242E+03  0.00000000000E+00 0. -1.
         25    2    1    2    0    0  0.78787427940E+02 -0.65807759950E+02  0.22972576686E+02  0.16337378337E+03  0.12500053497E+03 0.  0.
          2    1    1    2  501    0 -0.52285267580E+02 -0.33790635921E+02 -0.19641450954E+03  0.20604420846E+03  0.00000000000E+00 0. -1.
          1    1    1    2  502    0 -0.26502160360E+02  0.99598395872E+02 -0.14761312892E+02  0.10411580726E+03  0.00000000000E+00 0. -1.
         22    1    3    3    0    0  0.85035277394E+02 -0.84846836191E+02  0.49673566331E+02  0.12999018119E+03  0.00000000000E+00 0. -1.
         22    1    3    3    0    0 -0.62478494541E+01  0.19039076241E+02 -0.26700989645E+02  0.33383602186E+02  0.00000000000E+00 0. -1.
</event>
<event>
 7    1  0.5676357E-006  0.3720817E+02  0.7818608E-02  0.1577913E+00
          2   -1    0    0  502    0  0.00000000000E+00  0.00000000000E+00  0.99105911752E+02  0.99105911752E+02  0.00000000000E+00 0. -1.
          1   -1    0    0  501    0 -0.00000000000E+00 -0.00000000000E+00 -0.24028063541E+03  0.24028063541E+03  0.00000000000E+00 0. -1.
         25    2    1    2    0    0  0.46847930583E+02  0.41602963091E+02 -0.36740185064E+02  0.14457111409E+03  0.12500172276E+03 0.  0.
          2    1    1    2  501    0 -0.23302029803E+02 -0.27665052311E+02 -0.14301439629E+03  0.14751765067E+03  0.00000000000E+00 0. -1.
          1    1    1    2  502    0 -0.23545900780E+02 -0.13937910780E+02  0.38579857698E+02  0.47297782405E+02  0.00000000000E+00 0. -1.
         22    1    3    3    0    0  0.15559818673E+02 -0.18768598466E+02  0.36971490355E+02  0.44286107806E+02  0.00000000000E+00 0. -1.
         22    1    3    3    0    0  0.31288111909E+02  0.60371561557E+02 -0.73711675419E+02  0.10028500628E+03  0.00000000000E+00 0. -1.
</event>
<event>
 7    1  0.5676357E-006  0.7056756E+02  0.7818608E-02  0.1371618E+00
          2   -1    0    0  502    0  0.00000000000E+00  0.00000000000E+00  0.24068337190E+04  0.24068337190E+04  0.00000000000E+00 0. -1.
          1   -1    0    0  501    0 -0.00000000000E+00 -0.00000000000E+00 -0.28299069392E+04  0.28299069392E+04  0.00000000000E+00 0. -1.
         25    2    1    2    0    0 -0.12436507083E+03  0.48403323387E+02 -0.12160484346E+03  0.21959451963E+03  0.12499785014E+03 0.  0.
          2    1    1    2  501    0  0.58939994069E+02 -0.22479295863E+02 -0.26584079045E+04  0.26591562248E+04  0.00000000000E+00 0. -1.
          1    1    1    2  502    0  0.65425076761E+02 -0.25924027524E+02  0.23569395278E+04  0.23579899138E+04  0.00000000000E+00 0. -1.
         22    1    3    3    0    0 -0.82426826770E+02 -0.29961822903E+02 -0.31930186465E+02  0.93335038495E+02  0.00000000000E+00 0. -1.
         22    1    3    3    0    0 -0.41938244060E+02  0.78365146290E+02 -0.89674656998E+02  0.12625948113E+03  0.00000000000E+00 0. -1.
</event>
<event>
 7    1  0.5676357E-006  0.3294185E+03  0.7818608E-02  0.1202763E+00
          2   -1    0    0  502    0  0.00000000000E+00  0.00000000000E+00  0.36110672012E+04  0.36110672012E+04  0.00000000000E+00 0. -1.
          1   -1    0    0  501    0 -0.00000000000E+00 -0.00000000000E+00 -0.35285980907E+03  0.35285980907E+03  0.00000000000E+00 0. -1.
         25    2    1    2    0    0 -0.23551744117E+03  0.25731004601E+03  0.72561145700E+03  0.81474768480E+03  0.12499951395E+03 0.  0.
          2    1    1    2  501    0  0.17245385191E+03 -0.27881325122E+03 -0.22061913654E+03  0.39515814999E+03  0.00000000000E+00 0. -1.
          1    1    1    2  502    0  0.63063589253E+02  0.21503205211E+02  0.27532150717E+04  0.27540211755E+04  0.00000000000E+00 0. -1.
         22    1    3    3    0    0 -0.17232080608E+03  0.25365738185E+03  0.61797991646E+03  0.68988093518E+03  0.00000000000E+00 0. -1.
         22    1    3    3    0    0 -0.63196635089E+02  0.36526641582E+01  0.10763154054E+03  0.12486674962E+03  0.00000000000E+00 0. -1.
</event>
<event>
 7    1  0.5676357E-006  0.6779046E+02  0.7818608E-02  0.1435295E+00
          2   -1    0    0  502    0  0.00000000000E+00  0.00000000000E+00  0.57893015991E+03  0.57893015991E+03  0.00000000000E+00 0. -1.
          1   -1    0    0  501    0 -0.00000000000E+00 -0.00000000000E+00 -0.53363653193E+03  0.53363653193E+03  0.00000000000E+00 0. -1.
         25    2    1    2    0    0 -0.66403539498E+02 -0.64975393182E+02 -0.17137515169E+03  0.23157187901E+03  0.12499944301E+03 0.  0.
          2    1    1    2  501    0  0.39646721991E+02  0.28945944581E+01 -0.32887992031E+03  0.33127366817E+03  0.00000000000E+00 0. -1.
          1    1    1    2  502    0  0.26756817507E+02  0.62080798724E+02  0.54554869997E+03  0.54972114466E+03  0.00000000000E+00 0. -1.
         22    1    3    3    0    0 -0.51739259985E+02 -0.66555456489E+02 -0.18997194745E+03  0.20783628324E+03  0.00000000000E+00 0.  1.
         22    1    3    3    0    0 -0.14664279513E+02  0.15800633069E+01  0.18596795765E+02  0.23735595767E+02  0.00000000000E+00 0.  1.
</event>
<event>
 7    1  0.5676357E-006  0.5177442E+02  0.7818608E-02  0.1447902E+00
          2   -1    0    0  502    0  0.00000000000E+00  0.00000000000E+00  0.17605654191E+04  0.17605654191E+04  0.00000000000E+00 0. -1.
          1   -1    0    0  501    0 -0.00000000000E+00 -0.00000000000E+00 -0.92068306830E+03  0.92068306830E+03  0.00000000000E+00 0. -1.
         25    2    1    2    0    0 -0.19976942224E+02  0.75833140733E+02  0.40271975047E+03  0.42890173455E+03  0.12499502800E+03 0.  0.
          2    1    1    2  501    0  0.39968561724E+02 -0.32877416644E+02 -0.90643639203E+03  0.90791262975E+03  0.00000000000E+00 0. -1.
          1    1    1    2  502    0 -0.19991619500E+02 -0.42955724090E+02  0.13435989924E+04  0.13444341231E+04  0.00000000000E+00 0. -1.
         22    1    3    3    0    0 -0.24508391368E+01 -0.27112201700E+02  0.18991124067E+03  0.19185243659E+03  0.00000000000E+00 0. -1.
         22    1    3    3    0    0 -0.17526103087E+02  0.10294534243E+03  0.21280850981E+03  0.23704929796E+03  0.00000000000E+00 0. -1.
</event>
<event>
 7    1  0.5676357E-006  0.2165671E+03  0.7818608E-02  0.1158484E+00
          2   -1    0    0  502    0  0.00000000000E+00  0.00000000000E+00  0.29773655292E+03  0.29773655292E+03  0.00000000000E+00 0. -1.
          1   -1    0    0  501    0 -0.00000000000E+00 -0.00000000000E+00 -0.14755938977E+04  0.14755938977E+04  0.00000000000E+00 0. -1.
         25    2    1    2    0    0  0.86514185072E+01  0.35011712711E+03 -0.44421487400E+03  0.57931824933E+03  0.12500371988E+03 0.  0.
          2    1    1    2  501    0  0.58718381208E+02 -0.15596017672E+03 -0.90881847035E+03  0.92397101527E+03  0.00000000000E+00 0. -1.
          1    1    1    2  502    0 -0.67369799715E+02 -0.19415695039E+03  0.17517599960E+03  0.27004118600E+03  0.00000000000E+00 0. -1.
         22    1    3    3    0    0  0.17304657448E+02  0.23142898114E+03 -0.37683248830E+03  0.44256248002E+03  0.00000000000E+00 0. -1.
         22    1    3    3    0    0 -0.86532389404E+01  0.11868814597E+03 -0.67382385703E+02  0.13675576931E+03  0.00000000000E+00 0. -1.
</event>
<event>
 7    1  0.5676357E-006  0.9975772E+02  0.7818608E-02  0.1455998E+00
          2   -1    0    0  502    0  0.00000000000E+00  0.00000000000E+00  0.15495649668E+04  0.15495649668E+04  0.00000000000E+00 0. -1.
          1   -1    0    0  501    0 -0.00000000000E+00 -0.00000000000E+00 -0.13792192720E+03  0.13792192720E+03  0.00000000000E+00 0. -1.
         25    2    1    2    0    0 -0.23855147377E+02 -0.81975372159E+02  0.10811609931E+04  0.10917082469E+04  0.12501509383E+03 0.  0.
          2    1    1    2  501    0  0.88637610026E+01  0.99642079250E+02 -0.11344288593E+03  0.15124945813E+03  0.00000000000E+00 0. -1.
          1    1    1    2  502    0  0.14991386374E+02 -0.17666707090E+02  0.44392493245E+03  0.44452918898E+03  0.00000000000E+00 0. -1.
         22    1    3    3    0    0 -0.69678990805E+02 -0.75815135666E+02  0.65470671008E+03  0.66275483610E+03  0.00000000000E+00 0. -1.
         22    1    3    3    0    0  0.45823843428E+02 -0.61602364931E+01  0.42645428303E+03  0.42895341082E+03  0.00000000000E+00 0. -1.
</event>
<event>
 7    1  0.5676357E-006  0.9810959E+02  0.7818608E-02  0.1390746E+00
          2   -1    0    0  502    0  0.00000000000E+00  0.00000000000E+00  0.12610052039E+04  0.12610052039E+04  0.00000000000E+00 0. -1.
          1   -1    0    0  501    0 -0.00000000000E+00 -0.00000000000E+00 -0.12972761770E+04  0.12972761770E+04  0.00000000000E+00 0. -1.
         25    2    1    2    0    0  0.49991509190E+02 -0.10383619369E+03  0.54917787307E+02  0.17866677295E+03  0.12499898512E+03 0.  0.
          2    1    1    2  501    0  0.18512155587E+02  0.34132423034E+02 -0.12330086165E+04  0.12336198647E+04  0.00000000000E+00 0. -1.
          1    1    1    2  502    0 -0.68503664777E+02  0.69703770658E+02  0.11418198561E+04  0.11459947433E+04  0.00000000000E+00 0. -1.
         22    1    3    3    0    0 -0.11645906521E+02  0.16038302243E+02  0.37944908695E+02  0.42809699525E+02  0.00000000000E+00 0.  1.
         22    1    3    3    0    0  0.61637415711E+02 -0.11987449594E+03  0.16972878612E+02  0.13585707343E+03  0.00000000000E+00 0.  1.
</event>
<event>
 7    1  0.5676357E-006  0.3042162E+03  0.7818608E-02  0.1224494E+00
          2   -1    0    0  502    0  0.00000000000E+00  0.00000000000E+00  0.36059483093E+04  0.36059483093E+04  0.00000000000E+00 0. -1.
          1   -1    0    0  501    0 -0.00000000000E+00 -0.00000000000E+00 -0.23453572991E+04  0.23453572991E+04  0.00000000000E+00 0. -1.
         25    2    1    2    0    0  0.30129535048E+03  0.15469711084E+03  0.25370052757E+03  0.44124147606E+03  0.12497999113E+03 0.  0.
          2    1    1    2  501    0 -0.24772231178E+03 -0.17499522640E+03 -0.22411192044E+04  0.22615492392E+04  0.00000000000E+00 0. -1.
          1    1    1    2  502    0 -0.53573038703E+02  0.20298115561E+02  0.32480096871E+04  0.32485148932E+04  0.00000000000E+00 0. -1.
         22    1    3    3    0    0  0.24604609058E+03  0.16955334377E+03  0.23773398613E+03  0.38184350621E+03  0.00000000000E+00 0. -1.
         22    1    3    3    0    0  0.55249259904E+02 -0.14856232933E+02  0.15966541441E+02  0.59397969852E+02  0.00000000000E+00 0. -1.
</event>
<event>
 7    1  0.5676357E-006  0.5306315E+02  0.7818608E-02  0.1456627E+00
          2   -1    0    0  502    0  0.00000000000E+00  0.00000000000E+00  0.78841218616E+03  0.78841218616E+03  0.00000000000E+00 0. -1.
          1   -1    0    0  501    0 -0.00000000000E+00 -0.00000000000E+00 -0.28141435218E+03  0.28141435218E+03  0.00000000000E+00 0. -1.
         25    2    1    2    0    0  0.83232002225E+01 -0.24606217178E+02  0.50525550623E+03  0.52113714282E+03  0.12500421379E+03 0.  0.
          2    1    1    2  501    0 -0.45746793049E+01 -0.43117963074E+02 -0.26752220630E+03  0.27101331571E+03  0.00000000000E+00 0. -1.
          1    1    1    2  502    0 -0.37485209176E+01  0.67724180252E+02  0.26926453405E+03  0.27767607981E+03  0.00000000000E+00 0. -1.
         22    1    3    3    0    0  0.26174442539E+02 -0.59838922659E+02  0.14883776406E+03  0.16253762062E+03  0.00000000000E+00 0. -1.
         22    1    3    3    0    0 -0.17851242316E+02  0.35232705480E+02  0.35641774217E+03  0.35859952220E+03  0.00000000000E+00 0. -1.
</event>
<event>
 7    1  0.5676357E-006  0.9217922E+02  0.7818608E-02  0.1324959E+00
          2   -1    0    0  502    0  0.00000000000E+00  0.00000000000E+00  0.14924628446E+04  0.14924628446E+04  0.00000000000E+00 0. -1.
          1   -1    0    0  501    0 -0.00000000000E+00 -0.00000000000E+00 -0.24135000936E+02  0.24135000936E+02  0.00000000000E+00 0. -1.
         25    2    1    2    0    0 -0.28672637137E+02  0.13000778833E+02  0.52546379688E+03  0.54104439683E+03  0.12500278852E+03 0.  0.
          2    1    1    2  501    0  0.46306614079E+02  0.79703865333E+02  0.14295588175E+03  0.17009818571E+03  0.00000000000E+00 0. -1.
          1    1    1    2  502    0 -0.17633976943E+02 -0.92704644166E+02  0.79990816508E+03  0.80545526303E+03  0.00000000000E+00 0. -1.
         22    1    3    3    0    0 -0.92158838070E+00  0.57217841864E+02  0.41429375484E+03  0.41822726603E+03  0.00000000000E+00 0. -1.
         22    1    3    3    0    0 -0.27751048756E+02 -0.44217063031E+02  0.11117004204E+03  0.12281713080E+03  0.00000000000E+00 0. -1.
</event>
<event>
 7    1  0.5676357E-006  0.3912445E+02  0.7818608E-02  0.1537826E+00
          2   -1    0    0  502    0  0.00000000000E+00  0.00000000000E+00  0.66638706905E+03  0.66638706905E+03  0.00000000000E+00 0. -1.
          1   -1    0    0  501    0 -0.00000000000E+00 -0.00000000000E+00 -0.73408374740E+03  0.73408374740E+03  0.00000000000E+00 0. -1.
         25    2    1    2    0    0 -0.46621899090E+01 -0.35646693411E+01 -0.11340608193E+03  0.16887855958E+03  0.12499834233E+03 0.  0.
          2    1    1    2  501    0 -0.31097504975E+02 -0.12657980579E+02 -0.59186161193E+03  0.59281316362E+03  0.00000000000E+00 0. -1.
          1    1    1    2  502    0  0.35759694884E+02  0.16222649920E+02  0.63757101551E+03  0.63877909324E+03  0.00000000000E+00 0. -1.
         22    1    3    3    0    0  0.25307458583E+02 -0.55795381881E+02 -0.77412428164E+02  0.98723229958E+02  0.00000000000E+00 0.  1.
         22    1    3    3    0    0 -0.29969648492E+02  0.52230712540E+02 -0.35993653767E+02  0.70155329624E+02  0.00000000000E+00 0.  1.
</event>
<event>
 7    1  0.1078100E-005  0.4229579E+02  0.7818608E-02  0.1503215E+00
          2   -1    0    0  502    0  0.00000000000E+00  0.00000000000E+00  0.19532695658E+04  0.19532695658E+04  0.00000000000E+00 0. -1.
          1   -1    0    0  501    0 -0.00000000000E+00 -0.00000000000E+00 -0.93860524054E+03  0.93860524054E+03  0.00000000000E+00 0. -1.
         25    2    1    2    0    0 -0.36287050243E+02  0.42460112694E+02 -0.15609587942E+03  0.20763825154E+03  0.12501243437E+03 0.  0.
          2    1    1    2  501    0 -0.28519446519E+01 -0.42244942891E+02 -0.75594699874E+03  0.75713184696E+03  0.00000000000E+00 0. -1.
          1    1    1    2  502    0  0.39138994895E+02 -0.21516980219E+00  0.19267072034E+04  0.19271047078E+04  0.00000000000E+00 0. -1.
         22    1    3    3    0    0 -0.63550012037E+02  0.66444706474E+02 -0.14096737023E+03  0.16830122554E+03  0.00000000000E+00 0. -1.
         22    1    3    3    0    0  0.27262961794E+02 -0.23984593781E+02 -0.15128509197E+02  0.39337026008E+02  0.00000000000E+00 0. -1.
</event>
<event>
 7    1  0.5676357E-006  0.2025106E+03  0.7818608E-02  0.1261046E+00
          2   -1    0    0  502    0  0.00000000000E+00  0.00000000000E+00  0.10548182363E+04  0.10548182363E+04  0.00000000000E+00 0. -1.
          1   -1    0    0  501    0 -0.00000000000E+00 -0.00000000000E+00 -0.20096157482E+04  0.20096157482E+04  0.00000000000E+00 0. -1.
         25    2    1    2    0    0 -0.14003995501E+03  0.11956037060E+03 -0.34176523974E+03  0.40783871431E+03  0.12499226608E+03 0.  0.
          2    1    1    2  501    0  0.11419869358E+03 -0.17312437727E+03 -0.16273615652E+04  0.16405240186E+04  0.00000000000E+00 0. -1.
          1    1    1    2  502    0  0.25841261433E+02  0.53564006670E+02  0.10143292931E+04  0.10160712516E+04  0.00000000000E+00 0. -1.
         22    1    3    3    0    0 -0.36921236916E+02  0.20593963602E+02 -0.20741996542E+03  0.21168450848E+03  0.00000000000E+00 0.  1.
         22    1    3    3    0    0 -0.10311871810E+03  0.98966406999E+02 -0.13434527431E+03  0.19615420584E+03  0.00000000000E+00 0.  1.
</event>
<event>
 7    1  0.5676357E-006  0.7280835E+02  0.7818608E-02  0.1390933E+00
          2   -1    0    0  502    0  0.00000000000E+00  0.00000000000E+00  0.31664533089E+03  0.31664533089E+03  0.00000000000E+00 0. -1.
          1   -1    0    0  501    0 -0.00000000000E+00 -0.00000000000E+00 -0.85062757867E+03  0.85062757867E+03  0.00000000000E+00 0. -1.
         25    2    1    2    0    0 -0.14832816217E+01 -0.35313007618E+02  0.81028211102E+02  0.15310089777E+03  0.12500042109E+03 0.  0.
          2    1    1    2  501    0 -0.35629740174E+02 -0.38210113372E+02 -0.80521189515E+03  0.80690500509E+03  0.00000000000E+00 0. -1.
          1    1    1    2  502    0  0.37113021795E+02  0.73523120991E+02  0.19020143627E+03  0.20726700670E+03  0.00000000000E+00 0. -1.
         22    1    3    3    0    0  0.79593115496E+01 -0.24176739028E+02 -0.31008261034E+02  0.40117048779E+02  0.00000000000E+00 0.  1.
         22    1    3    3    0    0 -0.94425931713E+01 -0.11136268590E+02  0.11203647214E+03  0.11298384899E+03  0.00000000000E+00 0.  1.
</event>
<event>
 7    1  0.5676357E-006  0.4154492E+02  0.7818608E-02  0.1539737E+00
          2   -1    0    0  502    0  0.00000000000E+00  0.00000000000E+00  0.59140019289E+02  0.59140019289E+02  0.00000000000E+00 0. -1.
          1   -1    0    0  501    0 -0.00000000000E+00 -0.00000000000E+00 -0.43105798614E+03  0.43105798614E+03  0.00000000000E+00 0. -1.
         25    2    1    2    0    0  0.18102272608E+02  0.83867759494E+01 -0.21335482305E+03  0.24807746391E+03  0.12499646915E+03 0.  0.
          2    1    1    2  501    0  0.22730253742E+02 -0.21412230070E+02 -0.18770958390E+03  0.19028934789E+03  0.00000000000E+00 0. -1.
          1    1    1    2  502    0 -0.40832526350E+02  0.13025454120E+02  0.29146440094E+02  0.51831193632E+02  0.00000000000E+00 0. -1.
         22    1    3    3    0    0 -0.17147960149E+01 -0.41008744186E+01 -0.22278329838E+03  0.22282763683E+03  0.00000000000E+00 0. -1.
         22    1    3    3    0    0  0.19817068623E+02  0.12487650368E+02  0.94284753361E+01  0.25249827082E+02  0.00000000000E+00 0. -1.
</event>
<event>
 7    1  0.5676357E-006  0.1102854E+03  0.7818608E-02  0.1355151E+00
          2   -1    0    0  502    0  0.00000000000E+00  0.00000000000E+00  0.14908009538E+04  0.14908009538E+04  0.00000000000E+00 0. -1.
          1   -1    0    0  501    0 -0.00000000000E+00 -0.00000000000E+00 -0.24563169800E+03  0.24563169800E+03  0.00000000000E+00 0. -1.
         25    2    1    2    0    0 -0.28293574247E+02  0.91889243513E+02  0.15433241473E+03  0.22068167654E+03  0.12505098443E+03 0.  0.
          2    1    1    2  501    0 -0.45641661214E+02 -0.79056056881E+01 -0.20749706909E+03  0.21260454728E+03  0.00000000000E+00 0. -1.
          1    1    1    2  502    0  0.73935235461E+02 -0.83983637825E+02  0.12983339102E+04  0.13031464280E+04  0.00000000000E+00 0. -1.
         22    1    3    3    0    0 -0.30840118318E+02  0.12179360472E+03  0.13756325963E+03  0.18630202749E+03  0.00000000000E+00 0. -1.
         22    1    3    3    0    0  0.25465440712E+01 -0.29904361206E+02  0.16769155105E+02  0.34379649050E+02  0.00000000000E+00 0. -1.
</event>
<event>
 7    1  0.5676357E-006  0.7367947E+02  0.7818608E-02  0.1419390E+00
          2   -1    0    0  502    0  0.00000000000E+00  0.00000000000E+00  0.50587958286E+03  0.50587958286E+03  0.00000000000E+00 0. -1.
          1   -1    0    0  501    0 -0.00000000000E+00 -0.00000000000E+00 -0.92258911263E+03  0.92258911263E+03  0.00000000000E+00 0. -1.
         25    2    1    2    0    0 -0.36533515226E+02 -0.32381838759E+02  0.34384586631E+02  0.13852992154E+03  0.12499983259E+03 0.  0.
          2    1    1    2  501    0  0.73083243231E+02  0.13192944130E+02 -0.86791110145E+03  0.87108259897E+03  0.00000000000E+00 0. -1.
          1    1    1    2  502    0 -0.36549728005E+02  0.19188894629E+02  0.41681698505E+03  0.41885617498E+03  0.00000000000E+00 0. -1.
         22    1    3    3    0    0 -0.53402360593E+02  0.14424003327E+02  0.60801259250E+02  0.82198887555E+02  0.00000000000E+00 0.  1.
         22    1    3    3    0    0  0.16868845367E+02 -0.46805842087E+02 -0.26416672619E+02  0.56331033984E+02  0.00000000000E+00 0.  1.
</event>
<event>
 7    1  0.5676357E-006  0.1039321E+03  0.7818608E-02  0.1350493E+00
          2   -1    0    0  502    0  0.00000000000E+00  0.00000000000E+00  0.21001344870E+04  0.21001344870E+04  0.00000000000E+00 0. -1.
          1   -1    0    0  501    0 -0.00000000000E+00 -0.00000000000E+00 -0.67907072620E+03  0.67907072620E+03  0.00000000000E+00 0. -1.
         25    2    1    2    0    0 -0.21242232741E+02 -0.11193425809E+03 -0.50531297085E+03  0.53286581864E+03  0.12499708627E+03 0.  0.
          2    1    1    2  501    0  0.49715339310E+02  0.11973071112E+02 -0.15456452774E+03  0.16280406208E+03  0.00000000000E+00 0. -1.
          1    1    1    2  502    0 -0.28473106568E+02  0.99961186981E+02  0.20809412594E+04  0.20835353325E+04  0.00000000000E+00 0. -1.
         22    1    3    3    0    0 -0.29682996562E+02  0.10512943661E+02 -0.36281981066E+02  0.48041486440E+02  0.00000000000E+00 0.  1.
         22    1    3    3    0    0  0.84407638211E+01 -0.12244720175E+03 -0.46903098979E+03  0.48482433220E+03  0.00000000000E+00 0.  1.
</event>
<event>
 7    1  0.5676357E-006  0.1217029E+03  0.7818608E-02  0.1418196E+00
          2   -1    0    0  502    0  0.00000000000E+00  0.00000000000E+00  0.51776099372E+03  0.51776099372E+03  0.00000000000E+00 0. -1.
          1   -1    0    0  501    0 -0.00000000000E+00 -0.00000000000E+00 -0.36732232252E+04  0.36732232252E+04  0.00000000000E+00 0. -1.
         25    2    1    2    0    0  0.11481180486E+03  0.78884930758E+02 -0.51739685704E+03  0.55020800630E+03  0.12499903873E+03 0.  0.
          2    1    1    2  501    0 -0.89646351478E+02 -0.80579713214E+02 -0.31379456908E+04  0.31402599760E+04  0.00000000000E+00 0. -1.
          1    1    1    2  502    0 -0.25165453382E+02  0.16947824558E+01  0.49988031641E+03  0.50051623657E+03  0.00000000000E+00 0. -1.
         22    1    3    3    0    0  0.72846460172E+02 -0.36860520857E+01 -0.36221453403E+03  0.36948553748E+03  0.00000000000E+00 0. -1.
         22    1    3    3    0    0  0.41965344689E+02  0.82570982844E+02 -0.15518232300E+03  0.18072246882E+03  0.00000000000E+00 0. -1.
</event>
<event>
 7    1  0.5676357E-006  0.9005018E+02  0.7818608E-02  0.1348497E+00
          2   -1    0    0  502    0  0.00000000000E+00  0.00000000000E+00  0.49042736267E+03  0.49042736267E+03  0.00000000000E+00 0. -1.
          1   -1    0    0  501    0 -0.00000000000E+00 -0.00000000000E+00 -0.39765487193E+03  0.39765487193E+03  0.00000000000E+00 0. -1.
         25    2    1    2    0    0 -0.82216240112E+02  0.11475076589E+03 -0.22780878181E+02  0.18992487546E+03  0.12500096598E+03 0.  0.
          2    1    1    2  501    0  0.50262983846E+02 -0.32828743098E+02 -0.28336898765E+03  0.28965855257E+03  0.00000000000E+00 0. -1.
          1    1    1    2  502    0  0.31953256266E+02 -0.81922022791E+02  0.39892235657E+03  0.40849880658E+03  0.00000000000E+00 0. -1.
         22    1    3    3    0    0 -0.61712213983E+02  0.14169043661E+03 -0.21607512715E+02  0.15604954914E+03  0.00000000000E+00 0. -1.
         22    1    3    3    0    0 -0.20504026129E+02 -0.26939670725E+02 -0.11733654659E+01  0.33875326313E+02  0.00000000000E+00 0. -1.
</event>
<event>
 7    1  0.5676357E-006  0.2129915E+03  0.7818608E-02  0.1173952E+00
          2   -1    0    0  502    0  0.00000000000E+00  0.00000000000E+00  0.50689946192E+04  0.50689946192E+04  0.00000000000E+00 0. -1.
          1   -1    0    0  501    0 -0.00000000000E+00 -0.00000000000E+00 -0.28576200870E+03  0.28576200870E+03  0.00000000000E+00 0. -1.
         25    2    1    2    0    0 -0.53606052872E+01 -0.13770419091E+03  0.20082367330E+03  0.27376460125E+03  0.12500291540E+03 0.  0.
          2    1    1    2  501    0 -0.13887431963E+03 -0.28677793784E+02 -0.22640062531E+03  0.26714366107E+03  0.00000000000E+00 0. -1.
          1    1    1    2  502    0  0.14423492492E+03  0.16638198470E+03  0.48088095625E+04  0.48138483656E+04  0.00000000000E+00 0. -1.
         22    1    3    3    0    0  0.24411255787E+02 -0.84824909237E+02  0.19344741088E+03  0.21263366482E+03  0.00000000000E+00 0. -1.
         22    1    3    3    0    0 -0.29771861074E+02 -0.52879281675E+02  0.73762624170E+01  0.61130936436E+02  0.00000000000E+00 0. -1.
</event>
<event>
 7    1  0.5676357E-006  0.5518303E+02  0.7818608E-02  0.1525917E+00
          2   -1    0    0  502    0  0.00000000000E+00  0.00000000000E+00  0.54122746074E+03  0.54122746074E+03  0.00000000000E+00 0. -1.
          1   -1    0    0  501    0 -0.00000000000E+00 -0.00000000000E+00 -0.20157445608E+03  0.20157445608E+03  0.00000000000E+00 0. -1.
         25    2    1    2    0    0  0.53152913561E+02 -0.30740898258E+02  0.59044057104E+02  0.15126679869E+03  0.12500083464E+03 0.  0.
          2    1    1    2  501    0 -0.54911958164E+02  0.50561255274E+01 -0.15017661520E+03  0.15998094670E+03  0.00000000000E+00 0. -1.
          1    1    1    2  502    0  0.17590446023E+01  0.25684772731E+02  0.43078556277E+03  0.43155417143E+03  0.00000000000E+00 0. -1.
         22    1    3    3    0    0  0.54043795969E+02  0.39565481112E+02  0.41519630466E+02  0.78803799988E+02  0.00000000000E+00 0. -1.
         22    1    3    3    0    0 -0.89088240806E+00 -0.70306379370E+02  0.17524426638E+02  0.72462998700E+02  0.00000000000E+00 0. -1.
</event>
<event>
 7    1  0.5676357E-006  0.3112769E+02  0.7818608E-02  0.1641707E+00
          2   -1    0    0  502    0  0.00000000000E+00  0.00000000000E+00  0.10766948856E+03  0.10766948856E+03  0.00000000000E+00 0. -1.
          1   -1    0    0  501    0 -0.00000000000E+00 -0.00000000000E+00 -0.86558356516E+03  0.86558356516E+03  0.00000000000E+00 0. -1.
         25    2    1    2    0    0 -0.11114633214E+02  0.38717815143E+01 -0.30200599887E+03  0.32706574880E+03  0.12500341965E+03 0.  0.
          2    1    1    2  501    0 -0.80230673095E+01  0.20898644454E+02 -0.54823837040E+03  0.54869521023E+03  0.00000000000E+00 0. -1.
          1    1    1    2  502    0  0.19137700523E+02 -0.24770425969E+02  0.92330292666E+02  0.97492094694E+02  0.00000000000E+00 0. -1.
         22    1    3    3    0    0  0.18643898952E+02  0.58449520971E+02 -0.17941330769E+03  0.18961296487E+03  0.00000000000E+00 0.  1.
         22    1    3    3    0    0 -0.29758532166E+02 -0.54577739457E+02 -0.12259269118E+03  0.13745278393E+03  0.00000000000E+00 0.  1.
</event>
<event>
 7    1  0.5676357E-006  0.5822977E+02  0.7818608E-02  0.1453926E+00
          2   -1    0    0  502    0  0.00000000000E+00  0.00000000000E+00  0.33597787933E+02  0.33597787933E+02  0.00000000000E+00 0. -1.
          1   -1    0    0  501    0 -0.00000000000E+00 -0.00000000000E+00 -0.85664078267E+03  0.85664078267E+03  0.00000000000E+00 0. -1.
         25    2    1    2    0    0 -0.35654875568E+02 -0.34455266357E+02 -0.17214846636E+03  0.21844722673E+03  0.12500264343E+03 0.  0.
          2    1    1    2  501    0 -0.31280787743E+02  0.25410039896E+02 -0.54303452943E+03  0.54452792211E+03  0.00000000000E+00 0. -1.
          1    1    1    2  502    0  0.66935663311E+02  0.90452264617E+01 -0.10785999895E+03  0.12726342176E+03  0.00000000000E+00 0. -1.
         22    1    3    3    0    0  0.11624014973E+02 -0.28077149709E+02 -0.16781440220E+03  0.17054359457E+03  0.00000000000E+00 0. -1.
         22    1    3    3    0    0 -0.47278890540E+02 -0.63781166481E+01 -0.43340641571E+01  0.47903632167E+02  0.00000000000E+00 0. -1.
</event>
<event>
 7    1  0.5676357E-006  0.8429598E+02  0.7818608E-02  0.1328370E+00
          2   -1    0    0  502    0  0.00000000000E+00  0.00000000000E+00  0.13954400579E+03  0.13954400579E+03  0.00000000000E+00 0. -1.
          1   -1    0    0  501    0 -0.00000000000E+00 -0.00000000000E+00 -0.10125048066E+04  0.10125048066E+04  0.00000000000E+00 0. -1.
         25    2    1    2    0    0 -0.21996383984E+02 -0.28571467213E+02 -0.55505260405E+03  0.57009554121E+03  0.12500145276E+03 0.  0.
          2    1    1    2  501    0  0.58206819394E+02 -0.49456420458E+02 -0.43220559842E+03  0.43890278042E+03  0.00000000000E+00 0. -1.
          1    1    1    2  502    0 -0.36210435410E+02  0.78027887670E+02  0.11429740165E+03  0.14305049078E+03  0.00000000000E+00 0. -1.
         22    1    3    3    0    0  0.21659949973E+02 -0.45329157185E+00 -0.46961932113E+03  0.47011877827E+03  0.00000000000E+00 0. -1.
         22    1    3    3    0    0 -0.43656333957E+02 -0.28118175641E+02 -0.85433282924E+02  0.99976762935E+02  0.00000000000E+00 0. -1.
</event>
<event>
 7    1  0.5676357E-006  0.1188394E+03  0.7818608E-02  0.1368600E+00
          2   -1    0    0  502    0  0.00000000000E+00  0.00000000000E+00  0.27316840720E+04  0.27316840720E+04  0.00000000000E+00 0. -1.
          1   -1    0    0  501    0 -0.00000000000E+00 -0.00000000000E+00 -0.33485607449E+03  0.33485607449E+03  0.00000000000E+00 0. -1.
         25    2    1    2    0    0 -0.84639107898E+02  0.78048953270E+02 -0.19242048997E+03  0.25672646610E+03  0.12500966260E+03 0.  0.
          2    1    1    2  501    0  0.62474317020E+02 -0.10941273942E+03 -0.74113672144E+02  0.14617463608E+03  0.00000000000E+00 0. -1.
          1    1    1    2  502    0  0.22164790878E+02  0.31363786148E+02  0.26633621596E+04  0.26636390443E+04  0.00000000000E+00 0. -1.
         22    1    3    3    0    0  0.30520848244E+02 -0.76700866270E-01 -0.29256066354E+02  0.42278191530E+02  0.00000000000E+00 0. -1.
         22    1    3    3    0    0 -0.11515995614E+03  0.78125654136E+02 -0.16316442361E+03  0.21444827457E+03  0.00000000000E+00 0. -1.
</event>
<event>
 7    1  0.7860901E-006  0.4634412E+02  0.7818608E-02  0.1501891E+00
          2   -1    0    0  502    0  0.00000000000E+00  0.00000000000E+00  0.22955682296E+04  0.22955682296E+04  0.00000000000E+00 0. -1.
          1   -1    0    0  501    0 -0.00000000000E+00 -0.00000000000E+00 -0.73709011902E+03  0.73709011902E+03  0.00000000000E+00 0. -1.
         25    2    1    2    0    0 -0.19646950894E+02  0.26444774013E+01 -0.40810584442E+03  0.42728306268E+03  0.12500975746E+03 0.  0.
          2    1    1    2  501    0  0.50130251609E+02  0.16593128560E+02 -0.31706992190E+03  0.32143694469E+03  0.00000000000E+00 0. -1.
          1    1    1    2  502    0 -0.30483300715E+02 -0.19237605961E+02  0.22836538769E+04  0.22839383412E+04  0.00000000000E+00 0. -1.
         22    1    3    3    0    0 -0.33985971136E+02  0.46412104809E+02 -0.96908206867E+02  0.11269574200E+03  0.00000000000E+00 0.  1.
         22    1    3    3    0    0  0.14339020242E+02 -0.43767627408E+02 -0.31119763756E+03  0.31458732068E+03  0.00000000000E+00 0.  1.
</event>
<event>
 7    1  0.5676357E-006  0.2362286E+02  0.7818608E-02  0.1689420E+00
          2   -1    0    0  502    0  0.00000000000E+00  0.00000000000E+00  0.22339129619E+03  0.22339129619E+03  0.00000000000E+00 0. -1.
          1   -1    0    0  501    0 -0.00000000000E+00 -0.00000000000E+00 -0.95771306433E+02  0.95771306433E+02  0.00000000000E+00 0. -1.
         25    2    1    2    0    0  0.39974474044E+02  0.22597762474E+02 -0.97190580528E+01  0.13351899968E+03  0.12499698293E+03 0.  0.
          2    1    1    2  501    0 -0.20340157257E+02 -0.99567914278E+01 -0.17770390770E+02  0.28786220330E+02  0.00000000000E+00 0. -1.
          1    1    1    2  502    0 -0.19634316788E+02 -0.12640971046E+02  0.15510943858E+03  0.15685738262E+03  0.00000000000E+00 0. -1.
         22    1    3    3    0    0  0.82762486740E+02  0.17324951826E+02  0.11730360787E+02  0.85366179084E+02  0.00000000000E+00 0. -1.
         22    1    3    3    0    0 -0.42788012696E+02  0.52728106477E+01 -0.21449418840E+02  0.48152820594E+02  0.00000000000E+00 0. -1.
</event>
<event>
 7    1  0.5676357E-006  0.1025863E+03  0.7818608E-02  0.1321340E+00
          2   -1    0    0  502    0  0.00000000000E+00  0.00000000000E+00  0.25297846709E+04  0.25297846709E+04  0.00000000000E+00 0. -1.
          1   -1    0    0  501    0 -0.00000000000E+00 -0.00000000000E+00 -0.16943414407E+04  0.16943414407E+04  0.00000000000E+00 0. -1.
         25    2    1    2    0    0 -0.37653296200E+02  0.30596898013E+02  0.40262991442E+02  0.14000212028E+03  0.12500217727E+03 0.  0.
          2    1    1    2  501    0  0.10260183471E+03 -0.14983709186E+02 -0.16423793550E+04  0.16456492925E+04  0.00000000000E+00 0. -1.
          1    1    1    2  502    0 -0.64948538509E+02 -0.15613188827E+02  0.24375595937E+04  0.24384746989E+04  0.00000000000E+00 0. -1.
         22    1    3    3    0    0 -0.61688401821E+02  0.37174203811E+02  0.70523865957E+02  0.10080176595E+03  0.00000000000E+00 0. -1.
         22    1    3    3    0    0  0.24035105622E+02 -0.65773057985E+01 -0.30260874515E+02  0.39200354338E+02  0.00000000000E+00 0. -1.
</event>
<event>
 7    1  0.5676357E-006  0.5922875E+02  0.7818608E-02  0.1457886E+00
          2   -1    0    0  502    0  0.00000000000E+00  0.00000000000E+00  0.83538334354E+03  0.83538334354E+03  0.00000000000E+00 0. -1.
          1   -1    0    0  501    0 -0.00000000000E+00 -0.00000000000E+00 -0.21230238041E+03  0.21230238041E+03  0.00000000000E+00 0. -1.
         25    2    1    2    0    0  0.67021313375E+02  0.51881356766E+02 -0.66805600947E+02  0.16514569386E+03  0.12500632086E+03 0.  0.
          2    1    1    2  501    0 -0.28747003558E+02 -0.47800965370E+02 -0.87735687360E+02  0.10396573157E+03  0.00000000000E+00 0. -1.
          1    1    1    2  502    0 -0.38274309817E+02 -0.40803913961E+01  0.77762225144E+03  0.77857429853E+03  0.00000000000E+00 0. -1.
         22    1    3    3    0    0  0.65255848506E+02  0.66685173002E+02 -0.95060880968E+02  0.13319838270E+03  0.00000000000E+00 0.  1.
         22    1    3    3    0    0  0.17654648699E+01 -0.14803816236E+02  0.28255280021E+02  0.31947311161E+02  0.00000000000E+00 0.  1.
</event>
<event>
 7    1  0.5676357E-006  0.1421263E+03  0.7818608E-02  0.1211533E+00
          2   -1    0    0  502    0  0.00000000000E+00  0.00000000000E+00  0.22745654028E+04  0.22745654028E+04  0.00000000000E+00 0. -1.
          1   -1    0    0  501    0 -0.00000000000E+00 -0.00000000000E+00 -0.63388037151E+03  0.63388037151E+03  0.00000000000E+00 0. -1.
         25    2    1    2    0    0  0.75043282567E+02  0.36806128579E+01 -0.31849778300E+02  0.14928166178E+03  0.12500225997E+03 0.  0.
          2    1    1    2  501    0 -0.35399607874E+02  0.13603405811E+03 -0.53179339001E+03  0.55005691238E+03  0.00000000000E+00 0. -1.
          1    1    1    2  502    0 -0.39643674693E+02 -0.13971467097E+03  0.22043281996E+04  0.22091072002E+04  0.00000000000E+00 0. -1.
         22    1    3    3    0    0  0.45822056116E+02 -0.45316885929E+02 -0.57835969095E+02  0.86592611106E+02  0.00000000000E+00 0.  1.
         22    1    3    3    0    0  0.29221226451E+02  0.48997498787E+02  0.25986190795E+02  0.62689050676E+02  0.00000000000E+00 0.  1.
</event>
<event>
 7    1  0.5676357E-006  0.9593442E+02  0.7818608E-02  0.1433905E+00
          2   -1    0    0  502    0  0.00000000000E+00  0.00000000000E+00  0.41316698483E+03  0.41316698483E+03  0.00000000000E+00 0. -1.
          1   -1    0    0  501    0 -0.00000000000E+00 -0.00000000000E+00 -0.10852625047E+03  0.10852625047E+03  0.00000000000E+00 0. -1.
         25    2    1    2    0    0  0.10911818935E+02 -0.11133608922E+03  0.17395509783E+03  0.24166118873E+03  0.12499984608E+03 0.  0.
          2    1    1    2  501    0  0.15591889965E+02  0.23720279231E+02 -0.61182723725E+02  0.67446900314E+02  0.00000000000E+00 0. -1.
          1    1    1    2  502    0 -0.26503708900E+02  0.87615809992E+02  0.19186836025E+03  0.21258514626E+03  0.00000000000E+00 0. -1.
         22    1    3    3    0    0  0.62453891112E+02 -0.69318418772E+02  0.13649519608E+03  0.16533744357E+03  0.00000000000E+00 0. -1.
         22    1    3    3    0    0 -0.51542072177E+02 -0.42017670451E+02  0.37459901757E+02  0.76323745152E+02  0.00000000000E+00 0. -1.
</event>
<event>
 7    1  0.5676357E-006  0.8548701E+02  0.7818608E-02  0.1333736E+00
          2   -1    0    0  502    0  0.00000000000E+00  0.00000000000E+00  0.85570224202E+03  0.85570224202E+03  0.00000000000E+00 0. -1.
          1   -1    0    0  501    0 -0.00000000000E+00 -0.00000000000E+00 -0.12809788304E+04  0.12809788304E+04  0.00000000000E+00 0. -1.
         25    2    1    2    0    0  0.44337060686E+02  0.22600819573E+02  0.11243811095E+03  0.17534133481E+03  0.12500273159E+03 0.  0.
          2    1    1    2  501    0 -0.74907628506E+02  0.42420053168E+02 -0.12462255125E+04  0.12491951976E+04  0.00000000000E+00 0. -1.
          1    1    1    2  502    0  0.30570567820E+02 -0.65020872741E+02  0.70851081316E+03  0.71214454001E+03  0.00000000000E+00 0. -1.
         22    1    3    3    0    0  0.56503444511E+02  0.63301257759E+02  0.99854718117E+02  0.13103683912E+03  0.00000000000E+00 0.  1.
         22    1    3    3    0    0 -0.12166383825E+02 -0.40700438185E+02  0.12583392830E+02  0.44304495697E+02  0.00000000000E+00 0.  1.
</event>
<event>
 7    1  0.5676357E-006  0.3478415E+02  0.7818608E-02  0.1553530E+00
          2   -1    0    0  502    0  0.00000000000E+00  0.00000000000E+00  0.24122175939E+03  0.24122175939E+03  0.00000000000E+00 0. -1.
          1   -1    0    0  501    0 -0.00000000000E+00 -0.00000000000E+00 -0.11772790005E+03  0.11772790005E+03  0.00000000000E+00 0. -1.
         25    2    1    2    0    0 -0.15776024531E+01  0.58640803051E+01  0.27544730473E+02  0.12814377796E+03  0.12500095754E+03 0.  0.
          2    1    1    2  501    0  0.29744600345E+02  0.16718425286E+02 -0.60926150074E+02  0.69830099217E+02  0.00000000000E+00 0. -1.
          1    1    1    2  502    0 -0.28166997892E+02 -0.22582505592E+02  0.15687527894E+03  0.16097578225E+03  0.00000000000E+00 0. -1.
         22    1    3    3    0    0 -0.41470222877E+02 -0.33647920056E+02  0.44475558241E+02  0.69498468979E+02  0.00000000000E+00 0.  1.
         22    1    3    3    0    0  0.39892620424E+02  0.39512000361E+02 -0.16930827769E+02  0.58645308983E+02  0.00000000000E+00 0.  1.
</event>
<event>
 7    1  0.5676357E-006  0.5423955E+02  0.7818608E-02  0.1488690E+00
          2   -1    0    0  502    0  0.00000000000E+00  0.00000000000E+00  0.18294290761E+04  0.18294290761E+04  0.00000000000E+00 0. -1.
          1   -1    0    0  501    0 -0.00000000000E+00 -0.00000000000E+00 -0.71231495791E+03  0.71231495791E+03  0.00000000000E+00 0. -1.
         25    2    1    2    0    0 -0.34701273337E+02 -0.18528685729E+02  0.28950883721E+02  0.13417309214E+03  0.12496709335E+03 0.  0.
          2    1    1    2  501    0  0.12710546644E+02 -0.31257532934E+02 -0.65884829708E+03  0.65971180824E+03  0.00000000000E+00 0. -1.
          1    1    1    2  502    0  0.21990726693E+02  0.49786218663E+02  0.17470115315E+04  0.17478591336E+04  0.00000000000E+00 0. -1.
         22    1    3    3    0    0 -0.13027927234E+02  0.67631922009E+01  0.75511699689E+02  0.76925187336E+02  0.00000000000E+00 0.  1.
         22    1    3    3    0    0 -0.21673346103E+02 -0.25291877930E+02 -0.46560815968E+02  0.57247904802E+02  0.00000000000E+00 0.  1.
</event>
<event>
 7    1  0.5676357E-006  0.9086641E+02  0.7818608E-02  0.1374181E+00
          2   -1    0    0  502    0  0.00000000000E+00  0.00000000000E+00  0.47600340239E+03  0.47600340239E+03  0.00000000000E+00 0. -1.
          1   -1    0    0  501    0 -0.00000000000E+00 -0.00000000000E+00 -0.11334259226E+04  0.11334259226E+04  0.00000000000E+00 0. -1.
         25    2    1    2    0    0  0.76522989243E+01 -0.64059308096E+02 -0.93705818549E+02  0.16902249531E+03  0.12500268341E+03 0.  0.
          2    1    1    2  501    0  0.46863194559E+02 -0.10222403302E+02 -0.99663670375E+03  0.99779024639E+03  0.00000000000E+00 0. -1.
          1    1    1    2  502    0 -0.54515493483E+02  0.74281711398E+02  0.43292000204E+03  0.44261658334E+03  0.00000000000E+00 0. -1.
         22    1    3    3    0    0  0.33427113658E+02 -0.92516678421E+02 -0.48389505541E+02  0.10962778827E+03  0.00000000000E+00 0. -1.
         22    1    3    3    0    0 -0.25774814733E+02  0.28457370325E+02 -0.45316313008E+02  0.59394707045E+02  0.00000000000E+00 0. -1.
</event>
<event>
 7    1  0.5676357E-006  0.8918795E+02  0.7818608E-02  0.1337418E+00
          2   -1    0    0  502    0  0.00000000000E+00  0.00000000000E+00  0.39129749438E+04  0.39129749438E+04  0.00000000000E+00 0. -1.
          1   -1    0    0  501    0 -0.00000000000E+00 -0.00000000000E+00 -0.15275024299E+03  0.15275024299E+03  0.00000000000E+00 0. -1.
         25    2    1    2    0    0 -0.71528159369E+02  0.54738377140E+02  0.23036479895E+03  0.27713808495E+03  0.12500004009E+03 0.  0.
          2    1    1    2  501    0  0.57439310650E+02  0.33888576754E+02 -0.12017993131E+03  0.13744426482E+03  0.00000000000E+00 0. -1.
          1    1    1    2  502    0  0.14088848718E+02 -0.88626953894E+02  0.36500398332E+04  0.36511428370E+04  0.00000000000E+00 0. -1.
         22    1    3    3    0    0  0.22447943950E+02 -0.69003026403E+01  0.10992740244E+03  0.11240799869E+03  0.00000000000E+00 0.  1.
         22    1    3    3    0    0 -0.93976103319E+02  0.61638679780E+02  0.12043739651E+03  0.16473008626E+03  0.00000000000E+00 0.  1.
</event>
<event>
 7    1  0.5676357E-006  0.2104341E+03  0.7818608E-02  0.1236887E+00
          2   -1    0    0  502    0  0.00000000000E+00  0.00000000000E+00  0.37424704809E+03  0.37424704809E+03  0.00000000000E+00 0. -1.
          1   -1    0    0  501    0 -0.00000000000E+00 -0.00000000000E+00 -0.64547649992E+03  0.64547649992E+03  0.00000000000E+00 0. -1.
         25    2    1    2    0    0 -0.16612176677E+03 -0.13302328722E+03  0.69075403006E+02  0.25629626838E+03  0.12499891817E+03 0.  0.
          2    1    1    2  501    0  0.54055039445E+02 -0.48889688503E+02 -0.49455973718E+03  0.49990147286E+03  0.00000000000E+00 0. -1.
          1    1    1    2  502    0  0.11206672733E+03  0.18191297572E+03  0.15425488234E+03  0.26352580678E+03  0.00000000000E+00 0. -1.
         22    1    3    3    0    0 -0.17499899640E+03 -0.14811893970E+03  0.63107514102E+02  0.23779492714E+03  0.00000000000E+00 0. -1.
         22    1    3    3    0    0  0.88772296266E+01  0.15095652477E+02  0.59678889037E+01  0.18501341236E+02  0.00000000000E+00 0. -1.
</event>
<event>
 7    1  0.5676357E-006  0.7335613E+02  0.7818608E-02  0.1381770E+00
          2   -1    0    0  502    0  0.00000000000E+00  0.00000000000E+00  0.79780215135E+03  0.79780215135E+03  0.00000000000E+00 0. -1.
          1   -1    0    0  501    0 -0.00000000000E+00 -0.00000000000E+00 -0.19597633529E+03  0.19597633529E+03  0.00000000000E+00 0. -1.
         25    2    1    2    0    0 -0.27336173742E+02 -0.52566491932E+02  0.27931590631E+03  0.31170087309E+03  0.12501822387E+03 0.  0.
          2    1    1    2  501    0  0.50933210689E+02 -0.22885610716E+02 -0.17223292343E+03  0.18105834154E+03  0.00000000000E+00 0. -1.
          1    1    1    2  502    0 -0.23597036947E+02  0.75452102648E+02  0.49474283318E+03  0.50101927201E+03  0.00000000000E+00 0. -1.
         22    1    3    3    0    0 -0.98952806273E+01  0.14111683658E+02 -0.59451801567E+01  0.18231877617E+02  0.00000000000E+00 0.  1.
         22    1    3    3    0    0 -0.17440893115E+02 -0.66678175590E+02  0.28526108647E+03  0.29346899548E+03  0.00000000000E+00 0.  1.
</event>
<event>
 7    1  0.5676357E-006  0.1968101E+03  0.7818608E-02  0.1343267E+00
          2   -1    0    0  502    0  0.00000000000E+00  0.00000000000E+00  0.10368034134E+04  0.10368034134E+04  0.00000000000E+00 0. -1.
          1   -1    0    0  501    0 -0.00000000000E+00 -0.00000000000E+00 -0.25247543178E+03  0.25247543178E+03  0.00000000000E+00 0. -1.
         25    2    1    2    0    0  0.76699440564E+02 -0.19594754772E+03  0.60558980015E+03  0.65317978191E+03  0.12500630311E+03 0.  0.
          2    1    1    2  501    0 -0.48619216634E+02  0.18987174398E+03 -0.18601509481E+03  0.27021606704E+03  0.00000000000E+00 0. -1.
          1    1    1    2  502    0 -0.28080223930E+02  0.60758037417E+01  0.36475327626E+03  0.36588299620E+03  0.00000000000E+00 0. -1.
         22    1    3    3    0    0 -0.66551559049E+01 -0.47384544769E+02  0.29577511922E+03  0.29962060566E+03  0.00000000000E+00 0.  1.
         22    1    3    3    0    0  0.83354596468E+02 -0.14856300295E+03  0.30981468092E+03  0.35355917625E+03  0.00000000000E+00 0.  1.
</event>
<event>
 7    1  0.8372119E-006  0.1030326E+03  0.7818608E-02  0.1351650E+00
          2   -1    0    0  502    0  0.00000000000E+00  0.00000000000E+00  0.91251177423E+03  0.91251177423E+03  0.00000000000E+00 0. -1.
          1   -1    0    0  501    0 -0.00000000000E+00 -0.00000000000E+00 -0.25550085197E+04  0.25550085197E+04  0.00000000000E+00 0. -1.
         25    2    1    2    0    0 -0.92917753579E+02 -0.11944590962E+03 -0.52166965890E+03  0.55737358362E+03  0.12500017778E+03 0.  0.
          2    1    1    2  501    0  0.20034475275E+02  0.46984058455E+02 -0.20122101551E+04  0.20128583135E+04  0.00000000000E+00 0. -1.
          1    1    1    2  502    0  0.72883278304E+02  0.72461851161E+02  0.89138306854E+03  0.89728839679E+03  0.00000000000E+00 0. -1.
         22    1    3    3    0    0  0.57460969824E+01 -0.49367190382E+02 -0.30652284020E+03  0.31052598713E+03  0.00000000000E+00 0.  1.
         22    1    3    3    0    0 -0.98663850562E+02 -0.70078719234E+02 -0.21514681870E+03  0.24684759649E+03  0.00000000000E+00 0.  1.
</event>
<event>
 7    1  0.5676357E-006  0.2638192E+03  0.7818608E-02  0.1203067E+00
          2   -1    0    0  502    0  0.00000000000E+00  0.00000000000E+00  0.29485521382E+04  0.29485521382E+04  0.00000000000E+00 0. -1.
          1   -1    0    0  501    0 -0.00000000000E+00 -0.00000000000E+00 -0.36985507845E+03  0.36985507845E+03  0.00000000000E+00 0. -1.
         25    2    1    2    0    0  0.23479491338E+03  0.14443968958E+02  0.90929467751E+02  0.28147874955E+03  0.12499935502E+03 0.  0.
          2    1    1    2  501    0 -0.27057492908E+03  0.60363795565E+02 -0.20380422388E+03  0.34407955727E+03  0.00000000000E+00 0. -1.
          1    1    1    2  502    0  0.35780015701E+02 -0.74807764523E+02  0.26915718158E+04  0.26928489098E+04  0.00000000000E+00 0. -1.
         22    1    3    3    0    0  0.10381300627E+02  0.32843466991E+02  0.35761468406E+02  0.49652264291E+02  0.00000000000E+00 0. -1.
         22    1    3    3    0    0  0.22441361275E+03 -0.18399498033E+02  0.55167999346E+02  0.23182648526E+03  0.00000000000E+00 0. -1.
</event>
<event>
 7    1  0.5676357E-006  0.8775525E+02  0.7818608E-02  0.1318943E+00
          2   -1    0    0  502    0  0.00000000000E+00  0.00000000000E+00  0.88490363467E+03  0.88490363467E+03  0.00000000000E+00 0. -1.
          1   -1    0    0  501    0 -0.00000000000E+00 -0.00000000000E+00 -0.11905140785E+03  0.11905140785E+03  0.00000000000E+00 0. -1.
         25    2    1    2    0    0 -0.25253032436E+02  0.15446836848E+03  0.88858894393E+02  0.21914394790E+03  0.12501989554E+03 0.  0.
          2    1    1    2  501    0 -0.13706092999E+02 -0.78591792625E+02 -0.20300220749E+02  0.82320263701E+02  0.00000000000E+00 0. -1.
          1    1    1    2  502    0  0.38959125435E+02 -0.75876575857E+02  0.69729355318E+03  0.70249083092E+03  0.00000000000E+00 0. -1.
         22    1    3    3    0    0  0.26404958293E+02 -0.89106225956E+01  0.47752347386E+01  0.28274085030E+02  0.00000000000E+00 0.  1.
         22    1    3    3    0    0 -0.51657990729E+02  0.16337899108E+03  0.84083659655E+02  0.19086986287E+03  0.00000000000E+00 0.  1.
</event>
<event>
 7    1  0.5676357E-006  0.4684531E+02  0.7818608E-02  0.1499349E+00
          2   -1    0    0  502    0  0.00000000000E+00  0.00000000000E+00  0.26913195334E+04  0.26913195334E+04  0.00000000000E+00 0. -1.
          1   -1    0    0  501    0 -0.00000000000E+00 -0.00000000000E+00 -0.16808066421E+03  0.16808066421E+03  0.00000000000E+00 0. -1.
         25    2    1    2    0    0 -0.20094520863E+02  0.21865097650E+02  0.15089021678E+04  0.15143620879E+04  0.12499963591E+03 0.  0.
          2    1    1    2  501    0 -0.31682506635E+02 -0.17693308283E+02 -0.16278002374E+03  0.16677580914E+03  0.00000000000E+00 0. -1.
          1    1    1    2  502    0  0.51777027497E+02 -0.41717893672E+01  0.11771167252E+04  0.11782623006E+04  0.00000000000E+00 0. -1.
         22    1    3    3    0    0 -0.16849828330E+02 -0.49639215586E+02  0.84186699534E+03  0.84349748446E+03  0.00000000000E+00 0.  1.
         22    1    3    3    0    0 -0.32446925328E+01  0.71504313236E+02  0.66703517243E+03  0.67086460340E+03  0.00000000000E+00 0.  1.
</event>
<event>
 7    1  0.5676357E-006  0.3014584E+03  0.7818608E-02  0.1149026E+00
          2   -1    0    0  502    0  0.00000000000E+00  0.00000000000E+00  0.18478570887E+04  0.18478570887E+04  0.00000000000E+00 0. -1.
          1   -1    0    0  501    0 -0.00000000000E+00 -0.00000000000E+00 -0.13873517290E+04  0.13873517290E+04  0.00000000000E+00 0. -1.
         25    2    1    2    0    0  0.33178155716E+03 -0.54059426011E+02 -0.65595768871E+02  0.36459485748E+03  0.12500072797E+03 0.  0.
          2    1    1    2  501    0 -0.25265622057E+03  0.16197456725E+03 -0.11503376726E+04  0.11888430036E+04  0.00000000000E+00 0. -1.
          1    1    1    2  502    0 -0.79125336589E+02 -0.10791514123E+03  0.16764388011E+04  0.16817709566E+04  0.00000000000E+00 0. -1.
         22    1    3    3    0    0  0.20082723313E+03  0.29633136637E+02 -0.43615366185E+02  0.20763429514E+03  0.00000000000E+00 0. -1.
         22    1    3    3    0    0  0.13095432403E+03 -0.83692562648E+02 -0.21980402685E+02  0.15696056233E+03  0.00000000000E+00 0. -1.
</event>
<event>
 7    1  0.5676357E-006  0.1000641E+03  0.7818608E-02  0.1361433E+00
          2   -1    0    0  502    0  0.00000000000E+00  0.00000000000E+00  0.23790769386E+03  0.23790769386E+03  0.00000000000E+00 0. -1.
          1   -1    0    0  501    0 -0.00000000000E+00 -0.00000000000E+00 -0.56562998514E+03  0.56562998514E+03  0.00000000000E+00 0. -1.
         25    2    1    2    0    0  0.13188985050E+03 -0.19708376503E+02 -0.34764057685E+02  0.18605602323E+03  0.12499980522E+03 0.  0.
          2    1    1    2  501    0 -0.97083388215E+02 -0.13953373930E+02 -0.44615815112E+03  0.45681175195E+03  0.00000000000E+00 0. -1.
          1    1    1    2  502    0 -0.34806462285E+02  0.33661750433E+02  0.15319991753E+03  0.16066990381E+03  0.00000000000E+00 0. -1.
         22    1    3    3    0    0  0.26310308504E+02  0.41580375259E+02 -0.40665046398E+02  0.63834206652E+02  0.00000000000E+00 0. -1.
         22    1    3    3    0    0  0.10557954200E+03 -0.61288751762E+02  0.59009887130E+01  0.12222181658E+03  0.00000000000E+00 0. -1.
</event>
<event>
 7    1  0.5676357E-006  0.5231172E+02  0.7818608E-02  0.1549907E+00
          2   -1    0    0  502    0  0.00000000000E+00  0.00000000000E+00  0.37388762057E+03  0.37388762057E+03  0.00000000000E+00 0. -1.
          1   -1    0    0  501    0 -0.00000000000E+00 -0.00000000000E+00 -0.60588270282E+02  0.60588270282E+02  0.00000000000E+00 0. -1.
         25    2    1    2    0    0 -0.24345996927E+02 -0.28656069754E+02  0.29343499131E+03  0.32115807603E+03  0.12499807110E+03 0.  0.
          2    1    1    2  501    0  0.16627306712E+02  0.50557167266E+02 -0.27985776752E+02  0.60130675955E+02  0.00000000000E+00 0. -1.
          1    1    1    2  502    0  0.77186902144E+01 -0.21901097512E+02  0.47850135729E+02  0.53187138860E+02  0.00000000000E+00 0. -1.
         22    1    3    3    0    0  0.36602355717E+02 -0.48692592151E+02  0.97289576180E+02  0.11478659594E+03  0.00000000000E+00 0. -1.
         22    1    3    3    0    0 -0.60948352644E+02  0.20036522398E+02  0.19614541513E+03  0.20637148009E+03  0.00000000000E+00 0. -1.
</event>
<event>
 7    1  0.5676357E-006  0.5337469E+02  0.7818608E-02  0.1461854E+00
          2   -1    0    0  502    0  0.00000000000E+00  0.00000000000E+00  0.10830895327E+04  0.10830895327E+04  0.00000000000E+00 0. -1.
          1   -1    0    0  501    0 -0.00000000000E+00 -0.00000000000E+00 -0.96796954685E+02  0.96796954685E+02  0.00000000000E+00 0. -1.
         25    2    1    2    0    0 -0.43796589385E+01 -0.67447756480E+02  0.21026189774E+03  0.25377798138E+03  0.12499926771E+03 0.  0.
          2    1    1    2  501    0 -0.29958319515E+02  0.44143684049E+02 -0.64979892644E+02  0.84074682263E+02  0.00000000000E+00 0. -1.
          1    1    1    2  502    0  0.34337978454E+02  0.23304072431E+02  0.84101057293E+03  0.84203382375E+03  0.00000000000E+00 0. -1.
         22    1    3    3    0    0  0.34012380584E+02 -0.51371362851E+02  0.20220549366E+03  0.21138334991E+03  0.00000000000E+00 0. -1.
         22    1    3    3    0    0 -0.38392039522E+02 -0.16076393629E+02  0.80564040785E+01  0.42394631470E+02  0.00000000000E+00 0. -1.
</event>
<event>
 7    1  0.5676357E-006  0.1232708E+03  0.7818608E-02  0.1286207E+00
          2   -1    0    0  502    0  0.00000000000E+00  0.00000000000E+00  0.44335226264E+02  0.44335226264E+02  0.00000000000E+00 0. -1.
          1   -1    0    0  501    0 -0.00000000000E+00 -0.00000000000E+00 -0.44646364412E+04  0.44646364412E+04  0.00000000000E+00 0. -1.
         25    2    1    2    0    0  0.56612115299E+02  0.39313627150E+02 -0.29697622435E+03  0.32949984109E+03  0.12499909829E+03 0.  0.
          2    1    1    2  501    0 -0.52279978946E+02 -0.11589910989E+03 -0.40961045363E+04  0.40980773751E+04  0.00000000000E+00 0. -1.
          1    1    1    2  502    0 -0.43321363531E+01  0.76585482736E+02 -0.27220454310E+02  0.81394451310E+02  0.00000000000E+00 0. -1.
         22    1    3    3    0    0  0.46346527941E+02  0.82118329666E+02 -0.16105244729E+03  0.18662612758E+03  0.00000000000E+00 0. -1.
         22    1    3    3    0    0  0.10265587359E+02 -0.42804702516E+02 -0.13592377706E+03  0.14287371351E+03  0.00000000000E+00 0. -1.
</event>
<event>
 7    1  0.5676357E-006  0.7285005E+02  0.7818608E-02  0.1470242E+00
          2   -1    0    0  502    0  0.00000000000E+00  0.00000000000E+00  0.63981629529E+03  0.63981629529E+03  0.00000000000E+00 0. -1.
          1   -1    0    0  501    0 -0.00000000000E+00 -0.00000000000E+00 -0.22351035389E+03  0.22351035389E+03  0.00000000000E+00 0. -1.
         25    2    1    2    0    0  0.44726207530E+02 -0.62873118384E+01 -0.10879646032E+03  0.17176380471E+03  0.12500468351E+03 0.  0.
          2    1    1    2  501    0  0.28482552801E+02  0.28263567808E+01 -0.78485432057E+02  0.83541649205E+02  0.00000000000E+00 0. -1.
          1    1    1    2  502    0 -0.73208760331E+02  0.34609550576E+01  0.60358783378E+03  0.60802119526E+03  0.00000000000E+00 0. -1.
         22    1    3    3    0    0 -0.35935564068E+01  0.41642685802E+02 -0.92904215499E+02  0.10187354998E+03  0.00000000000E+00 0. -1.
         22    1    3    3    0    0  0.48319763937E+02 -0.47929997641E+02 -0.15892244826E+02  0.69890254731E+02  0.00000000000E+00 0. -1.
</event>
<event>
 7    1  0.5676357E-006  0.1272289E+03  0.7818608E-02  0.1375053E+00
          2   -1    0    0  502    0  0.00000000000E+00  0.00000000000E+00  0.68387918264E+03  0.68387918264E+03  0.00000000000E+00 0. -1.
          1   -1    0    0  501    0 -0.00000000000E+00 -0.00000000000E+00 -0.11721023474E+04  0.11721023474E+04  0.00000000000E+00 0. -1.
         25    2    1    2    0    0  0.57572603570E+02 -0.13288879482E+03 -0.24020222090E+03  0.30707582033E+03  0.12499766414E+03 0.  0.
          2    1    1    2  501    0 -0.32959646592E+02  0.83951979793E+01 -0.89194631107E+03  0.89259455493E+03  0.00000000000E+00 0. -1.
          1    1    1    2  502    0 -0.24612956978E+02  0.12449359684E+03  0.64392536722E+03  0.65631115476E+03  0.00000000000E+00 0. -1.
         22    1    3    3    0    0  0.22672292087E+02  0.99976369529E+01  0.73536947879E+00  0.24789641816E+02  0.00000000000E+00 0. -1.
         22    1    3    3    0    0  0.34900311483E+02 -0.14288643177E+03 -0.24093759037E+03  0.28228617852E+03  0.00000000000E+00 0. -1.
</event>
<event>
 7    1  0.5676357E-006  0.8879014E+02  0.7818608E-02  0.1355214E+00
          2   -1    0    0  502    0  0.00000000000E+00  0.00000000000E+00  0.21580169924E+03  0.21580169924E+03  0.00000000000E+00 0. -1.
          1   -1    0    0  501    0 -0.00000000000E+00 -0.00000000000E+00 -0.42576248457E+03  0.42576248457E+03  0.00000000000E+00 0. -1.
         25    2    1    2    0    0  0.60549000101E+02  0.88570897208E+02 -0.69341974295E+02  0.17871385179E+03  0.12497738266E+03 0.  0.
          2    1    1    2  501    0 -0.57503866760E+02 -0.18178770816E+00 -0.28652164036E+03  0.29223514185E+03  0.00000000000E+00 0. -1.
          1    1    1    2  502    0 -0.30451333407E+01 -0.88389109500E+02  0.14590282932E+03  0.17061519017E+03  0.00000000000E+00 0. -1.
         22    1    3    3    0    0 -0.22164892358E+02  0.40572023266E+02  0.17599912301E+02  0.49468459024E+02  0.00000000000E+00 0.  1.
         22    1    3    3    0    0  0.82713892459E+02  0.47998873942E+02 -0.86941886596E+02  0.12924539276E+03  0.00000000000E+00 0.  1.
</event>
<event>
 7    1  0.5676357E-006  0.1528032E+03  0.7818608E-02  0.1282803E+00
          2   -1    0    0  502    0  0.00000000000E+00  0.00000000000E+00  0.37691886992E+03  0.37691886992E+03  0.00000000000E+00 0. -1.
          1   -1    0    0  501    0 -0.00000000000E+00 -0.00000000000E+00 -0.12375569040E+04  0.12375569040E+04  0.00000000000E+00 0. -1.
         25    2    1    2    0    0  0.86294480704E+02 -0.58343120797E+02 -0.14475920352E+03  0.21778706811E+03  0.12500129155E+03 0.  0.
          2    1    1    2  501    0 -0.11085482192E+03  0.11733992540E+03 -0.10470438832E+04  0.10594141508E+04  0.00000000000E+00 0. -1.
          1    1    1    2  502    0  0.24560341216E+02 -0.58996804605E+02  0.33116505266E+03  0.33727455495E+03  0.00000000000E+00 0. -1.
         22    1    3    3    0    0  0.46807599944E+02 -0.96817254480E+02 -0.98095712657E+02  0.14555858277E+03  0.00000000000E+00 0. -1.
         22    1    3    3    0    0  0.39486880760E+02  0.38474133682E+02 -0.46663490861E+02  0.72228485337E+02  0.00000000000E+00 0. -1.
</event>
<event>
 7    1  0.5676357E-006  0.1445835E+03  0.7818608E-02  0.1315715E+00
          2   -1    0    0  502    0  0.00000000000E+00  0.00000000000E+00  0.12580470388E+04  0.12580470388E+04  0.00000000000E+00 0. -1.
          1   -1    0    0  501    0 -0.00000000000E+00 -0.00000000000E+00 -0.18899284368E+04  0.18899284368E+04  0.00000000000E+00 0. -1.
         25    2    1    2    0    0  0.78281751477E+02 -0.10446365760E+03 -0.15840067000E+03  0.24032500564E+03  0.12499859082E+03 0.  0.
          2    1    1    2  501    0 -0.36134623537E+02 -0.34333071458E+02 -0.16858739567E+04  0.16866106453E+04  0.00000000000E+00 0. -1.
          1    1    1    2  502    0 -0.42147127941E+02  0.13879672906E+03  0.12123932287E+04  0.12210398247E+04  0.00000000000E+00 0. -1.
         22    1    3    3    0    0  0.29794191897E+02 -0.48914245808E+02  0.84634202066E+01  0.57895827098E+02  0.00000000000E+00 0.  1.
         22    1    3    3    0    0  0.48487559580E+02 -0.55549411789E+02 -0.16686409020E+03  0.18242917854E+03  0.00000000000E+00 0.  1.
</event>
<event>
 7    1  0.5676357E-006  0.7803714E+02  0.7818608E-02  0.1359902E+00
          2   -1    0    0  502    0  0.00000000000E+00  0.00000000000E+00  0.51925217506E+03  0.51925217506E+03  0.00000000000E+00 0. -1.
          1   -1    0    0  501    0 -0.00000000000E+00 -0.00000000000E+00 -0.25133214833E+04  0.25133214833E+04  0.00000000000E+00 0. -1.
         25    2    1    2    0    0 -0.14434437848E+02  0.57371168537E+02 -0.16816487217E+03  0.21772260198E+03  0.12499561274E+03 0.  0.
          2    1    1    2  501    0  0.62708423708E+02  0.47958366899E+01 -0.23168161327E+04  0.23176695923E+04  0.00000000000E+00 0. -1.
          1    1    1    2  502    0 -0.48273985861E+02 -0.62167005227E+02  0.49091169667E+03  0.49718146403E+03  0.00000000000E+00 0. -1.
         22    1    3    3    0    0  0.28497858155E+02  0.58994702898E+02 -0.28228796854E+02  0.71339805587E+02  0.00000000000E+00 0.  1.
         22    1    3    3    0    0 -0.42932296003E+02 -0.16235343610E+01 -0.13993607532E+03  0.14638279639E+03  0.00000000000E+00 0.  1.
</event>
<event>
 7    1  0.5676357E-006  0.1487299E+03  0.7818608E-02  0.1277660E+00
          2   -1    0    0  502    0  0.00000000000E+00  0.00000000000E+00  0.23875016972E+04  0.23875016972E+04  0.00000000000E+00 0. -1.
          1   -1    0    0  501    0 -0.00000000000E+00 -0.00000000000E+00 -0.81222990353E+03  0.81222990353E+03  0.00000000000E+00 0. -1.
         25    2    1    2    0    0 -0.12066273688E+03 -0.99987407444E+02 -0.17970836384E+02  0.20125872625E+03  0.12500058486E+03 0.  0.
          2    1    1    2  501    0 -0.23975437842E+02  0.64643554596E+02 -0.69850203737E+03  0.70189650731E+03  0.00000000000E+00 0. -1.
          1    1    1    2  502    0  0.14463817472E+03  0.35343852848E+02  0.22917446674E+04  0.22965763671E+04  0.00000000000E+00 0. -1.
         22    1    3    3    0    0 -0.65998341919E+02  0.16119119959E+02  0.13170353029E+02  0.69203073365E+02  0.00000000000E+00 0. -1.
         22    1    3    3    0    0 -0.54664394957E+02 -0.11610652740E+03 -0.31141189413E+02  0.13205565289E+03  0.00000000000E+00 0. -1.
</event>
<event>
 7    1  0.5676357E-006  0.6754577E+02  0.7818608E-02  0.1391476E+00
          2   -1    0    0  502    0  0.00000000000E+00  0.00000000000E+00  0.26409324309E+04  0.26409324309E+04  0.00000000000E+00 0. -1.
          1   -1    0    0  501    0 -0.00000000000E+00 -0.00000000000E+00 -0.56086969068E+03  0.56086969068E+03  0.00000000000E+00 0. -1.
         25    2    1    2    0    0  0.47729281738E+02  0.99948922820E+02  0.23337319092E+03  0.28698049833E+03  0.12500755446E+03 0.  0.
          2    1    1    2  501    0 -0.50909463153E+02 -0.43969184061E+02 -0.53161608744E+03  0.53585513622E+03  0.00000000000E+00 0. -1.
          1    1    1    2  502    0  0.31801814154E+01 -0.55979738759E+02  0.23783056367E+04  0.23789664870E+04  0.00000000000E+00 0. -1.
         22    1    3    3    0    0  0.44863954999E+02  0.10890105147E+03  0.10357926956E+03  0.15684667211E+03  0.00000000000E+00 0.  1.
         22    1    3    3    0    0  0.28653267386E+01 -0.89521286463E+01  0.12979392136E+03  0.13013382622E+03  0.00000000000E+00 0.  1.
</event>
<event>
 7    1  0.5676357E-006  0.1166889E+03  0.7818608E-02  0.1288616E+00
          2   -1    0    0  502    0  0.00000000000E+00  0.00000000000E+00  0.96609805608E+03  0.96609805608E+03  0.00000000000E+00 0. -1.
          1   -1    0    0  501    0 -0.00000000000E+00 -0.00000000000E+00 -0.24618003548E+03  0.24618003548E+03  0.00000000000E+00 0. -1.
         25    2    1    2    0    0 -0.66289079407E+02  0.16641923333E+03  0.32141396583E+03  0.38861433229E+03  0.12499823421E+03 0.  0.
          2    1    1    2  501    0  0.20379441782E+01 -0.79192911294E+02 -0.20016508869E+03  0.21527130126E+03  0.00000000000E+00 0. -1.
          1    1    1    2  502    0  0.64251135228E+02 -0.87226322040E+02  0.59866914346E+03  0.60839245801E+03  0.00000000000E+00 0. -1.
         22    1    3    3    0    0 -0.78188731623E+02  0.17742513523E+03  0.25551269449E+03  0.32074895699E+03  0.00000000000E+00 0.  1.
         22    1    3    3    0    0  0.11899652217E+02 -0.11005901899E+02  0.65901271345E+02  0.67865375299E+02  0.00000000000E+00 0.  1.
</event>
<event>
 7    1  0.5676357E-006  0.1279326E+03  0.7818608E-02  0.1264135E+00
          2   -1    0    0  502    0  0.00000000000E+00  0.00000000000E+00  0.71689166530E+03  0.71689166530E+03  0.00000000000E+00 0. -1.
          1   -1    0    0  501    0 -0.00000000000E+00 -0.00000000000E+00 -0.25455047322E+03  0.25455047322E+03  0.00000000000E+00 0. -1.
         25    2    1    2    0    0  0.45230356359E+01 -0.61055115459E+02  0.47727148549E+02  0.14714156955E+03  0.12499830322E+03 0.  0.
          2    1    1    2  501    0 -0.57525736628E+02  0.13544072367E+03 -0.17443482883E+03  0.22821242191E+03  0.00000000000E+00 0. -1.
          1    1    1    2  502    0  0.53002700992E+02 -0.74385608214E+02  0.58904887236E+03  0.59608814705E+03  0.00000000000E+00 0. -1.
         22    1    3    3    0    0 -0.55562342487E+02 -0.54431005425E+02  0.18275914458E+02  0.79899419920E+02  0.00000000000E+00 0. -1.
         22    1    3    3    0    0  0.60085378123E+02 -0.66241100346E+01  0.29451234090E+02  0.67242149634E+02  0.00000000000E+00 0. -1.
</event>
<event>
 7    1  0.5676357E-006  0.3422346E+02  0.7818608E-02  0.1557249E+00
          2   -1    0    0  502    0  0.00000000000E+00  0.00000000000E+00  0.73991174024E+03  0.73991174024E+03  0.00000000000E+00 0. -1.
          1   -1    0    0  501    0 -0.00000000000E+00 -0.00000000000E+00 -0.28412129702E+03  0.28412129702E+03  0.00000000000E+00 0. -1.
         25    2    1    2    0    0 -0.44939307114E+02  0.39612359407E+02  0.74809791141E+01  0.13881498375E+03  0.12499981730E+03 0.  0.
          2    1    1    2  501    0  0.32985665104E+02 -0.76772074894E+01 -0.21670221344E+03  0.21933272197E+03  0.00000000000E+00 0. -1.
          1    1    1    2  502    0  0.11953642010E+02 -0.31935151918E+02  0.66501167754E+03  0.66588533153E+03  0.00000000000E+00 0. -1.
         22    1    3    3    0    0 -0.17154272182E+02 -0.14860536046E+02 -0.49987616597E+02  0.54898692140E+02  0.00000000000E+00 0. -1.
         22    1    3    3    0    0 -0.27785034932E+02  0.54472895454E+02  0.57468595711E+02  0.83916291614E+02  0.00000000000E+00 0. -1.
</event>
<event>
 7    1  0.5676357E-006  0.1128042E+03  0.7818608E-02  0.1289183E+00
          2   -1    0    0  502    0  0.00000000000E+00  0.00000000000E+00  0.91186287328E+03  0.91186287328E+03  0.00000000000E+00 0. -1.
          1   -1    0    0  501    0 -0.00000000000E+00 -0.00000000000E+00 -0.67041710593E+03  0.67041710593E+03  0.00000000000E+00 0. -1.
         25    2    1    2    0    0  0.87631853628E+02  0.14538430259E+02 -0.16522710654E+03  0.22542248741E+03  0.12499837348E+03 0.  0.
          2    1    1    2  501    0 -0.10604867060E+03  0.64866246554E+02 -0.46502614673E+03  0.48135565606E+03  0.00000000000E+00 0. -1.
          1    1    1    2  502    0  0.18416816975E+02 -0.79404676813E+02  0.87169902062E+03  0.87550183575E+03  0.00000000000E+00 0. -1.
         22    1    3    3    0    0  0.19762063622E+02  0.55623976789E+02 -0.24582563951E+02  0.63944260124E+02  0.00000000000E+00 0. -1.
         22    1    3    3    0    0  0.67869790006E+02 -0.41085546530E+02 -0.14064454258E+03  0.16147822729E+03  0.00000000000E+00 0. -1.
</event>
<event>
 7    1  0.5676357E-006  0.1225712E+03  0.7818608E-02  0.1425005E+00
          2   -1    0    0  502    0  0.00000000000E+00  0.00000000000E+00  0.16204893637E+04  0.16204893637E+04  0.00000000000E+00 0. -1.
          1   -1    0    0  501    0 -0.00000000000E+00 -0.00000000000E+00 -0.67235627715E+02  0.67235627715E+02  0.00000000000E+00 0. -1.
         25    2    1    2    0    0  0.12708597474E+03 -0.64912565555E+02  0.41536668834E+03  0.45663786233E+03  0.12499666151E+03 0.  0.
          2    1    1    2  501    0 -0.10699144726E+03  0.52217112007E+02  0.29775551582E+02  0.12272074007E+03  0.00000000000E+00 0. -1.
          1    1    1    2  502    0 -0.20094527487E+02  0.12695453549E+02  0.11081114960E+04  0.11083663890E+04  0.00000000000E+00 0. -1.
         22    1    3    3    0    0  0.38040708812E+02 -0.47382209574E+02  0.31711986847E+03  0.32288880484E+03  0.00000000000E+00 0.  1.
         22    1    3    3    0    0  0.89045265932E+02 -0.17530355981E+02  0.98246819863E+02  0.13374905749E+03  0.00000000000E+00 0.  1.
</event>
<event>
 7    1  0.6359288E-006  0.4666210E+02  0.7818608E-02  0.1488836E+00
          2   -1    0    0  502    0  0.00000000000E+00  0.00000000000E+00  0.10187826253E+04  0.10187826253E+04  0.00000000000E+00 0. -1.
          1   -1    0    0  501    0 -0.00000000000E+00 -0.00000000000E+00 -0.10231409886E+04  0.10231409886E+04  0.00000000000E+00 0. -1.
         25    2    1    2    0    0  0.13420927544E+02  0.12721285016E+01 -0.12329396273E+03  0.17609248693E+03  0.12500169240E+03 0.  0.
          2    1    1    2  501    0  0.14171537204E+02  0.36530095712E+02 -0.87245601931E+03  0.87333543727E+03  0.00000000000E+00 0. -1.
          1    1    1    2  502    0 -0.27592464748E+02 -0.37802224213E+02  0.99139161876E+03  0.99249568967E+03  0.00000000000E+00 0. -1.
         22    1    3    3    0    0 -0.26390411727E+02  0.48595895136E+02 -0.26724340862E+02  0.61418281071E+02  0.00000000000E+00 0. -1.
         22    1    3    3    0    0  0.39811339271E+02 -0.47323766634E+02 -0.96569621864E+02  0.11467420586E+03  0.00000000000E+00 0. -1.
</event>
<event>
 7    1  0.5676357E-006  0.5888350E+02  0.7818608E-02  0.1438378E+00
          2   -1    0    0  502    0  0.00000000000E+00  0.00000000000E+00  0.33635018198E+04  0.33635018198E+04  0.00000000000E+00 0. -1.
          1   -1    0    0  501    0 -0.00000000000E+00 -0.00000000000E+00 -0.11824164963E+03  0.11824164963E+03  0.00000000000E+00 0. -1.
         25    2    1    2    0    0 -0.98442107602E+02 -0.17941988885E+02  0.11925792455E+04  0.12032789567E+04  0.12498890948E+03 0.  0.
          2    1    1    2  501    0  0.58589605788E+02 -0.23435530035E+01 -0.10503046285E+03  0.12028978458E+03  0.00000000000E+00 0. -1.
          1    1    1    2  502    0  0.39852501813E+02  0.20285541889E+02  0.21577113876E+04  0.21581747282E+04  0.00000000000E+00 0. -1.
         22    1    3    3    0    0 -0.27873849851E+02 -0.31621435771E+02  0.93240643668E+03  0.93335878946E+03  0.00000000000E+00 0. -1.
         22    1    3    3    0    0 -0.70568257751E+02  0.13679446886E+02  0.26017280878E+03  0.26992016727E+03  0.00000000000E+00 0. -1.
</event>
<event>
 7    1  0.5676357E-006  0.1077617E+03  0.7818608E-02  0.1306137E+00
          2   -1    0    0  502    0  0.00000000000E+00  0.00000000000E+00  0.53281451960E+03  0.53281451960E+03  0.00000000000E+00 0. -1.
          1   -1    0    0  501    0 -0.00000000000E+00 -0.00000000000E+00 -0.21280369177E+04  0.21280369177E+04  0.00000000000E+00 0. -1.
         25    2    1    2    0    0  0.13935910944E+03  0.54338334997E+02 -0.12855231411E+02  0.19535718093E+03  0.12500222051E+03 0.  0.
          2    1    1    2  501    0 -0.71212959575E+02 -0.80342984241E+02 -0.20194829721E+04  0.20223347289E+04  0.00000000000E+00 0. -1.
          1    1    1    2  502    0 -0.68146149868E+02  0.26004649244E+02  0.43711580542E+03  0.44315952756E+03  0.00000000000E+00 0. -1.
         22    1    3    3    0    0  0.11890659697E+03  0.84614839028E+02 -0.38240661701E+02  0.15086682205E+03  0.00000000000E+00 0.  1.
         22    1    3    3    0    0  0.20452512473E+02 -0.30276504031E+02  0.25385430289E+02  0.44490358885E+02  0.00000000000E+00 0.  1.
</event>
<event>
 7    1  0.5676357E-006  0.6027134E+02  0.7818608E-02  0.1506021E+00
          2   -1    0    0  502    0  0.00000000000E+00  0.00000000000E+00  0.66959051234E+03  0.66959051234E+03  0.00000000000E+00 0. -1.
          1   -1    0    0  501    0 -0.00000000000E+00 -0.00000000000E+00 -0.18098169923E+03  0.18098169923E+03  0.00000000000E+00 0. -1.
         25    2    1    2    0    0  0.24342009105E+02  0.23863822804E+02 -0.17485603057E+02  0.13073936269E+03  0.12500007678E+03 0.  0.
          2    1    1    2  501    0  0.22206810192E+02  0.15261304083E+02 -0.10363406166E+03  0.10707972991E+03  0.00000000000E+00 0. -1.
          1    1    1    2  502    0 -0.46548819296E+02 -0.39125126888E+02  0.60972847783E+03  0.61275311897E+03  0.00000000000E+00 0. -1.
         22    1    3    3    0    0 -0.16698069783E+02  0.56519686206E+02  0.24234069494E+02  0.63722763496E+02  0.00000000000E+00 0. -1.
         22    1    3    3    0    0  0.41040078888E+02 -0.32655863401E+02 -0.41719672551E+02  0.67016599193E+02  0.00000000000E+00 0. -1.
</event>
<event>
 7    1  0.5676357E-006  0.6653213E+02  0.7818608E-02  0.1396164E+00
          2   -1    0    0  502    0  0.00000000000E+00  0.00000000000E+00  0.78888339922E+02  0.78888339922E+02  0.00000000000E+00 0. -1.
          1   -1    0    0  501    0 -0.00000000000E+00 -0.00000000000E+00 -0.12007107965E+04  0.12007107965E+04  0.00000000000E+00 0. -1.
         25    2    1    2    0    0 -0.42696127042E+02 -0.46946429101E+02 -0.18202377923E+03  0.22975000377E+03  0.12500192622E+03 0.  0.
          2    1    1    2  501    0 -0.26275388238E+02  0.48126026485E+02 -0.97212402031E+03  0.97366915393E+03  0.00000000000E+00 0. -1.
          1    1    1    2  502    0  0.68971515280E+02 -0.11795973841E+01  0.32325342915E+02  0.76179978764E+02  0.00000000000E+00 0. -1.
         22    1    3    3    0    0  0.64859264226E+01  0.74087333529E+01 -0.14904502424E+03  0.14936992944E+03  0.00000000000E+00 0.  1.
         22    1    3    3    0    0 -0.49182053465E+02 -0.54355162454E+02 -0.32978754990E+02  0.80380074328E+02  0.00000000000E+00 0.  1.
</event>
<event>
 7    1  0.5676357E-006  0.9987630E+02  0.7818608E-02  0.1381151E+00
          2   -1    0    0  502    0  0.00000000000E+00  0.00000000000E+00  0.23443547725E+04  0.23443547725E+04  0.00000000000E+00 0. -1.
          1   -1    0    0  501    0 -0.00000000000E+00 -0.00000000000E+00 -0.24974244146E+03  0.24974244146E+03  0.00000000000E+00 0. -1.
         25    2    1    2    0    0 -0.34116819818E+01  0.78799704970E+02 -0.60228817726E+01  0.14792771930E+03  0.12500120782E+03 0.  0.
          2    1    1    2  501    0  0.40056005074E+02 -0.97672515083E+02 -0.15643505234E+03  0.18872289036E+03  0.00000000000E+00 0. -1.
          1    1    1    2  502    0 -0.36644323092E+02  0.18872810113E+02  0.22570702652E+04  0.22574466043E+04  0.00000000000E+00 0. -1.
         22    1    3    3    0    0  0.58225652406E+02  0.55892614954E+02  0.65655208611E+01  0.80977262665E+02  0.00000000000E+00 0. -1.
         22    1    3    3    0    0 -0.61637334388E+02  0.22907090016E+02 -0.12588402634E+02  0.66950456640E+02  0.00000000000E+00 0. -1.
</event>
<event>
 7    1  0.5676357E-006  0.3983003E+02  0.7818608E-02  0.1549313E+00
          2   -1    0    0  502    0  0.00000000000E+00  0.00000000000E+00  0.74342100934E+03  0.74342100934E+03  0.00000000000E+00 0. -1.
          1   -1    0    0  501    0 -0.00000000000E+00 -0.00000000000E+00 -0.29278613237E+03  0.29278613237E+03  0.00000000000E+00 0. -1.
         25    2    1    2    0    0  0.21706521003E+02  0.84584878505E+01  0.44652047967E+03  0.46427110364E+03  0.12499759932E+03 0.  0.
          2    1    1    2  501    0 -0.35038204952E+02  0.19101421965E+02 -0.28168691256E+03  0.28449966051E+03  0.00000000000E+00 0. -1.
          1    1    1    2  502    0  0.13331683949E+02 -0.27559909815E+02  0.28580130986E+03  0.28743637756E+03  0.00000000000E+00 0. -1.
         22    1    3    3    0    0 -0.38064508616E+02  0.43025703648E+02  0.22645702459E+03  0.23362983965E+03  0.00000000000E+00 0. -1.
         22    1    3    3    0    0  0.59771029619E+02 -0.34567215798E+02  0.22006345508E+03  0.23064126399E+03  0.00000000000E+00 0. -1.
</event>
<event>
 7    1  0.5676357E-006  0.9888257E+02  0.7818608E-02  0.1399008E+00
          2   -1    0    0  502    0  0.00000000000E+00  0.00000000000E+00  0.51161086970E+02  0.51161086970E+02  0.00000000000E+00 0. -1.
          1   -1    0    0  501    0 -0.00000000000E+00 -0.00000000000E+00 -0.22526004616E+04  0.22526004616E+04  0.00000000000E+00 0. -1.
         25    2    1    2    0    0  0.96692302396E+02  0.26629140101E+02 -0.73921637602E+03  0.75638978708E+03  0.12500458781E+03 0.  0.
          2    1    1    2  501    0 -0.16622149884E+02  0.32010099871E+02 -0.14464268008E+04  0.14468764399E+04  0.00000000000E+00 0. -1.
          1    1    1    2  502    0 -0.80070152512E+02 -0.58639239972E+02 -0.15796197797E+02  0.10049532155E+03  0.00000000000E+00 0. -1.
         22    1    3    3    0    0  0.82528436903E+02 -0.36883205236E+02 -0.51694056580E+03  0.52478458656E+03  0.00000000000E+00 0. -1.
         22    1    3    3    0    0  0.14163865494E+02  0.63512345337E+02 -0.22227581022E+03  0.23160520051E+03  0.00000000000E+00 0. -1.
</event>
<event>
 7    1  0.5676357E-006  0.1279576E+03  0.7818608E-02  0.1343571E+00
          2   -1    0    0  502    0  0.00000000000E+00  0.00000000000E+00  0.39227630774E+02  0.39227630774E+02  0.00000000000E+00 0. -1.
          1   -1    0    0  501    0 -0.00000000000E+00 -0.00000000000E+00 -0.28863596095E+04  0.28863596095E+04  0.00000000000E+00 0. -1.
         25    2    1    2    0    0  0.91654970924E+02  0.30360359626E+02 -0.46245805427E+03  0.48868709733E+03  0.12500096804E+03 0.  0.
          2    1    1    2  501    0  0.40834007482E+02  0.16585552895E+02 -0.22198197474E+04  0.22202572391E+04  0.00000000000E+00 0. -1.
          1    1    1    2  502    0 -0.13248897841E+03 -0.46945912520E+02 -0.16485417707E+03  0.21664290387E+03  0.00000000000E+00 0. -1.
         22    1    3    3    0    0  0.10032270265E+03  0.59685032373E+02 -0.27498938854E+03  0.29874087696E+03  0.00000000000E+00 0. -1.
         22    1    3    3    0    0 -0.86677317231E+01 -0.29324672748E+02 -0.18746866573E+03  0.18994622037E+03  0.00000000000E+00 0. -1.
</event>
<event>
 7    1  0.5676357E-006  0.8413302E+02  0.7818608E-02  0.1410441E+00
          2   -1    0    0  502    0  0.00000000000E+00  0.00000000000E+00  0.15973541806E+04  0.15973541806E+04  0.00000000000E+00 0. -1.
          1   -1    0    0  501    0 -0.00000000000E+00 -0.00000000000E+00 -0.83087220863E+03  0.83087220863E+03  0.00000000000E+00 0. -1.
         25    2    1    2    0    0  0.70622319564E+00  0.52536324863E+02  0.18220590292E+03  0.22712194169E+03  0.12499928463E+03 0.  0.
          2    1    1    2  501    0 -0.28469580372E+02 -0.79564347134E+02 -0.80593518733E+03  0.81035333560E+03  0.00000000000E+00 0. -1.
          1    1    1    2  502    0  0.27763357177E+02  0.27028022271E+02  0.13902112564E+04  0.13907511120E+04  0.00000000000E+00 0. -1.
         22    1    3    3    0    0 -0.11660876077E+02 -0.23228039969E+02 -0.34519165996E+01  0.26218954974E+02  0.00000000000E+00 0. -1.
         22    1    3    3    0    0  0.12367099272E+02  0.75764364833E+02  0.18565781952E+03  0.20090298672E+03  0.00000000000E+00 0. -1.
</event>
<event>
 7    1  0.5676357E-006  0.2975431E+02  0.7818608E-02  0.1610670E+00
          2   -1    0    0  502    0  0.00000000000E+00  0.00000000000E+00  0.95313714348E+03  0.95313714348E+03  0.00000000000E+00 0. -1.
          1   -1    0    0  501    0 -0.00000000000E+00 -0.00000000000E+00 -0.19864767550E+03  0.19864767550E+03  0.00000000000E+00 0. -1.
         25    2    1    2    0    0 -0.23510910388E+01  0.33505426774E+01  0.63013846372E+02  0.14006142196E+03  0.12501881187E+03 0.  0.
          2    1    1    2  501    0 -0.10765058963E+02 -0.28150269654E+02 -0.15847223715E+03  0.16131265952E+03  0.00000000000E+00 0. -1.
          1    1    1    2  502    0  0.13116150002E+02  0.24799726976E+02  0.84994785876E+03  0.85041073750E+03  0.00000000000E+00 0. -1.
         22    1    3    3    0    0  0.41937913427E+02  0.45375241621E+01 -0.19448894115E+02  0.46450373415E+02  0.00000000000E+00 0. -1.
         22    1    3    3    0    0 -0.44289004466E+02 -0.11869814847E+01  0.82462740486E+02  0.93611048547E+02  0.00000000000E+00 0. -1.
</event>
<event>
 7    1  0.5676357E-006  0.2862583E+02  0.7818608E-02  0.1614281E+00
          2   -1    0    0  502    0  0.00000000000E+00  0.00000000000E+00  0.11237416202E+03  0.11237416202E+03  0.00000000000E+00 0. -1.
          1   -1    0    0  501    0 -0.00000000000E+00 -0.00000000000E+00 -0.13619605461E+03  0.13619605461E+03  0.00000000000E+00 0. -1.
         25    2    1    2    0    0 -0.17270950107E+02  0.46437442245E+01 -0.50169291585E+02  0.13587685621E+03  0.12500284860E+03 0.  0.
          2    1    1    2  501    0  0.20856377352E+02  0.23673884134E+02 -0.33726230208E+02  0.46183328921E+02  0.00000000000E+00 0. -1.
          1    1    1    2  502    0 -0.35854272459E+01 -0.28317628358E+02  0.60073629198E+02  0.66510031495E+02  0.00000000000E+00 0. -1.
         22    1    3    3    0    0  0.33199846719E+02  0.25707300676E+02  0.20329816303E+02  0.46651865570E+02  0.00000000000E+00 0. -1.
         22    1    3    3    0    0 -0.50470796826E+02 -0.21063556451E+02 -0.70499107888E+02  0.89224990645E+02  0.00000000000E+00 0. -1.
</event>
<event>
 7    1  0.5676357E-006  0.4279695E+02  0.7818608E-02  0.1518359E+00
          2   -1    0    0  502    0  0.00000000000E+00  0.00000000000E+00  0.18850582592E+04  0.18850582592E+04  0.00000000000E+00 0. -1.
          1   -1    0    0  501    0 -0.00000000000E+00 -0.00000000000E+00 -0.14872220202E+03  0.14872220202E+03  0.00000000000E+00 0. -1.
         25    2    1    2    0    0 -0.23507206143E+02 -0.14715061355E+02  0.15851313435E+03  0.20376009255E+03  0.12499055878E+03 0.  0.
          2    1    1    2  501    0  0.33335795220E+01  0.43207860539E+02 -0.12219086988E+03  0.12964814170E+03  0.00000000000E+00 0. -1.
          1    1    1    2  502    0  0.20173626621E+02 -0.28492799183E+02  0.17000137927E+04  0.17003722270E+04  0.00000000000E+00 0. -1.
         22    1    3    3    0    0  0.91442477130E+00  0.34203293588E+01 -0.21198547007E+02  0.21492166498E+02  0.00000000000E+00 0.  1.
         22    1    3    3    0    0 -0.24421630915E+02 -0.18135390714E+02  0.17971168135E+03  0.18226792605E+03  0.00000000000E+00 0.  1.
</event>
<event>
 7    1  0.5676357E-006  0.1656566E+03  0.7818608E-02  0.1316078E+00
          2   -1    0    0  502    0  0.00000000000E+00  0.00000000000E+00  0.84565397230E+03  0.84565397230E+03  0.00000000000E+00 0. -1.
          1   -1    0    0  501    0 -0.00000000000E+00 -0.00000000000E+00 -0.37249529637E+03  0.37249529637E+03  0.00000000000E+00 0. -1.
         25    2    1    2    0    0  0.11359186762E+03  0.10625218921E+03 -0.14119023996E+03  0.24444378033E+03  0.12500175112E+03 0.  0.
          2    1    1    2  501    0  0.33164443690E+02 -0.27934962768E+02 -0.16818584936E+03  0.17368570003E+03  0.00000000000E+00 0. -1.
          1    1    1    2  502    0 -0.14675631131E+03 -0.78317226445E+02  0.78253476525E+03  0.80001978831E+03  0.00000000000E+00 0. -1.
         22    1    3    3    0    0  0.11663181849E+03  0.29035419445E+02 -0.68445109540E+02  0.13831402563E+03  0.00000000000E+00 0. -1.
         22    1    3    3    0    0 -0.30399508610E+01  0.77216769768E+02 -0.72745130417E+02  0.10612975471E+03  0.00000000000E+00 0. -1.
</event>
<event>
 7    1  0.5676357E-006  0.5286467E+02  0.7818608E-02  0.1448347E+00
          2   -1    0    0  502    0  0.00000000000E+00  0.00000000000E+00  0.11176730811E+04  0.11176730811E+04  0.00000000000E+00 0. -1.
          1   -1    0    0  501    0 -0.00000000000E+00 -0.00000000000E+00 -0.28569391072E+03  0.28569391072E+03  0.00000000000E+00 0. -1.
         25    2    1    2    0    0 -0.16318337193E+02 -0.63221175093E+02  0.10309709541E+03  0.17468971244E+03  0.12499711774E+03 0.  0.
          2    1    1    2  501    0 -0.26547509365E+02  0.45854452514E+02 -0.24653493830E+03  0.25216438462E+03  0.00000000000E+00 0. -1.
          1    1    1    2  502    0  0.42865846558E+02  0.17366722579E+02  0.97541701325E+03  0.97651289474E+03  0.00000000000E+00 0. -1.
         22    1    3    3    0    0 -0.10976916951E+02 -0.55867654620E+02 -0.12865657398E+02  0.58371334392E+02  0.00000000000E+00 0.  1.
         22    1    3    3    0    0 -0.53414202422E+01 -0.73535204733E+01  0.11596275281E+03  0.11631837805E+03  0.00000000000E+00 0.  1.
</event>
<event>
 7    1  0.5676357E-006  0.3650710E+03  0.7818608E-02  0.1219409E+00
          2   -1    0    0  502    0  0.00000000000E+00  0.00000000000E+00  0.76506438981E+03  0.76506438981E+03  0.00000000000E+00 0. -1.
          1   -1    0    0  501    0 -0.00000000000E+00 -0.00000000000E+00 -0.19500408755E+04  0.19500408755E+04  0.00000000000E+00 0. -1.
         25    2    1    2    0    0  0.27744905406E+03 -0.21452028084E+03  0.13031843307E+02  0.37254744875E+03  0.12499937656E+03 0.  0.
          2    1    1    2  501    0 -0.25780077580E+03  0.26087676974E+03 -0.17501286420E+04  0.17881465803E+04  0.00000000000E+00 0. -1.
          1    1    1    2  502    0 -0.19648278256E+02 -0.46356488904E+02  0.55212031300E+03  0.55441123629E+03  0.00000000000E+00 0. -1.
         22    1    3    3    0    0  0.13075257565E+03 -0.14316352033E+03  0.59705040293E+02  0.20287119418E+03  0.00000000000E+00 0. -1.
         22    1    3    3    0    0  0.14669647841E+03 -0.71356760509E+02 -0.46673196986E+02  0.16967625457E+03  0.00000000000E+00 0. -1.
</event>
<event>
 7    1  0.5676357E-006  0.4564743E+02  0.7818608E-02  0.1512958E+00
          2   -1    0    0  502    0  0.00000000000E+00  0.00000000000E+00  0.13401914665E+04  0.13401914665E+04  0.00000000000E+00 0. -1.
          1   -1    0    0  501    0 -0.00000000000E+00 -0.00000000000E+00 -0.55402324259E+03  0.55402324259E+03  0.00000000000E+00 0. -1.
         25    2    1    2    0    0  0.63679585047E+02 -0.33467136917E+02  0.85705016795E+03  0.86909982573E+03  0.12499751157E+03 0.  0.
          2    1    1    2  501    0 -0.45360941810E+02  0.48923841785E+01 -0.54644287102E+03  0.54834420007E+03  0.00000000000E+00 0. -1.
          1    1    1    2  502    0 -0.18318643237E+02  0.28574752739E+02  0.47556092694E+03  0.47677068326E+03  0.00000000000E+00 0. -1.
         22    1    3    3    0    0  0.85002715351E+02 -0.63416415125E+02  0.57935924868E+03  0.58898577433E+03  0.00000000000E+00 0.  1.
         22    1    3    3    0    0 -0.21323130304E+02  0.29949278208E+02  0.27769091926E+03  0.28011405140E+03  0.00000000000E+00 0.  1.
</event>
<event>
 7    1  0.5676357E-006  0.1042667E+03  0.7818608E-02  0.1378765E+00
          2   -1    0    0  502    0  0.00000000000E+00  0.00000000000E+00  0.72943920075E+03  0.72943920075E+03  0.00000000000E+00 0. -1.
          1   -1    0    0  501    0 -0.00000000000E+00 -0.00000000000E+00 -0.25085088889E+03  0.25085088889E+03  0.00000000000E+00 0. -1.
         25    2    1    2    0    0 -0.27368866154E+02 -0.76017278630E+02 -0.14118776144E+02  0.14950612897E+03  0.12500024510E+03 0.  0.
          2    1    1    2  501    0  0.76053989255E+01  0.11109155334E+03 -0.15000221066E+03  0.18681498473E+03  0.00000000000E+00 0. -1.
          1    1    1    2  502    0  0.19763467229E+02 -0.35074274708E+02  0.64270929867E+03  0.64396897594E+03  0.00000000000E+00 0. -1.
         22    1    3    3    0    0  0.14031455026E+02 -0.84391989085E+02 -0.45488913953E+02  0.96892367318E+02  0.00000000000E+00 0. -1.
         22    1    3    3    0    0 -0.41400321180E+02  0.83747104550E+01  0.31370137810E+02  0.52613761652E+02  0.00000000000E+00 0. -1.
</event>
<event>
 7    1  0.5676357E-006  0.3337438E+03  0.7818608E-02  0.1258691E+00
          2   -1    0    0  502    0  0.00000000000E+00  0.00000000000E+00  0.12759906090E+04  0.12759906090E+04  0.00000000000E+00 0. -1.
          1   -1    0    0  501    0 -0.00000000000E+00 -0.00000000000E+00 -0.94506179109E+03  0.94506179109E+03  0.00000000000E+00 0. -1.
         25    2    1    2    0    0 -0.31731746371E+03 -0.94757163023E+02  0.73016017150E+03  0.81143547382E+03  0.12499743762E+03 0.  0.
          2    1    1    2  501    0  0.53316322596E+01 -0.36544561704E+02 -0.84727790261E+03  0.84808241082E+03  0.00000000000E+00 0. -1.
          1    1    1    2  502    0  0.31198583145E+03  0.13130172473E+03  0.44804654902E+03  0.56153451544E+03  0.00000000000E+00 0. -1.
         22    1    3    3    0    0 -0.32525010538E+03 -0.82114910039E+02  0.66787541116E+03  0.74738748607E+03  0.00000000000E+00 0. -1.
         22    1    3    3    0    0  0.79326416708E+01 -0.12642252984E+02  0.62284760346E+02  0.64047987757E+02  0.00000000000E+00 0. -1.
</event>
<event>
 7    1  0.5676357E-006  0.2101876E+03  0.7818608E-02  0.1275679E+00
          2   -1    0    0  502    0  0.00000000000E+00  0.00000000000E+00  0.10174988717E+04  0.10174988717E+04  0.00000000000E+00 0. -1.
          1   -1    0    0  501    0 -0.00000000000E+00 -0.00000000000E+00 -0.46488758643E+03  0.46488758643E+03  0.00000000000E+00 0. -1.
         25    2    1    2    0    0 -0.16927942034E+03 -0.62380442169E+02 -0.24375252832E+03  0.32800479443E+03  0.12500003355E+03 0.  0.
          2    1    1    2  501    0 -0.39735188431E+02  0.29887154874E+02 -0.16380741375E+03  0.17118702061E+03  0.00000000000E+00 0. -1.
          1    1    1    2  502    0  0.20901460877E+03  0.32493287296E+02  0.96017122737E+03  0.98319464312E+03  0.00000000000E+00 0. -1.
         22    1    3    3    0    0 -0.83905983981E+01 -0.56070078295E+02 -0.82725806912E+02  0.10028865814E+03  0.00000000000E+00 0.  1.
         22    1    3    3    0    0 -0.16088882194E+03 -0.63103638745E+01 -0.16102672141E+03  0.22771613629E+03  0.00000000000E+00 0.  1.
</event>
<event>
 7    1  0.5676357E-006  0.1256928E+03  0.7818608E-02  0.1242876E+00
          2   -1    0    0  502    0  0.00000000000E+00  0.00000000000E+00  0.35550314487E+03  0.35550314487E+03  0.00000000000E+00 0. -1.
          1   -1    0    0  501    0 -0.00000000000E+00 -0.00000000000E+00 -0.79234765077E+03  0.79234765077E+03  0.00000000000E+00 0. -1.
         25    2    1    2    0    0 -0.24308705754E+02 -0.30104254145E+02 -0.70348077947E+02  0.14855916432E+03  0.12499517567E+03 0.  0.
          2    1    1    2  501    0  0.12265844351E+03 -0.48164518365E+02 -0.66367186353E+03  0.67662785713E+03  0.00000000000E+00 0. -1.
          1    1    1    2  502    0 -0.98349737755E+02  0.78268772510E+02  0.29717543558E+03  0.32266377420E+03  0.00000000000E+00 0. -1.
         22    1    3    3    0    0 -0.53357213316E+02 -0.65452850818E+02 -0.38468120221E+02  0.92794742127E+02  0.00000000000E+00 0.  1.
         22    1    3    3    0    0  0.29048507561E+02  0.35348596673E+02 -0.31879957726E+02  0.55764422197E+02  0.00000000000E+00 0.  1.
</event>
<event>
 7    1  0.5676357E-006  0.1025493E+03  0.7818608E-02  0.1335868E+00
          2   -1    0    0  502    0  0.00000000000E+00  0.00000000000E+00  0.22175065423E+04  0.22175065423E+04  0.00000000000E+00 0. -1.
          1   -1    0    0  501    0 -0.00000000000E+00 -0.00000000000E+00 -0.18550623216E+03  0.18550623216E+03  0.00000000000E+00 0. -1.
         25    2    1    2    0    0 -0.38434168242E+02  0.50091904064E+02  0.86465966168E+03  0.87592702926E+03  0.12500178363E+03 0.  0.
          2    1    1    2  501    0 -0.34544946646E+02  0.47570314794E+02 -0.17222537348E+03  0.18198315158E+03  0.00000000000E+00 0. -1.
          1    1    1    2  502    0  0.72979114888E+02 -0.97662218858E+02  0.13395660219E+04  0.13451025936E+04  0.00000000000E+00 0. -1.
         22    1    3    3    0    0  0.39015206135E+02  0.55140539470E+01  0.45137585067E+03  0.45309242950E+03  0.00000000000E+00 0. -1.
         22    1    3    3    0    0 -0.77449374377E+02  0.44577850117E+02  0.41328381102E+03  0.42283459977E+03  0.00000000000E+00 0. -1.
</event>
<event>
 7    1  0.5676357E-006  0.4291561E+02  0.7818608E-02  0.1523859E+00
          2   -1    0    0  502    0  0.00000000000E+00  0.00000000000E+00  0.25239932351E+04  0.25239932351E+04  0.00000000000E+00 0. -1.
          1   -1    0    0  501    0 -0.00000000000E+00 -0.00000000000E+00 -0.63334398566E+03  0.63334398566E+03  0.00000000000E+00 0. -1.
         25    2    1    2    0    0  0.69916590967E+02 -0.30344065982E+02  0.15638479671E+02  0.14723779262E+03  0.12500125397E+03 0.  0.
          2    1    1    2  501    0 -0.29714549858E+02  0.15598522167E+02 -0.56686033626E+03  0.56785289397E+03  0.00000000000E+00 0. -1.
          1    1    1    2  502    0 -0.40202041109E+02  0.14745543815E+02  0.24418711060E+04  0.24422465342E+04  0.00000000000E+00 0. -1.
         22    1    3    3    0    0  0.10474046361E+03 -0.18985405936E+02  0.25182308989E+02  0.10938536942E+03  0.00000000000E+00 0. -1.
         22    1    3    3    0    0 -0.34823872645E+02 -0.11358660046E+02 -0.95438293176E+01  0.37852423200E+02  0.00000000000E+00 0. -1.
</event>
<event>
 7    1  0.5676357E-006  0.5969727E+02  0.7818608E-02  0.1485428E+00
          2   -1    0    0  502    0  0.00000000000E+00  0.00000000000E+00  0.33351706264E+03  0.33351706264E+03  0.00000000000E+00 0. -1.
          1   -1    0    0  501    0 -0.00000000000E+00 -0.00000000000E+00 -0.19143396266E+03  0.19143396266E+03  0.00000000000E+00 0. -1.
         25    2    1    2    0    0  0.16686788750E+01  0.69276921977E+02 -0.15621429236E+03  0.21173151963E+03  0.12500101942E+03 0.  0.
          2    1    1    2  501    0 -0.81040820304E+01 -0.38578525291E+02  0.53681638418E+02  0.66601028989E+02  0.00000000000E+00 0. -1.
          1    1    1    2  502    0  0.64354031554E+01 -0.30698396686E+02  0.24461575393E+03  0.24661847669E+03  0.00000000000E+00 0. -1.
         22    1    3    3    0    0  0.61276056340E+02  0.44706137096E+02 -0.10424990445E+03  0.12892414961E+03  0.00000000000E+00 0. -1.
         22    1    3    3    0    0 -0.59607377465E+02  0.24570784881E+02 -0.51964387918E+02  0.82807370020E+02  0.00000000000E+00 0. -1.
</event>
<event>
 7    1  0.5676357E-006  0.1320986E+03  0.7818608E-02  0.1341759E+00
          2   -1    0    0  502    0  0.00000000000E+00  0.00000000000E+00  0.18891314613E+03  0.18891314613E+03  0.00000000000E+00 0. -1.
          1   -1    0    0  501    0 -0.00000000000E+00 -0.00000000000E+00 -0.49511326556E+03  0.49511326556E+03  0.00000000000E+00 0. -1.
         25    2    1    2    0    0  0.13672906059E+03 -0.29081831726E+02 -0.90916056438E+02  0.20840084730E+03  0.12499837955E+03 0.  0.
          2    1    1    2  501    0 -0.11393160164E+03  0.65970355689E+02 -0.32876286558E+03  0.35414336005E+03  0.00000000000E+00 0. -1.
          1    1    1    2  502    0 -0.22797458951E+02 -0.36888523963E+02  0.11347880259E+03  0.12148220434E+03  0.00000000000E+00 0. -1.
         22    1    3    3    0    0  0.18825752352E+02 -0.43730009000E+02  0.14287393851E+02  0.49707668038E+02  0.00000000000E+00 0. -1.
         22    1    3    3    0    0  0.11790330823E+03  0.14648177274E+02 -0.10520345029E+03  0.15869317926E+03  0.00000000000E+00 0. -1.
</event>
<event>
 7    1  0.5676357E-006  0.6970898E+02  0.7818608E-02  0.1488074E+00
          2   -1    0    0  502    0  0.00000000000E+00  0.00000000000E+00  0.73468939478E+02  0.73468939478E+02  0.00000000000E+00 0. -1.
          1   -1    0    0  501    0 -0.00000000000E+00 -0.00000000000E+00 -0.61414482421E+03  0.61414482421E+03  0.00000000000E+00 0. -1.
         25    2    1    2    0    0  0.29442162756E+02  0.81856694854E+02 -0.45583873616E+03  0.48060539282E+03  0.12500092312E+03 0.  0.
          2    1    1    2  501    0 -0.22240363646E+02 -0.56491119843E+02 -0.13628546453E+03  0.14919654231E+03  0.00000000000E+00 0. -1.
          1    1    1    2  502    0 -0.72017991094E+01 -0.25365575011E+02  0.51448315959E+02  0.57811828557E+02  0.00000000000E+00 0. -1.
         22    1    3    3    0    0 -0.25473476824E+02  0.90073067385E+02 -0.23658687169E+03  0.25443152978E+03  0.00000000000E+00 0.  1.
         22    1    3    3    0    0  0.54915639580E+02 -0.82163725306E+01 -0.21925186447E+03  0.22617386304E+03  0.00000000000E+00 0.  1.
</event>
<event>
 7    1  0.5676357E-006  0.8751526E+02  0.7818608E-02  0.1350332E+00
          2   -1    0    0  502    0  0.00000000000E+00  0.00000000000E+00  0.12847630353E+03  0.12847630353E+03  0.00000000000E+00 0. -1.
          1   -1    0    0  501    0 -0.00000000000E+00 -0.00000000000E+00 -0.75842412848E+03  0.75842412848E+03  0.00000000000E+00 0. -1.
         25    2    1    2    0    0  0.60069850316E+02  0.63913334097E+02 -0.10582091829E+03  0.18578563836E+03  0.12499974192E+03 0.  0.
          2    1    1    2  501    0 -0.54829968175E+02  0.26303116122E+02 -0.58756431750E+03  0.59070297657E+03  0.00000000000E+00 0. -1.
          1    1    1    2  502    0 -0.52398821413E+01 -0.90216450218E+02  0.63437410854E+02  0.11041181708E+03  0.00000000000E+00 0. -1.
         22    1    3    3    0    0 -0.17265672252E+02  0.44523582233E+02  0.63415013140E+01  0.48173306427E+02  0.00000000000E+00 0.  1.
         22    1    3    3    0    0  0.77335522568E+02  0.19389751863E+02 -0.11216241961E+03  0.13761233193E+03  0.00000000000E+00 0.  1.
</event>
<event>
 7    1  0.5676357E-006  0.3385837E+03  0.7818608E-02  0.1270122E+00
          2   -1    0    0  502    0  0.00000000000E+00  0.00000000000E+00  0.10228510157E+04  0.10228510157E+04  0.00000000000E+00 0. -1.
          1   -1    0    0  501    0 -0.00000000000E+00 -0.00000000000E+00 -0.11515978606E+04  0.11515978606E+04  0.00000000000E+00 0. -1.
         25    2    1    2    0    0  0.33920560402E+03  0.14468822691E+03  0.30170253625E+03  0.49258989128E+03  0.12500102319E+03 0.  0.
          2    1    1    2  501    0 -0.31127497956E+03 -0.12795135051E+03 -0.10288899524E+04  0.10825332305E+04  0.00000000000E+00 0. -1.
          1    1    1    2  502    0 -0.27930624467E+02 -0.16736876405E+02  0.59844057116E+03  0.59932575452E+03  0.00000000000E+00 0. -1.
         22    1    3    3    0    0  0.61659125032E+02 -0.21793863951E+02  0.43202270826E+02  0.78378928356E+02  0.00000000000E+00 0.  1.
         22    1    3    3    0    0  0.27754647899E+03  0.16648209086E+03  0.25850026543E+03  0.41421096292E+03  0.00000000000E+00 0.  1.
</event>
<event>
 7    1  0.5676357E-006  0.4862272E+02  0.7818608E-02  0.1460396E+00
          2   -1    0    0  502    0  0.00000000000E+00  0.00000000000E+00  0.21059878900E+03  0.21059878900E+03  0.00000000000E+00 0. -1.
          1   -1    0    0  501    0 -0.00000000000E+00 -0.00000000000E+00 -0.28223178567E+03  0.28223178567E+03  0.00000000000E+00 0. -1.
         25    2    1    2    0    0 -0.15739868023E+01  0.76282244485E+02  0.17169228939E+01  0.14644758002E+03  0.12498995004E+03 0.  0.
          2    1    1    2  501    0  0.28341723071E+02 -0.38824352280E+02 -0.20309800423E+03  0.20870884724E+03  0.00000000000E+00 0. -1.
          1    1    1    2  502    0 -0.26767736269E+02 -0.37457892205E+02  0.12974808465E+03  0.13767414741E+03  0.00000000000E+00 0. -1.
         22    1    3    3    0    0  0.52667230270E+02  0.38808196019E+00  0.63371912596E+01  0.53048541403E+02  0.00000000000E+00 0. -1.
         22    1    3    3    0    0 -0.54241217072E+02  0.75894162525E+02 -0.46202683657E+01  0.93399038617E+02  0.00000000000E+00 0. -1.
</event>
<event>
 7    1  0.5676357E-006  0.5269822E+02  0.7818608E-02  0.1483436E+00
          2   -1    0    0  502    0  0.00000000000E+00  0.00000000000E+00  0.83191518960E+02  0.83191518960E+02  0.00000000000E+00 0. -1.
          1   -1    0    0  501    0 -0.00000000000E+00 -0.00000000000E+00 -0.83806387046E+03  0.83806387046E+03  0.00000000000E+00 0. -1.
         25    2    1    2    0    0 -0.66205145254E+02 -0.54074216898E+02 -0.10465620112E+03  0.18407849083E+03  0.12499931265E+03 0.  0.
          2    1    1    2  501    0  0.28459196756E+02  0.22099288889E+02 -0.67899209047E+03  0.67994747104E+03  0.00000000000E+00 0. -1.
          1    1    1    2  502    0  0.37745948498E+02  0.31974928009E+02  0.28775940093E+02  0.57229427548E+02  0.00000000000E+00 0. -1.
         22    1    3    3    0    0 -0.40972551780E+01 -0.82428497262E+02 -0.65574658425E+02  0.10541005876E+03  0.00000000000E+00 0. -1.
         22    1    3    3    0    0 -0.62107890076E+02  0.28354280364E+02 -0.39081542693E+02  0.78668432067E+02  0.00000000000E+00 0. -1.
</event>
<event>
 7    1  0.5676357E-006  0.8591346E+02  0.7818608E-02  0.1447187E+00
          2   -1    0    0  502    0  0.00000000000E+00  0.00000000000E+00  0.96947906238E+03  0.96947906238E+03  0.00000000000E+00 0. -1.
          1   -1    0    0  501    0 -0.00000000000E+00 -0.00000000000E+00 -0.12007778267E+04  0.12007778267E+04  0.00000000000E+00 0. -1.
         25    2    1    2    0    0 -0.48778664556E+02  0.58266653684E+02  0.78964366511E+02  0.16624298328E+03  0.12500798880E+03 0.  0.
          2    1    1    2  501    0 -0.25350691427E+02 -0.13463455921E+02 -0.11547449462E+04  0.11551016462E+04  0.00000000000E+00 0. -1.
          1    1    1    2  502    0  0.74129355983E+02 -0.44803197763E+02  0.84448181540E+03  0.84891225960E+03  0.00000000000E+00 0. -1.
         22    1    3    3    0    0 -0.75030156120E+02 -0.69888607290E+01  0.33319814526E+02  0.82392830645E+02  0.00000000000E+00 0.  1.
         22    1    3    3    0    0  0.26251491564E+02  0.65255514412E+02  0.45644551985E+02  0.83850152633E+02  0.00000000000E+00 0.  1.
</event>
<event>
 7    1  0.5676357E-006  0.4742788E+02  0.7818608E-02  0.1512789E+00
          2   -1    0    0  502    0  0.00000000000E+00  0.00000000000E+00  0.13994995372E+04  0.13994995372E+04  0.00000000000E+00 0. -1.
          1   -1    0    0  501    0 -0.00000000000E+00 -0.00000000000E+00 -0.92850480291E+01  0.92850480291E+01  0.00000000000E+00 0. -1.
         25    2    1    2    0    0 -0.50936021003E+02  0.42068503950E+01  0.73945916399E+03  0.75168984493E+03  0.12500236773E+03 0.  0.
          2    1    1    2  501    0  0.40843088331E+02  0.26902410938E+02  0.23390000792E+03  0.23895838819E+03  0.00000000000E+00 0. -1.
          1    1    1    2  502    0  0.10092932671E+02 -0.31109261333E+02  0.41685531731E+03  0.41813635216E+03  0.00000000000E+00 0. -1.
         22    1    3    3    0    0 -0.66445586173E+02  0.25385618854E+02  0.70393267718E+03  0.70751725037E+03  0.00000000000E+00 0.  1.
         22    1    3    3    0    0  0.15509565170E+02 -0.21178768459E+02  0.35526486801E+02  0.44172594554E+02  0.00000000000E+00 0.  1.
</event>
<event>
 7    1  0.5676357E-006  0.4832575E+02  0.7818608E-02  0.1514274E+00
          2   -1    0    0  502    0  0.00000000000E+00  0.00000000000E+00  0.28035273958E+04  0.28035273958E+04  0.00000000000E+00 0. -1.
          1   -1    0    0  501    0 -0.00000000000E+00 -0.00000000000E+00 -0.31016061027E+03  0.31016061027E+03  0.00000000000E+00 0. -1.
         25    2    1    2    0    0  0.12750778705E+02 -0.27779523578E+02  0.75638684102E+02  0.14926509470E+03  0.12499829469E+03 0.  0.
          2    1    1    2  501    0  0.31011901722E+02  0.69355666528E+01 -0.27220472387E+03  0.27405337405E+03  0.00000000000E+00 0. -1.
          1    1    1    2  502    0 -0.43762680427E+02  0.20843956925E+02  0.26899328253E+04  0.26903695373E+04  0.00000000000E+00 0. -1.
         22    1    3    3    0    0  0.97906869036E+01  0.35687973457E+02 -0.13851238778E+02  0.39513868644E+02  0.00000000000E+00 0.  1.
         22    1    3    3    0    0  0.29600918010E+01 -0.63467497035E+02  0.89489922880E+02  0.10975122605E+03  0.00000000000E+00 0.  1.
</event>
<event>
 7    1  0.5676357E-006  0.8117611E+02  0.7818608E-02  0.1474518E+00
          2   -1    0    0  502    0  0.00000000000E+00  0.00000000000E+00  0.15493629512E+04  0.15493629512E+04  0.00000000000E+00 0. -1.
          1   -1    0    0  501    0 -0.00000000000E+00 -0.00000000000E+00 -0.33677125512E+03  0.33677125512E+03  0.00000000000E+00 0. -1.
         25    2    1    2    0    0  0.60805726728E+02  0.17312605861E+00 -0.77531894950E+02  0.15915142067E+03  0.12498245314E+03 0.  0.
          2    1    1    2  501    0 -0.85226334546E+02  0.47627207426E+01 -0.20998289238E+03  0.22666942163E+03  0.00000000000E+00 0. -1.
          1    1    1    2  502    0  0.24420607817E+02 -0.49358468012E+01  0.15001064834E+04  0.15003133640E+04  0.00000000000E+00 0. -1.
         22    1    3    3    0    0  0.60652637600E+02 -0.12742663630E+02 -0.10885932421E+03  0.12526559940E+03  0.00000000000E+00 0.  1.
         22    1    3    3    0    0  0.15308912804E+00  0.12915789689E+02  0.31327429262E+02  0.33885821278E+02  0.00000000000E+00 0.  1.
</event>
<event>
 7    1  0.5676357E-006  0.5180506E+02  0.7818608E-02  0.1435966E+00
          2   -1    0    0  502    0  0.00000000000E+00  0.00000000000E+00  0.68811364526E+03  0.68811364526E+03  0.00000000000E+00 0. -1.
          1   -1    0    0  501    0 -0.00000000000E+00 -0.00000000000E+00 -0.28622278450E+03  0.28622278450E+03  0.00000000000E+00 0. -1.
         25    2    1    2    0    0  0.67916305215E+01  0.24809579478E+01 -0.45484013271E+02  0.13321284357E+03  0.12499833931E+03 0.  0.
          2    1    1    2  501    0  0.18797335931E+02 -0.48222417702E+02 -0.19238246215E+03  0.19922287306E+03  0.00000000000E+00 0. -1.
          1    1    1    2  502    0 -0.25588966453E+02  0.45741459754E+02  0.63975733617E+03  0.64190071314E+03  0.00000000000E+00 0. -1.
         22    1    3    3    0    0  0.26430974127E+02 -0.25878160959E+02  0.31671793647E+02  0.48696797849E+02  0.00000000000E+00 0. -1.
         22    1    3    3    0    0 -0.19639343605E+02  0.28359118906E+02 -0.77155806918E+02  0.84516045717E+02  0.00000000000E+00 0. -1.
</event>
<event>
 7    1  0.5676357E-006  0.6962758E+02  0.7818608E-02  0.1477865E+00
          2   -1    0    0  502    0  0.00000000000E+00  0.00000000000E+00  0.95190527959E+03  0.95190527959E+03  0.00000000000E+00 0. -1.
          1   -1    0    0  501    0 -0.00000000000E+00 -0.00000000000E+00 -0.83668688074E+03  0.83668688074E+03  0.00000000000E+00 0. -1.
         25    2    1    2    0    0  0.57574384227E+02 -0.12104218455E+02  0.12237643982E+03  0.18456360788E+03  0.12500564190E+03 0.  0.
          2    1    1    2  501    0  0.11445043396E+02  0.25953008272E+02 -0.80379103359E+03  0.80429134854E+03  0.00000000000E+00 0. -1.
          1    1    1    2  502    0 -0.69019427623E+02 -0.13848789817E+02  0.79663299263E+03  0.79973720391E+03  0.00000000000E+00 0. -1.
         22    1    3    3    0    0  0.21206220069E+02  0.35227116567E+02 -0.73447078444E+01  0.41768388101E+02  0.00000000000E+00 0.  1.
         22    1    3    3    0    0  0.36368164159E+02 -0.47331335022E+02  0.12972114766E+03  0.14279521978E+03  0.00000000000E+00 0.  1.
</event>
<event>
 7    1  0.5676357E-006  0.9581948E+02  0.7818608E-02  0.1362709E+00
          2   -1    0    0  502    0  0.00000000000E+00  0.00000000000E+00  0.15720923638E+04  0.15720923638E+04  0.00000000000E+00 0. -1.
          1   -1    0    0  501    0 -0.00000000000E+00 -0.00000000000E+00 -0.51598766985E+03  0.51598766985E+03  0.00000000000E+00 0. -1.
         25    2    1    2    0    0  0.29490290019E+02  0.10956883821E+03 -0.18082484988E+02  0.16978437303E+03  0.12499899820E+03 0.  0.
          2    1    1    2  501    0 -0.47543163131E+02 -0.15572094702E+02 -0.41903406131E+03  0.42200993712E+03  0.00000000000E+00 0. -1.
          1    1    1    2  502    0  0.18052873112E+02 -0.93996743507E+02  0.14932212402E+04  0.14962857235E+04  0.00000000000E+00 0. -1.
         22    1    3    3    0    0 -0.36431824165E+02  0.54716341824E+02  0.29116588909E+02  0.71895282350E+02  0.00000000000E+00 0. -1.
         22    1    3    3    0    0  0.65922114184E+02  0.54852496385E+02 -0.47199073897E+02  0.97889090684E+02  0.00000000000E+00 0. -1.
</event>
<event>
 7    1  0.5676357E-006  0.7536797E+02  0.7818608E-02  0.1436842E+00
          2   -1    0    0  502    0  0.00000000000E+00  0.00000000000E+00  0.66738493447E+02  0.66738493447E+02  0.00000000000E+00 0. -1.
          1   -1    0    0  501    0 -0.00000000000E+00 -0.00000000000E+00 -0.24869413035E+04  0.24869413035E+04  0.00000000000E+00 0. -1.
         25    2    1    2    0    0 -0.72078622419E+02  0.38026353169E+02 -0.43678438426E+03  0.46157078986E+03  0.12500265747E+03 0.  0.
          2    1    1    2  501    0  0.75397403732E+02 -0.28402772439E+01 -0.20312422659E+04  0.20326431016E+04  0.00000000000E+00 0. -1.
          1    1    1    2  502    0 -0.33187813129E+01 -0.35186075925E+02  0.47823840039E+02  0.59465905564E+02  0.00000000000E+00 0. -1.
         22    1    3    3    0    0  0.14640326092E+02  0.12849274149E+02 -0.27973061355E+03  0.28040802263E+03  0.00000000000E+00 0. -1.
         22    1    3    3    0    0 -0.86718948511E+02  0.25177079020E+02 -0.15705377071E+03  0.18116276723E+03  0.00000000000E+00 0. -1.
</event>
<event>
 7    1  0.5676357E-006  0.7642199E+02  0.7818608E-02  0.1387945E+00
          2   -1    0    0  502    0  0.00000000000E+00  0.00000000000E+00  0.58558804516E+03  0.58558804516E+03  0.00000000000E+00 0. -1.
          1   -1    0    0  501    0 -0.00000000000E+00 -0.00000000000E+00 -0.11606330137E+04  0.11606330137E+04  0.00000000000E+00 0. -1.
         25    2    1    2    0    0 -0.85033174279E+02 -0.24414509719E+02  0.27913356893E+03  0.31838573647E+03  0.12500887517E+03 0.  0.
          2    1    1    2  501    0  0.48016862065E+02  0.59475087318E+02 -0.11374482998E+04  0.11400138331E+04  0.00000000000E+00 0. -1.
          1    1    1    2  502    0  0.37016312214E+02 -0.35060577599E+02  0.28326976228E+03  0.28782148929E+03  0.00000000000E+00 0. -1.
         22    1    3    3    0    0 -0.13383977566E+02  0.24645975009E+02  0.21712244006E+01  0.28129506839E+02  0.00000000000E+00 0.  1.
         22    1    3    3    0    0 -0.71649196713E+02 -0.49060484728E+02  0.27696234453E+03  0.29025622963E+03  0.00000000000E+00 0.  1.
</event>
<event>
 7    1  0.5676357E-006  0.3050540E+02  0.7818608E-02  0.1654514E+00
          2   -1    0    0  502    0  0.00000000000E+00  0.00000000000E+00  0.24956566711E+03  0.24956566711E+03  0.00000000000E+00 0. -1.
          1   -1    0    0  501    0 -0.00000000000E+00 -0.00000000000E+00 -0.11379266640E+04  0.11379266640E+04  0.00000000000E+00 0. -1.
         25    2    1    2    0    0  0.45381795323E+02 -0.12614669076E+02 -0.22799584923E+02  0.13551721745E+03  0.12500583159E+03 0.  0.
          2    1    1    2  501    0 -0.24760733138E+02  0.17726429370E+02 -0.10579644817E+04  0.10584026477E+04  0.00000000000E+00 0. -1.
          1    1    1    2  502    0 -0.20621062185E+02 -0.51117602940E+01  0.19240306976E+03  0.19357246589E+03  0.00000000000E+00 0. -1.
         22    1    3    3    0    0  0.16134756271E+02  0.53994461450E+02  0.72301640047E+01  0.56815556837E+02  0.00000000000E+00 0.  1.
         22    1    3    3    0    0  0.29247039053E+02 -0.66609130526E+02 -0.30029748928E+02  0.78701660615E+02  0.00000000000E+00 0.  1.
</event>
<event>
 7    1  0.5676357E-006  0.1607571E+03  0.7818608E-02  0.1211332E+00
          2   -1    0    0  502    0  0.00000000000E+00  0.00000000000E+00  0.18740480989E+04  0.18740480989E+04  0.00000000000E+00 0. -1.
          1   -1    0    0  501    0 -0.00000000000E+00 -0.00000000000E+00 -0.43716906754E+03  0.43716906754E+03  0.00000000000E+00 0. -1.
         25    2    1    2    0    0  0.40578170922E+02 -0.47167704612E+01  0.44435178928E+03  0.46340266125E+03  0.12499871173E+03 0.  0.
          2    1    1    2  501    0 -0.16499754224E+03 -0.77696933640E+00 -0.40886308654E+03  0.44090114103E+03  0.00000000000E+00 0. -1.
          1    1    1    2  502    0  0.12441937132E+03  0.54937397976E+01  0.14013903286E+04  0.14069133642E+04  0.00000000000E+00 0. -1.
         22    1    3    3    0    0 -0.19725129269E+01 -0.37844033596E+02  0.36789678906E+03  0.36984335750E+03  0.00000000000E+00 0. -1.
         22    1    3    3    0    0  0.42550683849E+02  0.33127263135E+02  0.76455000220E+02  0.93559303746E+02  0.00000000000E+00 0. -1.
</event>
<event>
 7    1  0.5676357E-006  0.5406912E+02  0.7818608E-02  0.1451750E+00
          2   -1    0    0  502    0  0.00000000000E+00  0.00000000000E+00  0.22552828263E+04  0.22552828263E+04  0.00000000000E+00 0. -1.
          1   -1    0    0  501    0 -0.00000000000E+00 -0.00000000000E+00 -0.31049715152E+03  0.31049715152E+03  0.00000000000E+00 0. -1.
         25    2    1    2    0    0  0.92917352146E+02  0.16150519073E+02  0.51988578901E+03  0.54295579535E+03  0.12500115397E+03 0.  0.
          2    1    1    2  501    0 -0.53741841420E+02  0.41013879952E+01 -0.29624815977E+03  0.30111124036E+03  0.00000000000E+00 0. -1.
          1    1    1    2  502    0 -0.39175510726E+02 -0.20251907068E+02  0.17211480455E+04  0.17217129421E+04  0.00000000000E+00 0. -1.
         22    1    3    3    0    0  0.82237065125E+02 -0.25611997697E+02  0.17151173519E+03  0.19192494526E+03  0.00000000000E+00 0. -1.
         22    1    3    3    0    0  0.10680287021E+02  0.41762516769E+02  0.34837405382E+03  0.35103085009E+03  0.00000000000E+00 0. -1.
</event>
<event>
 7    1  0.5676357E-006  0.1681996E+03  0.7818608E-02  0.1364683E+00
          2   -1    0    0  502    0  0.00000000000E+00  0.00000000000E+00  0.67458082933E+03  0.67458082933E+03  0.00000000000E+00 0. -1.
          1   -1    0    0  501    0 -0.00000000000E+00 -0.00000000000E+00 -0.49248369758E+03  0.49248369758E+03  0.00000000000E+00 0. -1.
         25    2    1    2    0    0  0.12885724464E+03  0.71542286164E+02 -0.58498580700E+02  0.20191233566E+03  0.12499607650E+03 0.  0.
          2    1    1    2  501    0 -0.15631846695E+03 -0.77178866535E+02 -0.34094816563E+03  0.38293301268E+03  0.00000000000E+00 0. -1.
          1    1    1    2  502    0  0.27461222310E+02  0.56365803707E+01  0.58154387808E+03  0.58221917857E+03  0.00000000000E+00 0. -1.
         22    1    3    3    0    0  0.10409878310E+03  0.10697448009E+03 -0.37747713181E+02  0.15396423573E+03  0.00000000000E+00 0.  1.
         22    1    3    3    0    0  0.24758461541E+02 -0.35432193924E+02 -0.20750867519E+02  0.47948099930E+02  0.00000000000E+00 0.  1.
</event>
<event>
 7    1  0.5676357E-006  0.1099047E+03  0.7818608E-02  0.1288298E+00
          2   -1    0    0  502    0  0.00000000000E+00  0.00000000000E+00  0.18652429926E+04  0.18652429926E+04  0.00000000000E+00 0. -1.
          1   -1    0    0  501    0 -0.00000000000E+00 -0.00000000000E+00 -0.46613361314E+03  0.46613361314E+03  0.00000000000E+00 0. -1.
         25    2    1    2    0    0 -0.11013236805E+03  0.67379121407E+02  0.51916801730E+02  0.18705660743E+03  0.12500294232E+03 0.  0.
          2    1    1    2  501    0  0.34603915061E+02 -0.10495905715E+03 -0.38985916636E+03  0.40522093259E+03  0.00000000000E+00 0. -1.
          1    1    1    2  502    0  0.75528452987E+02  0.37579935741E+02  0.17370517441E+04  0.17390990657E+04  0.00000000000E+00 0. -1.
         22    1    3    3    0    0 -0.91584112422E+02  0.34642059956E+02  0.90377973399E+02  0.13325126657E+03  0.00000000000E+00 0. -1.
         22    1    3    3    0    0 -0.18548255625E+02  0.32737061450E+02 -0.38461171668E+02  0.53805340862E+02  0.00000000000E+00 0. -1.
</event>
<event>
 7    1  0.5676357E-006  0.2583358E+03  0.7818608E-02  0.1253221E+00
          2   -1    0    0  502    0  0.00000000000E+00  0.00000000000E+00  0.12014401574E+04  0.12014401574E+04  0.00000000000E+00 0. -1.
          1   -1    0    0  501    0 -0.00000000000E+00 -0.00000000000E+00 -0.17489732404E+04  0.17489732404E+04  0.00000000000E+00 0. -1.
         25    2    1    2    0    0  0.18614841084E+03 -0.95444909360E+02 -0.64049137707E+03  0.68528507728E+03  0.12500188583E+03 0.  0.
          2    1    1    2  501    0  0.46683537805E+02 -0.18900573595E+02 -0.10712191997E+04  0.10724025168E+04  0.00000000000E+00 0. -1.
          1    1    1    2  502    0 -0.23283194864E+03  0.11434548295E+03  0.11641774937E+04  0.11927258036E+04  0.00000000000E+00 0. -1.
         22    1    3    3    0    0  0.57175802786E+02 -0.57802899177E+02 -0.10281555231E+03  0.13107740223E+03  0.00000000000E+00 0.  1.
         22    1    3    3    0    0  0.12897260805E+03 -0.37642010183E+02 -0.53767582476E+03  0.55420767505E+03  0.00000000000E+00 0.  1.
</event>
<event>
 7    1  0.5676357E-006  0.4345167E+02  0.7818608E-02  0.1535813E+00
          2   -1    0    0  502    0  0.00000000000E+00  0.00000000000E+00  0.15817846542E+04  0.15817846542E+04  0.00000000000E+00 0. -1.
          1   -1    0    0  501    0 -0.00000000000E+00 -0.00000000000E+00 -0.16225853462E+04  0.16225853462E+04  0.00000000000E+00 0. -1.
         25    2    1    2    0    0 -0.74953957988E+01  0.72241644945E+02  0.16184775997E+03  0.21701397705E+03  0.12500133043E+03 0.  0.
          2    1    1    2  501    0  0.11460384246E+02 -0.41867492394E+02 -0.15945383621E+04  0.15951290905E+04  0.00000000000E+00 0. -1.
          1    1    1    2  502    0 -0.39649884472E+01 -0.30374152551E+02  0.13918899102E+04  0.13922269328E+04  0.00000000000E+00 0. -1.
         22    1    3    3    0    0  0.49264741762E+02  0.12214341241E+01  0.83691287943E+02  0.97122285598E+02  0.00000000000E+00 0.  1.
         22    1    3    3    0    0 -0.56760137561E+02  0.71020210821E+02  0.78156472023E+02  0.11989169146E+03  0.00000000000E+00 0.  1.
</event>
<event>
 7    1  0.5676357E-006  0.5602674E+02  0.7818608E-02  0.1486637E+00
          2   -1    0    0  502    0  0.00000000000E+00  0.00000000000E+00  0.21880689728E+03  0.21880689728E+03  0.00000000000E+00 0. -1.
          1   -1    0    0  501    0 -0.00000000000E+00 -0.00000000000E+00 -0.26926731813E+03  0.26926731813E+03  0.00000000000E+00 0. -1.
         25    2    1    2    0    0 -0.81169268508E+01 -0.58735434986E+02 -0.70961636412E+02  0.15548564329E+03  0.12499798239E+03 0.  0.
          2    1    1    2  501    0  0.32189196195E+02  0.78758713477E+01 -0.14970166043E+03  0.15332566921E+03  0.00000000000E+00 0. -1.
          1    1    1    2  502    0 -0.24072269345E+02  0.50859563638E+02  0.17020287600E+03  0.17926290292E+03  0.00000000000E+00 0. -1.
         22    1    3    3    0    0 -0.17683020132E+02  0.75798832283E+01  0.29207068512E+02  0.34974228824E+02  0.00000000000E+00 0.  1.
         22    1    3    3    0    0  0.95660932816E+01 -0.66315318214E+02 -0.10016870492E+03  0.12051141447E+03  0.00000000000E+00 0.  1.
</event>
<event>
 7    1  0.5676357E-006  0.5413845E+02  0.7818608E-02  0.1532738E+00
          2   -1    0    0  502    0  0.00000000000E+00  0.00000000000E+00  0.44858705727E+02  0.44858705727E+02  0.00000000000E+00 0. -1.
          1   -1    0    0  501    0 -0.00000000000E+00 -0.00000000000E+00 -0.22807972953E+04  0.22807972953E+04  0.00000000000E+00 0. -1.
         25    2    1    2    0    0 -0.14491131112E+02 -0.62245068832E+02 -0.16331389531E+04  0.16391621110E+04  0.12500057789E+03 0.  0.
          2    1    1    2  501    0 -0.17106282442E+02  0.18348935745E+02 -0.62681454700E+03  0.62731633541E+03  0.00000000000E+00 0. -1.
          1    1    1    2  502    0  0.31597413555E+02  0.43896133087E+02  0.24014910536E+02  0.59177554625E+02  0.00000000000E+00 0. -1.
         22    1    3    3    0    0 -0.50882229307E+02 -0.60289166659E+02 -0.57396535041E+03  0.57936172496E+03  0.00000000000E+00 0. -1.
         22    1    3    3    0    0  0.36391098194E+02 -0.19559021726E+01 -0.10591736027E+04  0.10598003860E+04  0.00000000000E+00 0. -1.
</event>
<event>
 7    1  0.5676357E-006  0.1473525E+03  0.7818608E-02  0.1264283E+00
          2   -1    0    0  502    0  0.00000000000E+00  0.00000000000E+00  0.75054250305E+03  0.75054250305E+03  0.00000000000E+00 0. -1.
          1   -1    0    0  501    0 -0.00000000000E+00 -0.00000000000E+00 -0.26193508290E+04  0.26193508290E+04  0.00000000000E+00 0. -1.
         25    2    1    2    0    0 -0.13571722965E+03 -0.15935788188E+03 -0.38657046283E+03  0.45702876901E+03  0.12499788810E+03 0.  0.
          2    1    1    2  501    0  0.14069941470E+02  0.77924641037E+02 -0.21893384240E+04  0.21907699441E+04  0.00000000000E+00 0. -1.
          1    1    1    2  502    0  0.12164728818E+03  0.81433240840E+02  0.70710056093E+03  0.72209461894E+03  0.00000000000E+00 0. -1.
         22    1    3    3    0    0 -0.14324344993E+03 -0.16556053182E+03 -0.30813685066E+03  0.37799113002E+03  0.00000000000E+00 0. -1.
         22    1    3    3    0    0  0.75262202776E+01  0.62026499401E+01 -0.78433612175E+02  0.79037638988E+02  0.00000000000E+00 0. -1.
</event>
<event>
 7    1  0.5676357E-006  0.1179269E+03  0.7818608E-02  0.1361657E+00
          2   -1    0    0  502    0  0.00000000000E+00  0.00000000000E+00  0.43937102232E+03  0.43937102232E+03  0.00000000000E+00 0. -1.
          1   -1    0    0  501    0 -0.00000000000E+00 -0.00000000000E+00 -0.13315498717E+03  0.13315498717E+03  0.00000000000E+00 0. -1.
         25    2    1    2    0    0  0.34006264686E+02 -0.76263780506E+02  0.30431840611E+02  0.15337579754E+03  0.12500179236E+03 0.  0.
          2    1    1    2  501    0  0.11833359312E+02 -0.39264895397E+02 -0.53372973614E+02  0.67308504036E+02  0.00000000000E+00 0. -1.
          1    1    1    2  502    0 -0.45839623998E+02  0.11552867590E+03  0.32915716815E+03  0.35184170791E+03  0.00000000000E+00 0. -1.
         22    1    3    3    0    0  0.23656674109E+02 -0.87607655503E+02  0.67602325378E+02  0.11315835775E+03  0.00000000000E+00 0. -1.
         22    1    3    3    0    0  0.10349590578E+02  0.11343874996E+02 -0.37170484767E+02  0.40217439785E+02  0.00000000000E+00 0. -1.
</event>
<event>
 7    1  0.5676357E-006  0.1159987E+03  0.7818608E-02  0.1431590E+00
          2   -1    0    0  502    0  0.00000000000E+00  0.00000000000E+00  0.10913902269E+04  0.10913902269E+04  0.00000000000E+00 0. -1.
          1   -1    0    0  501    0 -0.00000000000E+00 -0.00000000000E+00 -0.10055195631E+04  0.10055195631E+04  0.00000000000E+00 0. -1.
         25    2    1    2    0    0 -0.18331644433E+02  0.92953888486E+02  0.10451000564E+03  0.18847949574E+03  0.12500281783E+03 0.  0.
          2    1    1    2  501    0  0.21080247412E+01  0.23796712235E+02 -0.95970954703E+03  0.96000684473E+03  0.00000000000E+00 0. -1.
          1    1    1    2  502    0  0.16223619692E+02 -0.11675060072E+03  0.94107020516E+03  0.94842344955E+03  0.00000000000E+00 0. -1.
         22    1    3    3    0    0  0.21364098311E+02  0.11396680428E+02 -0.22065453541E+02  0.32759628530E+02  0.00000000000E+00 0. -1.
         22    1    3    3    0    0 -0.39695742744E+02  0.81557208057E+02  0.12657545918E+03  0.15571986721E+03  0.00000000000E+00 0. -1.
</event>
<event>
 7    1  0.5676357E-006  0.1228174E+03  0.7818608E-02  0.1355499E+00
          2   -1    0    0  502    0  0.00000000000E+00  0.00000000000E+00  0.31692142080E+04  0.31692142080E+04  0.00000000000E+00 0. -1.
          1   -1    0    0  501    0 -0.00000000000E+00 -0.00000000000E+00 -0.37894365599E+03  0.37894365599E+03  0.00000000000E+00 0. -1.
         25    2    1    2    0    0  0.66602119415E+02  0.96235715913E+02  0.10974813133E+04  0.11107599194E+04  0.12500084043E+03 0.  0.
          2    1    1    2  501    0 -0.99946849316E+02 -0.71576238191E+02 -0.36194143122E+03  0.38224878050E+03  0.00000000000E+00 0. -1.
          1    1    1    2  502    0  0.33344729900E+02 -0.24659477722E+02  0.20547306699E+04  0.20551491641E+04  0.00000000000E+00 0. -1.
         22    1    3    3    0    0  0.54022185307E+02  0.12698422827E+03  0.87816945786E+03  0.88894599805E+03  0.00000000000E+00 0.  1.
         22    1    3    3    0    0  0.12579934108E+02 -0.30748512352E+02  0.21931185548E+03  0.22181392135E+03  0.00000000000E+00 0.  1.
</event>
<event>
 7    1  0.5676357E-006  0.3280519E+02  0.7818608E-02  0.1582192E+00
          2   -1    0    0  502    0  0.00000000000E+00  0.00000000000E+00  0.19508100214E+02  0.19508100214E+02  0.00000000000E+00 0. -1.
          1   -1    0    0  501    0 -0.00000000000E+00 -0.00000000000E+00 -0.12188014567E+04  0.12188014567E+04  0.00000000000E+00 0. -1.
         25    2    1    2    0    0 -0.74795203242E+01 -0.80830995564E+01 -0.89949077909E+03  0.90820016252E+03  0.12499037485E+03 0.  0.
          2    1    1    2  501    0 -0.11636679841E+02  0.34743020691E+02 -0.29462927125E+03  0.29689879973E+03  0.00000000000E+00 0. -1.
          1    1    1    2  502    0  0.19116200166E+02 -0.26659921135E+02 -0.51733061848E+01  0.33210594704E+02  0.00000000000E+00 0. -1.
         22    1    3    3    0    0 -0.27469681968E+02 -0.56066574789E+02 -0.66967195974E+03  0.67257607592E+03  0.00000000000E+00 0.  1.
         22    1    3    3    0    0  0.19990161644E+02  0.47983475233E+02 -0.22981881935E+03  0.23562408660E+03  0.00000000000E+00 0.  1.
</event>
<event>
 7    1  0.5676357E-006  0.1029031E+03  0.7818608E-02  0.1285958E+00
          2   -1    0    0  502    0  0.00000000000E+00  0.00000000000E+00  0.83253531152E+03  0.83253531152E+03  0.00000000000E+00 0. -1.
          1   -1    0    0  501    0 -0.00000000000E+00 -0.00000000000E+00 -0.77962321519E+02  0.77962321519E+02  0.00000000000E+00 0. -1.
         25    2    1    2    0    0  0.33456530620E+02  0.51857357922E+02  0.20751449460E+03  0.24999122091E+03  0.12499928021E+03 0.  0.
          2    1    1    2  501    0  0.73135079106E+02 -0.72389912485E+02  0.12334231033E+00  0.10290313134E+03  0.00000000000E+00 0. -1.
          1    1    1    2  502    0 -0.10659160973E+03  0.20532554564E+02  0.54693515310E+03  0.55760328079E+03  0.00000000000E+00 0. -1.
         22    1    3    3    0    0 -0.17544669932E+02  0.58485257080E+02  0.18319139460E+03  0.19309952821E+03  0.00000000000E+00 0.  1.
         22    1    3    3    0    0  0.51001200552E+02 -0.66278991577E+01  0.24323099996E+02  0.56891692701E+02  0.00000000000E+00 0.  1.
</event>
<event>
 7    1  0.5676357E-006  0.1699366E+03  0.7818608E-02  0.1330411E+00
          2   -1    0    0  502    0  0.00000000000E+00  0.00000000000E+00  0.55177489456E+03  0.55177489456E+03  0.00000000000E+00 0. -1.
          1   -1    0    0  501    0 -0.00000000000E+00 -0.00000000000E+00 -0.11673114395E+03  0.11673114395E+03  0.00000000000E+00 0. -1.
         25    2    1    2    0    0  0.72209539351E+02 -0.17117570167E+03  0.11855891775E+03  0.25336998888E+03  0.12499918350E+03 0.  0.
          2    1    1    2  501    0  0.18628955313E+02  0.32214467631E+02 -0.18284113104E+02  0.41462256243E+02  0.00000000000E+00 0. -1.
          1    1    1    2  502    0 -0.90838494664E+02  0.13896123403E+03  0.33476894597E+03  0.37367379338E+03  0.00000000000E+00 0. -1.
         22    1    3    3    0    0  0.34589579786E+02 -0.13466994006E+03  0.13946539571E+03  0.19693407117E+03  0.00000000000E+00 0. -1.
         22    1    3    3    0    0  0.37619959565E+02 -0.36505761601E+02 -0.20906477959E+02  0.56435917715E+02  0.00000000000E+00 0. -1.
</event>
<event>
 7    1  0.5676357E-006  0.4082299E+02  0.7818608E-02  0.1557657E+00
          2   -1    0    0  502    0  0.00000000000E+00  0.00000000000E+00  0.77318258218E+03  0.77318258218E+03  0.00000000000E+00 0. -1.
          1   -1    0    0  501    0 -0.00000000000E+00 -0.00000000000E+00 -0.70222618417E+02  0.70222618417E+02  0.00000000000E+00 0. -1.
         25    2    1    2    0    0 -0.22470234690E+02 -0.60767481588E+02  0.83329404006E+02  0.16360474841E+03  0.12500050345E+03 0.  0.
          2    1    1    2  501    0  0.20686457384E+02  0.32504976773E+02 -0.17304036189E+02  0.42236627500E+02  0.00000000000E+00 0. -1.
          1    1    1    2  502    0  0.17837773058E+01  0.28262504815E+02  0.63693459595E+03  0.63756382469E+03  0.00000000000E+00 0. -1.
         22    1    3    3    0    0 -0.62909884071E+02 -0.87632883692E+01  0.73262071473E+02  0.96962775607E+02  0.00000000000E+00 0. -1.
         22    1    3    3    0    0  0.40439649381E+02 -0.52004193219E+02  0.10067332533E+02  0.66641972800E+02  0.00000000000E+00 0. -1.
</event>
<event>
 7    1  0.5676357E-006  0.1458162E+03  0.7818608E-02  0.1278990E+00
          2   -1    0    0  502    0  0.00000000000E+00  0.00000000000E+00  0.15702524852E+04  0.15702524852E+04  0.00000000000E+00 0. -1.
          1   -1    0    0  501    0 -0.00000000000E+00 -0.00000000000E+00 -0.44682296450E+03  0.44682296450E+03  0.00000000000E+00 0. -1.
         25    2    1    2    0    0  0.11871605471E+03 -0.51524158277E+02 -0.55799050435E+02  0.18838207606E+03  0.12500412800E+03 0.  0.
          2    1    1    2  501    0  0.27513684207E+02  0.63754008279E+02 -0.31739067674E+03  0.32489755011E+03  0.00000000000E+00 0. -1.
          1    1    1    2  502    0 -0.14622973892E+03 -0.12229850002E+02  0.14966192478E+04  0.15037958235E+04  0.00000000000E+00 0. -1.
         22    1    3    3    0    0  0.66398318212E+02 -0.87165625531E+02 -0.95640292708E+01  0.10999115233E+03  0.00000000000E+00 0.  1.
         22    1    3    3    0    0  0.52317736501E+02  0.35641467254E+02 -0.46235021164E+02  0.78390923726E+02  0.00000000000E+00 0.  1.
</event>
<event>
 7    1  0.5676357E-006  0.4599007E+02  0.7818608E-02  0.1555754E+00
          2   -1    0    0  502    0  0.00000000000E+00  0.00000000000E+00  0.17860571166E+04  0.17860571166E+04  0.00000000000E+00 0. -1.
          1   -1    0    0  501    0 -0.00000000000E+00 -0.00000000000E+00 -0.83382454468E+02  0.83382454468E+02  0.00000000000E+00 0. -1.
         25    2    1    2    0    0 -0.32873095108E+02 -0.58871907220E+01  0.15162712635E+03  0.19932332704E+03  0.12499481533E+03 0.  0.
          2    1    1    2  501    0  0.34987972635E+02  0.31242506808E+02 -0.50178151873E+02  0.68688422505E+02  0.00000000000E+00 0. -1.
          1    1    1    2  502    0 -0.21148775273E+01 -0.25355316086E+02  0.16012256877E+04  0.16014278215E+04  0.00000000000E+00 0. -1.
         22    1    3    3    0    0  0.91375758776E+01  0.12040850115E+02  0.15288446475E+03  0.15362986990E+03  0.00000000000E+00 0. -1.
         22    1    3    3    0    0 -0.42010670985E+02 -0.17928040837E+02 -0.12573383998E+01  0.45693457133E+02  0.00000000000E+00 0. -1.
</event>
<event>
 7    1  0.5676357E-006  0.1148748E+03  0.7818608E-02  0.1329623E+00
          2   -1    0    0  502    0  0.00000000000E+00  0.00000000000E+00  0.10545435754E+04  0.10545435754E+04  0.00000000000E+00 0. -1.
          1   -1    0    0  501    0 -0.00000000000E+00 -0.00000000000E+00 -0.34142179248E+03  0.34142179248E+03  0.00000000000E+00 0. -1.
         25    2    1    2    0    0  0.65583534166E+02  0.68388332334E+02  0.64462214090E+02  0.16958653023E+03  0.12500420088E+03 0.  0.
          2    1    1    2  501    0 -0.33035560360E+02 -0.11326023949E+03 -0.27594809848E+03  0.30011095140E+03  0.00000000000E+00 0. -1.
          1    1    1    2  502    0 -0.32547973806E+02  0.44871907160E+02  0.92460766730E+03  0.92626788625E+03  0.00000000000E+00 0. -1.
         22    1    3    3    0    0  0.83123586624E+02  0.44574102012E+02 -0.46256555988E+01  0.94433987066E+02  0.00000000000E+00 0.  1.
         22    1    3    3    0    0 -0.17540052458E+02  0.23814230321E+02  0.69087869689E+02  0.75152543165E+02  0.00000000000E+00 0.  1.
</event>
<event>
 7    1  0.5676357E-006  0.9741586E+02  0.7818608E-02  0.1415719E+00
          2   -1    0    0  502    0  0.00000000000E+00  0.00000000000E+00  0.74026484783E+03  0.74026484783E+03  0.00000000000E+00 0. -1.
          1   -1    0    0  501    0 -0.00000000000E+00 -0.00000000000E+00 -0.75354260175E+03  0.75354260175E+03  0.00000000000E+00 0. -1.
         25    2    1    2    0    0 -0.34314653878E+02  0.11573918310E+03 -0.46958403385E+03  0.50070660198E+03  0.12499952975E+03 0.  0.
          2    1    1    2  501    0  0.26030195266E+02 -0.18817182428E+02 -0.26415583874E+03  0.26610141781E+03  0.00000000000E+00 0. -1.
          1    1    1    2  502    0  0.82844586119E+01 -0.96922000673E+02  0.72046211868E+03  0.72699942979E+03  0.00000000000E+00 0. -1.
         22    1    3    3    0    0  0.37489955599E+02  0.89612324623E+02 -0.27546201791E+03  0.29208763891E+03  0.00000000000E+00 0. -1.
         22    1    3    3    0    0 -0.71804609477E+02  0.26126858478E+02 -0.19412201594E+03  0.20861896306E+03  0.00000000000E+00 0. -1.
</event>
<event>
 7    1  0.5676357E-006  0.1640882E+03  0.7818608E-02  0.1206371E+00
          2   -1    0    0  502    0  0.00000000000E+00  0.00000000000E+00  0.14520959297E+04  0.14520959297E+04  0.00000000000E+00 0. -1.
          1   -1    0    0  501    0 -0.00000000000E+00 -0.00000000000E+00 -0.23975402517E+04  0.23975402517E+04  0.00000000000E+00 0. -1.
         25    2    1    2    0    0 -0.10929501101E+03  0.24795598956E+03 -0.68238755594E+03  0.74478563894E+03  0.12500119712E+03 0.  0.
          2    1    1    2  501    0  0.24777806677E+02 -0.15094795610E+03 -0.16775540708E+04  0.16845138425E+04  0.00000000000E+00 0. -1.
          1    1    1    2  502    0  0.84517204335E+02 -0.97008033464E+02  0.14144973047E+04  0.14203367000E+04  0.00000000000E+00 0. -1.
         22    1    3    3    0    0 -0.72663935677E-01  0.32996823398E+02 -0.17124927837E+02  0.37176051268E+02  0.00000000000E+00 0. -1.
         22    1    3    3    0    0 -0.10922234708E+03  0.21495916616E+03 -0.66526262810E+03  0.70760958767E+03  0.00000000000E+00 0. -1.
</event>
<event>
 7    1  0.5676357E-006  0.1455058E+03  0.7818608E-02  0.1240636E+00
          2   -1    0    0  502    0  0.00000000000E+00  0.00000000000E+00  0.35929230608E+03  0.35929230608E+03  0.00000000000E+00 0. -1.
          1   -1    0    0  501    0 -0.00000000000E+00 -0.00000000000E+00 -0.83288586990E+03  0.83288586990E+03  0.00000000000E+00 0. -1.
         25    2    1    2    0    0  0.15640049369E+03  0.60844231992E+02  0.13268499340E+03  0.24777761338E+03  0.12500121289E+03 0.  0.
          2    1    1    2  501    0 -0.80104302396E+02  0.62272046436E+02 -0.74020811528E+03  0.74712954764E+03  0.00000000000E+00 0. -1.
          1    1    1    2  502    0 -0.76296191298E+02 -0.12311627843E+03  0.13392955806E+03  0.19727101496E+03  0.00000000000E+00 0. -1.
         22    1    3    3    0    0  0.15071298627E+03  0.44315407339E+02  0.15415241946E+03  0.22009368001E+03  0.00000000000E+00 0. -1.
         22    1    3    3    0    0  0.56875074279E+01  0.16528824653E+02 -0.21467426058E+02  0.27683933368E+02  0.00000000000E+00 0. -1.
</event>
<event>
 7    1  0.5676357E-006  0.1225165E+03  0.7818608E-02  0.1418360E+00
          2   -1    0    0  502    0  0.00000000000E+00  0.00000000000E+00  0.19318882520E+03  0.19318882520E+03  0.00000000000E+00 0. -1.
          1   -1    0    0  501    0 -0.00000000000E+00 -0.00000000000E+00 -0.10403938162E+04  0.10403938162E+04  0.00000000000E+00 0. -1.
         25    2    1    2    0    0 -0.96140260542E+02 -0.20602418587E+02 -0.59922206212E+03  0.61997330136E+03  0.12502961779E+03 0.  0.
          2    1    1    2  501    0 -0.24543697265E+02 -0.48754393677E+01 -0.40956569822E+03  0.41032940931E+03  0.00000000000E+00 0. -1.
          1    1    1    2  502    0  0.12068395781E+03  0.25477857955E+02  0.16158276930E+03  0.20327993076E+03  0.00000000000E+00 0. -1.
         22    1    3    3    0    0 -0.95102582689E+02 -0.48115226458E+02 -0.56978391189E+03  0.57966652698E+03  0.00000000000E+00 0. -1.
         22    1    3    3    0    0 -0.10376778525E+01  0.27512807871E+02 -0.29438150225E+02  0.40306774380E+02  0.00000000000E+00 0. -1.
</event>
<event>
 7    1  0.5676357E-006  0.7504828E+02  0.7818608E-02  0.1475768E+00
          2   -1    0    0  502    0  0.00000000000E+00  0.00000000000E+00  0.98979793141E+02  0.98979793141E+02  0.00000000000E+00 0. -1.
          1   -1    0    0  501    0 -0.00000000000E+00 -0.00000000000E+00 -0.28764908421E+04  0.28764908421E+04  0.00000000000E+00 0. -1.
         25    2    1    2    0    0  0.40111558196E+02 -0.40710747089E+02 -0.75541999533E+03  0.76782202949E+03  0.12499999039E+03 0.  0.
          2    1    1    2  501    0 -0.66764107787E+02  0.38955651742E+02 -0.21122256952E+04  0.21136396042E+04  0.00000000000E+00 0. -1.
          1    1    1    2  502    0  0.26652549591E+02  0.17550953467E+01  0.90134641587E+02  0.94009001555E+02  0.00000000000E+00 0. -1.
         22    1    3    3    0    0  0.77967163350E+02 -0.56464892289E+02 -0.51156877845E+03  0.52054757488E+03  0.00000000000E+00 0.  1.
         22    1    3    3    0    0 -0.37855605153E+02  0.15754145200E+02 -0.24385121688E+03  0.24727445461E+03  0.00000000000E+00 0.  1.
</event>
<event>
 7    1  0.5676357E-006  0.4169174E+02  0.7818608E-02  0.1540914E+00
          2   -1    0    0  502    0  0.00000000000E+00  0.00000000000E+00  0.11942329560E+04  0.11942329560E+04  0.00000000000E+00 0. -1.
          1   -1    0    0  501    0 -0.00000000000E+00 -0.00000000000E+00 -0.16103167523E+02  0.16103167523E+02  0.00000000000E+00 0. -1.
         25    2    1    2    0    0 -0.25601437189E+02  0.64873151684E+02  0.64029683648E+03  0.65610148308E+03  0.12500063158E+03 0.  0.
          2    1    1    2  501    0  0.88049132641E+01 -0.29598052408E+02  0.24504026533E+02  0.39421041593E+02  0.00000000000E+00 0. -1.
          1    1    1    2  502    0  0.16796523925E+02 -0.35275099276E+02  0.51332892542E+03  0.51481359881E+03  0.00000000000E+00 0. -1.
         22    1    3    3    0    0 -0.76432545391E+02  0.38547873989E+02  0.40403419964E+03  0.41300303517E+03  0.00000000000E+00 0.  1.
         22    1    3    3    0    0  0.50831108202E+02  0.26325277696E+02  0.23626263684E+03  0.24309844790E+03  0.00000000000E+00 0.  1.
</event>
<event>
 7    1  0.5676357E-006  0.5555606E+02  0.7818608E-02  0.1422013E+00
          2   -1    0    0  502    0  0.00000000000E+00  0.00000000000E+00  0.10718952315E+04  0.10718952315E+04  0.00000000000E+00 0. -1.
          1   -1    0    0  501    0 -0.00000000000E+00 -0.00000000000E+00 -0.31908424332E+03  0.31908424332E+03  0.00000000000E+00 0. -1.
         25    2    1    2    0    0 -0.11041157354E+02 -0.38590193136E+01  0.35338486510E+03  0.37502433825E+03  0.12500236881E+03 0.  0.
          2    1    1    2  501    0  0.61713531280E+01 -0.55212231460E+02 -0.30450576891E+03  0.30953229137E+03  0.00000000000E+00 0. -1.
          1    1    1    2  502    0  0.48698042263E+01  0.59071250774E+02  0.70393189198E+03  0.70642284519E+03  0.00000000000E+00 0. -1.
         22    1    3    3    0    0  0.29736202431E+02  0.49292406151E+02  0.14010268767E+03  0.15146863085E+03  0.00000000000E+00 0. -1.
         22    1    3    3    0    0 -0.40777359786E+02 -0.53151425464E+02  0.21328217744E+03  0.22355570740E+03  0.00000000000E+00 0. -1.
</event>
<event>
 7    1  0.7086683E-006  0.9631306E+02  0.7818608E-02  0.1339546E+00
          2   -1    0    0  502    0  0.00000000000E+00  0.00000000000E+00  0.16396833832E+04  0.16396833832E+04  0.00000000000E+00 0. -1.
          1   -1    0    0  501    0 -0.00000000000E+00 -0.00000000000E+00 -0.70445340206E+03  0.70445340206E+03  0.00000000000E+00 0. -1.
         25    2    1    2    0    0 -0.10121070980E+03 -0.30655661592E+02 -0.12218024091E+03  0.20429539063E+03  0.12500087199E+03 0.  0.
          2    1    1    2  501    0  0.93605614355E+01  0.59899878954E+02 -0.53805853767E+03  0.54146339264E+03  0.00000000000E+00 0. -1.
          1    1    1    2  502    0  0.91850148360E+02 -0.29244217362E+02  0.15954687597E+04  0.15983780020E+04  0.00000000000E+00 0. -1.
         22    1    3    3    0    0 -0.42097686884E+02  0.99847073965E+00 -0.13012760586E+03  0.13677136393E+03  0.00000000000E+00 0. -1.
         22    1    3    3    0    0 -0.59113022911E+02 -0.31654132332E+02  0.79473649493E+01  0.67524026694E+02  0.00000000000E+00 0. -1.
</event>
<event>
 7    1  0.5676357E-006  0.5531047E+02  0.7818608E-02  0.1507747E+00
          2   -1    0    0  502    0  0.00000000000E+00  0.00000000000E+00  0.54039019494E+02  0.54039019494E+02  0.00000000000E+00 0. -1.
          1   -1    0    0  501    0 -0.00000000000E+00 -0.00000000000E+00 -0.52035909303E+03  0.52035909303E+03  0.00000000000E+00 0. -1.
         25    2    1    2    0    0  0.67769751751E+02  0.28539027380E+02 -0.38945142272E+03  0.41557766703E+03  0.12500068538E+03 0.  0.
          2    1    1    2  501    0 -0.38758493207E+02 -0.29211378849E+02 -0.10668982668E+03  0.11721025794E+03  0.00000000000E+00 0. -1.
          1    1    1    2  502    0 -0.29011258545E+02  0.67235146862E+00  0.29821175855E+02  0.41610187553E+02  0.00000000000E+00 0. -1.
         22    1    3    3    0    0  0.46948630200E+02  0.74336477110E+02 -0.30357437971E+03  0.31604982158E+03  0.00000000000E+00 0.  1.
         22    1    3    3    0    0  0.20821121551E+02 -0.45797449730E+02 -0.85877043010E+02  0.99527845453E+02  0.00000000000E+00 0.  1.
</event>
<event>
 7    1  0.5676357E-006  0.2456368E+03  0.7818608E-02  0.1266355E+00
          2   -1    0    0  502    0  0.00000000000E+00  0.00000000000E+00  0.61954836582E+03  0.61954836582E+03  0.00000000000E+00 0. -1.
          1   -1    0    0  501    0 -0.00000000000E+00 -0.00000000000E+00 -0.24537825600E+04  0.24537825600E+04  0.00000000000E+00 0. -1.
         25    2    1    2    0    0 -0.35214540959E+01 -0.23873307015E+03 -0.88669077754E+03  0.92674059999E+03  0.12498690042E+03 0.  0.
          2    1    1    2  501    0  0.46424908637E+02 -0.34407570771E+01 -0.15214721504E+04  0.15221841595E+04  0.00000000000E+00 0. -1.
          1    1    1    2  502    0 -0.42903454541E+02  0.24217382723E+03  0.57392873381E+03  0.62440616629E+03  0.00000000000E+00 0. -1.
         22    1    3    3    0    0 -0.46406598816E+02 -0.36169516854E+02 -0.13969315917E+03  0.15157831336E+03  0.00000000000E+00 0. -1.
         22    1    3    3    0    0  0.42885144720E+02 -0.20256355329E+03 -0.74699761837E+03  0.77516228663E+03  0.00000000000E+00 0. -1.
</event>
<event>
 7    1  0.5676357E-006  0.7281062E+02  0.7818608E-02  0.1489709E+00
          2   -1    0    0  502    0  0.00000000000E+00  0.00000000000E+00  0.74390278087E+02  0.74390278087E+02  0.00000000000E+00 0. -1.
          1   -1    0    0  501    0 -0.00000000000E+00 -0.00000000000E+00 -0.26397265049E+03  0.26397265049E+03  0.00000000000E+00 0. -1.
         25    2    1    2    0    0 -0.31990711555E+02 -0.42327089393E+02 -0.16840628650E+03  0.21633541001E+03  0.12500137667E+03 0.  0.
          2    1    1    2  501    0 -0.22520507302E+02 -0.10758996990E+02 -0.36688264292E+02  0.44372942230E+02  0.00000000000E+00 0. -1.
          1    1    1    2  502    0  0.54511218857E+02  0.53086086383E+02  0.15512178382E+02  0.77654576343E+02  0.00000000000E+00 0. -1.
         22    1    3    3    0    0 -0.78633168276E+02 -0.12540764465E+02 -0.11089175235E+03  0.13651896083E+03  0.00000000000E+00 0. -1.
         22    1    3    3    0    0  0.46642456720E+02 -0.29786324928E+02 -0.57514534141E+02  0.79816449176E+02  0.00000000000E+00 0. -1.
</event>
<event>
 7    1  0.5676357E-006  0.8214586E+02  0.7818608E-02  0.1502633E+00
          2   -1    0    0  502    0  0.00000000000E+00  0.00000000000E+00  0.17215557936E+04  0.17215557936E+04  0.00000000000E+00 0. -1.
          1   -1    0    0  501    0 -0.00000000000E+00 -0.00000000000E+00 -0.44807181003E+03  0.44807181003E+03  0.00000000000E+00 0. -1.
         25    2    1    2    0    0 -0.61849051792E+02 -0.73148949368E+02 -0.75420877334E+02  0.17461312109E+03  0.12500143726E+03 0.  0.
          2    1    1    2  501    0 -0.83841277077E+00  0.20215578992E+02 -0.32173027868E+03  0.32236585550E+03  0.00000000000E+00 0. -1.
          1    1    1    2  502    0  0.62687464563E+02  0.52933370377E+02  0.16706351396E+04  0.16726486271E+04  0.00000000000E+00 0. -1.
         22    1    3    3    0    0 -0.45233450487E+02  0.28666862061E+02 -0.17706816871E+02  0.56403771036E+02  0.00000000000E+00 0. -1.
         22    1    3    3    0    0 -0.16615601305E+02 -0.10181581143E+03 -0.57714060463E+02  0.11820935005E+03  0.00000000000E+00 0. -1.
</event>
<event>
 7    1  0.5676357E-006  0.2772675E+03  0.7818608E-02  0.1164656E+00
          2   -1    0    0  502    0  0.00000000000E+00  0.00000000000E+00  0.11382902982E+04  0.11382902982E+04  0.00000000000E+00 0. -1.
          1   -1    0    0  501    0 -0.00000000000E+00 -0.00000000000E+00 -0.16083201079E+04  0.16083201079E+04  0.00000000000E+00 0. -1.
         25    2    1    2    0    0 -0.84847457847E+02 -0.19757066847E+03 -0.88666064910E+02  0.26404714548E+03  0.12500385526E+03 0.  0.
          2    1    1    2  501    0 -0.12116414747E+03 -0.63502186212E+00 -0.14098692603E+04  0.14150662476E+04  0.00000000000E+00 0. -1.
          1    1    1    2  502    0  0.20601160531E+03  0.19820569033E+03  0.10285055155E+04  0.10674970130E+04  0.00000000000E+00 0. -1.
         22    1    3    3    0    0 -0.22619536901E+02 -0.27780772003E+02 -0.74491713161E+02  0.82658514821E+02  0.00000000000E+00 0.  1.
         22    1    3    3    0    0 -0.62227920946E+02 -0.16978989646E+03 -0.14174351749E+02  0.18138863066E+03  0.00000000000E+00 0.  1.
</event>
<event>
 7    1  0.5676357E-006  0.4386278E+02  0.7818608E-02  0.1539723E+00
          2   -1    0    0  502    0  0.00000000000E+00  0.00000000000E+00  0.50057441926E+02  0.50057441926E+02  0.00000000000E+00 0. -1.
          1   -1    0    0  501    0 -0.00000000000E+00 -0.00000000000E+00 -0.76760349284E+03  0.76760349284E+03  0.00000000000E+00 0. -1.
         25    2    1    2    0    0 -0.21864352222E+02  0.11505407744E+02 -0.11416184176E+03  0.17107970624E+03  0.12499966187E+03 0.  0.
          2    1    1    2  501    0  0.17874740420E+02 -0.40815066337E+02 -0.61365376026E+03  0.61526930158E+03  0.00000000000E+00 0. -1.
          1    1    1    2  502    0  0.39896118025E+01  0.29309658593E+02  0.10269551106E+02  0.31311926946E+02  0.00000000000E+00 0. -1.
         22    1    3    3    0    0  0.20814811370E+02  0.56841941786E+02 -0.33510187672E+02  0.69189561324E+02  0.00000000000E+00 0.  1.
         22    1    3    3    0    0 -0.42679163592E+02 -0.45336534042E+02 -0.80651654088E+02  0.10189014492E+03  0.00000000000E+00 0.  1.
</event>
<event>
 7    1  0.5676357E-006  0.3007652E+02  0.7818608E-02  0.1632980E+00
          2   -1    0    0  502    0  0.00000000000E+00  0.00000000000E+00  0.28848321075E+02  0.28848321075E+02  0.00000000000E+00 0. -1.
          1   -1    0    0  501    0 -0.00000000000E+00 -0.00000000000E+00 -0.11885497194E+04  0.11885497194E+04  0.00000000000E+00 0. -1.
         25    2    1    2    0    0 -0.18913930443E+02 -0.32106446605E+02 -0.53485431008E+03  0.55052906619E+03  0.12499823613E+03 0.  0.
          2    1    1    2  501    0 -0.95851214194E+01  0.22392362181E+02 -0.63471640574E+03  0.63518360192E+03  0.00000000000E+00 0. -1.
          1    1    1    2  502    0  0.28499051863E+02  0.97140844235E+01  0.98693174990E+01  0.31685372353E+02  0.00000000000E+00 0. -1.
         22    1    3    3    0    0 -0.20879262509E+02  0.42013383151E+02 -0.11540524613E+03  0.12457703962E+03  0.00000000000E+00 0.  1.
         22    1    3    3    0    0  0.19653320658E+01 -0.74119829755E+02 -0.41944906394E+03  0.42595202657E+03  0.00000000000E+00 0.  1.
</event>
<event>
 7    1  0.5676357E-006  0.7072814E+02  0.7818608E-02  0.1520886E+00
          2   -1    0    0  502    0  0.00000000000E+00  0.00000000000E+00  0.31123580415E+03  0.31123580415E+03  0.00000000000E+00 0. -1.
          1   -1    0    0  501    0 -0.00000000000E+00 -0.00000000000E+00 -0.10880271665E+04  0.10880271665E+04  0.00000000000E+00 0. -1.
         25    2    1    2    0    0 -0.77979544280E+01 -0.87546667211E+02 -0.52409767692E+02  0.16154963893E+03  0.12500510012E+03 0.  0.
          2    1    1    2  501    0  0.16065065463E+02  0.68492172487E+02 -0.97936341030E+03  0.98188693517E+03  0.00000000000E+00 0. -1.
          1    1    1    2  502    0 -0.82671110350E+01  0.19054494723E+02  0.25498181561E+03  0.25582639658E+03  0.00000000000E+00 0. -1.
         22    1    3    3    0    0 -0.43755838066E+02 -0.35463728271E+02 -0.75487211527E+02  0.94183695467E+02  0.00000000000E+00 0.  1.
         22    1    3    3    0    0  0.35957883638E+02 -0.52082938940E+02  0.23077443834E+02  0.67365943460E+02  0.00000000000E+00 0.  1.
</event>
<event>
 7    1  0.5676357E-006  0.1217213E+03  0.7818608E-02  0.1261449E+00
          2   -1    0    0  502    0  0.00000000000E+00  0.00000000000E+00  0.22925735883E+04  0.22925735883E+04  0.00000000000E+00 0. -1.
          1   -1    0    0  501    0 -0.00000000000E+00 -0.00000000000E+00 -0.11607063955E+03  0.11607063955E+03  0.00000000000E+00 0. -1.
         25    2    1    2    0    0 -0.20748600410E+02  0.43219226418E+02  0.46008610105E+02  0.14156879558E+03  0.12500610276E+03 0.  0.
          2    1    1    2  501    0 -0.98415683156E+02 -0.52177571379E+01 -0.29957192669E+02  0.10300633511E+03  0.00000000000E+00 0. -1.
          1    1    1    2  502    0  0.11916428357E+03 -0.38001469281E+02  0.21604515313E+04  0.21640690972E+04  0.00000000000E+00 0. -1.
         22    1    3    3    0    0 -0.57110230229E+02 -0.18566041738E+01  0.59087015914E+02  0.82196720284E+02  0.00000000000E+00 0. -1.
         22    1    3    3    0    0  0.36361629819E+02  0.45075830592E+02 -0.13078405809E+02  0.59372075298E+02  0.00000000000E+00 0. -1.
</event>
<event>
 7    1  0.5676357E-006  0.1192066E+03  0.7818608E-02  0.1276772E+00
          2   -1    0    0  502    0  0.00000000000E+00  0.00000000000E+00  0.42217616880E+03  0.42217616880E+03  0.00000000000E+00 0. -1.
          1   -1    0    0  501    0 -0.00000000000E+00 -0.00000000000E+00 -0.13128830797E+04  0.13128830797E+04  0.00000000000E+00 0. -1.
         25    2    1    2    0    0  0.12766406020E+03 -0.53092258097E+02 -0.38746757455E+03  0.42996821459E+03  0.12499857637E+03 0.  0.
          2    1    1    2  501    0 -0.58334596017E+02  0.10524485709E+03 -0.89539978515E+03  0.90344904687E+03  0.00000000000E+00 0. -1.
          1    1    1    2  502    0 -0.69329464183E+02 -0.52152598990E+02  0.39216044878E+03  0.40164198707E+03  0.00000000000E+00 0. -1.
         22    1    3    3    0    0  0.49477839820E+02 -0.23271307889E+01 -0.29333470599E+03  0.29748734748E+03  0.00000000000E+00 0. -1.
         22    1    3    3    0    0  0.78186220380E+02 -0.50765127308E+02 -0.94132868557E+02  0.13248086711E+03  0.00000000000E+00 0. -1.
</event>
<event>
 7    1  0.5676357E-006  0.1053625E+03  0.7818608E-02  0.1279857E+00
          2   -1    0    0  502    0  0.00000000000E+00  0.00000000000E+00  0.29791159792E+04  0.29791159792E+04  0.00000000000E+00 0. -1.
          1   -1    0    0  501    0 -0.00000000000E+00 -0.00000000000E+00 -0.64112858448E+02  0.64112858448E+02  0.00000000000E+00 0. -1.
         25    2    1    2    0    0 -0.27516822416E+02 -0.13404748185E+03  0.90396266954E+03  0.92276824937E+03  0.12500732465E+03 0.  0.
          2    1    1    2  501    0  0.87139662712E+02  0.59692249912E+02 -0.15293511605E+01  0.10563533704E+03  0.00000000000E+00 0. -1.
          1    1    1    2  502    0 -0.59622840295E+02  0.74355231939E+02  0.20125698024E+04  0.20148252512E+04  0.00000000000E+00 0. -1.
         22    1    3    3    0    0 -0.35905525899E+02  0.68094584780E+01  0.98968016364E+02  0.10549997051E+03  0.00000000000E+00 0. -1.
         22    1    3    3    0    0  0.83887034831E+01 -0.14085694033E+03  0.80499465318E+03  0.81726827886E+03  0.00000000000E+00 0. -1.
</event>
<event>
 7    1  0.5676357E-006  0.1412370E+03  0.7818608E-02  0.1321578E+00
          2   -1    0    0  502    0  0.00000000000E+00  0.00000000000E+00  0.62783590708E+03  0.62783590708E+03  0.00000000000E+00 0. -1.
          1   -1    0    0  501    0 -0.00000000000E+00 -0.00000000000E+00 -0.75474392304E+03  0.75474392304E+03  0.00000000000E+00 0. -1.
         25    2    1    2    0    0  0.14878874640E+03 -0.10479198939E+03 -0.55727096330E+02  0.22771626197E+03  0.12501893697E+03 0.  0.
          2    1    1    2  501    0 -0.10195200824E+03  0.92526677240E+02 -0.60418084299E+03  0.61966917708E+03  0.00000000000E+00 0. -1.
          1    1    1    2  502    0 -0.46836738169E+02  0.12265312149E+02  0.53299992336E+03  0.53519439107E+03  0.00000000000E+00 0. -1.
         22    1    3    3    0    0  0.79302410173E+02 -0.77530359146E+02  0.29165184952E+02  0.11467535420E+03  0.00000000000E+00 0. -1.
         22    1    3    3    0    0  0.69486336232E+02 -0.27261630243E+02 -0.84892281283E+02  0.11304090776E+03  0.00000000000E+00 0. -1.
</event>
<event>
 7    1  0.5676357E-006  0.1004717E+03  0.7818608E-02  0.1316372E+00
          2   -1    0    0  502    0  0.00000000000E+00  0.00000000000E+00  0.11848556537E+04  0.11848556537E+04  0.00000000000E+00 0. -1.
          1   -1    0    0  501    0 -0.00000000000E+00 -0.00000000000E+00 -0.26517628405E+03  0.26517628405E+03  0.00000000000E+00 0. -1.
         25    2    1    2    0    0  0.74453253548E+02 -0.76661051414E+01  0.13151974617E+03  0.19627665918E+03  0.12500010870E+03 0.  0.
          2    1    1    2  501    0  0.84078776009E+01  0.70808276378E+02 -0.22460222828E+03  0.23564945439E+03  0.00000000000E+00 0. -1.
          1    1    1    2  502    0 -0.82861131149E+02 -0.63142171237E+02  0.10127618518E+04  0.10181058242E+04  0.00000000000E+00 0. -1.
         22    1    3    3    0    0  0.59249665369E+02 -0.59518281143E+02  0.10933128750E+03  0.13786326219E+03  0.00000000000E+00 0. -1.
         22    1    3    3    0    0  0.15203588179E+02  0.51852176002E+02  0.22188458670E+02  0.58413396988E+02  0.00000000000E+00 0. -1.
</event>
<event>
 7    1  0.5676357E-006  0.1403649E+03  0.7818608E-02  0.1267595E+00
          2   -1    0    0  502    0  0.00000000000E+00  0.00000000000E+00  0.77760844606E+03  0.77760844606E+03  0.00000000000E+00 0. -1.
          1   -1    0    0  501    0 -0.00000000000E+00 -0.00000000000E+00 -0.94922820331E+03  0.94922820331E+03  0.00000000000E+00 0. -1.
         25    2    1    2    0    0 -0.13579907093E+03  0.14020344322E+03 -0.23791834909E+03  0.33215709119E+03  0.12499919695E+03 0.  0.
          2    1    1    2  501    0  0.11869991627E+03 -0.61551033102E+02 -0.65520052101E+03  0.66870466017E+03  0.00000000000E+00 0. -1.
          1    1    1    2  502    0  0.17099154665E+02 -0.78652410116E+02  0.72149911285E+03  0.72597489802E+03  0.00000000000E+00 0. -1.
         22    1    3    3    0    0 -0.55852798940E+02  0.11744060821E+03 -0.20496526693E+03  0.24273976241E+03  0.00000000000E+00 0.  1.
         22    1    3    3    0    0 -0.79946271993E+02  0.22762835008E+02 -0.32953082163E+02  0.89417328786E+02  0.00000000000E+00 0.  1.
</event>
<event>
 7    1  0.5676357E-006  0.1018873E+03  0.7818608E-02  0.1344517E+00
          2   -1    0    0  502    0  0.00000000000E+00  0.00000000000E+00  0.39552919191E+04  0.39552919191E+04  0.00000000000E+00 0. -1.
          1   -1    0    0  501    0 -0.00000000000E+00 -0.00000000000E+00 -0.51962576941E+03  0.51962576941E+03  0.00000000000E+00 0. -1.
         25    2    1    2    0    0  0.26220065915E+02 -0.50488969071E+02  0.23250383830E+03  0.27002914299E+03  0.12498430055E+03 0.  0.
          2    1    1    2  501    0  0.51942408512E+02 -0.17782820273E+02 -0.49862916996E+03  0.50164259352E+03  0.00000000000E+00 0. -1.
          1    1    1    2  502    0 -0.78162474426E+02  0.68271789344E+02  0.37017914814E+04  0.37032459520E+04  0.00000000000E+00 0. -1.
         22    1    3    3    0    0  0.28425708913E+02 -0.81589270446E+02  0.22014179850E+03  0.23648941081E+03  0.00000000000E+00 0. -1.
         22    1    3    3    0    0 -0.22056429984E+01  0.31100301375E+02  0.12362039809E+02  0.33539732183E+02  0.00000000000E+00 0. -1.
</event>
<event>
 7    1  0.5676357E-006  0.7627255E+02  0.7818608E-02  0.1364765E+00
          2   -1    0    0  502    0  0.00000000000E+00  0.00000000000E+00  0.67849847659E+03  0.67849847659E+03  0.00000000000E+00 0. -1.
          1   -1    0    0  501    0 -0.00000000000E+00 -0.00000000000E+00 -0.35181922557E+04  0.35181922557E+04  0.00000000000E+00 0. -1.
         25    2    1    2    0    0  0.51453726513E+02  0.10178415783E+03  0.49260420647E+03  0.52086114796E+03  0.12501972028E+03 0.  0.
          2    1    1    2  501    0 -0.64093999069E+02 -0.41312140310E+02 -0.34980797898E+04  0.34989108233E+04  0.00000000000E+00 0. -1.
          1    1    1    2  502    0  0.12640272555E+02 -0.60472017515E+02  0.16578180422E+03  0.17691876102E+03  0.00000000000E+00 0. -1.
         22    1    3    3    0    0  0.70961351360E+02  0.82553359519E+01  0.25353280510E+03  0.26340567044E+03  0.00000000000E+00 0.  1.
         22    1    3    3    0    0 -0.19507624847E+02  0.93528821874E+02  0.23907140137E+03  0.25745547751E+03  0.00000000000E+00 0.  1.
</event>
<event>
 7    1  0.5676357E-006  0.1711689E+03  0.7818608E-02  0.1183636E+00
          2   -1    0    0  502    0  0.00000000000E+00  0.00000000000E+00  0.36196212797E+04  0.36196212797E+04  0.00000000000E+00 0. -1.
          1   -1    0    0  501    0 -0.00000000000E+00 -0.00000000000E+00 -0.95762351333E+03  0.95762351333E+03  0.00000000000E+00 0. -1.
         25    2    1    2    0    0 -0.96146556844E+01 -0.32490664103E-01  0.33442655986E+02  0.12975489423E+03  0.12500191470E+03 0.  0.
          2    1    1    2  501    0  0.56564762082E+02  0.16463655127E+03 -0.89904280340E+03  0.91574162768E+03  0.00000000000E+00 0. -1.
          1    1    1    2  502    0 -0.46950106398E+02 -0.16460406060E+03  0.35275979138E+04  0.35317482711E+04  0.00000000000E+00 0. -1.
         22    1    3    3    0    0 -0.31089949490E+02 -0.54758208509E+02  0.18063570298E+01  0.62994517890E+02  0.00000000000E+00 0. -1.
         22    1    3    3    0    0  0.21475293806E+02  0.54725717845E+02  0.31636298956E+02  0.66760376342E+02  0.00000000000E+00 0. -1.
</event>
<event>
 7    1  0.5676357E-006  0.8918388E+02  0.7818608E-02  0.1478086E+00
          2   -1    0    0  502    0  0.00000000000E+00  0.00000000000E+00  0.43775594160E+03  0.43775594160E+03  0.00000000000E+00 0. -1.
          1   -1    0    0  501    0 -0.00000000000E+00 -0.00000000000E+00 -0.12566123168E+04  0.12566123168E+04  0.00000000000E+00 0. -1.
         25    2    1    2    0    0 -0.64518705544E+02  0.55645132412E+02  0.81255414554E+01  0.15149321290E+03  0.12500050001E+03 0.  0.
          2    1    1    2  501    0  0.51130237645E+02 -0.73240846774E+02 -0.11829016118E+04  0.11862692553E+04  0.00000000000E+00 0. -1.
          1    1    1    2  502    0  0.13388467899E+02  0.17595714362E+02  0.35591969514E+03  0.35660579023E+03  0.00000000000E+00 0. -1.
         22    1    3    3    0    0 -0.32781143193E+02  0.64730747095E+02  0.57168952069E+02  0.92374033414E+02  0.00000000000E+00 0. -1.
         22    1    3    3    0    0 -0.31737562351E+02 -0.90856146829E+01 -0.49043410613E+02  0.59119179483E+02  0.00000000000E+00 0. -1.
</event>
<event>
 7    1  0.5676357E-006  0.5279941E+02  0.7818608E-02  0.1478675E+00
          2   -1    0    0  502    0  0.00000000000E+00  0.00000000000E+00  0.89112722866E+03  0.89112722866E+03  0.00000000000E+00 0. -1.
          1   -1    0    0  501    0 -0.00000000000E+00 -0.00000000000E+00 -0.34170938342E+03  0.34170938342E+03  0.00000000000E+00 0. -1.
         25    2    1    2    0    0 -0.83782619436E+02  0.15968917800E+02  0.50493272918E+03  0.52712490708E+03  0.12501629099E+03 0.  0.
          2    1    1    2  501    0  0.36925417736E+02 -0.44362561514E+01 -0.32800608504E+03  0.33010779855E+03  0.00000000000E+00 0. -1.
          1    1    1    2  502    0  0.46857201701E+02 -0.11532661648E+02  0.37249120110E+03  0.37560390644E+03  0.00000000000E+00 0. -1.
         22    1    3    3    0    0  0.32137979045E+02  0.50066388480E+01  0.15339430384E+03  0.15680474668E+03  0.00000000000E+00 0. -1.
         22    1    3    3    0    0 -0.11592059848E+03  0.10962278952E+02  0.35153842533E+03  0.37032016040E+03  0.00000000000E+00 0. -1.
</event>
<event>
 7    1  0.5676357E-006  0.6991884E+02  0.7818608E-02  0.1474482E+00
          2   -1    0    0  502    0  0.00000000000E+00  0.00000000000E+00  0.16323384868E+04  0.16323384868E+04  0.00000000000E+00 0. -1.
          1   -1    0    0  501    0 -0.00000000000E+00 -0.00000000000E+00 -0.17482861525E+04  0.17482861525E+04  0.00000000000E+00 0. -1.
         25    2    1    2    0    0 -0.68250350644E+02 -0.34182073392E+02  0.19737909065E+02  0.14778761218E+03  0.12500027502E+03 0.  0.
          2    1    1    2  501    0  0.69712055024E+02  0.52857623136E+01 -0.16834005361E+04  0.16848516477E+04  0.00000000000E+00 0. -1.
          1    1    1    2  502    0 -0.14617043799E+01  0.28896311078E+02  0.15477149613E+04  0.15479853794E+04  0.00000000000E+00 0. -1.
         22    1    3    3    0    0 -0.76182032268E+02 -0.20035087221E+02 -0.38254420408E+02  0.87570014509E+02  0.00000000000E+00 0. -1.
         22    1    3    3    0    0  0.79316816239E+01 -0.14146986171E+02  0.57992329473E+02  0.60217597668E+02  0.00000000000E+00 0. -1.
</event>
<event>
 7    1  0.5676357E-006  0.1187515E+03  0.7818608E-02  0.1262072E+00
          2   -1    0    0  502    0  0.00000000000E+00  0.00000000000E+00  0.74882336155E+03  0.74882336155E+03  0.00000000000E+00 0. -1.
          1   -1    0    0  501    0 -0.00000000000E+00 -0.00000000000E+00 -0.15005694286E+03  0.15005694286E+03  0.00000000000E+00 0. -1.
         25    2    1    2    0    0  0.12340715369E+03  0.13309949588E+03  0.61496174583E+03  0.65326503485E+03  0.12502981862E+03 0.  0.
          2    1    1    2  501    0 -0.11175271332E+03 -0.33375043790E+02 -0.65495000572E+02  0.13376156990E+03  0.00000000000E+00 0. -1.
          1    1    1    2  502    0 -0.11654440370E+02 -0.99724452091E+02  0.49299673436E+02  0.11185369965E+03  0.00000000000E+00 0. -1.
         22    1    3    3    0    0  0.11524222673E+03  0.53868051536E+02  0.47982205896E+03  0.49639877725E+03  0.00000000000E+00 0. -1.
         22    1    3    3    0    0  0.81649269605E+01  0.79231444345E+02  0.13513968687E+03  0.15686625760E+03  0.00000000000E+00 0. -1.
</event>
<event>
 7    1  0.5676357E-006  0.4575173E+02  0.7818608E-02  0.1478778E+00
          2   -1    0    0  502    0  0.00000000000E+00  0.00000000000E+00  0.46337015004E+03  0.46337015004E+03  0.00000000000E+00 0. -1.
          1   -1    0    0  501    0 -0.00000000000E+00 -0.00000000000E+00 -0.94290655325E+02  0.94290655325E+02  0.00000000000E+00 0. -1.
         25    2    1    2    0    0  0.18260321415E+02 -0.49999247441E+01  0.36959644665E+02  0.13171702870E+03  0.12499968692E+03 0.  0.
          2    1    1    2  501    0 -0.34302749528E+01  0.48281452178E+02 -0.32605005483E+02  0.58360532839E+02  0.00000000000E+00 0. -1.
          1    1    1    2  502    0 -0.14830046463E+02 -0.43281527434E+02  0.36472485553E+03  0.36758324382E+03  0.00000000000E+00 0. -1.
         22    1    3    3    0    0 -0.34981290000E+02 -0.76459989164E+01  0.62942299643E+02  0.72414674161E+02  0.00000000000E+00 0. -1.
         22    1    3    3    0    0  0.53241611416E+02  0.26460741723E+01 -0.25982654978E+02  0.59302354543E+02  0.00000000000E+00 0. -1.
</event>
<event>
 7    1  0.5676357E-006  0.6632674E+02  0.7818608E-02  0.1459387E+00
          2   -1    0    0  502    0  0.00000000000E+00  0.00000000000E+00  0.23913458601E+03  0.23913458601E+03  0.00000000000E+00 0. -1.
          1   -1    0    0  501    0 -0.00000000000E+00 -0.00000000000E+00 -0.27763480696E+03  0.27763480696E+03  0.00000000000E+00 0. -1.
         25    2    1    2    0    0  0.83148346391E+02  0.20540510291E+02  0.23790859958E+02  0.15338875267E+03  0.12500617727E+03 0.  0.
          2    1    1    2  501    0 -0.53704255768E+02 -0.37538962575E+02 -0.20575863818E+03  0.21593966283E+03  0.00000000000E+00 0. -1.
          1    1    1    2  502    0 -0.29444090623E+02  0.16998452283E+02  0.14346755727E+03  0.14744097748E+03  0.00000000000E+00 0. -1.
         22    1    3    3    0    0  0.37977214769E+02  0.70368426864E+02 -0.52434028306E+01  0.80134122658E+02  0.00000000000E+00 0. -1.
         22    1    3    3    0    0  0.45171131623E+02 -0.49827916572E+02  0.29034262789E+02  0.73254630009E+02  0.00000000000E+00 0. -1.
</event>
<event>
 7    1  0.5676357E-006  0.2536178E+02  0.7818608E-02  0.1668963E+00
          2   -1    0    0  502    0  0.00000000000E+00  0.00000000000E+00  0.72922146744E+03  0.72922146744E+03  0.00000000000E+00 0. -1.
          1   -1    0    0  501    0 -0.00000000000E+00 -0.00000000000E+00 -0.67996679014E+02  0.67996679014E+02  0.00000000000E+00 0. -1.
         25    2    1    2    0    0  0.33900090136E+02 -0.19677887021E+02  0.17232799799E+02  0.13212908434E+03  0.12499876075E+03 0.  0.
          2    1    1    2  501    0 -0.23340607191E+02 -0.33489970409E+01  0.31991476955E+01  0.23795677574E+02  0.00000000000E+00 0. -1.
          1    1    1    2  502    0 -0.10559482946E+02  0.23026884061E+02  0.64079284093E+03  0.64129338454E+03  0.00000000000E+00 0. -1.
         22    1    3    3    0    0  0.30233906734E+02  0.34587675367E+02 -0.34200611612E+02  0.57271967299E+02  0.00000000000E+00 0. -1.
         22    1    3    3    0    0  0.36661834028E+01 -0.54265562388E+02  0.51433411410E+02  0.74857117038E+02  0.00000000000E+00 0. -1.
</event>
<event>
 7    1  0.5676357E-006  0.1248791E+03  0.7818608E-02  0.1398462E+00
          2   -1    0    0  502    0  0.00000000000E+00  0.00000000000E+00  0.21448488420E+04  0.21448488420E+04  0.00000000000E+00 0. -1.
          1   -1    0    0  501    0 -0.00000000000E+00 -0.00000000000E+00 -0.16476577193E+04  0.16476577193E+04  0.00000000000E+00 0. -1.
         25    2    1    2    0    0 -0.92055792582E+02 -0.59387498983E+02 -0.37507606608E+03  0.41024027972E+03  0.12495554319E+03 0.  0.
          2    1    1    2  501    0  0.92934805602E+02  0.88058074590E+02 -0.12516372909E+04  0.12581681169E+04  0.00000000000E+00 0. -1.
          1    1    1    2  502    0 -0.87901302076E+00 -0.28670575606E+02  0.21239044797E+04  0.21240981647E+04  0.00000000000E+00 0. -1.
         22    1    3    3    0    0 -0.56880804496E+02  0.23175512386E+02 -0.24241480755E+03  0.25007492720E+03  0.00000000000E+00 0. -1.
         22    1    3    3    0    0 -0.35174988086E+02 -0.82563011369E+02 -0.13266125853E+03  0.16016535252E+03  0.00000000000E+00 0. -1.
</event>
<event>
 7    1  0.5676357E-006  0.3681175E+02  0.7818608E-02  0.1558087E+00
          2   -1    0    0  502    0  0.00000000000E+00  0.00000000000E+00  0.27444428056E+04  0.27444428056E+04  0.00000000000E+00 0. -1.
          1   -1    0    0  501    0 -0.00000000000E+00 -0.00000000000E+00 -0.30731696071E+02  0.30731696071E+02  0.00000000000E+00 0. -1.
         25    2    1    2    0    0  0.54547462281E+02  0.38528106783E+02  0.22681399846E+04  0.22725639384E+04  0.12501209365E+03 0.  0.
          2    1    1    2  501    0 -0.33142807840E+02 -0.15665348623E+02 -0.15985703337E+02  0.39992393904E+02  0.00000000000E+00 0. -1.
          1    1    1    2  502    0 -0.21404654441E+02 -0.22862758160E+02  0.46155682824E+03  0.46261816937E+03  0.00000000000E+00 0. -1.
         22    1    3    3    0    0  0.79356613272E+02  0.22495753244E+02  0.82319764820E+03  0.82731970784E+03  0.00000000000E+00 0. -1.
         22    1    3    3    0    0 -0.24809150991E+02  0.16032353539E+02  0.14449423364E+04  0.14452442306E+04  0.00000000000E+00 0. -1.
</event>
<event>
 7    1  0.5676357E-006  0.3616041E+02  0.7818608E-02  0.1574499E+00
          2   -1    0    0  502    0  0.00000000000E+00  0.00000000000E+00  0.68680139750E+03  0.68680139750E+03  0.00000000000E+00 0. -1.
          1   -1    0    0  501    0 -0.00000000000E+00 -0.00000000000E+00 -0.58099144868E+03  0.58099144868E+03  0.00000000000E+00 0. -1.
         25    2    1    2    0    0 -0.19987033213E+02 -0.68796271267E+01  0.88405844300E+02  0.15454675795E+03  0.12498918481E+03 0.  0.
          2    1    1    2  501    0  0.30282479554E+02 -0.19971826972E+02 -0.54695407694E+03  0.54815569387E+03  0.00000000000E+00 0. -1.
          1    1    1    2  502    0 -0.10295446341E+02  0.26851454099E+02  0.56435818146E+03  0.56509039435E+03  0.00000000000E+00 0. -1.
         22    1    3    3    0    0 -0.31292644184E+02 -0.33961400316E+02  0.10921090193E+03  0.11857329966E+03  0.00000000000E+00 0. -1.
         22    1    3    3    0    0  0.11305610972E+02  0.27081773189E+02 -0.20805057630E+02  0.35973458292E+02  0.00000000000E+00 0. -1.
</event>
<event>
 7    1  0.5676357E-006  0.1286598E+03  0.7818608E-02  0.1344216E+00
          2   -1    0    0  502    0  0.00000000000E+00  0.00000000000E+00  0.10846742018E+04  0.10846742018E+04  0.00000000000E+00 0. -1.
          1   -1    0    0  501    0 -0.00000000000E+00 -0.00000000000E+00 -0.73468969108E+03  0.73468969108E+03  0.00000000000E+00 0. -1.
         25    2    1    2    0    0 -0.10262808487E+03 -0.80768571426E+01  0.16544562793E+03  0.23150009595E+03  0.12498911632E+03 0.  0.
          2    1    1    2  501    0 -0.22424211713E+02 -0.37380085566E+02 -0.69598228277E+03  0.69734600737E+03  0.00000000000E+00 0. -1.
          1    1    1    2  502    0  0.12505229658E+03  0.45456942709E+02  0.88052116557E+03  0.89051778957E+03  0.00000000000E+00 0. -1.
         22    1    3    3    0    0 -0.88059560827E+02 -0.60824662441E+02  0.11456725706E+03  0.15677940619E+03  0.00000000000E+00 0.  1.
         22    1    3    3    0    0 -0.14568524045E+02  0.52747805298E+02  0.50878370867E+02  0.74720689764E+02  0.00000000000E+00 0.  1.
</event>
<event>
 7    1  0.5676357E-006  0.1492072E+03  0.7818608E-02  0.1332321E+00
          2   -1    0    0  502    0  0.00000000000E+00  0.00000000000E+00  0.72562015917E+03  0.72562015917E+03  0.00000000000E+00 0. -1.
          1   -1    0    0  501    0 -0.00000000000E+00 -0.00000000000E+00 -0.22041794398E+04  0.22041794398E+04  0.00000000000E+00 0. -1.
         25    2    1    2    0    0  0.14598231237E+03 -0.44007437265E+02 -0.50047309253E+02  0.20341396692E+03  0.12500007487E+03 0.  0.
          2    1    1    2  501    0 -0.12575734081E+03  0.80449729203E+02 -0.20740939259E+04  0.20794597089E+04  0.00000000000E+00 0. -1.
          1    1    1    2  502    0 -0.20224971557E+02 -0.36442291938E+02  0.64558195447E+03  0.64692592316E+03  0.00000000000E+00 0. -1.
         22    1    3    3    0    0  0.70269967894E+02 -0.75281496996E+02 -0.62637715339E+02  0.12053487280E+03  0.00000000000E+00 0.  1.
         22    1    3    3    0    0  0.75712344473E+02  0.31274059731E+02  0.12590406086E+02  0.82879094126E+02  0.00000000000E+00 0.  1.
</event>
<event>
 7    1  0.5676357E-006  0.1132777E+03  0.7818608E-02  0.1291427E+00
          2   -1    0    0  502    0  0.00000000000E+00  0.00000000000E+00  0.13901635530E+04  0.13901635530E+04  0.00000000000E+00 0. -1.
          1   -1    0    0  501    0 -0.00000000000E+00 -0.00000000000E+00 -0.25670588390E+03  0.25670588390E+03  0.00000000000E+00 0. -1.
         25    2    1    2    0    0  0.28534007018E+02  0.78558813231E+02  0.69400559208E+02  0.16561695723E+03  0.12500744862E+03 0.  0.
          2    1    1    2  501    0 -0.74326963942E+02  0.28167143803E+02 -0.19826229127E+03  0.21360201707E+03  0.00000000000E+00 0. -1.
          1    1    1    2  502    0  0.45792956923E+02 -0.10672595703E+03  0.12623194012E+04  0.12676504626E+04  0.00000000000E+00 0. -1.
         22    1    3    3    0    0 -0.39575874744E+02  0.11125955408E+02  0.55046949122E+02  0.68703736093E+02  0.00000000000E+00 0.  1.
         22    1    3    3    0    0  0.68109881762E+02  0.67432857822E+02  0.14353610086E+02  0.96913221132E+02  0.00000000000E+00 0.  1.
</event>
<event>
 7    1  0.5676357E-006  0.3783354E+02  0.7818608E-02  0.1598071E+00
          2   -1    0    0  502    0  0.00000000000E+00  0.00000000000E+00  0.83411054754E+03  0.83411054754E+03  0.00000000000E+00 0. -1.
          1   -1    0    0  501    0 -0.00000000000E+00 -0.00000000000E+00 -0.10793669224E+04  0.10793669224E+04  0.00000000000E+00 0. -1.
         25    2    1    2    0    0 -0.42128800511E+02 -0.20118834448E+02 -0.27312441641E+03  0.30397830082E+03  0.12500502869E+03 0.  0.
          2    1    1    2  501    0  0.20968643594E+02 -0.11239537905E+02 -0.79019942405E+03  0.79055748747E+03  0.00000000000E+00 0. -1.
          1    1    1    2  502    0  0.21160156917E+02  0.31358372353E+02  0.81806746557E+03  0.81894168168E+03  0.00000000000E+00 0. -1.
         22    1    3    3    0    0  0.41781610605E+02 -0.11286109202E+02 -0.13844599361E+03  0.14505299856E+03  0.00000000000E+00 0. -1.
         22    1    3    3    0    0 -0.83910411116E+02 -0.88327252466E+01 -0.13467842280E+03  0.15892530226E+03  0.00000000000E+00 0. -1.
</event>
<event>
 7    1  0.5676357E-006  0.1132448E+03  0.7818608E-02  0.1304763E+00
          2   -1    0    0  502    0  0.00000000000E+00  0.00000000000E+00  0.17501968745E+04  0.17501968745E+04  0.00000000000E+00 0. -1.
          1   -1    0    0  501    0 -0.00000000000E+00 -0.00000000000E+00 -0.16902298866E+04  0.16902298866E+04  0.00000000000E+00 0. -1.
         25    2    1    2    0    0 -0.34656738592E+02  0.39886178328E+02  0.62654716175E+02  0.14947294533E+03  0.12499820469E+03 0.  0.
          2    1    1    2  501    0 -0.69163543573E+02  0.12503904979E+02 -0.16440126659E+04  0.16455143843E+04  0.00000000000E+00 0. -1.
          1    1    1    2  502    0  0.10382028216E+03 -0.52390083307E+02  0.16413249376E+04  0.16454394315E+04  0.00000000000E+00 0. -1.
         22    1    3    3    0    0  0.27030506874E+02 -0.31302376585E+02  0.15883271299E+02  0.44303108118E+02  0.00000000000E+00 0. -1.
         22    1    3    3    0    0 -0.61687245466E+02  0.71188554913E+02  0.46771444876E+02  0.10516983721E+03  0.00000000000E+00 0. -1.
</event>
<event>
 7    1  0.5676357E-006  0.8830408E+02  0.7818608E-02  0.1334290E+00
          2   -1    0    0  502    0  0.00000000000E+00  0.00000000000E+00  0.14047201136E+03  0.14047201136E+03  0.00000000000E+00 0. -1.
          1   -1    0    0  501    0 -0.00000000000E+00 -0.00000000000E+00 -0.63188962078E+03  0.63188962078E+03  0.00000000000E+00 0. -1.
         25    2    1    2    0    0  0.79270535548E+02 -0.57640217553E+02  0.64320727373E+02  0.17137189655E+03  0.12499983388E+03 0.  0.
          2    1    1    2  501    0 -0.63151600363E+02 -0.28344428840E+02 -0.48092239924E+03  0.48587846769E+03  0.00000000000E+00 0. -1.
          1    1    1    2  502    0 -0.16118935185E+02  0.85984646394E+02 -0.74815937558E+02  0.11511126791E+03  0.00000000000E+00 0. -1.
         22    1    3    3    0    0  0.50708492064E+02  0.22414137034E+02 -0.12466826601E+02  0.56825755357E+02  0.00000000000E+00 0. -1.
         22    1    3    3    0    0  0.28562043483E+02 -0.80054354588E+02  0.76787553974E+02  0.11454614119E+03  0.00000000000E+00 0. -1.
</event>
<event>
 7    1  0.5676357E-006  0.5313128E+02  0.7818608E-02  0.1445007E+00
          2   -1    0    0  502    0  0.00000000000E+00  0.00000000000E+00  0.17434025944E+03  0.17434025944E+03  0.00000000000E+00 0. -1.
          1   -1    0    0  501    0 -0.00000000000E+00 -0.00000000000E+00 -0.50534424644E+03  0.50534424644E+03  0.00000000000E+00 0. -1.
         25    2    1    2    0    0 -0.23190764283E+02 -0.11996500457E+02 -0.25421787265E+03  0.28448647676E+03  0.12499640441E+03 0.  0.
          2    1    1    2  501    0  0.21835531321E+02 -0.41811770133E+02 -0.22896877493E+03  0.23377706141E+03  0.00000000000E+00 0. -1.
          1    1    1    2  502    0  0.13552329618E+01  0.53808270590E+02  0.15218266056E+03  0.16142096771E+03  0.00000000000E+00 0. -1.
         22    1    3    3    0    0 -0.44460941851E+02  0.46781885605E+02 -0.11482731813E+03  0.13172180215E+03  0.00000000000E+00 0.  1.
         22    1    3    3    0    0  0.21270177568E+02 -0.58778386062E+02 -0.13939055451E+03  0.15276467461E+03  0.00000000000E+00 0.  1.
</event>
<event>
 7    1  0.5676357E-006  0.7036923E+02  0.7818608E-02  0.1474636E+00
          2   -1    0    0  502    0  0.00000000000E+00  0.00000000000E+00  0.21152951907E+04  0.21152951907E+04  0.00000000000E+00 0. -1.
          1   -1    0    0  501    0 -0.00000000000E+00 -0.00000000000E+00 -0.22095001169E+03  0.22095001169E+03  0.00000000000E+00 0. -1.
         25    2    1    2    0    0 -0.22422131040E+02  0.52363973308E+02  0.86953829179E+02  0.16257255775E+03  0.12499652180E+03 0.  0.
          2    1    1    2  501    0  0.22129445567E+02  0.18300998664E+02 -0.18138355813E+03  0.18364268042E+03  0.00000000000E+00 0. -1.
          1    1    1    2  502    0  0.29268547267E+00 -0.70664971972E+02  0.19887749079E+04  0.19900299642E+04  0.00000000000E+00 0. -1.
         22    1    3    3    0    0 -0.60425638221E+02  0.85426989744E+01  0.84866390831E+02  0.10453009018E+03  0.00000000000E+00 0.  1.
         22    1    3    3    0    0  0.38003507182E+02  0.43821274334E+02  0.20874383483E+01  0.58042467566E+02  0.00000000000E+00 0.  1.
</event>
<event>
 7    1  0.5676357E-006  0.9280616E+02  0.7818608E-02  0.1338757E+00
          2   -1    0    0  502    0  0.00000000000E+00  0.00000000000E+00  0.13667868831E+04  0.13667868831E+04  0.00000000000E+00 0. -1.
          1   -1    0    0  501    0 -0.00000000000E+00 -0.00000000000E+00 -0.45448095519E+03  0.45448095519E+03  0.00000000000E+00 0. -1.
         25    2    1    2    0    0  0.14168625255E+03  0.48445660209E+02  0.15357465895E+03  0.24826018127E+03  0.12500386225E+03 0.  0.
          2    1    1    2  501    0 -0.51675760084E+02 -0.36644954313E+02 -0.40289220497E+03  0.40784232944E+03  0.00000000000E+00 0. -1.
          1    1    1    2  502    0 -0.90010492467E+02 -0.11800705896E+02  0.11616234740E+04  0.11651653276E+04  0.00000000000E+00 0. -1.
         22    1    3    3    0    0 -0.17590251563E+02  0.20980931264E+02  0.47838048692E+02  0.55118919887E+02  0.00000000000E+00 0. -1.
         22    1    3    3    0    0  0.15927650411E+03  0.27464728945E+02  0.10573661026E+03  0.19314126138E+03  0.00000000000E+00 0. -1.
</event>
<event>
 7    1  0.5676357E-006  0.5728881E+02  0.7818608E-02  0.1472986E+00
          2   -1    0    0  502    0  0.00000000000E+00  0.00000000000E+00  0.15150420694E+04  0.15150420694E+04  0.00000000000E+00 0. -1.
          1   -1    0    0  501    0 -0.00000000000E+00 -0.00000000000E+00 -0.36898583575E+03  0.36898583575E+03  0.00000000000E+00 0. -1.
         25    2    1    2    0    0  0.50267111465E+02 -0.74284903164E+02  0.63585515615E+02  0.16647302136E+03  0.12500047884E+03 0.  0.
          2    1    1    2  501    0 -0.39937900917E+02  0.40122069544E+02 -0.31478925619E+03  0.31983916615E+03  0.00000000000E+00 0. -1.
          1    1    1    2  502    0 -0.10329210548E+02  0.34162833620E+02  0.13972599743E+04  0.13977157177E+04  0.00000000000E+00 0. -1.
         22    1    3    3    0    0  0.85083740244E+02 -0.35664229810E+02  0.67523111627E+02  0.11432650937E+03  0.00000000000E+00 0.  1.
         22    1    3    3    0    0 -0.34816628779E+02 -0.38620673354E+02 -0.39375960115E+01  0.52146511985E+02  0.00000000000E+00 0.  1.
</event>
<event>
 7    1  0.5676357E-006  0.7929828E+02  0.7818608E-02  0.1368985E+00
          2   -1    0    0  502    0  0.00000000000E+00  0.00000000000E+00  0.16510054098E+04  0.16510054098E+04  0.00000000000E+00 0. -1.
          1   -1    0    0  501    0 -0.00000000000E+00 -0.00000000000E+00 -0.12305780322E+03  0.12305780322E+03  0.00000000000E+00 0. -1.
         25    2    1    2    0    0  0.42036603288E+02 -0.51956473301E+02  0.78136554008E+03  0.79412155441E+03  0.12502153738E+03 0.  0.
          2    1    1    2  501    0 -0.79408208229E+02  0.84256396549E+01 -0.10193399701E+03  0.12948820288E+03  0.00000000000E+00 0. -1.
          1    1    1    2  502    0  0.37371604942E+02  0.43530833646E+02  0.84851606356E+03  0.85045345578E+03  0.00000000000E+00 0. -1.
         22    1    3    3    0    0 -0.39703452603E+02 -0.15053518192E+02  0.40492145284E+03  0.40714168974E+03  0.00000000000E+00 0. -1.
         22    1    3    3    0    0  0.81740055891E+02 -0.36902955109E+02  0.37644408724E+03  0.38697986466E+03  0.00000000000E+00 0. -1.
</event>
<event>
 7    1  0.7441938E-006  0.8958869E+02  0.7818608E-02  0.1397084E+00
          2   -1    0    0  502    0  0.00000000000E+00  0.00000000000E+00  0.17061348870E+04  0.17061348870E+04  0.00000000000E+00 0. -1.
          1   -1    0    0  501    0 -0.00000000000E+00 -0.00000000000E+00 -0.58762865290E+03  0.58762865290E+03  0.00000000000E+00 0. -1.
         25    2    1    2    0    0 -0.19633347273E+02  0.85626623512E+02 -0.88475382386E+02  0.17655017788E+03  0.12499874017E+03 0.  0.
          2    1    1    2  501    0  0.40390520434E+02  0.16252299066E+01 -0.45300535153E+03  0.45480532541E+03  0.00000000000E+00 0. -1.
          1    1    1    2  502    0 -0.20757173160E+02 -0.87251853419E+02  0.16599869680E+04  0.16624080366E+04  0.00000000000E+00 0. -1.
         22    1    3    3    0    0  0.52582510678E+02  0.47167037870E+02 -0.35266411751E+02  0.78951692119E+02  0.00000000000E+00 0.  1.
         22    1    3    3    0    0 -0.72215857952E+02  0.38459585642E+02 -0.53208970635E+02  0.97598485765E+02  0.00000000000E+00 0.  1.
</event>
<event>
 7    1  0.5676357E-006  0.1455207E+03  0.7818608E-02  0.1354481E+00
          2   -1    0    0  502    0  0.00000000000E+00  0.00000000000E+00  0.75773097853E+03  0.75773097853E+03  0.00000000000E+00 0. -1.
          1   -1    0    0  501    0 -0.00000000000E+00 -0.00000000000E+00 -0.60391273045E+03  0.60391273045E+03  0.00000000000E+00 0. -1.
         25    2    1    2    0    0 -0.12975400047E+03 -0.96932898683E+02 -0.42713333725E+01  0.20463316140E+03  0.12499759585E+03 0.  0.
          2    1    1    2  501    0  0.33577292291E+02 -0.10908726660E+02 -0.49088037134E+03  0.49214832504E+03  0.00000000000E+00 0. -1.
          1    1    1    2  502    0  0.96176708180E+02  0.10784162534E+03  0.64896995279E+03  0.66486222255E+03  0.00000000000E+00 0. -1.
         22    1    3    3    0    0 -0.77894837634E+02 -0.26474464594E+02 -0.59178928918E+02  0.10134420868E+03  0.00000000000E+00 0. -1.
         22    1    3    3    0    0 -0.51859162837E+02 -0.70458434089E+02  0.54907595545E+02  0.10328895272E+03  0.00000000000E+00 0. -1.
</event>
<event>
 7    1  0.5676357E-006  0.8764979E+02  0.7818608E-02  0.1389008E+00
          2   -1    0    0  502    0  0.00000000000E+00  0.00000000000E+00  0.96038213916E+03  0.96038213916E+03  0.00000000000E+00 0. -1.
          1   -1    0    0  501    0 -0.00000000000E+00 -0.00000000000E+00 -0.63495403156E+03  0.63495403156E+03  0.00000000000E+00 0. -1.
         25    2    1    2    0    0  0.53661540530E+02  0.15418733341E+02 -0.77902743045E+02  0.15751817185E+03  0.12500335523E+03 0.  0.
          2    1    1    2  501    0 -0.90857445051E+02  0.82251431656E+01 -0.51268695407E+03  0.52074047392E+03  0.00000000000E+00 0. -1.
          1    1    1    2  502    0  0.37195904521E+02 -0.23643876507E+02  0.91601780472E+03  0.91707752495E+03  0.00000000000E+00 0. -1.
         22    1    3    3    0    0  0.81107520872E+02 -0.12470849252E+02 -0.14973550830E+02  0.83415581563E+02  0.00000000000E+00 0.  1.
         22    1    3    3    0    0 -0.27445980342E+02  0.27889582593E+02 -0.62929192215E+02  0.74102590285E+02  0.00000000000E+00 0.  1.
</event>
<event>
 7    1  0.5676357E-006  0.8055828E+02  0.7818608E-02  0.1505631E+00
          2   -1    0    0  502    0  0.00000000000E+00  0.00000000000E+00  0.34166494166E+04  0.34166494166E+04  0.00000000000E+00 0. -1.
          1   -1    0    0  501    0 -0.00000000000E+00 -0.00000000000E+00 -0.51362116697E+02  0.51362116697E+02  0.00000000000E+00 0. -1.
         25    2    1    2    0    0  0.47008163588E+02 -0.65681176306E+02  0.25845788860E+03  0.29824484693E+03  0.12500289669E+03 0.  0.
          2    1    1    2  501    0  0.14730995433E+02  0.13841063392E+02 -0.27650103979E+02  0.34250627911E+02  0.00000000000E+00 0. -1.
          1    1    1    2  502    0 -0.61739159021E+02  0.51840112914E+02  0.31344795153E+04  0.31355160584E+04  0.00000000000E+00 0. -1.
         22    1    3    3    0    0  0.10302263820E+02 -0.53651630704E+02  0.22396991485E+02  0.59044553894E+02  0.00000000000E+00 0. -1.
         22    1    3    3    0    0  0.36705899768E+02 -0.12029545602E+02  0.23606089711E+03  0.23920029304E+03  0.00000000000E+00 0. -1.
</event>
<event>
 7    1  0.5676357E-006  0.1088238E+03  0.7818608E-02  0.1329937E+00
          2   -1    0    0  502    0  0.00000000000E+00  0.00000000000E+00  0.20760280762E+03  0.20760280762E+03  0.00000000000E+00 0. -1.
          1   -1    0    0  501    0 -0.00000000000E+00 -0.00000000000E+00 -0.13494141575E+04  0.13494141575E+04  0.00000000000E+00 0. -1.
         25    2    1    2    0    0 -0.84780148630E+02  0.11043573973E+03 -0.95272286544E+02  0.20996548439E+03  0.12499987935E+03 0.  0.
          2    1    1    2  501    0  0.26716102226E+02 -0.10462511861E+03 -0.11885883226E+04  0.11934832911E+04  0.00000000000E+00 0. -1.
          1    1    1    2  502    0  0.58064046404E+02 -0.58106211168E+01  0.14204925927E+03  0.15356818962E+03  0.00000000000E+00 0. -1.
         22    1    3    3    0    0 -0.46920306461E+02  0.61693363038E+02 -0.12051195768E+03  0.14328544289E+03  0.00000000000E+00 0. -1.
         22    1    3    3    0    0 -0.37859842169E+02  0.48742376691E+02  0.25239671134E+02  0.66680041493E+02  0.00000000000E+00 0. -1.
</event>
<event>
 7    1  0.5676357E-006  0.1786599E+03  0.7818608E-02  0.1268377E+00
          2   -1    0    0  502    0  0.00000000000E+00  0.00000000000E+00  0.51263971032E+03  0.51263971032E+03  0.00000000000E+00 0. -1.
          1   -1    0    0  501    0 -0.00000000000E+00 -0.00000000000E+00 -0.15286094106E+04  0.15286094106E+04  0.00000000000E+00 0. -1.
         25    2    1    2    0    0  0.86269476251E+02 -0.19708666541E+03  0.24231330658E+03  0.34731412332E+03  0.12500314194E+03 0.  0.
          2    1    1    2  501    0 -0.11091982613E+03  0.13937070609E+03 -0.14660833356E+04  0.14768641605E+04  0.00000000000E+00 0. -1.
          1    1    1    2  502    0  0.24650349880E+02  0.57715959320E+02  0.20780032874E+03  0.21707083714E+03  0.00000000000E+00 0. -1.
         22    1    3    3    0    0  0.60994236060E+02 -0.19457837281E+03  0.24821840729E+03  0.32123732304E+03  0.00000000000E+00 0. -1.
         22    1    3    3    0    0  0.25275240191E+02 -0.25082926062E+01 -0.59051007065E+01  0.26076800280E+02  0.00000000000E+00 0. -1.
</event>
<event>
 7    1  0.5676357E-006  0.5037289E+02  0.7818608E-02  0.1516669E+00
          2   -1    0    0  502    0  0.00000000000E+00  0.00000000000E+00  0.64360206759E+02  0.64360206759E+02  0.00000000000E+00 0. -1.
          1   -1    0    0  501    0 -0.00000000000E+00 -0.00000000000E+00 -0.51946221644E+03  0.51946221644E+03  0.00000000000E+00 0. -1.
         25    2    1    2    0    0 -0.62118003467E+02 -0.78730892652E-01 -0.59559253457E+02  0.15175683501E+03  0.12499671894E+03 0.  0.
          2    1    1    2  501    0  0.19510148491E+02 -0.22788363111E+02 -0.38013070428E+03  0.38131261154E+03  0.00000000000E+00 0. -1.
          1    1    1    2  502    0  0.42607854976E+02  0.22867094004E+02 -0.15412051952E+02  0.50752976654E+02  0.00000000000E+00 0. -1.
         22    1    3    3    0    0  0.16341102595E+02  0.28038559353E+02 -0.60221316764E+02  0.68409059615E+02  0.00000000000E+00 0.  1.
         22    1    3    3    0    0 -0.78459106062E+02 -0.28117290245E+02  0.66206330776E+00  0.83347775391E+02  0.00000000000E+00 0.  1.
</event>
<event>
 7    1  0.5676357E-006  0.5569141E+02  0.7818608E-02  0.1466714E+00
          2   -1    0    0  502    0  0.00000000000E+00  0.00000000000E+00  0.86087729897E+03  0.86087729897E+03  0.00000000000E+00 0. -1.
          1   -1    0    0  501    0 -0.00000000000E+00 -0.00000000000E+00 -0.27673187661E+03  0.27673187661E+03  0.00000000000E+00 0. -1.
         25    2    1    2    0    0 -0.19555494970E+02 -0.26927734590E+01  0.37560099277E+02  0.13200421359E+03  0.12499873174E+03 0.  0.
          2    1    1    2  501    0 -0.35847338823E+02  0.13770986190E+02 -0.22686581598E+03  0.23009295995E+03  0.00000000000E+00 0. -1.
          1    1    1    2  502    0  0.55402833793E+02 -0.11078212731E+02  0.77345113906E+03  0.77551200204E+03  0.00000000000E+00 0. -1.
         22    1    3    3    0    0  0.11058390369E+02  0.57237382243E+02  0.25528748330E+02  0.63640576010E+02  0.00000000000E+00 0.  1.
         22    1    3    3    0    0 -0.30613885339E+02 -0.59930155701E+02  0.12031350947E+02  0.68363637583E+02  0.00000000000E+00 0.  1.
</event>
<event>
 7    1  0.5676357E-006  0.6332943E+02  0.7818608E-02  0.1510845E+00
          2   -1    0    0  502    0  0.00000000000E+00  0.00000000000E+00  0.68977488352E+03  0.68977488352E+03  0.00000000000E+00 0. -1.
          1   -1    0    0  501    0 -0.00000000000E+00 -0.00000000000E+00 -0.13510515081E+03  0.13510515081E+03  0.00000000000E+00 0. -1.
         25    2    1    2    0    0 -0.37427940058E+01  0.50351641560E+02  0.90774045440E+02  0.16252485821E+03  0.12500042359E+03 0.  0.
          2    1    1    2  501    0 -0.23599462577E+02  0.76791084996E+01 -0.95816770799E+02  0.98978567920E+02  0.00000000000E+00 0. -1.
          1    1    1    2  502    0  0.27342256583E+02 -0.58030750059E+02  0.55971245807E+03  0.56337660820E+03  0.00000000000E+00 0. -1.
         22    1    3    3    0    0 -0.53476732647E+02  0.51412075246E+01  0.77043185899E+02  0.93924679626E+02  0.00000000000E+00 0.  1.
         22    1    3    3    0    0  0.49733938641E+02  0.45210434035E+02  0.13730859541E+02  0.68600178586E+02  0.00000000000E+00 0.  1.
</event>
<event>
 7    1  0.5676357E-006  0.7835066E+02  0.7818608E-02  0.1360530E+00
          2   -1    0    0  502    0  0.00000000000E+00  0.00000000000E+00  0.20168417464E+03  0.20168417464E+03  0.00000000000E+00 0. -1.
          1   -1    0    0  501    0 -0.00000000000E+00 -0.00000000000E+00 -0.26933659862E+04  0.26933659862E+04  0.00000000000E+00 0. -1.
         25    2    1    2    0    0 -0.26299484276E+02  0.10038394855E+00  0.30140372771E+02  0.13125183016E+03  0.12500771136E+03 0.  0.
          2    1    1    2  501    0  0.57541839033E+02  0.53811215640E+02 -0.26341595086E+04  0.26353373649E+04  0.00000000000E+00 0. -1.
          1    1    1    2  502    0 -0.31242354757E+02 -0.53911599589E+02  0.11233732428E+03  0.12846096577E+03  0.00000000000E+00 0. -1.
         22    1    3    3    0    0  0.43319831105E+02  0.18925203881E+02  0.35223993546E+02  0.58953378446E+02  0.00000000000E+00 0.  1.
         22    1    3    3    0    0 -0.69619315381E+02 -0.18824819933E+02 -0.50836207754E+01  0.72298451711E+02  0.00000000000E+00 0.  1.
</event>
<event>
 7    1  0.5676357E-006  0.8109741E+02  0.7818608E-02  0.1330616E+00
          2   -1    0    0  502    0  0.00000000000E+00  0.00000000000E+00  0.22622606681E+03  0.22622606681E+03  0.00000000000E+00 0. -1.
          1   -1    0    0  501    0 -0.00000000000E+00 -0.00000000000E+00 -0.53308626849E+03  0.53308626849E+03  0.00000000000E+00 0. -1.
         25    2    1    2    0    0  0.73384369517E+01 -0.58894978902E+00 -0.56298043739E+02  0.13728914733E+03  0.12499856290E+03 0.  0.
          2    1    1    2  501    0  0.50595406266E+02  0.63378972041E+02 -0.42240243400E+03  0.43011696721E+03  0.00000000000E+00 0. -1.
          1    1    1    2  502    0 -0.57933843218E+02 -0.62790022252E+02  0.17184027606E+03  0.19190622075E+03  0.00000000000E+00 0. -1.
         22    1    3    3    0    0 -0.92116796009E+01 -0.43424231402E+02 -0.75445402825E+02  0.87535865343E+02  0.00000000000E+00 0. -1.
         22    1    3    3    0    0  0.16550116553E+02  0.42835281613E+02  0.19147359086E+02  0.49753281990E+02  0.00000000000E+00 0. -1.
</event>
<event>
 7    1  0.5676357E-006  0.8437178E+02  0.7818608E-02  0.1425189E+00
          2   -1    0    0  502    0  0.00000000000E+00  0.00000000000E+00  0.14864787557E+03  0.14864787557E+03  0.00000000000E+00 0. -1.
          1   -1    0    0  501    0 -0.00000000000E+00 -0.00000000000E+00 -0.21086473640E+04  0.21086473640E+04  0.00000000000E+00 0. -1.
         25    2    1    2    0    0  0.32702262873E+02  0.10982629617E+03 -0.27483731340E+03  0.32294253042E+03  0.12500030317E+03 0.  0.
          2    1    1    2  501    0  0.20367969535E+01 -0.34421647601E+02 -0.17957434240E+04  0.17960744537E+04  0.00000000000E+00 0. -1.
          1    1    1    2  502    0 -0.34739059827E+02 -0.75404648567E+02  0.11058124898E+03  0.13827825544E+03  0.00000000000E+00 0. -1.
         22    1    3    3    0    0 -0.17046621427E+02 -0.22487863674E+02 -0.45411054116E+02  0.53464522355E+02  0.00000000000E+00 0.  1.
         22    1    3    3    0    0  0.49748884300E+02  0.13231415984E+03 -0.22942625928E+03  0.26947800806E+03  0.00000000000E+00 0.  1.
</event>
<event>
 7    1  0.5676357E-006  0.2107572E+03  0.7818608E-02  0.1190811E+00
          2   -1    0    0  502    0  0.00000000000E+00  0.00000000000E+00  0.22090029303E+04  0.22090029303E+04  0.00000000000E+00 0. -1.
          1   -1    0    0  501    0 -0.00000000000E+00 -0.00000000000E+00 -0.25001796943E+03  0.25001796943E+03  0.00000000000E+00 0. -1.
         25    2    1    2    0    0 -0.16925945578E+03 -0.12843278499E+03  0.42798392626E+03  0.49389610294E+03  0.12497750092E+03 0.  0.
          2    1    1    2  501    0  0.21321669247E+03  0.18213196184E+02 -0.16173335174E+03  0.26823637995E+03  0.00000000000E+00 0. -1.
          1    1    1    2  502    0 -0.43957236695E+02  0.11021958881E+03  0.16927343864E+04  0.16968884169E+04  0.00000000000E+00 0. -1.
         22    1    3    3    0    0 -0.82222580762E+02 -0.22811273493E+02  0.27824147288E+03  0.29103131140E+03  0.00000000000E+00 0. -1.
         22    1    3    3    0    0 -0.87036875016E+02 -0.10562151150E+03  0.14974245338E+03  0.20286479154E+03  0.00000000000E+00 0. -1.
</event>
<event>
 7    1  0.5676357E-006  0.8639449E+02  0.7818608E-02  0.1420946E+00
          2   -1    0    0  502    0  0.00000000000E+00  0.00000000000E+00  0.33745877553E+03  0.33745877553E+03  0.00000000000E+00 0. -1.
          1   -1    0    0  501    0 -0.00000000000E+00 -0.00000000000E+00 -0.79372824740E+03  0.79372824740E+03  0.00000000000E+00 0. -1.
         25    2    1    2    0    0 -0.32120724955E+01 -0.57621816508E+02  0.29182011130E+02  0.14074137078E+03  0.12500381005E+03 0.  0.
          2    1    1    2  501    0  0.26930297831E+02  0.83068788392E+02 -0.73415038193E+03  0.73932567103E+03  0.00000000000E+00 0. -1.
          1    1    1    2  502    0 -0.23718225335E+02 -0.25446971884E+02  0.24869889893E+03  0.25111998113E+03  0.00000000000E+00 0. -1.
         22    1    3    3    0    0 -0.40226861815E+02 -0.41216161275E+02  0.64886366071E+02  0.86759511661E+02  0.00000000000E+00 0. -1.
         22    1    3    3    0    0  0.37014789320E+02 -0.16405655233E+02 -0.35704354942E+02  0.53981859118E+02  0.00000000000E+00 0. -1.
</event>
<event>
 7    1  0.5676357E-006  0.5480461E+02  0.7818608E-02  0.1429269E+00
          2   -1    0    0  502    0  0.00000000000E+00  0.00000000000E+00  0.65227824159E+02  0.65227824159E+02  0.00000000000E+00 0. -1.
          1   -1    0    0  501    0 -0.00000000000E+00 -0.00000000000E+00 -0.98680289496E+03  0.98680289496E+03  0.00000000000E+00 0. -1.
         25    2    1    2    0    0  0.10163830309E+03  0.71337929136E+01 -0.37958934056E+03  0.41242378248E+03  0.12499629289E+03 0.  0.
          2    1    1    2  501    0 -0.49135971515E+02 -0.15296563648E+02 -0.57483853862E+03  0.57713748279E+03  0.00000000000E+00 0. -1.
          1    1    1    2  502    0 -0.52502331573E+02  0.81627707341E+01  0.32852808372E+02  0.62469453852E+02  0.00000000000E+00 0. -1.
         22    1    3    3    0    0  0.76339260160E+02  0.16788871338E+02 -0.37722952032E+03  0.38524233911E+03  0.00000000000E+00 0. -1.
         22    1    3    3    0    0  0.25299042928E+02 -0.96550784242E+01 -0.23598202409E+01  0.27181443376E+02  0.00000000000E+00 0. -1.
</event>
<event>
 7    1  0.7733645E-006  0.9007191E+02  0.7818608E-02  0.1454947E+00
          2   -1    0    0  502    0  0.00000000000E+00  0.00000000000E+00  0.26520992121E+04  0.26520992121E+04  0.00000000000E+00 0. -1.
          1   -1    0    0  501    0 -0.00000000000E+00 -0.00000000000E+00 -0.12698865145E+04  0.12698865145E+04  0.00000000000E+00 0. -1.
         25    2    1    2    0    0 -0.41556258263E+02 -0.10817436382E+03 -0.45609140916E+03  0.48690542958E+03  0.12501563206E+03 0.  0.
          2    1    1    2  501    0  0.87570753025E+01  0.24331739626E+02 -0.79740991827E+03  0.79782911558E+03  0.00000000000E+00 0. -1.
          1    1    1    2  502    0  0.32799182961E+02  0.83842624189E+02  0.26357140250E+04  0.26372511814E+04  0.00000000000E+00 0. -1.
         22    1    3    3    0    0 -0.34856661401E+02 -0.51916985935E+02 -0.40749076169E+03  0.41226093817E+03  0.00000000000E+00 0.  1.
         22    1    3    3    0    0 -0.66995968623E+01 -0.56257377881E+02 -0.48600647461E+02  0.74644491409E+02  0.00000000000E+00 0.  1.
</event>
<event>
 7    1  0.5676357E-006  0.1530534E+03  0.7818608E-02  0.1290169E+00
          2   -1    0    0  502    0  0.00000000000E+00  0.00000000000E+00  0.15007331421E+04  0.15007331421E+04  0.00000000000E+00 0. -1.
          1   -1    0    0  501    0 -0.00000000000E+00 -0.00000000000E+00 -0.48799828898E+03  0.48799828898E+03  0.00000000000E+00 0. -1.
         25    2    1    2    0    0 -0.13117595104E+03 -0.23474882862E+02  0.29829494533E+02  0.18513005043E+03  0.12500054628E+03 0.  0.
          2    1    1    2  501    0  0.65103619554E+00 -0.59520925553E+02 -0.40386676661E+03  0.40822975099E+03  0.00000000000E+00 0. -1.
          1    1    1    2  502    0  0.13052491485E+03  0.82995808415E+02  0.13867721252E+04  0.13953716297E+04  0.00000000000E+00 0. -1.
         22    1    3    3    0    0 -0.78613331693E+02 -0.17096926331E+02 -0.45977860224E+02  0.92662421945E+02  0.00000000000E+00 0.  1.
         22    1    3    3    0    0 -0.52562619350E+02 -0.63779565304E+01  0.75807354757E+02  0.92467628485E+02  0.00000000000E+00 0.  1.
</event>
<event>
 7    1  0.5676357E-006  0.2597699E+03  0.7818608E-02  0.1242497E+00
          2   -1    0    0  502    0  0.00000000000E+00  0.00000000000E+00  0.35746607823E+03  0.35746607823E+03  0.00000000000E+00 0. -1.
          1   -1    0    0  501    0 -0.00000000000E+00 -0.00000000000E+00 -0.12037839624E+04  0.12037839624E+04  0.00000000000E+00 0. -1.
         25    2    1    2    0    0  0.16744753216E+03  0.13131183170E+03 -0.70889472740E+02  0.25677327936E+03  0.12500290587E+03 0.  0.
          2    1    1    2  501    0 -0.21186741086E+03 -0.16503528517E+03 -0.10194150920E+04  0.10541971233E+04  0.00000000000E+00 0. -1.
          1    1    1    2  502    0  0.44419878695E+02  0.33723453470E+02  0.24398668048E+03  0.25027963799E+03  0.00000000000E+00 0. -1.
         22    1    3    3    0    0 -0.14520777159E+02 -0.43984806546E+00  0.10394490465E+02  0.17863142715E+02  0.00000000000E+00 0.  1.
         22    1    3    3    0    0  0.18196830932E+03  0.13175167977E+03 -0.81283963205E+02  0.23891013665E+03  0.00000000000E+00 0.  1.
</event>
<event>
 7    1  0.5676357E-006  0.6801484E+02  0.7818608E-02  0.1522311E+00
          2   -1    0    0  502    0  0.00000000000E+00  0.00000000000E+00  0.59551306609E+03  0.59551306609E+03  0.00000000000E+00 0. -1.
          1   -1    0    0  501    0 -0.00000000000E+00 -0.00000000000E+00 -0.12632390599E+03  0.12632390599E+03  0.00000000000E+00 0. -1.
         25    2    1    2    0    0  0.99295562555E+01 -0.68902118462E+02  0.42369273123E+02  0.14921509909E+03  0.12499556982E+03 0.  0.
          2    1    1    2  501    0 -0.21320828890E+02  0.17770463522E+01 -0.68952915661E+02  0.72195846255E+02  0.00000000000E+00 0. -1.
          1    1    1    2  502    0  0.11391272634E+02  0.67125072110E+02  0.49577280264E+03  0.50042602674E+03  0.00000000000E+00 0. -1.
         22    1    3    3    0    0 -0.38720620461E+02 -0.81343828483E+02  0.12948279958E+02  0.91015179146E+02  0.00000000000E+00 0. -1.
         22    1    3    3    0    0  0.48650176716E+02  0.12441710021E+02  0.29420993165E+02  0.58199919945E+02  0.00000000000E+00 0. -1.
</event>
<event>
 7    1  0.5676357E-006  0.2398105E+02  0.7818608E-02  0.1689039E+00
          2   -1    0    0  502    0  0.00000000000E+00  0.00000000000E+00  0.18111275927E+04  0.18111275927E+04  0.00000000000E+00 0. -1.
          1   -1    0    0  501    0 -0.00000000000E+00 -0.00000000000E+00 -0.21653908171E+03  0.21653908171E+03  0.00000000000E+00 0. -1.
         25    2    1    2    0    0  0.12769235756E+02 -0.15133432585E+02  0.54694572035E+03  0.56139667128E+03  0.12499810936E+03 0.  0.
          2    1    1    2  501    0 -0.23586488024E+02 -0.44289188784E+01 -0.20852594968E+03  0.20990238071E+03  0.00000000000E+00 0. -1.
          1    1    1    2  502    0  0.10817252268E+02  0.19562351463E+02  0.12561687403E+04  0.12563676224E+04  0.00000000000E+00 0. -1.
         22    1    3    3    0    0 -0.13796766567E+02 -0.65307574879E+02  0.35542166111E+03  0.36163515771E+03  0.00000000000E+00 0.  1.
         22    1    3    3    0    0  0.26566002323E+02  0.50174142294E+02  0.19152405925E+03  0.19976151357E+03  0.00000000000E+00 0.  1.
</event>
<event>
 7    1  0.5676357E-006  0.1587638E+03  0.7818608E-02  0.1226957E+00
          2   -1    0    0  502    0  0.00000000000E+00  0.00000000000E+00  0.12407294977E+04  0.12407294977E+04  0.00000000000E+00 0. -1.
          1   -1    0    0  501    0 -0.00000000000E+00 -0.00000000000E+00 -0.77585710648E+03  0.77585710648E+03  0.00000000000E+00 0. -1.
         25    2    1    2    0    0  0.20892105582E+03 -0.49694403813E+02 -0.10308333879E+03  0.26901527887E+03  0.12500201676E+03 0.  0.
          2    1    1    2  501    0 -0.14949673003E+03 -0.39286304047E+02 -0.57714337920E+03  0.59748403002E+03  0.00000000000E+00 0. -1.
          1    1    1    2  502    0 -0.59424325794E+02  0.88980707859E+02  0.11450991092E+04  0.11500872953E+04  0.00000000000E+00 0. -1.
         22    1    3    3    0    0  0.95428289351E+02  0.79990328425E+01 -0.10443353009E+03  0.14169299610E+03  0.00000000000E+00 0.  1.
         22    1    3    3    0    0  0.11349276647E+03 -0.57693436655E+02  0.13501913040E+01  0.12732228277E+03  0.00000000000E+00 0.  1.
</event>
<event>
 7    1  0.5676357E-006  0.9220887E+02  0.7818608E-02  0.1399170E+00
          2   -1    0    0  502    0  0.00000000000E+00  0.00000000000E+00  0.49319996329E+03  0.49319996329E+03  0.00000000000E+00 0. -1.
          1   -1    0    0  501    0 -0.00000000000E+00 -0.00000000000E+00 -0.24280899488E+03  0.24280899488E+03  0.00000000000E+00 0. -1.
         25    2    1    2    0    0 -0.12161567587E+03 -0.39136604548E+02  0.54661553082E+02  0.18690682671E+03  0.12499692017E+03 0.  0.
          2    1    1    2  501    0  0.35665151356E+02  0.14839695457E+02 -0.16912160097E+03  0.17347719014E+03  0.00000000000E+00 0. -1.
          1    1    1    2  502    0  0.85950524510E+02  0.24296909091E+02  0.36485101630E+03  0.37562494133E+03  0.00000000000E+00 0. -1.
         22    1    3    3    0    0 -0.11194565836E+02  0.27128359502E+02 -0.22322420864E+02  0.36872166559E+02  0.00000000000E+00 0.  1.
         22    1    3    3    0    0 -0.11042111003E+03 -0.66264964049E+02  0.76983973946E+02  0.15003466015E+03  0.00000000000E+00 0.  1.
</event>
<event>
 7    1  0.5676357E-006  0.2047318E+03  0.7818608E-02  0.1305323E+00
          2   -1    0    0  502    0  0.00000000000E+00  0.00000000000E+00  0.21401870331E+04  0.21401870331E+04  0.00000000000E+00 0. -1.
          1   -1    0    0  501    0 -0.00000000000E+00 -0.00000000000E+00 -0.29654478841E+02  0.29654478841E+02  0.00000000000E+00 0. -1.
         25    2    1    2    0    0 -0.18776458000E+03  0.32385840449E+02  0.86396723323E+03  0.89351487973E+03  0.12500032018E+03 0.  0.
          2    1    1    2  501    0 -0.27117176599E+02 -0.27580484135E+02  0.67204818333E+02  0.77540389340E+02  0.00000000000E+00 0. -1.
          1    1    1    2  502    0  0.21488175660E+03 -0.48053563134E+01  0.11793605027E+04  0.11987862429E+04  0.00000000000E+00 0. -1.
         22    1    3    3    0    0 -0.13309031588E+02  0.27950296246E+02  0.33666418456E+03  0.33808449025E+03  0.00000000000E+00 0. -1.
         22    1    3    3    0    0 -0.17445554841E+03  0.44355442031E+01  0.52730304866E+03  0.55543038948E+03  0.00000000000E+00 0. -1.
</event>
<event>
 7    1  0.5676357E-006  0.5468444E+02  0.7818608E-02  0.1449375E+00
          2   -1    0    0  502    0  0.00000000000E+00  0.00000000000E+00  0.40193451972E+03  0.40193451972E+03  0.00000000000E+00 0. -1.
          1   -1    0    0  501    0 -0.00000000000E+00 -0.00000000000E+00 -0.20430464394E+04  0.20430464394E+04  0.00000000000E+00 0. -1.
         25    2    1    2    0    0  0.16154221097E+01  0.57004054776E+02 -0.23494908748E+03  0.27217230079E+03  0.12499846303E+03 0.  0.
          2    1    1    2  501    0 -0.40421491621E+02 -0.18305750513E+02 -0.17872501188E+04  0.17878008795E+04  0.00000000000E+00 0. -1.
          1    1    1    2  502    0  0.38806069511E+02 -0.38698304263E+02  0.38108728659E+03  0.38500777886E+03  0.00000000000E+00 0. -1.
         22    1    3    3    0    0 -0.81648133657E+01  0.41909606443E+02 -0.67051623383E+01  0.43220810861E+02  0.00000000000E+00 0.  1.
         22    1    3    3    0    0  0.97802354753E+01  0.15094448333E+02 -0.22824392514E+03  0.22895148993E+03  0.00000000000E+00 0.  1.
</event>
<event>
 7    1  0.5676357E-006  0.1450239E+03  0.7818608E-02  0.1274886E+00
          2   -1    0    0  502    0  0.00000000000E+00  0.00000000000E+00  0.31473072870E+03  0.31473072870E+03  0.00000000000E+00 0. -1.
          1   -1    0    0  501    0 -0.00000000000E+00 -0.00000000000E+00 -0.20300335137E+04  0.20300335137E+04  0.00000000000E+00 0. -1.
         25    2    1    2    0    0 -0.10906162313E+02 -0.10964322696E+03 -0.14837579023E+04  0.14930850835E+04  0.12499989022E+03 0.  0.
          2    1    1    2  501    0  0.68508242600E+02 -0.24062368154E+02 -0.52186955258E+03  0.52689677051E+03  0.00000000000E+00 0. -1.
          1    1    1    2  502    0 -0.57602080287E+02  0.13370559511E+03  0.29032466988E+03  0.32478238831E+03  0.00000000000E+00 0. -1.
         22    1    3    3    0    0  0.30918345958E-01 -0.49200314539E+02 -0.12625260312E+04  0.12634843296E+04  0.00000000000E+00 0. -1.
         22    1    3    3    0    0 -0.10937080659E+02 -0.60442912416E+02 -0.22123187110E+03  0.22960075389E+03  0.00000000000E+00 0. -1.
</event>
<event>
 7    1  0.5676357E-006  0.9574712E+02  0.7818608E-02  0.1291511E+00
          2   -1    0    0  502    0  0.00000000000E+00  0.00000000000E+00  0.17700704819E+03  0.17700704819E+03  0.00000000000E+00 0. -1.
          1   -1    0    0  501    0 -0.00000000000E+00 -0.00000000000E+00 -0.76689141350E+03  0.76689141350E+03  0.00000000000E+00 0. -1.
         25    2    1    2    0    0  0.11687271458E+02 -0.27377474423E+02 -0.35915665204E+03  0.38145046152E+03  0.12499934189E+03 0.  0.
          2    1    1    2  501    0  0.87373319494E+02  0.34571183757E+02 -0.37539013746E+03  0.38697159974E+03  0.00000000000E+00 0. -1.
          1    1    1    2  502    0 -0.99060590951E+02 -0.71937093348E+01  0.14466242419E+03  0.17547640042E+03  0.00000000000E+00 0. -1.
         22    1    3    3    0    0  0.12073193051E+02 -0.52376684465E+02 -0.57316046952E+02  0.78576130626E+02  0.00000000000E+00 0. -1.
         22    1    3    3    0    0 -0.38592159337E+00  0.24999210042E+02 -0.30184060509E+03  0.30287433090E+03  0.00000000000E+00 0. -1.
</event>
<event>
 7    1  0.5676357E-006  0.1104329E+03  0.7818608E-02  0.1383180E+00
          2   -1    0    0  502    0  0.00000000000E+00  0.00000000000E+00  0.59175821018E+03  0.59175821018E+03  0.00000000000E+00 0. -1.
          1   -1    0    0  501    0 -0.00000000000E+00 -0.00000000000E+00 -0.62423664742E+03  0.62423664742E+03  0.00000000000E+00 0. -1.
         25    2    1    2    0    0  0.84233876964E+02 -0.23348237588E+02 -0.21335190275E+03  0.26226942929E+03  0.12500293160E+03 0.  0.
          2    1    1    2  501    0  0.26792712979E+02  0.25034827257E+02 -0.38010167484E+03  0.38186630548E+03  0.00000000000E+00 0. -1.
          1    1    1    2  502    0 -0.11102658994E+03 -0.16865896689E+01  0.56097514035E+03  0.57185912282E+03  0.00000000000E+00 0. -1.
         22    1    3    3    0    0  0.10467998452E+03  0.62043929888E+00 -0.10054843793E+03  0.14514913873E+03  0.00000000000E+00 0. -1.
         22    1    3    3    0    0 -0.20446107556E+02 -0.23968676887E+02 -0.11280346482E+03  0.11712029056E+03  0.00000000000E+00 0. -1.
</event>
<event>
 7    1  0.5676357E-006  0.2385858E+03  0.7818608E-02  0.1340771E+00
          2   -1    0    0  502    0  0.00000000000E+00  0.00000000000E+00  0.45130140869E+03  0.45130140869E+03  0.00000000000E+00 0. -1.
          1   -1    0    0  501    0 -0.00000000000E+00 -0.00000000000E+00 -0.39085051020E+03  0.39085051020E+03  0.00000000000E+00 0. -1.
         25    2    1    2    0    0 -0.14889500029E+03 -0.17996668349E+03 -0.69172764342E+02  0.27379952377E+03  0.12499431832E+03 0.  0.
          2    1    1    2  501    0  0.17146422306E+03  0.17118952266E+03 -0.15178091049E+03  0.28590781250E+03  0.00000000000E+00 0. -1.
          1    1    1    2  502    0 -0.22569222769E+02  0.87771608290E+01  0.28140457332E+03  0.28244458262E+03  0.00000000000E+00 0. -1.
         22    1    3    3    0    0 -0.23055992192E+02 -0.73595568492E+02 -0.76813015195E+02  0.10884909637E+03  0.00000000000E+00 0.  1.
         22    1    3    3    0    0 -0.12583900810E+03 -0.10637111499E+03  0.76402508526E+01  0.16495042740E+03  0.00000000000E+00 0.  1.
</event>
<event>
 7    1  0.5676357E-006  0.5825823E+02  0.7818608E-02  0.1520668E+00
          2   -1    0    0  502    0  0.00000000000E+00  0.00000000000E+00  0.52576954597E+02  0.52576954597E+02  0.00000000000E+00 0. -1.
          1   -1    0    0  501    0 -0.00000000000E+00 -0.00000000000E+00 -0.11604675933E+04  0.11604675933E+04  0.00000000000E+00 0. -1.
         25    2    1    2    0    0  0.41558548048E+02  0.18689591132E+02 -0.47814794831E+03  0.49631310559E+03  0.12499929831E+03 0.  0.
          2    1    1    2  501    0 -0.60601529982E+02 -0.21038664227E+01 -0.66807890498E+03  0.67082515976E+03  0.00000000000E+00 0. -1.
          1    1    1    2  502    0  0.19042981935E+02 -0.16585724710E+02  0.38336214603E+02  0.45906282525E+02  0.00000000000E+00 0. -1.
         22    1    3    3    0    0 -0.35334132804E+02  0.94175191203E+01 -0.54417145326E+02  0.65562308629E+02  0.00000000000E+00 0.  1.
         22    1    3    3    0    0  0.76892680851E+02  0.92720720121E+01 -0.42373080298E+03  0.43075079696E+03  0.00000000000E+00 0.  1.
</event>
<event>
 7    1  0.5676357E-006  0.5889296E+02  0.7818608E-02  0.1453068E+00
          2   -1    0    0  502    0  0.00000000000E+00  0.00000000000E+00  0.20179848816E+04  0.20179848816E+04  0.00000000000E+00 0. -1.
          1   -1    0    0  501    0 -0.00000000000E+00 -0.00000000000E+00 -0.83582286167E+02  0.83582286167E+02  0.00000000000E+00 0. -1.
         25    2    1    2    0    0 -0.68526816192E+02 -0.25171137220E+02  0.36048491894E+03  0.38846260961E+03  0.12499724636E+03 0.  0.
          2    1    1    2  501    0  0.35039630010E+02  0.47227630701E+02 -0.56879886639E+02  0.81814095833E+02  0.00000000000E+00 0. -1.
          1    1    1    2  502    0  0.33487186182E+02 -0.22056493481E+02  0.16307975631E+04  0.16312904623E+04  0.00000000000E+00 0. -1.
         22    1    3    3    0    0 -0.60240332252E+01 -0.28996914964E+02  0.83043615731E+01  0.30758291157E+02  0.00000000000E+00 0.  1.
         22    1    3    3    0    0 -0.62502782967E+02  0.38257777443E+01  0.35218055737E+03  0.35770431846E+03  0.00000000000E+00 0.  1.
</event>
<event>
 7    1  0.5676357E-006  0.6066189E+02  0.7818608E-02  0.1444659E+00
          2   -1    0    0  502    0  0.00000000000E+00  0.00000000000E+00  0.71125843149E+02  0.71125843149E+02  0.00000000000E+00 0. -1.
          1   -1    0    0  501    0 -0.00000000000E+00 -0.00000000000E+00 -0.50777699456E+03  0.50777699456E+03  0.00000000000E+00 0. -1.
         25    2    1    2    0    0  0.77160819798E+02 -0.19535602615E+02 -0.57532225310E+02  0.15896585510E+03  0.12499901703E+03 0.  0.
          2    1    1    2  501    0 -0.36663143716E+02 -0.19275174025E+02 -0.35739127439E+03  0.35978360364E+03  0.00000000000E+00 0. -1.
          1    1    1    2  502    0 -0.40497676082E+02  0.38810776640E+02 -0.21727651709E+02  0.60153378960E+02  0.00000000000E+00 0. -1.
         22    1    3    3    0    0  0.32995407372E+02  0.19725064060E+02  0.33128310386E+02  0.50747019704E+02  0.00000000000E+00 0.  1.
         22    1    3    3    0    0  0.44165412426E+02 -0.39260666675E+02 -0.90660535696E+02  0.10821883540E+03  0.00000000000E+00 0.  1.
</event>
<event>
 7    1  0.5676357E-006  0.3312849E+03  0.7818608E-02  0.1200558E+00
          2   -1    0    0  502    0  0.00000000000E+00  0.00000000000E+00  0.27835386830E+04  0.27835386830E+04  0.00000000000E+00 0. -1.
          1   -1    0    0  501    0 -0.00000000000E+00 -0.00000000000E+00 -0.23303858840E+03  0.23303858840E+03  0.00000000000E+00 0. -1.
         25    2    1    2    0    0 -0.22837396826E+03 -0.24814611077E+03  0.30559029559E+03  0.47195526308E+03  0.12500071968E+03 0.  0.
          2    1    1    2  501    0  0.17039481913E+03  0.28339815223E+03  0.33723275260E+02  0.33239459437E+03  0.00000000000E+00 0. -1.
          1    1    1    2  502    0  0.57979149136E+02 -0.35252041454E+02  0.22111865238E+04  0.22122274140E+04  0.00000000000E+00 0. -1.
         22    1    3    3    0    0 -0.67363133816E+02 -0.82157723492E+01  0.83004750192E+02  0.10721510746E+03  0.00000000000E+00 0. -1.
         22    1    3    3    0    0 -0.16101083445E+03 -0.23993033842E+03  0.22258554539E+03  0.36474015562E+03  0.00000000000E+00 0. -1.
</event>
<event>
 7    1  0.5676357E-006  0.1795782E+03  0.7818608E-02  0.1314080E+00
          2   -1    0    0  502    0  0.00000000000E+00  0.00000000000E+00  0.13301360438E+04  0.13301360438E+04  0.00000000000E+00 0. -1.
          1   -1    0    0  501    0 -0.00000000000E+00 -0.00000000000E+00 -0.82777934724E+02  0.82777934724E+02  0.00000000000E+00 0. -1.
         25    2    1    2    0    0  0.16623512498E+03 -0.42059211965E+02  0.10340285017E+04  0.10555773297E+04  0.12500185032E+03 0.  0.
          2    1    1    2  501    0  0.34296239599E+02 -0.21963726577E+02 -0.18034701726E+02  0.44540855426E+02  0.00000000000E+00 0. -1.
          1    1    1    2  502    0 -0.20053136458E+03  0.64022938542E+02  0.23136430914E+03  0.31279579343E+03  0.00000000000E+00 0. -1.
         22    1    3    3    0    0 -0.28012903391E+00 -0.42392135649E+02  0.29438158517E+03  0.29741837422E+03  0.00000000000E+00 0.  1.
         22    1    3    3    0    0  0.16651525402E+03  0.33292368377E+00  0.73964691652E+03  0.75815895548E+03  0.00000000000E+00 0.  1.
</event>
<event>
 7    1  0.5676357E-006  0.1386267E+03  0.7818608E-02  0.1418376E+00
          2   -1    0    0  502    0  0.00000000000E+00  0.00000000000E+00  0.16823188116E+04  0.16823188116E+04  0.00000000000E+00 0. -1.
          1   -1    0    0  501    0 -0.00000000000E+00 -0.00000000000E+00 -0.18739509341E+03  0.18739509341E+03  0.00000000000E+00 0. -1.
         25    2    1    2    0    0 -0.14206670803E+03 -0.23925756112E+02  0.26725973377E+03  0.32834110572E+03  0.12499890029E+03 0.  0.
          2    1    1    2  501    0  0.13820547349E+03  0.21529843729E+01 -0.12629576244E+03  0.18723249679E+03  0.00000000000E+00 0. -1.
          1    1    1    2  502    0  0.38612345424E+01  0.21772771739E+02  0.13539597469E+04  0.13541403025E+04  0.00000000000E+00 0. -1.
         22    1    3    3    0    0 -0.12060758906E+03 -0.45199700015E+02  0.11360058597E+03  0.17173903620E+03  0.00000000000E+00 0.  1.
         22    1    3    3    0    0 -0.21459118966E+02  0.21273943903E+02  0.15365914780E+03  0.15660206953E+03  0.00000000000E+00 0.  1.
</event>
<event>
 7    1  0.5676357E-006  0.8748196E+02  0.7818608E-02  0.1351049E+00
          2   -1    0    0  502    0  0.00000000000E+00  0.00000000000E+00  0.78575105319E+03  0.78575105319E+03  0.00000000000E+00 0. -1.
          1   -1    0    0  501    0 -0.00000000000E+00 -0.00000000000E+00 -0.52247594831E+02  0.52247594831E+02  0.00000000000E+00 0. -1.
         25    2    1    2    0    0 -0.49560554516E+02  0.68966874087E+01  0.16797275971E+03  0.21527458195E+03  0.12499793906E+03 0.  0.
          2    1    1    2  501    0  0.10571905331E+03 -0.29307897873E+02  0.86001366115E+02  0.13939765452E+03  0.00000000000E+00 0. -1.
          1    1    1    2  502    0 -0.56158498797E+02  0.22411210464E+02  0.47952933253E+03  0.48332641155E+03  0.00000000000E+00 0. -1.
         22    1    3    3    0    0  0.16669587404E+02 -0.40728024885E+02  0.99401418222E+02  0.10870735532E+03  0.00000000000E+00 0. -1.
         22    1    3    3    0    0 -0.66230141920E+02  0.47624712294E+02  0.68571341488E+02  0.10656722664E+03  0.00000000000E+00 0. -1.
</event>
<event>
 7    1  0.5676357E-006  0.5802290E+02  0.7818608E-02  0.1546456E+00
          2   -1    0    0  502    0  0.00000000000E+00  0.00000000000E+00  0.13602150202E+04  0.13602150202E+04  0.00000000000E+00 0. -1.
          1   -1    0    0  501    0 -0.00000000000E+00 -0.00000000000E+00 -0.13296905669E+04  0.13296905669E+04  0.00000000000E+00 0. -1.
         25    2    1    2    0    0 -0.60427387072E+02 -0.34484273094E+02 -0.47313722586E+03  0.49429161759E+03  0.12499893810E+03 0.  0.
          2    1    1    2  501    0  0.39996795335E+02  0.40872840288E+02 -0.84492467079E+03  0.84685774013E+03  0.00000000000E+00 0. -1.
          1    1    1    2  502    0  0.20430591737E+02 -0.63885671937E+01  0.13485863500E+04  0.13487562294E+04  0.00000000000E+00 0. -1.
         22    1    3    3    0    0 -0.94844355220E+02 -0.39763093471E+02 -0.40396056511E+03  0.41684612686E+03  0.00000000000E+00 0. -1.
         22    1    3    3    0    0  0.34416968148E+02  0.52788203769E+01 -0.69176660757E+02  0.77445490731E+02  0.00000000000E+00 0. -1.
</event>
<event>
 7    1  0.5676357E-006  0.6530510E+02  0.7818608E-02  0.1489385E+00
          2   -1    0    0  502    0  0.00000000000E+00  0.00000000000E+00  0.14347248740E+03  0.14347248740E+03  0.00000000000E+00 0. -1.
          1   -1    0    0  501    0 -0.00000000000E+00 -0.00000000000E+00 -0.13757061598E+04  0.13757061598E+04  0.00000000000E+00 0. -1.
         25    2    1    2    0    0  0.65645077071E+02  0.35641097862E+02  0.19243365345E+02  0.14688471302E+03  0.12500099123E+03 0.  0.
          2    1    1    2  501    0 -0.22603354410E+01 -0.27798162594E+02 -0.12948117637E+04  0.12951120996E+04  0.00000000000E+00 0. -1.
          1    1    1    2  502    0 -0.63384741630E+02 -0.78429352684E+01  0.43334726038E+02  0.77181834559E+02  0.00000000000E+00 0. -1.
         22    1    3    3    0    0  0.28196910208E+02  0.53515352154E+02 -0.41474369660E+02  0.73342225219E+02  0.00000000000E+00 0.  1.
         22    1    3    3    0    0  0.37448166863E+02 -0.17874254292E+02  0.60717735004E+02  0.73542487801E+02  0.00000000000E+00 0.  1.
</event>
<event>
 7    1  0.5676357E-006  0.6203284E+02  0.7818608E-02  0.1454694E+00
          2   -1    0    0  502    0  0.00000000000E+00  0.00000000000E+00  0.12324109715E+03  0.12324109715E+03  0.00000000000E+00 0. -1.
          1   -1    0    0  501    0 -0.00000000000E+00 -0.00000000000E+00 -0.11239066528E+04  0.11239066528E+04  0.00000000000E+00 0. -1.
         25    2    1    2    0    0 -0.52695463833E+02 -0.74940006183E+02 -0.79569881297E+02  0.17420887307E+03  0.12499819603E+03 0.  0.
          2    1    1    2  501    0  0.18827988849E+02  0.58565837601E+02 -0.99134475114E+03  0.99325166303E+03  0.00000000000E+00 0. -1.
          1    1    1    2  502    0  0.33867474984E+02  0.16374168583E+02  0.70249076800E+02  0.79687213842E+02  0.00000000000E+00 0. -1.
         22    1    3    3    0    0 -0.22391088962E+02 -0.10635808530E+03 -0.70713464992E+02  0.12966802730E+03  0.00000000000E+00 0. -1.
         22    1    3    3    0    0 -0.30304374872E+02  0.31418079116E+02 -0.88564163051E+01  0.44540845765E+02  0.00000000000E+00 0. -1.
</event>
<event>
 7    1  0.5676357E-006  0.9183736E+02  0.7818608E-02  0.1338583E+00
          2   -1    0    0  502    0  0.00000000000E+00  0.00000000000E+00  0.13311312143E+04  0.13311312143E+04  0.00000000000E+00 0. -1.
          1   -1    0    0  501    0 -0.00000000000E+00 -0.00000000000E+00 -0.94309455442E+03  0.94309455442E+03  0.00000000000E+00 0. -1.
         25    2    1    2    0    0  0.80459257534E+02 -0.64420242367E+02  0.44377492351E+02  0.16798369826E+03  0.12500200521E+03 0.  0.
          2    1    1    2  501    0 -0.21463810760E+02  0.89525889991E+02 -0.87804423394E+03  0.88285743861E+03  0.00000000000E+00 0. -1.
          1    1    1    2  502    0 -0.58995446774E+02 -0.25105647624E+02  0.12217034015E+04  0.12233846319E+04  0.00000000000E+00 0. -1.
         22    1    3    3    0    0  0.39893083228E+02  0.15098643467E+02  0.63686135219E+02  0.76650837850E+02  0.00000000000E+00 0. -1.
         22    1    3    3    0    0  0.40566174305E+02 -0.79518885834E+02 -0.19308642868E+02  0.91332860414E+02  0.00000000000E+00 0. -1.
</event>
<event>
 7    1  0.5676357E-006  0.7989616E+02  0.7818608E-02  0.1422948E+00
          2   -1    0    0  502    0  0.00000000000E+00  0.00000000000E+00  0.51745323057E+03  0.51745323057E+03  0.00000000000E+00 0. -1.
          1   -1    0    0  501    0 -0.00000000000E+00 -0.00000000000E+00 -0.14941109530E+04  0.14941109530E+04  0.00000000000E+00 0. -1.
         25    2    1    2    0    0  0.28861811702E+02 -0.11246635633E+03 -0.18289252985E+03  0.25011261498E+03  0.12499982886E+03 0.  0.
          2    1    1    2  501    0 -0.12835031717E+02  0.34748073147E+02 -0.12740837493E+04  0.12746221271E+04  0.00000000000E+00 0. -1.
          1    1    1    2  502    0 -0.16026779985E+02  0.77718283185E+02  0.48031855670E+03  0.48682944152E+03  0.00000000000E+00 0. -1.
         22    1    3    3    0    0  0.29708039230E+02 -0.69618179957E+02 -0.15424010404E+02  0.77247386184E+02  0.00000000000E+00 0. -1.
         22    1    3    3    0    0 -0.84622752829E+00 -0.42848176375E+02 -0.16746851945E+03  0.17286522880E+03  0.00000000000E+00 0. -1.
</event>
<event>
 7    1  0.5676357E-006  0.1976693E+03  0.7818608E-02  0.1255364E+00
          2   -1    0    0  502    0  0.00000000000E+00  0.00000000000E+00  0.32388006232E+04  0.32388006232E+04  0.00000000000E+00 0. -1.
          1   -1    0    0  501    0 -0.00000000000E+00 -0.00000000000E+00 -0.59107003366E+02  0.59107003366E+02  0.00000000000E+00 0. -1.
         25    2    1    2    0    0  0.78316501175E+02 -0.14875793504E+03  0.75553100770E+03  0.78403704518E+03  0.12499834808E+03 0.  0.
          2    1    1    2  501    0 -0.44740000687E+02  0.20375602924E+03  0.20071816752E+03  0.28949260765E+03  0.00000000000E+00 0. -1.
          1    1    1    2  502    0 -0.33576500487E+02 -0.54998094196E+02  0.22234444446E+04  0.22243779738E+04  0.00000000000E+00 0. -1.
         22    1    3    3    0    0  0.17169665852E+02  0.44283399354E+01  0.97516940102E+01  0.20236184327E+02  0.00000000000E+00 0.  1.
         22    1    3    3    0    0  0.61146835323E+02 -0.15318627498E+03  0.74577931369E+03  0.76380086085E+03  0.00000000000E+00 0.  1.
</event>
<event>
 7    1  0.5676357E-006  0.7093619E+02  0.7818608E-02  0.1463060E+00
          2   -1    0    0  502    0  0.00000000000E+00  0.00000000000E+00  0.57816328911E+02  0.57816328911E+02  0.00000000000E+00 0. -1.
          1   -1    0    0  501    0 -0.00000000000E+00 -0.00000000000E+00 -0.20169519303E+04  0.20169519303E+04  0.00000000000E+00 0. -1.
         25    2    1    2    0    0  0.68596676453E+02  0.55330733400E+02 -0.55651866511E+03  0.57715271430E+03  0.12500094771E+03 0.  0.
          2    1    1    2  501    0 -0.65408642894E+02 -0.24541548968E+02 -0.14441376661E+04  0.14458264684E+04  0.00000000000E+00 0. -1.
          1    1    1    2  502    0 -0.31880335585E+01 -0.30789184431E+02  0.41520729827E+02  0.51789076467E+02  0.00000000000E+00 0. -1.
         22    1    3    3    0    0 -0.30536961356E+02  0.42119044071E+02 -0.22133570523E+03  0.22736757528E+03  0.00000000000E+00 0.  1.
         22    1    3    3    0    0  0.99133637809E+02  0.13211689329E+02 -0.33518295989E+03  0.34978513902E+03  0.00000000000E+00 0.  1.
</event>
<event>
 7    1  0.5676357E-006  0.1613391E+03  0.7818608E-02  0.1251537E+00
          2   -1    0    0  502    0  0.00000000000E+00  0.00000000000E+00  0.15558001423E+04  0.15558001423E+04  0.00000000000E+00 0. -1.
          1   -1    0    0  501    0 -0.00000000000E+00 -0.00000000000E+00 -0.52351151594E+03  0.52351151594E+03  0.00000000000E+00 0. -1.
         25    2    1    2    0    0 -0.35066639149E+02  0.18790774035E+03 -0.22995091149E+03  0.32410110044E+03  0.12500045418E+03 0.  0.
          2    1    1    2  501    0 -0.36218093187E+02 -0.14736830293E+03 -0.22188827281E+03  0.26881884717E+03  0.00000000000E+00 0. -1.
          1    1    1    2  502    0  0.71284732335E+02 -0.40539437423E+02  0.14841278107E+04  0.14863917106E+04  0.00000000000E+00 0. -1.
         22    1    3    3    0    0  0.22843631347E+02  0.68459641837E+02 -0.15661794109E+03  0.17244632071E+03  0.00000000000E+00 0. -1.
         22    1    3    3    0    0 -0.57910270495E+02  0.11944809851E+03 -0.73332970398E+02  0.15165477973E+03  0.00000000000E+00 0. -1.
</event>
<event>
 7    1  0.5676357E-006  0.9891406E+02  0.7818608E-02  0.1299053E+00
          2   -1    0    0  502    0  0.00000000000E+00  0.00000000000E+00  0.41318246647E+03  0.41318246647E+03  0.00000000000E+00 0. -1.
          1   -1    0    0  501    0 -0.00000000000E+00 -0.00000000000E+00 -0.12502988504E+04  0.12502988504E+04  0.00000000000E+00 0. -1.
         25    2    1    2    0    0  0.36520288684E+02 -0.28621071523E+02 -0.10997574044E+03  0.17283432870E+03  0.12499657784E+03 0.  0.
          2    1    1    2  501    0  0.14889532211E+01  0.10442864096E+03 -0.11016839698E+04  0.11066232997E+04  0.00000000000E+00 0. -1.
          1    1    1    2  502    0 -0.38009241905E+02 -0.75807569432E+02  0.37454332631E+03  0.38402368851E+03  0.00000000000E+00 0. -1.
         22    1    3    3    0    0  0.45382617262E+02 -0.73752957747E+02 -0.62982931747E+02  0.10707908487E+03  0.00000000000E+00 0.  1.
         22    1    3    3    0    0 -0.88623285785E+01  0.45131886224E+02 -0.46992808696E+02  0.65755243830E+02  0.00000000000E+00 0.  1.
</event>
<event>
 7    1  0.5676357E-006  0.9252594E+02  0.7818608E-02  0.1455305E+00
          2   -1    0    0  502    0  0.00000000000E+00  0.00000000000E+00  0.79669471918E+03  0.79669471918E+03  0.00000000000E+00 0. -1.
          1   -1    0    0  501    0 -0.00000000000E+00 -0.00000000000E+00 -0.16011325024E+03  0.16011325024E+03  0.00000000000E+00 0. -1.
         25    2    1    2    0    0 -0.49051091484E+02 -0.10439970206E+03  0.77678328528E+02  0.18698739059E+03  0.12500021661E+03 0.  0.
          2    1    1    2  501    0  0.15958597054E+02  0.19383901430E+02 -0.10077926095E+03  0.10385986661E+03  0.00000000000E+00 0. -1.
          1    1    1    2  502    0  0.33092494429E+02  0.85015800627E+02  0.65968240137E+03  0.66596071222E+03  0.00000000000E+00 0. -1.
         22    1    3    3    0    0 -0.37289529914E+02 -0.78440633060E+02 -0.16661634694E+02  0.88436711985E+02  0.00000000000E+00 0. -1.
         22    1    3    3    0    0 -0.11761561570E+02 -0.25959068997E+02  0.94339963222E+02  0.98550678610E+02  0.00000000000E+00 0. -1.
</event>
<event>
 7    1  0.5676357E-006  0.7926239E+02  0.7818608E-02  0.1459254E+00
          2   -1    0    0  502    0  0.00000000000E+00  0.00000000000E+00  0.27356055926E+04  0.27356055926E+04  0.00000000000E+00 0. -1.
          1   -1    0    0  501    0 -0.00000000000E+00 -0.00000000000E+00 -0.21858854760E+02  0.21858854760E+02  0.00000000000E+00 0. -1.
         25    2    1    2    0    0  0.93747871178E+02 -0.66934663024E+01  0.17358636255E+04  0.17428953971E+04  0.12501349226E+03 0.  0.
          2    1    1    2  501    0 -0.23277522120E+02 -0.16404994751E+02 -0.49821541763E+01  0.28910011226E+02  0.00000000000E+00 0. -1.
          1    1    1    2  502    0 -0.70470349058E+02  0.23098461054E+02  0.98286526650E+03  0.98565903896E+03  0.00000000000E+00 0. -1.
         22    1    3    3    0    0 -0.25920132082E+02  0.74477605861E+01  0.61120913614E+03  0.61180383334E+03  0.00000000000E+00 0.  1.
         22    1    3    3    0    0  0.11966800326E+03 -0.14141226889E+02  0.11246544893E+04  0.11310915638E+04  0.00000000000E+00 0.  1.
</event>
<event>
 7    1  0.5676357E-006  0.9254948E+02  0.7818608E-02  0.1327445E+00
          2   -1    0    0  502    0  0.00000000000E+00  0.00000000000E+00  0.22441581230E+04  0.22441581230E+04  0.00000000000E+00 0. -1.
          1   -1    0    0  501    0 -0.00000000000E+00 -0.00000000000E+00 -0.14360139576E+03  0.14360139576E+03  0.00000000000E+00 0. -1.
         25    2    1    2    0    0  0.28721005989E+02  0.19636573270E+02  0.56603813825E+02  0.14156124225E+03  0.12500040949E+03 0.  0.
          2    1    1    2  501    0  0.65218587392E+02 -0.25806778909E+02 -0.87795480406E+02  0.11237215117E+03  0.00000000000E+00 0. -1.
          1    1    1    2  502    0 -0.93939593381E+02  0.61702056390E+01  0.21317483938E+04  0.21338261253E+04  0.00000000000E+00 0. -1.
         22    1    3    3    0    0 -0.15017282565E+02 -0.39388936646E+02 -0.89581859877E+01  0.43095895418E+02  0.00000000000E+00 0.  1.
         22    1    3    3    0    0  0.43738288554E+02  0.59025509916E+02  0.65561999813E+02  0.98465346828E+02  0.00000000000E+00 0.  1.
</event>
<event>
 7    1  0.5676357E-006  0.2300155E+02  0.7818608E-02  0.1692942E+00
          2   -1    0    0  502    0  0.00000000000E+00  0.00000000000E+00  0.19626303895E+04  0.19626303895E+04  0.00000000000E+00 0. -1.
          1   -1    0    0  501    0 -0.00000000000E+00 -0.00000000000E+00 -0.35924199352E+03  0.35924199352E+03  0.00000000000E+00 0. -1.
         25    2    1    2    0    0 -0.58283702016E+01  0.74742529445E+00  0.75049537525E+03  0.76085843409E+03  0.12501087917E+03 0.  0.
          2    1    1    2  501    0 -0.11499584426E+01 -0.22972783102E+02 -0.35357433301E+03  0.35432171840E+03  0.00000000000E+00 0. -1.
          1    1    1    2  502    0  0.69783286442E+01  0.22225357808E+02  0.12064673537E+04  0.12066922305E+04  0.00000000000E+00 0. -1.
         22    1    3    3    0    0 -0.12651565844E+02 -0.17627082672E+02  0.18253573692E+02  0.28354349126E+02  0.00000000000E+00 0.  1.
         22    1    3    3    0    0  0.68231956420E+01  0.18374507966E+02  0.73224180155E+03  0.73250408496E+03  0.00000000000E+00 0.  1.
</event>
<event>
 7    1  0.5676357E-006  0.5521098E+02  0.7818608E-02  0.1486191E+00
          2   -1    0    0  502    0  0.00000000000E+00  0.00000000000E+00  0.36763595927E+03  0.36763595927E+03  0.00000000000E+00 0. -1.
          1   -1    0    0  501    0 -0.00000000000E+00 -0.00000000000E+00 -0.50997414583E+03  0.50997414583E+03  0.00000000000E+00 0. -1.
         25    2    1    2    0    0  0.21375101388E+02  0.68409479091E+01 -0.35980307738E+02  0.13199891729E+03  0.12500175236E+03 0.  0.
          2    1    1    2  501    0  0.32020643964E+02  0.10612962337E+02 -0.42283929000E+03  0.42418276930E+03  0.00000000000E+00 0. -1.
          1    1    1    2  502    0 -0.53395745353E+02 -0.17453910246E+02  0.31648141117E+03  0.32142841850E+03  0.00000000000E+00 0. -1.
         22    1    3    3    0    0  0.69333888583E+02  0.22855783826E+02 -0.60779693015E+01  0.73256512824E+02  0.00000000000E+00 0.  1.
         22    1    3    3    0    0 -0.47958787195E+02 -0.16014835917E+02 -0.29902338437E+02  0.58742404468E+02  0.00000000000E+00 0.  1.
</event>
<event>
 7    1  0.5676357E-006  0.5257911E+02  0.7818608E-02  0.1503943E+00
          2   -1    0    0  502    0  0.00000000000E+00  0.00000000000E+00  0.10046453254E+04  0.10046453254E+04  0.00000000000E+00 0. -1.
          1   -1    0    0  501    0 -0.00000000000E+00 -0.00000000000E+00 -0.42166255007E+03  0.42166255007E+03  0.00000000000E+00 0. -1.
         25    2    1    2    0    0 -0.16047648044E+02  0.38675162968E+02 -0.30151723150E+03  0.32907537954E+03  0.12499867715E+03 0.  0.
          2    1    1    2  501    0 -0.29090452778E+02 -0.11628255837E+02 -0.10334386964E+03  0.10798808346E+03  0.00000000000E+00 0. -1.
          1    1    1    2  502    0  0.45138100822E+02 -0.27046907131E+02  0.98784387646E+03  0.98924441247E+03  0.00000000000E+00 0. -1.
         22    1    3    3    0    0  0.37627766871E+02 -0.65573194296E+00 -0.22300099832E+03  0.22615420419E+03  0.00000000000E+00 0.  1.
         22    1    3    3    0    0 -0.53675414915E+02  0.39330894911E+02 -0.78516233180E+02  0.10292117534E+03  0.00000000000E+00 0.  1.
</event>
<event>
 7    1  0.5676357E-006  0.6178005E+02  0.7818608E-02  0.1430067E+00
          2   -1    0    0  502    0  0.00000000000E+00  0.00000000000E+00  0.11248787708E+04  0.11248787708E+04  0.00000000000E+00 0. -1.
          1   -1    0    0  501    0 -0.00000000000E+00 -0.00000000000E+00 -0.46181591067E+03  0.46181591067E+03  0.00000000000E+00 0. -1.
         25    2    1    2    0    0 -0.17465976342E+02 -0.67946572241E+02  0.23589614960E+02  0.14526803243E+03  0.12499813720E+03 0.  0.
          2    1    1    2  501    0 -0.32602339016E+02  0.31560806626E+02 -0.39876840876E+03  0.40134180053E+03  0.00000000000E+00 0. -1.
          1    1    1    2  502    0  0.50068315357E+02  0.36385765616E+02  0.10382416539E+04  0.10400848485E+04  0.00000000000E+00 0. -1.
         22    1    3    3    0    0 -0.28156481808E+01 -0.12881725005E+02 -0.50277328281E+02  0.51977653399E+02  0.00000000000E+00 0.  1.
         22    1    3    3    0    0 -0.14650328161E+02 -0.55064847236E+02  0.73866943241E+02  0.93290379033E+02  0.00000000000E+00 0.  1.
</event>
<event>
 7    1  0.5676357E-006  0.1192641E+03  0.7818608E-02  0.1350299E+00
          2   -1    0    0  502    0  0.00000000000E+00  0.00000000000E+00  0.15309275409E+04  0.15309275409E+04  0.00000000000E+00 0. -1.
          1   -1    0    0  501    0 -0.00000000000E+00 -0.00000000000E+00 -0.56206429237E+02  0.56206429237E+02  0.00000000000E+00 0. -1.
         25    2    1    2    0    0  0.78641719847E+02  0.13387097675E+03  0.29448703526E+03  0.35561933513E+03  0.12504614773E+03 0.  0.
          2    1    1    2  501    0 -0.36479957404E+02 -0.25721956588E+02 -0.94434353774E+00  0.44646367463E+02  0.00000000000E+00 0. -1.
          1    1    1    2  502    0 -0.42161762442E+02 -0.10814902016E+03  0.11811784199E+04  0.11868682675E+04  0.00000000000E+00 0. -1.
         22    1    3    3    0    0  0.46960712638E+02  0.70618298425E+02  0.44415295540E+02  0.95733855463E+02  0.00000000000E+00 0. -1.
         22    1    3    3    0    0  0.31681007208E+02  0.63252678328E+02  0.25007173972E+03  0.25988547967E+03  0.00000000000E+00 0. -1.
</event>
<event>
 7    1  0.5676357E-006  0.4980730E+02  0.7818608E-02  0.1503658E+00
          2   -1    0    0  502    0  0.00000000000E+00  0.00000000000E+00  0.19911554226E+04  0.19911554226E+04  0.00000000000E+00 0. -1.
          1   -1    0    0  501    0 -0.00000000000E+00 -0.00000000000E+00 -0.14781106464E+03  0.14781106464E+03  0.00000000000E+00 0. -1.
         25    2    1    2    0    0  0.38941650193E+02 -0.71896567811E+02  0.21711522977E+03  0.26353243392E+03  0.12499900859E+03 0.  0.
          2    1    1    2  501    0 -0.19257301518E+02  0.45240466935E+02 -0.11958859961E+03  0.12930188192E+03  0.00000000000E+00 0. -1.
          1    1    1    2  502    0 -0.19684348674E+02  0.26656100876E+02  0.17458177278E+04  0.17461321714E+04  0.00000000000E+00 0. -1.
         22    1    3    3    0    0  0.22225746834E+02 -0.86934807385E+02  0.67623419490E+02  0.11235911810E+03  0.00000000000E+00 0.  1.
         22    1    3    3    0    0  0.16715903359E+02  0.15038239574E+02  0.14949181028E+03  0.15117331582E+03  0.00000000000E+00 0.  1.
</event>
<event>
 7    1  0.5676357E-006  0.7094749E+02  0.7818608E-02  0.1395651E+00
          2   -1    0    0  502    0  0.00000000000E+00  0.00000000000E+00  0.11654162525E+04  0.11654162525E+04  0.00000000000E+00 0. -1.
          1   -1    0    0  501    0 -0.00000000000E+00 -0.00000000000E+00 -0.65040754895E+03  0.65040754895E+03  0.00000000000E+00 0. -1.
         25    2    1    2    0    0  0.54559639144E+02  0.80810732566E+02  0.54046436491E+03  0.56323607909E+03  0.12500408925E+03 0.  0.
          2    1    1    2  501    0  0.69845607161E+01 -0.51155028658E+02 -0.63607082502E+03  0.63816276567E+03  0.00000000000E+00 0. -1.
          1    1    1    2  502    0 -0.61544199860E+02 -0.29655703908E+02  0.61061516364E+03  0.61442495666E+03  0.00000000000E+00 0. -1.
         22    1    3    3    0    0  0.20496659753E+02  0.10012643651E+03  0.24908674824E+03  0.26923897284E+03  0.00000000000E+00 0. -1.
         22    1    3    3    0    0  0.34062979391E+02 -0.19315703948E+02  0.29137761667E+03  0.29399710624E+03  0.00000000000E+00 0. -1.
</event>
<event>
 7    1  0.5676357E-006  0.4744452E+02  0.7818608E-02  0.1536927E+00
          2   -1    0    0  502    0  0.00000000000E+00  0.00000000000E+00  0.74419199809E+03  0.74419199809E+03  0.00000000000E+00 0. -1.
          1   -1    0    0  501    0 -0.00000000000E+00 -0.00000000000E+00 -0.21382642258E+02  0.21382642258E+02  0.00000000000E+00 0. -1.
         25    2    1    2    0    0  0.80766940771E-01 -0.36156666793E+02  0.22861571726E+03  0.26305388651E+03  0.12499955982E+03 0.  0.
          2    1    1    2  501    0  0.13467985992E+02  0.60488955897E+02  0.29937983379E+03  0.30572632421E+03  0.00000000000E+00 0. -1.
          1    1    1    2  502    0 -0.13548752933E+02 -0.24332289103E+02  0.19481380479E+03  0.19679442963E+03  0.00000000000E+00 0. -1.
         22    1    3    3    0    0 -0.27911301502E+02 -0.75945587403E+02  0.15436488507E+03  0.17428508467E+03  0.00000000000E+00 0. -1.
         22    1    3    3    0    0  0.27992068443E+02  0.39788920610E+02  0.74250832189E+02  0.88768801838E+02  0.00000000000E+00 0. -1.
</event>
<event>
 7    1  0.5676357E-006  0.1037896E+03  0.7818608E-02  0.1417413E+00
          2   -1    0    0  502    0  0.00000000000E+00  0.00000000000E+00  0.45169211474E+03  0.45169211474E+03  0.00000000000E+00 0. -1.
          1   -1    0    0  501    0 -0.00000000000E+00 -0.00000000000E+00 -0.41866629557E+03  0.41866629557E+03  0.00000000000E+00 0. -1.
         25    2    1    2    0    0  0.10045808132E+03  0.82034536049E+02  0.91005553462E+02  0.20181751826E+03  0.12500723462E+03 0.  0.
          2    1    1    2  501    0 -0.22540213425E+02 -0.19424064411E+02 -0.35443815476E+03  0.35568491822E+03  0.00000000000E+00 0. -1.
          1    1    1    2  502    0 -0.77917867891E+02 -0.62610471638E+02  0.29645842046E+03  0.31285597383E+03  0.00000000000E+00 0. -1.
         22    1    3    3    0    0  0.21928776297E+02  0.34807276900E+02 -0.29358436859E+02  0.50540434999E+02  0.00000000000E+00 0. -1.
         22    1    3    3    0    0  0.78529305019E+02  0.47227259149E+02  0.12036399032E+03  0.15127708326E+03  0.00000000000E+00 0. -1.
</event>
<event>
 7    1  0.5676357E-006  0.1248661E+03  0.7818608E-02  0.1294561E+00
          2   -1    0    0  502    0  0.00000000000E+00  0.00000000000E+00  0.90312254457E+02  0.90312254457E+02  0.00000000000E+00 0. -1.
          1   -1    0    0  501    0 -0.00000000000E+00 -0.00000000000E+00 -0.57167659395E+03  0.57167659395E+03  0.00000000000E+00 0. -1.
         25    2    1    2    0    0  0.13885263774E+03  0.32704662605E+02 -0.13876564022E+03  0.23502323173E+03  0.12502146449E+03 0.  0.
          2    1    1    2  501    0 -0.22020992540E+02 -0.66479769076E+02 -0.28299075621E+03  0.29152744623E+03  0.00000000000E+00 0. -1.
          1    1    1    2  502    0 -0.11683164520E+03  0.33775106471E+02 -0.59607943068E+02  0.13543817045E+03  0.00000000000E+00 0. -1.
         22    1    3    3    0    0  0.10730784332E+02  0.33099498747E+02 -0.92458513603E+02  0.98789186086E+02  0.00000000000E+00 0.  1.
         22    1    3    3    0    0  0.12812185341E+03 -0.39483614253E+00 -0.46307126620E+02  0.13623404564E+03  0.00000000000E+00 0.  1.
</event>
<event>
 7    1  0.5676357E-006  0.1253330E+03  0.7818608E-02  0.1239782E+00
          2   -1    0    0  502    0  0.00000000000E+00  0.00000000000E+00  0.14866866288E+04  0.14866866288E+04  0.00000000000E+00 0. -1.
          1   -1    0    0  501    0 -0.00000000000E+00 -0.00000000000E+00 -0.32682352909E+03  0.32682352909E+03  0.00000000000E+00 0. -1.
         25    2    1    2    0    0 -0.11538962826E+03  0.54738718490E+02  0.10688671642E+03  0.20823772732E+03  0.12500834900E+03 0.  0.
          2    1    1    2  501    0  0.94532920478E+02  0.71981583946E+02 -0.26008763350E+03  0.28594299883E+03  0.00000000000E+00 0. -1.
          1    1    1    2  502    0  0.20856707780E+02 -0.12672030244E+03  0.13130640168E+04  0.13193294318E+04  0.00000000000E+00 0. -1.
         22    1    3    3    0    0 -0.38395127022E+02  0.78272901323E+02  0.19346147526E+02  0.89303450575E+02  0.00000000000E+00 0.  1.
         22    1    3    3    0    0 -0.76994501235E+02 -0.23534182833E+02  0.87540568895E+02  0.11893427674E+03  0.00000000000E+00 0.  1.
</event>
<event>
 7    1  0.5676357E-006  0.1610503E+03  0.7818608E-02  0.1212371E+00
          2   -1    0    0  502    0  0.00000000000E+00  0.00000000000E+00  0.55442508340E+03  0.55442508340E+03  0.00000000000E+00 0. -1.
          1   -1    0    0  501    0 -0.00000000000E+00 -0.00000000000E+00 -0.21254428092E+04  0.21254428092E+04  0.00000000000E+00 0. -1.
         25    2    1    2    0    0  0.76041767241E+02 -0.15941757605E+02 -0.21682663391E+03  0.26206166195E+03  0.12500414189E+03 0.  0.
          2    1    1    2  501    0  0.18311264375E+02 -0.12157561537E+03 -0.18708561247E+04  0.18748916161E+04  0.00000000000E+00 0. -1.
          1    1    1    2  502    0 -0.94353031617E+02  0.13751737298E+03  0.51666503289E+03  0.54291461451E+03  0.00000000000E+00 0. -1.
         22    1    3    3    0    0  0.46694187638E+02  0.17634737327E+02 -0.21131278290E+03  0.21712766598E+03  0.00000000000E+00 0.  1.
         22    1    3    3    0    0  0.29347579603E+02 -0.33576494932E+02 -0.55138510129E+01  0.44933995966E+02  0.00000000000E+00 0.  1.
</event>
<event>
 7    1  0.5676357E-006  0.1634969E+03  0.7818608E-02  0.1224037E+00
          2   -1    0    0  502    0  0.00000000000E+00  0.00000000000E+00  0.28639863749E+04  0.28639863749E+04  0.00000000000E+00 0. -1.
          1   -1    0    0  501    0 -0.00000000000E+00 -0.00000000000E+00 -0.10086911941E+04  0.10086911941E+04  0.00000000000E+00 0. -1.
         25    2    1    2    0    0  0.16619156643E+03 -0.20376221021E+03  0.30354691697E+02  0.29271787194E+03  0.12499468061E+03 0.  0.
          2    1    1    2  501    0 -0.44230872209E+02  0.97546933086E+02 -0.87180967709E+03  0.87836432491E+03  0.00000000000E+00 0. -1.
          1    1    1    2  502    0 -0.12196069423E+03  0.10621527712E+03  0.26967501662E+04  0.27015953722E+04  0.00000000000E+00 0. -1.
         22    1    3    3    0    0  0.10656401279E+03 -0.35309873307E+02  0.16779592137E+02  0.11350872516E+03  0.00000000000E+00 0.  1.
         22    1    3    3    0    0  0.59627553646E+02 -0.16845233690E+03  0.13575099560E+02  0.17920914678E+03  0.00000000000E+00 0.  1.
</event>
<event>
 7    1  0.5676357E-006  0.8495676E+02  0.7818608E-02  0.1445908E+00
          2   -1    0    0  502    0  0.00000000000E+00  0.00000000000E+00  0.16446192946E+03  0.16446192946E+03  0.00000000000E+00 0. -1.
          1   -1    0    0  501    0 -0.00000000000E+00 -0.00000000000E+00 -0.19055871706E+03  0.19055871706E+03  0.00000000000E+00 0. -1.
         25    2    1    2    0    0  0.45307298756E+02  0.41442161624E+02  0.23186975922E+02  0.14118347862E+03  0.12499973881E+03 0.  0.
          2    1    1    2  501    0 -0.58832059452E+02 -0.67437883237E+02 -0.11273958266E+03  0.14394197724E+03  0.00000000000E+00 0. -1.
          1    1    1    2  502    0  0.13524760695E+02  0.25995721612E+02  0.63455819138E+02  0.69895190653E+02  0.00000000000E+00 0. -1.
         22    1    3    3    0    0  0.69889321436E+02  0.71692621745E+02  0.19770472776E+02  0.10205498938E+03  0.00000000000E+00 0. -1.
         22    1    3    3    0    0 -0.24582022680E+02 -0.30250460121E+02  0.34165031459E+01  0.39128489241E+02  0.00000000000E+00 0. -1.
</event>
<event>
 7    1  0.5676357E-006  0.9490180E+02  0.7818608E-02  0.1429815E+00
          2   -1    0    0  502    0  0.00000000000E+00  0.00000000000E+00  0.55488424297E+03  0.55488424297E+03  0.00000000000E+00 0. -1.
          1   -1    0    0  501    0 -0.00000000000E+00 -0.00000000000E+00 -0.12040322649E+04  0.12040322649E+04  0.00000000000E+00 0. -1.
         25    2    1    2    0    0 -0.71255111458E+02 -0.25389205242E+01  0.11527751642E+03  0.18438396125E+03  0.12499920939E+03 0.  0.
          2    1    1    2  501    0 -0.26673246733E+02 -0.12824057982E+02 -0.11632233797E+04  0.11635998237E+04  0.00000000000E+00 0. -1.
          1    1    1    2  502    0  0.97928358191E+02  0.15362978506E+02  0.39879784141E+03  0.41093272291E+03  0.00000000000E+00 0. -1.
         22    1    3    3    0    0 -0.91003418286E+02 -0.24548339806E+02  0.12189071552E+03  0.15408306090E+03  0.00000000000E+00 0.  1.
         22    1    3    3    0    0  0.19748306828E+02  0.22009419282E+02 -0.66131990997E+01  0.30300900350E+02  0.00000000000E+00 0.  1.
</event>
<event>
 7    1  0.5676357E-006  0.7433427E+02  0.7818608E-02  0.1394777E+00
          2   -1    0    0  502    0  0.00000000000E+00  0.00000000000E+00  0.18705715314E+04  0.18705715314E+04  0.00000000000E+00 0. -1.
          1   -1    0    0  501    0 -0.00000000000E+00 -0.00000000000E+00 -0.53716994285E+02  0.53716994285E+02  0.00000000000E+00 0. -1.
         25    2    1    2    0    0  0.42972765749E+02  0.20914912277E+02  0.57449275223E+03  0.58987028179E+03  0.12498373825E+03 0.  0.
          2    1    1    2  501    0 -0.32047543897E+02 -0.69319356541E+02 -0.13520023007E+02  0.77556490916E+02  0.00000000000E+00 0. -1.
          1    1    1    2  502    0 -0.10925221852E+02  0.48404444263E+02  0.12558818079E+04  0.12568617530E+04  0.00000000000E+00 0. -1.
         22    1    3    3    0    0  0.73835024332E+02 -0.25214259348E+02  0.35451483459E+03  0.36299881217E+03  0.00000000000E+00 0.  1.
         22    1    3    3    0    0 -0.30862258584E+02  0.46129171625E+02  0.21997791764E+03  0.22687146962E+03  0.00000000000E+00 0.  1.
</event>
<event>
 7    1  0.5676357E-006  0.1182637E+03  0.7818608E-02  0.1372068E+00
          2   -1    0    0  502    0  0.00000000000E+00  0.00000000000E+00  0.62476437689E+03  0.62476437689E+03  0.00000000000E+00 0. -1.
          1   -1    0    0  501    0 -0.00000000000E+00 -0.00000000000E+00 -0.14191596436E+03  0.14191596436E+03  0.00000000000E+00 0. -1.
         25    2    1    2    0    0  0.58931843063E+02  0.64703994572E+02  0.86684636945E+02  0.17549525678E+03  0.12499915931E+03 0.  0.
          2    1    1    2  501    0  0.15475748365E+02  0.34158454761E+02 -0.85775726846E+02  0.93615031566E+02  0.00000000000E+00 0. -1.
          1    1    1    2  502    0 -0.74407591429E+02 -0.98862449333E+02  0.48193950243E+03  0.49757005291E+03  0.00000000000E+00 0. -1.
         22    1    3    3    0    0  0.17520401241E+02  0.90712438529E+02  0.23013105851E+02  0.95211942552E+02  0.00000000000E+00 0. -1.
         22    1    3    3    0    0  0.41411441822E+02 -0.26008443957E+02  0.63671531094E+02  0.80283314223E+02  0.00000000000E+00 0. -1.
</event>
<event>
 7    1  0.5676357E-006  0.1222222E+03  0.7818608E-02  0.1383775E+00
          2   -1    0    0  502    0  0.00000000000E+00  0.00000000000E+00  0.12500968114E+03  0.12500968114E+03  0.00000000000E+00 0. -1.
          1   -1    0    0  501    0 -0.00000000000E+00 -0.00000000000E+00 -0.59083975645E+03  0.59083975645E+03  0.00000000000E+00 0. -1.
         25    2    1    2    0    0 -0.13064391435E+02 -0.10713246790E+03 -0.12627976181E+03  0.20789176344E+03  0.12499745222E+03 0.  0.
          2    1    1    2  501    0 -0.30663315592E+02 -0.12121172120E+02 -0.37471432816E+03  0.37616218505E+03  0.00000000000E+00 0. -1.
          1    1    1    2  502    0  0.43727707026E+02  0.11925364002E+03  0.35164014665E+02  0.13179548910E+03  0.00000000000E+00 0. -1.
         22    1    3    3    0    0 -0.30575964622E+02 -0.72174519184E+02 -0.14478011982E+03  0.16463697619E+03  0.00000000000E+00 0. -1.
         22    1    3    3    0    0  0.17511573187E+02 -0.34957948712E+02  0.18500358013E+02  0.43254787252E+02  0.00000000000E+00 0. -1.
</event>
<event>
 7    1  0.5676357E-006  0.4934803E+02  0.7818608E-02  0.1455943E+00
          2   -1    0    0  502    0  0.00000000000E+00  0.00000000000E+00  0.32531265555E+04  0.32531265555E+04  0.00000000000E+00 0. -1.
          1   -1    0    0  501    0 -0.00000000000E+00 -0.00000000000E+00 -0.37483436360E+02  0.37483436360E+02  0.00000000000E+00 0. -1.
         25    2    1    2    0    0  0.56182455679E+02 -0.66586753033E+02  0.90594137077E+03  0.91866517323E+03  0.12500267689E+03 0.  0.
          2    1    1    2  501    0 -0.13188584982E+02  0.44963399837E+02 -0.13092216175E+02  0.48652360920E+02  0.00000000000E+00 0. -1.
          1    1    1    2  502    0 -0.42993870696E+02  0.21623353196E+02  0.23227939645E+04  0.23232924577E+04  0.00000000000E+00 0. -1.
         22    1    3    3    0    0 -0.21937058195E+02  0.24106201855E+02  0.20597257127E+03  0.20853547326E+03  0.00000000000E+00 0. -1.
         22    1    3    3    0    0  0.78119513873E+02 -0.90692954888E+02  0.69996879950E+03  0.71012969998E+03  0.00000000000E+00 0. -1.
</event>
<event>
 7    1  0.5676357E-006  0.8953732E+02  0.7818608E-02  0.1349625E+00
          2   -1    0    0  502    0  0.00000000000E+00  0.00000000000E+00  0.81959133093E+03  0.81959133093E+03  0.00000000000E+00 0. -1.
          1   -1    0    0  501    0 -0.00000000000E+00 -0.00000000000E+00 -0.19811761235E+03  0.19811761235E+03  0.00000000000E+00 0. -1.
         25    2    1    2    0    0  0.46824936436E+02 -0.11265796399E+03  0.57178249996E+02  0.18379149099E+03  0.12500227343E+03 0.  0.
          2    1    1    2  501    0  0.21285041603E+02  0.55882419466E+02 -0.12519790546E+03  0.13874585880E+03  0.00000000000E+00 0. -1.
          1    1    1    2  502    0 -0.68109978039E+02  0.56775544528E+02  0.68949337404E+03  0.69517159350E+03  0.00000000000E+00 0. -1.
         22    1    3    3    0    0 -0.38830844817E+02 -0.66467990472E+02  0.31249047803E+02  0.83080269951E+02  0.00000000000E+00 0.  1.
         22    1    3    3    0    0  0.85655781253E+02 -0.46189973522E+02  0.25929202193E+02  0.10071122104E+03  0.00000000000E+00 0.  1.
</event>
<event>
 7    1  0.5676357E-006  0.3589024E+02  0.7818608E-02  0.1541466E+00
          2   -1    0    0  502    0  0.00000000000E+00  0.00000000000E+00  0.10877287132E+04  0.10877287132E+04  0.00000000000E+00 0. -1.
          1   -1    0    0  501    0 -0.00000000000E+00 -0.00000000000E+00 -0.52999407307E+02  0.52999407307E+02  0.00000000000E+00 0. -1.
         25    2    1    2    0    0  0.20994380261E+02 -0.80209386926E+01  0.37379932719E+03  0.39478673880E+03  0.12500213063E+03 0.  0.
          2    1    1    2  501    0  0.36025939573E+01  0.35708966482E+02 -0.34347883444E+02  0.49677822693E+02  0.00000000000E+00 0. -1.
          1    1    1    2  502    0 -0.24596974218E+02 -0.27688027789E+02  0.69527786212E+03  0.69626355899E+03  0.00000000000E+00 0. -1.
         22    1    3    3    0    0  0.13987635611E+02  0.10688985634E+02  0.37438559573E+03  0.37479925648E+03  0.00000000000E+00 0. -1.
         22    1    3    3    0    0  0.70067446498E+01 -0.18709924326E+02 -0.58626853736E+00  0.19987482325E+02  0.00000000000E+00 0. -1.
</event>
<event>
 7    1  0.5676357E-006  0.9267004E+02  0.7818608E-02  0.1351872E+00
          2   -1    0    0  502    0  0.00000000000E+00  0.00000000000E+00  0.84834982008E+03  0.84834982008E+03  0.00000000000E+00 0. -1.
          1   -1    0    0  501    0 -0.00000000000E+00 -0.00000000000E+00 -0.60072816463E+03  0.60072816463E+03  0.00000000000E+00 0. -1.
         25    2    1    2    0    0 -0.24915465034E+02  0.68452909341E+02 -0.90478238201E+02  0.17063673814E+03  0.12499601441E+03 0.  0.
          2    1    1    2  501    0 -0.53720151745E+02 -0.18081478695E+02 -0.46574936221E+03  0.46918574464E+03  0.00000000000E+00 0. -1.
          1    1    1    2  502    0  0.78635616779E+02 -0.50371430645E+02  0.80384925586E+03  0.80925550193E+03  0.00000000000E+00 0. -1.
         22    1    3    3    0    0  0.19190036748E+02  0.13988706757E+01 -0.88274678890E+02  0.90347292614E+02  0.00000000000E+00 0. -1.
         22    1    3    3    0    0 -0.44105501783E+02  0.67054038665E+02 -0.22035593111E+01  0.80289445523E+02  0.00000000000E+00 0. -1.
</event>
<event>
 7    1  0.5676357E-006  0.6390381E+02  0.7818608E-02  0.1439365E+00
          2   -1    0    0  502    0  0.00000000000E+00  0.00000000000E+00  0.27108861514E+04  0.27108861514E+04  0.00000000000E+00 0. -1.
          1   -1    0    0  501    0 -0.00000000000E+00 -0.00000000000E+00 -0.12326903090E+04  0.12326903090E+04  0.00000000000E+00 0. -1.
         25    2    1    2    0    0  0.89202587456E+01 -0.37318126592E+02  0.33988585033E+03  0.36416913775E+03  0.12499822420E+03 0.  0.
          2    1    1    2  501    0  0.40599624112E+02 -0.49650155166E+01 -0.12197564252E+04  0.12204420174E+04  0.00000000000E+00 0. -1.
          1    1    1    2  502    0 -0.49519882857E+02  0.42283142108E+02  0.23580664173E+04  0.23589653052E+04  0.00000000000E+00 0. -1.
         22    1    3    3    0    0  0.31523282726E+02 -0.68806560080E+02  0.12746619167E+03  0.14824199838E+03  0.00000000000E+00 0.  1.
         22    1    3    3    0    0 -0.22603023980E+02  0.31488433488E+02  0.21241965866E+03  0.21592713938E+03  0.00000000000E+00 0.  1.
</event>
<event>
 7    1  0.5676357E-006  0.1035038E+03  0.7818608E-02  0.1288334E+00
          2   -1    0    0  502    0  0.00000000000E+00  0.00000000000E+00  0.19152987006E+03  0.19152987006E+03  0.00000000000E+00 0. -1.
          1   -1    0    0  501    0 -0.00000000000E+00 -0.00000000000E+00 -0.10224948849E+04  0.10224948849E+04  0.00000000000E+00 0. -1.
         25    2    1    2    0    0 -0.32184908009E+02  0.11250928504E+02 -0.21942343149E+03  0.25482269495E+03  0.12500204749E+03 0.  0.
          2    1    1    2  501    0  0.10596331097E+03 -0.62000438458E+02 -0.76863544141E+03  0.77837826243E+03  0.00000000000E+00 0. -1.
          1    1    1    2  502    0 -0.73778402960E+02  0.50749509954E+02  0.15709385810E+03  0.18082379754E+03  0.00000000000E+00 0. -1.
         22    1    3    3    0    0 -0.25892467651E+02 -0.33598922105E+02 -0.20182518824E+03  0.20623460926E+03  0.00000000000E+00 0.  1.
         22    1    3    3    0    0 -0.62924403584E+01  0.44849850609E+02 -0.17598243252E+02  0.48588085688E+02  0.00000000000E+00 0.  1.
</event>
<event>
 7    1  0.5676357E-006  0.1110210E+03  0.7818608E-02  0.1259665E+00
          2   -1    0    0  502    0  0.00000000000E+00  0.00000000000E+00  0.33672390812E+03  0.33672390812E+03  0.00000000000E+00 0. -1.
          1   -1    0    0  501    0 -0.00000000000E+00 -0.00000000000E+00 -0.11158681966E+04  0.11158681966E+04  0.00000000000E+00 0. -1.
         25    2    1    2    0    0  0.25472462248E+02 -0.20708921914E+02 -0.80716726383E+02  0.15237432133E+03  0.12500015242E+03 0.  0.
          2    1    1    2  501    0  0.25397763833E+02  0.11819639815E+03 -0.98545752557E+03  0.99284539060E+03  0.00000000000E+00 0. -1.
          1    1    1    2  502    0 -0.50870226081E+02 -0.97487476232E+02  0.28702996346E+03  0.30737239279E+03  0.00000000000E+00 0. -1.
         22    1    3    3    0    0 -0.38953208743E+02  0.26430177154E+02 -0.16364846318E+02  0.49836883237E+02  0.00000000000E+00 0.  1.
         22    1    3    3    0    0  0.64425670991E+02 -0.47139099067E+02 -0.64351880065E+02  0.10253743810E+03  0.00000000000E+00 0.  1.
</event>
<event>
 7    1  0.5676357E-006  0.4302668E+02  0.7818608E-02  0.1535684E+00
          2   -1    0    0  502    0  0.00000000000E+00  0.00000000000E+00  0.13923549030E+04  0.13923549030E+04  0.00000000000E+00 0. -1.
          1   -1    0    0  501    0 -0.00000000000E+00 -0.00000000000E+00 -0.19137693504E+03  0.19137693504E+03  0.00000000000E+00 0. -1.
         25    2    1    2    0    0  0.20025887851E+02 -0.61865828123E+02  0.30299952497E+03  0.33414619635E+03  0.12496620156E+03 0.  0.
          2    1    1    2  501    0  0.80743017487E+01  0.29889146636E+02 -0.17401476963E+03  0.17674754732E+03  0.00000000000E+00 0. -1.
          1    1    1    2  502    0 -0.28100189600E+02  0.31976681487E+02  0.10719932126E+04  0.10728380944E+04  0.00000000000E+00 0. -1.
         22    1    3    3    0    0 -0.90035339089E+01 -0.21105353725E+02 -0.38298090549E+01  0.23262996713E+02  0.00000000000E+00 0.  1.
         22    1    3    3    0    0  0.29029421760E+02 -0.40760474398E+02  0.30682933402E+03  0.31088319964E+03  0.00000000000E+00 0.  1.
</event>
<event>
 7    1  0.5676357E-006  0.1170836E+03  0.7818608E-02  0.1264261E+00
          2   -1    0    0  502    0  0.00000000000E+00  0.00000000000E+00  0.10478031485E+04  0.10478031485E+04  0.00000000000E+00 0. -1.
          1   -1    0    0  501    0 -0.00000000000E+00 -0.00000000000E+00 -0.40928918358E+03  0.40928918358E+03  0.00000000000E+00 0. -1.
         25    2    1    2    0    0 -0.91920951170E+02 -0.58210863988E+01  0.66240760203E+03  0.68036161419E+03  0.12499899408E+03 0.  0.
          2    1    1    2  501    0 -0.89790082900E+02  0.43282345600E+02 -0.37045540361E+03  0.38363110731E+03  0.00000000000E+00 0. -1.
          1    1    1    2  502    0  0.18171103407E+03 -0.37461259201E+02  0.34656176649E+03  0.39309961057E+03  0.00000000000E+00 0. -1.
         22    1    3    3    0    0  0.25143059643E+02  0.23135171967E+02  0.17030439636E+03  0.17369800532E+03  0.00000000000E+00 0. -1.
         22    1    3    3    0    0 -0.11706401081E+03 -0.28956258365E+02  0.49210320567E+03  0.50666360887E+03  0.00000000000E+00 0. -1.
</event>
<event>
 7    1  0.5676357E-006  0.1061417E+03  0.7818608E-02  0.1414141E+00
          2   -1    0    0  502    0  0.00000000000E+00  0.00000000000E+00  0.96250488777E+03  0.96250488777E+03  0.00000000000E+00 0. -1.
          1   -1    0    0  501    0 -0.00000000000E+00 -0.00000000000E+00 -0.44639826954E+03  0.44639826954E+03  0.00000000000E+00 0. -1.
         25    2    1    2    0    0  0.51223733723E+02 -0.11423856811E+03  0.87942508218E+02  0.19756776832E+03  0.12499926794E+03 0.  0.
          2    1    1    2  501    0  0.93421692523E+01  0.28341536772E+02 -0.38764093787E+03  0.38878787989E+03  0.00000000000E+00 0. -1.
          1    1    1    2  502    0 -0.60565902975E+02  0.85897031337E+02  0.81580504788E+03  0.82254750911E+03  0.00000000000E+00 0. -1.
         22    1    3    3    0    0  0.64500570308E+02 -0.30569870729E+01  0.38376886730E+02  0.75116271041E+02  0.00000000000E+00 0.  1.
         22    1    3    3    0    0 -0.13276836585E+02 -0.11118158104E+03  0.49565621489E+02  0.12245149728E+03  0.00000000000E+00 0.  1.
</event>
<event>
 7    1  0.5676357E-006  0.6669364E+02  0.7818608E-02  0.1492613E+00
          2   -1    0    0  502    0  0.00000000000E+00  0.00000000000E+00  0.55634020074E+03  0.55634020074E+03  0.00000000000E+00 0. -1.
          1   -1    0    0  501    0 -0.00000000000E+00 -0.00000000000E+00 -0.34023115942E+03  0.34023115942E+03  0.00000000000E+00 0. -1.
         25    2    1    2    0    0 -0.61467775515E+02  0.31663262829E+02 -0.21969266166E+02  0.14453135108E+03  0.12500325255E+03 0.  0.
          2    1    1    2  501    0  0.66646943053E+02 -0.54674138972E+01 -0.25226118004E+03  0.26097396534E+03  0.00000000000E+00 0. -1.
          1    1    1    2  502    0 -0.51791675377E+01 -0.26195848932E+02  0.49033948753E+03  0.49106604373E+03  0.00000000000E+00 0. -1.
         22    1    3    3    0    0 -0.72856489072E+02 -0.22033600702E+02 -0.40974048933E+02  0.86443161937E+02  0.00000000000E+00 0.  1.
         22    1    3    3    0    0  0.11388713557E+02  0.53696863531E+02  0.19004782767E+02  0.58088189140E+02  0.00000000000E+00 0.  1.
</event>
<event>
 7    1  0.5676357E-006  0.6381302E+02  0.7818608E-02  0.1402961E+00
          2   -1    0    0  502    0  0.00000000000E+00  0.00000000000E+00  0.53244734856E+03  0.53244734856E+03  0.00000000000E+00 0. -1.
          1   -1    0    0  501    0 -0.00000000000E+00 -0.00000000000E+00 -0.44307581574E+02  0.44307581574E+02  0.00000000000E+00 0. -1.
         25    2    1    2    0    0 -0.93481984572E+02 -0.59009325258E+02  0.27543417314E+03  0.32203365916E+03  0.12498284679E+03 0.  0.
          2    1    1    2  501    0  0.49211873450E+02  0.27790454743E+02  0.29656663417E+02  0.63825038569E+02  0.00000000000E+00 0. -1.
          1    1    1    2  502    0  0.44270111122E+02  0.31218870515E+02  0.18304893043E+03  0.19089623241E+03  0.00000000000E+00 0. -1.
         22    1    3    3    0    0 -0.84751234310E+02  0.19710136898E+02  0.13003052511E+03  0.15645829692E+03  0.00000000000E+00 0.  1.
         22    1    3    3    0    0 -0.87307502617E+01 -0.78719462156E+02  0.14540364803E+03  0.16557536224E+03  0.00000000000E+00 0.  1.
</event>
<event>
 7    1  0.5676357E-006  0.5609673E+02  0.7818608E-02  0.1542922E+00
          2   -1    0    0  502    0  0.00000000000E+00  0.00000000000E+00  0.17726249989E+04  0.17726249989E+04  0.00000000000E+00 0. -1.
          1   -1    0    0  501    0 -0.00000000000E+00 -0.00000000000E+00 -0.19036065709E+03  0.19036065709E+03  0.00000000000E+00 0. -1.
         25    2    1    2    0    0 -0.85587059051E+01  0.70324942892E+02  0.53216382767E+03  0.55121924929E+03  0.12500188905E+03 0.  0.
          2    1    1    2  501    0  0.16421882522E+02 -0.15603927734E+02 -0.17949999007E+03  0.18092376080E+03  0.00000000000E+00 0. -1.
          1    1    1    2  502    0 -0.78631766165E+01 -0.54721015158E+02  0.12296005042E+04  0.12308426459E+04  0.00000000000E+00 0. -1.
         22    1    3    3    0    0  0.54492428821E+02  0.29082477311E+02  0.32412683445E+03  0.32995972496E+03  0.00000000000E+00 0. -1.
         22    1    3    3    0    0 -0.63051134726E+02  0.41242465581E+02  0.20803699321E+03  0.22125952432E+03  0.00000000000E+00 0. -1.
</event>
<event>
 7    1  0.5676357E-006  0.1210129E+03  0.7818608E-02  0.1370088E+00
          2   -1    0    0  502    0  0.00000000000E+00  0.00000000000E+00  0.16366051462E+04  0.16366051462E+04  0.00000000000E+00 0. -1.
          1   -1    0    0  501    0 -0.00000000000E+00 -0.00000000000E+00 -0.38610351387E+03  0.38610351387E+03  0.00000000000E+00 0. -1.
         25    2    1    2    0    0  0.78223329439E+02  0.61833687104E+02  0.24392572206E+03  0.29166354694E+03  0.12500229040E+03 0.  0.
          2    1    1    2  501    0 -0.11247257633E+03 -0.47177458462E+02 -0.35170528573E+03  0.37225314105E+03  0.00000000000E+00 0. -1.
          1    1    1    2  502    0  0.34249246889E+02 -0.14656228642E+02  0.13582811960E+04  0.13587919721E+04  0.00000000000E+00 0. -1.
         22    1    3    3    0    0  0.30630619675E+02 -0.23594086081E+02  0.12843825597E+02  0.40741620189E+02  0.00000000000E+00 0. -1.
         22    1    3    3    0    0  0.47592709763E+02  0.85427773185E+02  0.23108189646E+03  0.25092192675E+03  0.00000000000E+00 0. -1.
</event>
<event>
 7    1  0.5676357E-006  0.4765621E+02  0.7818608E-02  0.1493586E+00
          2   -1    0    0  502    0  0.00000000000E+00  0.00000000000E+00  0.16004267491E+04  0.16004267491E+04  0.00000000000E+00 0. -1.
          1   -1    0    0  501    0 -0.00000000000E+00 -0.00000000000E+00 -0.83148812618E+02  0.83148812618E+02  0.00000000000E+00 0. -1.
         25    2    1    2    0    0 -0.48343994072E+01 -0.40215876461E+02  0.23808481327E+03  0.27193885156E+03  0.12500269012E+03 0.  0.
          2    1    1    2  501    0  0.39734805416E+02  0.27576609623E+02 -0.57098177877E+02  0.74829981135E+02  0.00000000000E+00 0. -1.
          1    1    1    2  502    0 -0.34900406009E+02  0.12639266838E+02  0.13362913011E+04  0.13368067290E+04  0.00000000000E+00 0. -1.
         22    1    3    3    0    0 -0.26674648014E+02  0.14965819183E+02  0.44788052056E+01  0.30912332273E+02  0.00000000000E+00 0. -1.
         22    1    3    3    0    0  0.21840248607E+02 -0.55181695644E+02  0.23360600807E+03  0.24102651928E+03  0.00000000000E+00 0. -1.
</event>
<event>
 7    1  0.5676357E-006  0.3068624E+03  0.7818608E-02  0.1238819E+00
          2   -1    0    0  502    0  0.00000000000E+00  0.00000000000E+00  0.78160122918E+03  0.78160122918E+03  0.00000000000E+00 0. -1.
          1   -1    0    0  501    0 -0.00000000000E+00 -0.00000000000E+00 -0.28920592814E+03  0.28920592814E+03  0.00000000000E+00 0. -1.
         25    2    1    2    0    0  0.31074172507E+03  0.25037156582E+02  0.20323099564E+03  0.39257505500E+03  0.12500022925E+03 0.  0.
          2    1    1    2  501    0 -0.30507284809E+03  0.23640793442E+02 -0.71519176274E+02  0.31423450214E+03  0.00000000000E+00 0. -1.
          1    1    1    2  502    0 -0.56688769812E+01 -0.48677950023E+02  0.36068348168E+03  0.36399760019E+03  0.00000000000E+00 0. -1.
         22    1    3    3    0    0  0.40097728675E+02  0.16189050875E+02  0.88469005424E+02  0.98471712354E+02  0.00000000000E+00 0. -1.
         22    1    3    3    0    0  0.27064399640E+03  0.88481057067E+01  0.11476199021E+03  0.29410334265E+03  0.00000000000E+00 0. -1.
</event>
<event>
 7    1  0.5676357E-006  0.6376495E+02  0.7818608E-02  0.1476034E+00
          2   -1    0    0  502    0  0.00000000000E+00  0.00000000000E+00  0.25817086122E+03  0.25817086122E+03  0.00000000000E+00 0. -1.
          1   -1    0    0  501    0 -0.00000000000E+00 -0.00000000000E+00 -0.22448326048E+03  0.22448326048E+03  0.00000000000E+00 0. -1.
         25    2    1    2    0    0 -0.59717804447E+02 -0.17482162450E+02  0.98187329618E+02  0.17068105008E+03  0.12497770596E+03 0.  0.
          2    1    1    2  501    0  0.12976949307E+02 -0.28568193047E+02 -0.17806860581E+03  0.18081197760E+03  0.00000000000E+00 0. -1.
          1    1    1    2  502    0  0.46740855140E+02  0.46050355497E+02  0.11356887693E+03  0.13116109403E+03  0.00000000000E+00 0. -1.
         22    1    3    3    0    0  0.50555304938E+01 -0.48283265157E+02 -0.66243978443E+00  0.48551734359E+02  0.00000000000E+00 0.  1.
         22    1    3    3    0    0 -0.64773334941E+02  0.30801102706E+02  0.98849769403E+02  0.12212931572E+03  0.00000000000E+00 0.  1.
</event>
<event>
 7    1  0.5676357E-006  0.3461536E+02  0.7818608E-02  0.1552180E+00
          2   -1    0    0  502    0  0.00000000000E+00  0.00000000000E+00  0.42601954475E+03  0.42601954475E+03  0.00000000000E+00 0. -1.
          1   -1    0    0  501    0 -0.00000000000E+00 -0.00000000000E+00 -0.10331263803E+04  0.10331263803E+04  0.00000000000E+00 0. -1.
         25    2    1    2    0    0 -0.69232542716E+01  0.12816026434E+01 -0.79596832171E+02  0.14837025564E+03  0.12501401166E+03 0.  0.
          2    1    1    2  501    0  0.87837397593E+01  0.33482366870E+02 -0.91804232832E+03  0.91869469333E+03  0.00000000000E+00 0. -1.
          1    1    1    2  502    0 -0.18604854877E+01 -0.34763969513E+02  0.39053232494E+03  0.39208097608E+03  0.00000000000E+00 0. -1.
         22    1    3    3    0    0 -0.23564558453E+02 -0.46050672668E+02  0.29040761599E+01  0.51811065678E+02  0.00000000000E+00 0. -1.
         22    1    3    3    0    0  0.16641304182E+02  0.47332275312E+02 -0.82500908331E+02  0.96559189964E+02  0.00000000000E+00 0. -1.
</event>
<event>
 7    1  0.5676357E-006  0.4658354E+02  0.7818608E-02  0.1470132E+00
          2   -1    0    0  502    0  0.00000000000E+00  0.00000000000E+00  0.21336014085E+04  0.21336014085E+04  0.00000000000E+00 0. -1.
          1   -1    0    0  501    0 -0.00000000000E+00 -0.00000000000E+00 -0.23876996495E+02  0.23876996495E+02  0.00000000000E+00 0. -1.
         25    2    1    2    0    0 -0.57527391517E+01 -0.50343263327E+00  0.27412652232E+03  0.30133783218E+03  0.12500316562E+03 0.  0.
          2    1    1    2  501    0 -0.22916145559E+02  0.38491742785E+02  0.40435039650E+02  0.60346966961E+02  0.00000000000E+00 0. -1.
          1    1    1    2  502    0  0.28668884711E+02 -0.37988310152E+02  0.17951628501E+04  0.17957936059E+04  0.00000000000E+00 0. -1.
         22    1    3    3    0    0 -0.60265128728E+02 -0.12773330513E+02  0.19479188173E+03  0.20430105458E+03  0.00000000000E+00 0. -1.
         22    1    3    3    0    0  0.54512389576E+02  0.12269897880E+02  0.79334640586E+02  0.97036777606E+02  0.00000000000E+00 0. -1.
</event>
<event>
 7    1  0.5676357E-006  0.6880791E+02  0.7818608E-02  0.1394022E+00
          2   -1    0    0  502    0  0.00000000000E+00  0.00000000000E+00  0.23921818987E+03  0.23921818987E+03  0.00000000000E+00 0. -1.
          1   -1    0    0  501    0 -0.00000000000E+00 -0.00000000000E+00 -0.34148776658E+03  0.34148776658E+03  0.00000000000E+00 0. -1.
         25    2    1    2    0    0  0.11850467130E+03 -0.49932811369E-01 -0.11570329252E+03  0.20749455117E+03  0.12499350884E+03 0.  0.
          2    1    1    2  501    0 -0.52552152157E+02  0.12119329793E+02 -0.16976670809E+03  0.17812731971E+03  0.00000000000E+00 0. -1.
          1    1    1    2  502    0 -0.65952519144E+02 -0.12069396982E+02  0.18320042390E+03  0.19508408557E+03  0.00000000000E+00 0. -1.
         22    1    3    3    0    0  0.13002627544E+03  0.12190091478E+02 -0.50271530279E+02  0.13993804840E+03  0.00000000000E+00 0.  1.
         22    1    3    3    0    0 -0.11521604138E+02 -0.12240024289E+02 -0.65431762236E+02  0.67556502765E+02  0.00000000000E+00 0.  1.
</event>
<event>
 7    1  0.5676357E-006  0.1134725E+03  0.7818608E-02  0.1260869E+00
          2   -1    0    0  502    0  0.00000000000E+00  0.00000000000E+00  0.42902662134E+03  0.42902662134E+03  0.00000000000E+00 0. -1.
          1   -1    0    0  501    0 -0.00000000000E+00 -0.00000000000E+00 -0.11194895685E+04  0.11194895685E+04  0.00000000000E+00 0. -1.
         25    2    1    2    0    0 -0.18632411543E+03  0.99022530427E+02 -0.75166636121E+03  0.79066389778E+03  0.12499977264E+03 0.  0.
          2    1    1    2  501    0  0.76673824852E+02 -0.73656000231E+02 -0.33213070860E+03  0.34873326395E+03  0.00000000000E+00 0. -1.
          1    1    1    2  502    0  0.10965029057E+03 -0.25366530196E+02  0.39333412268E+03  0.40911902809E+03  0.00000000000E+00 0. -1.
         22    1    3    3    0    0 -0.86028263063E+02 -0.16073707297E+02 -0.20098242192E+03  0.21921031005E+03  0.00000000000E+00 0. -1.
         22    1    3    3    0    0 -0.10029585236E+03  0.11509623772E+03 -0.55068393929E+03  0.57145358773E+03  0.00000000000E+00 0. -1.
</event>
<event>
 7    1  0.5676357E-006  0.5720258E+02  0.7818608E-02  0.1445006E+00
          2   -1    0    0  502    0  0.00000000000E+00  0.00000000000E+00  0.65195537466E+03  0.65195537466E+03  0.00000000000E+00 0. -1.
          1   -1    0    0  501    0 -0.00000000000E+00 -0.00000000000E+00 -0.11454237796E+04  0.11454237796E+04  0.00000000000E+00 0. -1.
         25    2    1    2    0    0 -0.81983147379E+02 -0.85778164098E+00  0.34709452725E+03  0.37791468750E+03  0.12499171145E+03 0.  0.
          2    1    1    2  501    0  0.49525137392E+02 -0.28571503606E+02 -0.11276272659E+04  0.11290758703E+04  0.00000000000E+00 0. -1.
          1    1    1    2  502    0  0.32458009987E+02  0.29429285247E+02  0.28706433374E+03  0.29038859645E+03  0.00000000000E+00 0. -1.
         22    1    3    3    0    0 -0.67055801722E+02 -0.52618917744E+02  0.13980576102E+03  0.16374028784E+03  0.00000000000E+00 0.  1.
         22    1    3    3    0    0 -0.14927345657E+02  0.51761136103E+02  0.20728876624E+03  0.21417439965E+03  0.00000000000E+00 0.  1.
</event>
<event>
 7    1  0.5676357E-006  0.4872466E+02  0.7818608E-02  0.1584799E+00
          2   -1    0    0  502    0  0.00000000000E+00  0.00000000000E+00  0.26699145765E+03  0.26699145765E+03  0.00000000000E+00 0. -1.
          1   -1    0    0  501    0 -0.00000000000E+00 -0.00000000000E+00 -0.35597434843E+03  0.35597434843E+03  0.00000000000E+00 0. -1.
         25    2    1    2    0    0 -0.28880995457E+02  0.33459088820E+02 -0.57244086227E+02  0.14437397417E+03  0.12495333724E+03 0.  0.
          2    1    1    2  501    0  0.14852700031E+02  0.13433414777E+02 -0.25208278985E+03  0.25287702994E+03  0.00000000000E+00 0. -1.
          1    1    1    2  502    0  0.14028295426E+02 -0.46892503597E+02  0.22034398531E+03  0.22571480197E+03  0.00000000000E+00 0. -1.
         22    1    3    3    0    0 -0.75810102728E+02  0.38870006540E+02 -0.39579908709E+02  0.93939439307E+02  0.00000000000E+00 0. -1.
         22    1    3    3    0    0  0.46929107270E+02 -0.54109177196E+01 -0.17664177518E+02  0.50434534866E+02  0.00000000000E+00 0. -1.
</event>
<event>
 7    1  0.5676357E-006  0.3903484E+03  0.7818608E-02  0.1168370E+00
          2   -1    0    0  502    0  0.00000000000E+00  0.00000000000E+00  0.21257552646E+03  0.21257552646E+03  0.00000000000E+00 0. -1.
          1   -1    0    0  501    0 -0.00000000000E+00 -0.00000000000E+00 -0.11293640241E+04  0.11293640241E+04  0.00000000000E+00 0. -1.
         25    2    1    2    0    0 -0.31334196080E+03 -0.15944564355E+03 -0.37354213742E+03  0.52798406818E+03  0.12500940039E+03 0.  0.
          2    1    1    2  501    0  0.39578545676E+03  0.15760136340E+03 -0.58327962149E+03  0.72228763964E+03  0.00000000000E+00 0. -1.
          1    1    1    2  502    0 -0.82443495960E+02  0.18442801519E+01  0.40033261230E+02  0.91667842780E+02  0.00000000000E+00 0. -1.
         22    1    3    3    0    0 -0.10599462777E+03 -0.26916822887E+02 -0.19633208822E+03  0.22473465539E+03  0.00000000000E+00 0.  1.
         22    1    3    3    0    0 -0.20734733303E+03 -0.13252882067E+03 -0.17721004920E+03  0.30324941279E+03  0.00000000000E+00 0.  1.
</event>
<event>
 7    1  0.5676357E-006  0.1028835E+03  0.7818608E-02  0.1412171E+00
          2   -1    0    0  502    0  0.00000000000E+00  0.00000000000E+00  0.84038545674E+03  0.84038545674E+03  0.00000000000E+00 0. -1.
          1   -1    0    0  501    0 -0.00000000000E+00 -0.00000000000E+00 -0.61029555077E+03  0.61029555077E+03  0.00000000000E+00 0. -1.
         25    2    1    2    0    0 -0.51724720798E+02  0.55497104151E+02  0.12739405060E+03  0.19392311108E+03  0.12498621353E+03 0.  0.
          2    1    1    2  501    0  0.81926400895E+02 -0.63567097062E+02 -0.57200754488E+03  0.58133066528E+03  0.00000000000E+00 0. -1.
          1    1    1    2  502    0 -0.30201680098E+02  0.80699929115E+01  0.67470340025E+03  0.67542723115E+03  0.00000000000E+00 0. -1.
         22    1    3    3    0    0 -0.59932464262E+02 -0.73993216392E+01  0.11413015617E+03  0.12912142650E+03  0.00000000000E+00 0.  1.
         22    1    3    3    0    0  0.82077434641E+01  0.62896425790E+02  0.13263894431E+02  0.64801684587E+02  0.00000000000E+00 0.  1.
</event>
<event>
 7    1  0.5676357E-006  0.7436596E+02  0.7818608E-02  0.1378832E+00
          2   -1    0    0  502    0  0.00000000000E+00  0.00000000000E+00  0.30255259640E+03  0.30255259640E+03  0.00000000000E+00 0. -1.
          1   -1    0    0  501    0 -0.00000000000E+00 -0.00000000000E+00 -0.21427276389E+03  0.21427276389E+03  0.00000000000E+00 0. -1.
         25    2    1    2    0    0  0.32506012293E+02 -0.41813347490E+02  0.71534552599E+02  0.15345995176E+03  0.12501107037E+03 0.  0.
          2    1    1    2  501    0  0.12097693429E+02  0.76355919232E+02 -0.16007386761E+03  0.17776451749E+03  0.00000000000E+00 0. -1.
          1    1    1    2  502    0 -0.44603705722E+02 -0.34542571742E+02  0.17681914752E+03  0.18560089104E+03  0.00000000000E+00 0. -1.
         22    1    3    3    0    0  0.38402206474E+02 -0.82764579474E+02  0.63892629221E+02  0.11138659321E+03  0.00000000000E+00 0. -1.
         22    1    3    3    0    0 -0.58961941810E+01  0.40951231984E+02  0.76419233781E+01  0.42073358551E+02  0.00000000000E+00 0. -1.
</event>
<event>
 7    1  0.5676357E-006  0.5075113E+02  0.7818608E-02  0.1483937E+00
          2   -1    0    0  502    0  0.00000000000E+00  0.00000000000E+00  0.18282429044E+03  0.18282429044E+03  0.00000000000E+00 0. -1.
          1   -1    0    0  501    0 -0.00000000000E+00 -0.00000000000E+00 -0.35130245124E+03  0.35130245124E+03  0.00000000000E+00 0. -1.
         25    2    1    2    0    0  0.45629332516E+02 -0.41455438688E+02 -0.83046361526E+00  0.13935355370E+03  0.12497253248E+03 0.  0.
          2    1    1    2  501    0  0.49698892863E+01  0.36950157757E+02 -0.27420416018E+03  0.27672718590E+03  0.00000000000E+00 0. -1.
          1    1    1    2  502    0 -0.50599221802E+02  0.45052809307E+01  0.10655646299E+03  0.11804600209E+03  0.00000000000E+00 0. -1.
         22    1    3    3    0    0 -0.39397191880E+02  0.81906649756E+01  0.58745558841E+01  0.40666154571E+02  0.00000000000E+00 0. -1.
         22    1    3    3    0    0  0.85026524396E+02 -0.49646103664E+02 -0.67050194994E+01  0.98687399126E+02  0.00000000000E+00 0. -1.
</event>
<event>
 7    1  0.5676357E-006  0.4203453E+02  0.7818608E-02  0.1498279E+00
          2   -1    0    0  502    0  0.00000000000E+00  0.00000000000E+00  0.85902060708E+03  0.85902060708E+03  0.00000000000E+00 0. -1.
          1   -1    0    0  501    0 -0.00000000000E+00 -0.00000000000E+00 -0.10092948407E+04  0.10092948407E+04  0.00000000000E+00 0. -1.
         25    2    1    2    0    0  0.90088389841E+01 -0.34051886227E+02  0.32032755940E+03  0.34565333258E+03  0.12500316349E+03 0.  0.
          2    1    1    2  501    0 -0.41488115117E+02  0.67555857345E+01 -0.99533217269E+03  0.99621937124E+03  0.00000000000E+00 0. -1.
          1    1    1    2  502    0  0.32479276132E+02  0.27296300492E+02  0.52473037963E+03  0.52644274400E+03  0.00000000000E+00 0. -1.
         22    1    3    3    0    0 -0.50508414304E+02 -0.33904101023E+02  0.96716197611E+02  0.11425677600E+03  0.00000000000E+00 0.  1.
         22    1    3    3    0    0  0.59517253288E+02 -0.14778520401E+00  0.22361136178E+03  0.23139655658E+03  0.00000000000E+00 0.  1.
</event>
<event>
 7    1  0.5676357E-006  0.3096145E+02  0.7818608E-02  0.1604744E+00
          2   -1    0    0  502    0  0.00000000000E+00  0.00000000000E+00  0.40336164422E+04  0.40336164422E+04  0.00000000000E+00 0. -1.
          1   -1    0    0  501    0 -0.00000000000E+00 -0.00000000000E+00 -0.18413521151E+02  0.18413521151E+02  0.00000000000E+00 0. -1.
         25    2    1    2    0    0 -0.51278941390E+01  0.70543074504E+01  0.20263574483E+04  0.20302281098E+04  0.12500244384E+03 0.  0.
          2    1    1    2  501    0 -0.12966426723E+02 -0.28329945370E+02 -0.15648780859E+01  0.31195558498E+02  0.00000000000E+00 0. -1.
          1    1    1    2  502    0  0.18094320862E+02  0.21275637919E+02  0.19904103508E+04  0.19906062951E+04  0.00000000000E+00 0. -1.
         22    1    3    3    0    0 -0.82767341382E+01  0.36536049710E+02  0.19142807769E+03  0.19505921200E+03  0.00000000000E+00 0. -1.
         22    1    3    3    0    0  0.31488399992E+01 -0.29481742259E+02  0.18349293706E+04  0.18351688978E+04  0.00000000000E+00 0. -1.
</event>
<event>
 7    1  0.5676357E-006  0.6013934E+02  0.7818608E-02  0.1520074E+00
          2   -1    0    0  502    0  0.00000000000E+00  0.00000000000E+00  0.25923020442E+04  0.25923020442E+04  0.00000000000E+00 0. -1.
          1   -1    0    0  501    0 -0.00000000000E+00 -0.00000000000E+00 -0.16432565449E+02  0.16432565449E+02  0.00000000000E+00 0. -1.
         25    2    1    2    0    0 -0.24773173699E+02  0.30388765903E+02  0.50900727415E+03  0.52559650535E+03  0.12500437622E+03 0.  0.
          2    1    1    2  501    0 -0.23329017231E+02  0.76798275415E+01  0.11955303426E+02  0.27315784376E+02  0.00000000000E+00 0. -1.
          1    1    1    2  502    0  0.48102190930E+02 -0.38068593444E+02  0.20549069012E+04  0.20558223199E+04  0.00000000000E+00 0. -1.
         22    1    3    3    0    0 -0.15989513325E+02 -0.39352786728E+02  0.33869987646E+03  0.34135306162E+03  0.00000000000E+00 0. -1.
         22    1    3    3    0    0 -0.87836603736E+01  0.69741552631E+02  0.17030739768E+03  0.18424344373E+03  0.00000000000E+00 0. -1.
</event>
<event>
 7    1  0.5676357E-006  0.2584995E+03  0.7818608E-02  0.1159666E+00
          2   -1    0    0  502    0  0.00000000000E+00  0.00000000000E+00  0.19086067600E+04  0.19086067600E+04  0.00000000000E+00 0. -1.
          1   -1    0    0  501    0 -0.00000000000E+00 -0.00000000000E+00 -0.14141834738E+04  0.14141834738E+04  0.00000000000E+00 0. -1.
         25    2    1    2    0    0  0.18601865677E+03  0.17366039445E+03  0.10428655909E+03  0.30209550548E+03  0.12500053903E+03 0.  0.
          2    1    1    2  501    0 -0.25517151551E+03 -0.54578617029E+02 -0.12995079430E+04  0.13254479325E+04  0.00000000000E+00 0. -1.
          1    1    1    2  502    0  0.69152858736E+02 -0.11908177742E+03  0.16896446702E+04  0.16952467959E+04  0.00000000000E+00 0. -1.
         22    1    3    3    0    0  0.39855334802E+02  0.95397274403E+02  0.87509806956E+02  0.13545129748E+03  0.00000000000E+00 0. -1.
         22    1    3    3    0    0  0.14616332197E+03  0.78263120046E+02  0.16776752130E+02  0.16664420800E+03  0.00000000000E+00 0. -1.
</event>
<event>
 7    1  0.5676357E-006  0.5557649E+02  0.7818608E-02  0.1425520E+00
          2   -1    0    0  502    0  0.00000000000E+00  0.00000000000E+00  0.16806901027E+04  0.16806901027E+04  0.00000000000E+00 0. -1.
          1   -1    0    0  501    0 -0.00000000000E+00 -0.00000000000E+00 -0.31920622296E+02  0.31920622296E+02  0.00000000000E+00 0. -1.
         25    2    1    2    0    0 -0.22407417505E+02 -0.57674186070E+02  0.73007647247E+03  0.74328210101E+03  0.12501288705E+03 0.  0.
          2    1    1    2  501    0  0.51593983971E+02  0.80339710390E+01  0.35076810006E+01  0.52333428118E+02  0.00000000000E+00 0. -1.
          1    1    1    2  502    0 -0.29186566465E+02  0.49640215031E+02  0.91518532689E+03  0.91699519582E+03  0.00000000000E+00 0. -1.
         22    1    3    3    0    0 -0.66940416369E+02 -0.14621770172E+02  0.51251575211E+03  0.51707563437E+03  0.00000000000E+00 0. -1.
         22    1    3    3    0    0  0.44532998864E+02 -0.43052415898E+02  0.21756072036E+03  0.22620646663E+03  0.00000000000E+00 0. -1.
</event>
<event>
 7    1  0.5676357E-006  0.4539694E+02  0.7818608E-02  0.1476906E+00
          2   -1    0    0  502    0  0.00000000000E+00  0.00000000000E+00  0.46904872741E+03  0.46904872741E+03  0.00000000000E+00 0. -1.
          1   -1    0    0  501    0 -0.00000000000E+00 -0.00000000000E+00 -0.13831349062E+04  0.13831349062E+04  0.00000000000E+00 0. -1.
         25    2    1    2    0    0  0.32420465598E+02 -0.79278590827E+02  0.23702688780E+02  0.15337265066E+03  0.12500068385E+03 0.  0.
          2    1    1    2  501    0 -0.58587330038E+01  0.43407243569E+02 -0.13166255363E+04  0.13173539071E+04  0.00000000000E+00 0. -1.
          1    1    1    2  502    0 -0.26561732594E+02  0.35871347258E+02  0.37883666873E+03  0.38145707591E+03  0.00000000000E+00 0. -1.
         22    1    3    3    0    0 -0.18662578903E+02 -0.94255776973E+02  0.26343048449E+01  0.96121708818E+02  0.00000000000E+00 0. -1.
         22    1    3    3    0    0  0.51083044501E+02  0.14977186146E+02  0.21068383935E+02  0.57250941843E+02  0.00000000000E+00 0. -1.
</event>
<event>
 7    1  0.5676357E-006  0.9860462E+02  0.7818608E-02  0.1327380E+00
          2   -1    0    0  502    0  0.00000000000E+00  0.00000000000E+00  0.94246331068E+03  0.94246331068E+03  0.00000000000E+00 0. -1.
          1   -1    0    0  501    0 -0.00000000000E+00 -0.00000000000E+00 -0.56326965905E+02  0.56326965905E+02  0.00000000000E+00 0. -1.
         25    2    1    2    0    0 -0.95554568232E+02  0.42030458288E+02  0.17759246040E+03  0.24096105299E+03  0.12500364848E+03 0.  0.
          2    1    1    2  501    0  0.50330857106E+02 -0.89922588113E+02  0.93120972035E+02  0.13889126129E+03  0.00000000000E+00 0. -1.
          1    1    1    2  502    0  0.45223711126E+02  0.47892129825E+02  0.61542291234E+03  0.61893796230E+03  0.00000000000E+00 0. -1.
         22    1    3    3    0    0 -0.91434946196E+02  0.81049097493E+02  0.11987509907E+03  0.17117051430E+03  0.00000000000E+00 0. -1.
         22    1    3    3    0    0 -0.41196220358E+01 -0.39018639206E+02  0.57717361333E+02  0.69790538689E+02  0.00000000000E+00 0. -1.
</event>
<event>
 7    1  0.5676357E-006  0.1011545E+03  0.7818608E-02  0.1366983E+00
          2   -1    0    0  502    0  0.00000000000E+00  0.00000000000E+00  0.34329097597E+04  0.34329097597E+04  0.00000000000E+00 0. -1.
          1   -1    0    0  501    0 -0.00000000000E+00 -0.00000000000E+00 -0.13803250723E+03  0.13803250723E+03  0.00000000000E+00 0. -1.
         25    2    1    2    0    0 -0.82727362507E+02 -0.82753914406E+02  0.56177308989E+02  0.18020220525E+03  0.12499967149E+03 0.  0.
          2    1    1    2  501    0  0.91158319832E+02  0.37808107773E+02 -0.43764862062E+02  0.10795672948E+03  0.00000000000E+00 0. -1.
          1    1    1    2  502    0 -0.84309573245E+01  0.44945806634E+02  0.32824648055E+04  0.32827833322E+04  0.00000000000E+00 0. -1.
         22    1    3    3    0    0  0.28130331888E+02  0.60882679041E+01  0.14018398058E+02  0.32014029148E+02  0.00000000000E+00 0. -1.
         22    1    3    3    0    0 -0.11085769440E+03 -0.88842182311E+02  0.42158910932E+02  0.14818817610E+03  0.00000000000E+00 0. -1.
</event>
<event>
 7    1  0.5676357E-006  0.7436304E+02  0.7818608E-02  0.1422451E+00
          2   -1    0    0  502    0  0.00000000000E+00  0.00000000000E+00  0.31447811637E+03  0.31447811637E+03  0.00000000000E+00 0. -1.
          1   -1    0    0  501    0 -0.00000000000E+00 -0.00000000000E+00 -0.21234440158E+03  0.21234440158E+03  0.00000000000E+00 0. -1.
         25    2    1    2    0    0  0.32361143126E+02  0.19876010662E+02 -0.61367552892E+01  0.13078517918E+03  0.12499921577E+03 0.  0.
          2    1    1    2  501    0  0.37343266876E+02  0.14197309956E+02 -0.13495115966E+03  0.14074053675E+03  0.00000000000E+00 0. -1.
          1    1    1    2  502    0 -0.69704410003E+02 -0.34073320618E+02  0.24322162974E+03  0.25529680202E+03  0.00000000000E+00 0. -1.
         22    1    3    3    0    0  0.36459568120E+02  0.58913058683E+02 -0.39077268863E+02  0.79542954010E+02  0.00000000000E+00 0. -1.
         22    1    3    3    0    0 -0.40984249933E+01 -0.39037048020E+02  0.32940513574E+02  0.51242225167E+02  0.00000000000E+00 0. -1.
</event>
<event>
 7    1  0.5676357E-006  0.1033794E+03  0.7818608E-02  0.1373844E+00
          2   -1    0    0  502    0  0.00000000000E+00  0.00000000000E+00  0.47152818786E+03  0.47152818786E+03  0.00000000000E+00 0. -1.
          1   -1    0    0  501    0 -0.00000000000E+00 -0.00000000000E+00 -0.21682144243E+03  0.21682144243E+03  0.00000000000E+00 0. -1.
         25    2    1    2    0    0 -0.81481111926E+02  0.22914120821E+01  0.50123549450E+02  0.15742434023E+03  0.12500252205E+03 0.  0.
          2    1    1    2  501    0 -0.19941920964E+02 -0.37277832253E+02 -0.15240686534E+03  0.15816184619E+03  0.00000000000E+00 0. -1.
          1    1    1    2  502    0  0.10142303289E+03  0.34986420171E+02  0.35699006132E+03  0.37276344386E+03  0.00000000000E+00 0. -1.
         22    1    3    3    0    0  0.65724237309E+01 -0.24653545022E+01 -0.34499778259E+02  0.35206667358E+02  0.00000000000E+00 0. -1.
         22    1    3    3    0    0 -0.88053535657E+02  0.47567665843E+01  0.84623327709E+02  0.12221767287E+03  0.00000000000E+00 0. -1.
</event>
<event>
 7    1  0.5676357E-006  0.7951094E+02  0.7818608E-02  0.1481692E+00
          2   -1    0    0  502    0  0.00000000000E+00  0.00000000000E+00  0.15154887936E+04  0.15154887936E+04  0.00000000000E+00 0. -1.
          1   -1    0    0  501    0 -0.00000000000E+00 -0.00000000000E+00 -0.50796183172E+02  0.50796183172E+02  0.00000000000E+00 0. -1.
         25    2    1    2    0    0 -0.92468175538E+02 -0.22049848254E+01  0.48748039970E+03  0.51168178265E+03  0.12500352455E+03 0.  0.
          2    1    1    2  501    0  0.15958561430E+02  0.18160621302E+02 -0.33257081314E+02  0.41115900897E+02  0.00000000000E+00 0. -1.
          1    1    1    2  502    0  0.76509614108E+02 -0.15955636477E+02  0.10104692921E+04  0.10134872933E+04  0.00000000000E+00 0. -1.
         22    1    3    3    0    0  0.27636425549E+02  0.18994309585E+02  0.10311928424E+03  0.10843496943E+03  0.00000000000E+00 0. -1.
         22    1    3    3    0    0 -0.12010460109E+03 -0.21199294410E+02  0.38436111546E+03  0.40324681321E+03  0.00000000000E+00 0. -1.
</event>
<event>
 7    1  0.5676357E-006  0.1318469E+03  0.7818608E-02  0.1271403E+00
          2   -1    0    0  502    0  0.00000000000E+00  0.00000000000E+00  0.17388279280E+04  0.17388279280E+04  0.00000000000E+00 0. -1.
          1   -1    0    0  501    0 -0.00000000000E+00 -0.00000000000E+00 -0.15198654695E+03  0.15198654695E+03  0.00000000000E+00 0. -1.
         25    2    1    2    0    0 -0.58698180545E+02  0.39529095805E+02  0.13944776200E+03  0.20019692511E+03  0.12500041872E+03 0.  0.
          2    1    1    2  501    0  0.14076952344E+03 -0.48769046270E+02 -0.74442658334E+02  0.16654185055E+03  0.00000000000E+00 0. -1.
          1    1    1    2  502    0 -0.82071342896E+02  0.92399504645E+01  0.15218362774E+04  0.15240756993E+04  0.00000000000E+00 0. -1.
         22    1    3    3    0    0  0.20613437760E+02  0.49154189268E+02  0.94583765401E+02  0.10856858117E+03  0.00000000000E+00 0. -1.
         22    1    3    3    0    0 -0.79311618306E+02 -0.96250934630E+01  0.44863996598E+02  0.91628343940E+02  0.00000000000E+00 0. -1.
</event>
<event>
 7    1  0.5676357E-006  0.1033756E+03  0.7818608E-02  0.1431928E+00
          2   -1    0    0  502    0  0.00000000000E+00  0.00000000000E+00  0.37502085875E+03  0.37502085875E+03  0.00000000000E+00 0. -1.
          1   -1    0    0  501    0 -0.00000000000E+00 -0.00000000000E+00 -0.23516106047E+04  0.23516106047E+04  0.00000000000E+00 0. -1.
         25    2    1    2    0    0  0.77168832742E+02 -0.23120824635E+02 -0.21494290912E+03  0.26137382941E+03  0.12500489286E+03 0.  0.
          2    1    1    2  501    0 -0.95725473032E+02  0.42371900263E+02 -0.21116456748E+04  0.21142389174E+04  0.00000000000E+00 0. -1.
          1    1    1    2  502    0  0.18556640289E+02 -0.19251075628E+02  0.34999883798E+03  0.35101871659E+03  0.00000000000E+00 0. -1.
         22    1    3    3    0    0 -0.27850231407E+02  0.99177027242E+01 -0.15062738472E+02  0.33179546516E+02  0.00000000000E+00 0.  1.
         22    1    3    3    0    0  0.10501906415E+03 -0.33038527359E+02 -0.19988017065E+03  0.22819428289E+03  0.00000000000E+00 0.  1.
</event>
<event>
 7    1  0.5676357E-006  0.4153123E+02  0.7818608E-02  0.1537008E+00
          2   -1    0    0  502    0  0.00000000000E+00  0.00000000000E+00  0.37312747987E+04  0.37312747987E+04  0.00000000000E+00 0. -1.
          1   -1    0    0  501    0 -0.00000000000E+00 -0.00000000000E+00 -0.20411612123E+02  0.20411612123E+02  0.00000000000E+00 0. -1.
         25    2    1    2    0    0  0.59949918081E+02  0.41426644238E+02  0.18181697185E+04  0.18239176004E+04  0.12499651422E+03 0.  0.
          2    1    1    2  501    0 -0.33113884968E+02 -0.24368278016E+02  0.68778264604E+01  0.41685091435E+02  0.00000000000E+00 0. -1.
          1    1    1    2  502    0 -0.26836033113E+02 -0.17058366222E+02  0.18858156416E+04  0.18860837189E+04  0.00000000000E+00 0. -1.
         22    1    3    3    0    0  0.74654755852E+02 -0.11564607903E+02  0.63626065625E+03  0.64072981468E+03  0.00000000000E+00 0.  1.
         22    1    3    3    0    0 -0.14704837771E+02  0.52991252141E+02  0.11819090622E+04  0.11831877858E+04  0.00000000000E+00 0.  1.
</event>
<event>
 7    1  0.5676357E-006  0.9683054E+02  0.7818608E-02  0.1332938E+00
          2   -1    0    0  502    0  0.00000000000E+00  0.00000000000E+00  0.17842560304E+03  0.17842560304E+03  0.00000000000E+00 0. -1.
          1   -1    0    0  501    0 -0.00000000000E+00 -0.00000000000E+00 -0.14025601134E+04  0.14025601134E+04  0.00000000000E+00 0. -1.
         25    2    1    2    0    0  0.12153023137E+03 -0.80236493740E+02 -0.15802191595E+03  0.24860250725E+03  0.12499915451E+03 0.  0.
          2    1    1    2  501    0 -0.57829196457E+02  0.75500170733E+02 -0.11895775007E+04  0.11933730021E+04  0.00000000000E+00 0. -1.
          1    1    1    2  502    0 -0.63701034915E+02  0.47363230078E+01  0.12346490631E+03  0.13901020716E+03  0.00000000000E+00 0. -1.
         22    1    3    3    0    0  0.75133419671E+02 -0.11175322665E+03 -0.98677063197E+02  0.16694603086E+03  0.00000000000E+00 0.  1.
         22    1    3    3    0    0  0.46396811701E+02  0.31516732908E+02 -0.59344852755E+02  0.81656476398E+02  0.00000000000E+00 0.  1.
</event>
<event>
 7    1  0.5676357E-006  0.1111064E+03  0.7818608E-02  0.1412004E+00
          2   -1    0    0  502    0  0.00000000000E+00  0.00000000000E+00  0.71426768809E+03  0.71426768809E+03  0.00000000000E+00 0. -1.
          1   -1    0    0  501    0 -0.00000000000E+00 -0.00000000000E+00 -0.75616182163E+02  0.75616182163E+02  0.00000000000E+00 0. -1.
         25    2    1    2    0    0 -0.70561572652E+02 -0.64824649198E+02  0.21134016509E+03  0.26357620416E+03  0.12500631720E+03 0.  0.
          2    1    1    2  501    0  0.68291444628E+02  0.93720933423E+02  0.19648246274E+02  0.11761542566E+03  0.00000000000E+00 0. -1.
          1    1    1    2  502    0  0.22701280242E+01 -0.28896284224E+02  0.40766309457E+03  0.40869224044E+03  0.00000000000E+00 0. -1.
         22    1    3    3    0    0 -0.17219822843E+02 -0.27990291153E+02 -0.88569365426E+01  0.34035628722E+02  0.00000000000E+00 0.  1.
         22    1    3    3    0    0 -0.53341749809E+02 -0.36834358046E+02  0.22019710163E+03  0.22954057543E+03  0.00000000000E+00 0.  1.
</event>
<event>
 7    1  0.5676357E-006  0.3852184E+02  0.7818608E-02  0.1561772E+00
          2   -1    0    0  502    0  0.00000000000E+00  0.00000000000E+00  0.14902633239E+03  0.14902633239E+03  0.00000000000E+00 0. -1.
          1   -1    0    0  501    0 -0.00000000000E+00 -0.00000000000E+00 -0.85260295712E+03  0.85260295712E+03  0.00000000000E+00 0. -1.
         25    2    1    2    0    0  0.35787476384E+02 -0.56959635006E+02 -0.21075571024E+03  0.25410296910E+03  0.12500082409E+03 0.  0.
          2    1    1    2  501    0 -0.17313831726E+02  0.23559737802E+02 -0.61695979764E+03  0.61765218522E+03  0.00000000000E+00 0. -1.
          1    1    1    2  502    0 -0.18473644657E+02  0.33399897203E+02  0.12413888315E+03  0.12987413519E+03  0.00000000000E+00 0. -1.
         22    1    3    3    0    0  0.16871314156E+02 -0.89161252749E+02 -0.90407711409E+02  0.12809342105E+03  0.00000000000E+00 0.  1.
         22    1    3    3    0    0  0.18916162227E+02  0.32201617743E+02 -0.12034799883E+03  0.12600954806E+03  0.00000000000E+00 0.  1.
</event>
<event>
 7    1  0.5676357E-006  0.8059608E+02  0.7818608E-02  0.1363481E+00
          2   -1    0    0  502    0  0.00000000000E+00  0.00000000000E+00  0.17351547927E+04  0.17351547927E+04  0.00000000000E+00 0. -1.
          1   -1    0    0  501    0 -0.00000000000E+00 -0.00000000000E+00 -0.18249550964E+04  0.18249550964E+04  0.00000000000E+00 0. -1.
         25    2    1    2    0    0 -0.66664790200E+02  0.11829567817E+02  0.33333190830E+03  0.36238685364E+03  0.12501974913E+03 0.  0.
          2    1    1    2  501    0  0.65398374777E+02  0.47251737153E+02 -0.18088986701E+04  0.18106971234E+04  0.00000000000E+00 0. -1.
          1    1    1    2  502    0  0.12664154222E+01 -0.59081304969E+02  0.13857664581E+04  0.13870259121E+04  0.00000000000E+00 0. -1.
         22    1    3    3    0    0 -0.12059960063E+02  0.34374675663E+02  0.28134532690E+03  0.28369394412E+03  0.00000000000E+00 0.  1.
         22    1    3    3    0    0 -0.54604830137E+02 -0.22545107847E+02  0.51986581397E+02  0.78692909512E+02  0.00000000000E+00 0.  1.
</event>
<event>
 7    1  0.5676357E-006  0.7759140E+02  0.7818608E-02  0.1340327E+00
          2   -1    0    0  502    0  0.00000000000E+00  0.00000000000E+00  0.26654201661E+04  0.26654201661E+04  0.00000000000E+00 0. -1.
          1   -1    0    0  501    0 -0.00000000000E+00 -0.00000000000E+00 -0.51894962848E+03  0.51894962848E+03  0.00000000000E+00 0. -1.
         25    2    1    2    0    0  0.14156476477E+03  0.44577616898E+02  0.38379456669E+03  0.43006091133E+03  0.12500548579E+03 0.  0.
          2    1    1    2  501    0 -0.74020655809E+02 -0.10400896912E+02 -0.49236055915E+03  0.49800216501E+03  0.00000000000E+00 0. -1.
          1    1    1    2  502    0 -0.67544108960E+02 -0.34176719986E+02  0.22550365301E+04  0.22563067183E+04  0.00000000000E+00 0. -1.
         22    1    3    3    0    0  0.16402187149E+03  0.29029706879E+02  0.32338666917E+03  0.36376480865E+03  0.00000000000E+00 0. -1.
         22    1    3    3    0    0 -0.22457106724E+02  0.15547910019E+02  0.60407897518E+02  0.66296102683E+02  0.00000000000E+00 0. -1.
</event>
<event>
 7    1  0.5676357E-006  0.6270442E+02  0.7818608E-02  0.1403339E+00
          2   -1    0    0  502    0  0.00000000000E+00  0.00000000000E+00  0.22402066270E+03  0.22402066270E+03  0.00000000000E+00 0. -1.
          1   -1    0    0  501    0 -0.00000000000E+00 -0.00000000000E+00 -0.53390398252E+03  0.53390398252E+03  0.00000000000E+00 0. -1.
         25    2    1    2    0    0  0.10782102512E+03  0.15642047470E+02 -0.10728371819E+03  0.19749615426E+03  0.12499955061E+03 0.  0.
          2    1    1    2  501    0 -0.59548031468E+02  0.10641167283E+02 -0.37480960900E+03  0.37965964427E+03  0.00000000000E+00 0. -1.
          1    1    1    2  502    0 -0.48272993652E+02 -0.26283214753E+02  0.17221000736E+03  0.18076884668E+03  0.00000000000E+00 0. -1.
         22    1    3    3    0    0 -0.15759458473E+02 -0.28927647288E+02 -0.11415720011E+02  0.34863849075E+02  0.00000000000E+00 0. -1.
         22    1    3    3    0    0  0.12358048359E+03  0.44569694757E+02 -0.95867998176E+02  0.16263230519E+03  0.00000000000E+00 0. -1.
</event>
<event>
 7    1  0.5676357E-006  0.5168836E+02  0.7818608E-02  0.1470585E+00
          2   -1    0    0  502    0  0.00000000000E+00  0.00000000000E+00  0.36718937341E+03  0.36718937341E+03  0.00000000000E+00 0. -1.
          1   -1    0    0  501    0 -0.00000000000E+00 -0.00000000000E+00 -0.77029953637E+03  0.77029953637E+03  0.00000000000E+00 0. -1.
         25    2    1    2    0    0 -0.81126175453E+02  0.17502221716E+02 -0.89079908244E+02  0.17449283445E+03  0.12499894044E+03 0.  0.
          2    1    1    2  501    0  0.42406404861E+02 -0.28464926580E+02 -0.63623819346E+03  0.63828488470E+03  0.00000000000E+00 0. -1.
          1    1    1    2  502    0  0.38719770592E+02  0.10962704863E+02  0.32220793875E+03  0.32471119064E+03  0.00000000000E+00 0. -1.
         22    1    3    3    0    0 -0.50107564903E+02 -0.32385409068E+02  0.88298070881E+01  0.60312090614E+02  0.00000000000E+00 0.  1.
         22    1    3    3    0    0 -0.31018610549E+02  0.49887630784E+02 -0.97909715332E+02  0.11418074383E+03  0.00000000000E+00 0.  1.
</event>
<event>
 7    1  0.5676357E-006  0.8467985E+02  0.7818608E-02  0.1425102E+00
          2   -1    0    0  502    0  0.00000000000E+00  0.00000000000E+00  0.31031036811E+04  0.31031036811E+04  0.00000000000E+00 0. -1.
          1   -1    0    0  501    0 -0.00000000000E+00 -0.00000000000E+00 -0.10251663095E+03  0.10251663095E+03  0.00000000000E+00 0. -1.
         25    2    1    2    0    0  0.81516266466E+02  0.85974183659E+02  0.11559743528E+03  0.20742054232E+03  0.12499620946E+03 0.  0.
          2    1    1    2  501    0 -0.21691596212E+02 -0.26672476028E+02 -0.50724489500E+02  0.61277403329E+02  0.00000000000E+00 0. -1.
          1    1    1    2  502    0 -0.59824670254E+02 -0.59301707630E+02  0.29357141044E+04  0.29369223664E+04  0.00000000000E+00 0. -1.
         22    1    3    3    0    0  0.26287939562E+00 -0.27094391081E+02  0.10407232896E+01  0.27115645642E+02  0.00000000000E+00 0. -1.
         22    1    3    3    0    0  0.81253387070E+02  0.11306857474E+03  0.11455671199E+03  0.18030489668E+03  0.00000000000E+00 0. -1.
</event>
<event>
 7    1  0.5676357E-006  0.1690092E+03  0.7818608E-02  0.1312255E+00
          2   -1    0    0  502    0  0.00000000000E+00  0.00000000000E+00  0.11905648580E+04  0.11905648580E+04  0.00000000000E+00 0. -1.
          1   -1    0    0  501    0 -0.00000000000E+00 -0.00000000000E+00 -0.11453816275E+03  0.11453816275E+03  0.00000000000E+00 0. -1.
         25    2    1    2    0    0 -0.13313091946E+03 -0.63522996845E+02  0.56237679930E+03  0.59468601739E+03  0.12499912815E+03 0.  0.
          2    1    1    2  501    0 -0.43930960266E+02 -0.23152686717E+01 -0.77885211950E+02  0.89450522522E+02  0.00000000000E+00 0. -1.
          1    1    1    2  502    0  0.17706187973E+03  0.65838265516E+02  0.59153510793E+03  0.62096648087E+03  0.00000000000E+00 0. -1.
         22    1    3    3    0    0 -0.49696385893E+02 -0.92342230294E+02  0.31915124724E+03  0.33593799559E+03  0.00000000000E+00 0.  1.
         22    1    3    3    0    0 -0.83434533570E+02  0.28819233449E+02  0.24322555207E+03  0.25874802180E+03  0.00000000000E+00 0.  1.
</event>
<event>
 7    1  0.5676357E-006  0.7484210E+02  0.7818608E-02  0.1385293E+00
          2   -1    0    0  502    0  0.00000000000E+00  0.00000000000E+00  0.26277399328E+04  0.26277399328E+04  0.00000000000E+00 0. -1.
          1   -1    0    0  501    0 -0.00000000000E+00 -0.00000000000E+00 -0.57130231034E+02  0.57130231034E+02  0.00000000000E+00 0. -1.
         25    2    1    2    0    0  0.56999114928E+02  0.41184694254E+02  0.18421986019E+03  0.23345331704E+03  0.12497366206E+03 0.  0.
          2    1    1    2  501    0  0.17862166712E+02 -0.50098796600E+02 -0.97645656999E+01  0.54076734034E+02  0.00000000000E+00 0. -1.
          1    1    1    2  502    0 -0.74861281640E+02  0.89141023463E+01  0.23961544072E+04  0.23973401127E+04  0.00000000000E+00 0. -1.
         22    1    3    3    0    0 -0.97801101436E+01  0.52818910703E+02  0.14615051353E+03  0.15570953885E+03  0.00000000000E+00 0. -1.
         22    1    3    3    0    0  0.66779225072E+02 -0.11634216448E+02  0.38069346655E+02  0.77743778197E+02  0.00000000000E+00 0. -1.
</event>
<event>
 7    1  0.5676357E-006  0.1314316E+03  0.7818608E-02  0.1399923E+00
          2   -1    0    0  502    0  0.00000000000E+00  0.00000000000E+00  0.29032048010E+03  0.29032048010E+03  0.00000000000E+00 0. -1.
          1   -1    0    0  501    0 -0.00000000000E+00 -0.00000000000E+00 -0.11098958555E+04  0.11098958555E+04  0.00000000000E+00 0. -1.
         25    2    1    2    0    0 -0.11402149035E+03  0.71761712488E+01 -0.62683507849E+01  0.16946139459E+03  0.12500189734E+03 0.  0.
          2    1    1    2  501    0 -0.19469203369E+02  0.18620453724E+02 -0.99968948701E+03  0.10000524194E+04  0.00000000000E+00 0. -1.
          1    1    1    2  502    0  0.13349069372E+03 -0.25796624973E+02  0.18638246240E+03  0.23070252157E+03  0.00000000000E+00 0. -1.
         22    1    3    3    0    0 -0.23822329118E+02 -0.51930766263E+02  0.16029277856E+02  0.59340084242E+02  0.00000000000E+00 0.  1.
         22    1    3    3    0    0 -0.90199161236E+02  0.59106937512E+02 -0.22297628641E+02  0.11012131035E+03  0.00000000000E+00 0.  1.
</event>
<event>
 7    1  0.5676357E-006  0.1310839E+03  0.7818608E-02  0.1399744E+00
          2   -1    0    0  502    0  0.00000000000E+00  0.00000000000E+00  0.25722784170E+04  0.25722784170E+04  0.00000000000E+00 0. -1.
          1   -1    0    0  501    0 -0.00000000000E+00 -0.00000000000E+00 -0.45846970549E+02  0.45846970549E+02  0.00000000000E+00 0. -1.
         25    2    1    2    0    0 -0.11353972347E+03 -0.67775963872E+02  0.90709461285E+03  0.92516617637E+03  0.12500786838E+03 0.  0.
          2    1    1    2  501    0  0.12405968400E+03  0.42855562595E+02  0.80685167492E+02  0.15406979163E+03  0.00000000000E+00 0. -1.
          1    1    1    2  502    0 -0.10519960533E+02  0.24920401277E+02  0.15386516661E+04  0.15388894195E+04  0.00000000000E+00 0. -1.
         22    1    3    3    0    0 -0.10084847678E+03 -0.96134850609E+02  0.57576419303E+03  0.59238225053E+03  0.00000000000E+00 0. -1.
         22    1    3    3    0    0 -0.12691246691E+02  0.28358886737E+02  0.33133041982E+03  0.33278392585E+03  0.00000000000E+00 0. -1.
</event>
<event>
 7    1  0.5676357E-006  0.3046011E+03  0.7818608E-02  0.1108490E+00
          2   -1    0    0  502    0  0.00000000000E+00  0.00000000000E+00  0.21699289241E+04  0.21699289241E+04  0.00000000000E+00 0. -1.
          1   -1    0    0  501    0 -0.00000000000E+00 -0.00000000000E+00 -0.12815159263E+04  0.12815159263E+04  0.00000000000E+00 0. -1.
         25    2    1    2    0    0 -0.13146534979E+03 -0.91168724830E+02  0.31245044039E+03  0.37261954781E+03  0.12500070050E+03 0.  0.
          2    1    1    2  501    0  0.83308386408E+02  0.30392746497E+03 -0.12249049142E+04  0.12647941493E+04  0.00000000000E+00 0. -1.
          1    1    1    2  502    0  0.48156963384E+02 -0.21275874014E+03  0.18008674716E+04  0.18140311533E+04  0.00000000000E+00 0. -1.
         22    1    3    3    0    0 -0.20739436869E+02 -0.61153578743E+02  0.37448355975E+02  0.74647597416E+02  0.00000000000E+00 0.  1.
         22    1    3    3    0    0 -0.11072591292E+03 -0.30015146087E+02  0.27500208442E+03  0.29797195039E+03  0.00000000000E+00 0.  1.
</event>
<event>
 7    1  0.5676357E-006  0.8668053E+02  0.7818608E-02  0.1324993E+00
          2   -1    0    0  502    0  0.00000000000E+00  0.00000000000E+00  0.19980674636E+04  0.19980674636E+04  0.00000000000E+00 0. -1.
          1   -1    0    0  501    0 -0.00000000000E+00 -0.00000000000E+00 -0.16085200825E+04  0.16085200825E+04  0.00000000000E+00 0. -1.
         25    2    1    2    0    0 -0.62045063113E+02  0.14046712639E+03  0.35703871093E+03  0.40826680080E+03  0.12499814432E+03 0.  0.
          2    1    1    2  501    0  0.81717610663E+01 -0.86111167429E+02 -0.15808166143E+04  0.15831813159E+04  0.00000000000E+00 0. -1.
          1    1    1    2  502    0  0.53873302047E+02 -0.54355958957E+02  0.16133252845E+04  0.16151394294E+04  0.00000000000E+00 0. -1.
         22    1    3    3    0    0 -0.22680754611E+02  0.50849354989E+02  0.23102922773E+02  0.60281162673E+02  0.00000000000E+00 0. -1.
         22    1    3    3    0    0 -0.39364308502E+02  0.89617771397E+02  0.33393578815E+03  0.34798563813E+03  0.00000000000E+00 0. -1.
</event>
<event>
 7    1  0.5676357E-006  0.7294418E+02  0.7818608E-02  0.1499183E+00
          2   -1    0    0  502    0  0.00000000000E+00  0.00000000000E+00  0.14712410570E+04  0.14712410570E+04  0.00000000000E+00 0. -1.
          1   -1    0    0  501    0 -0.00000000000E+00 -0.00000000000E+00 -0.18760430761E+02  0.18760430761E+02  0.00000000000E+00 0. -1.
         25    2    1    2    0    0  0.53751075865E+02  0.58059751974E+02  0.48285144586E+03  0.50500898107E+03  0.12501375621E+03 0.  0.
          2    1    1    2  501    0 -0.22171926371E+02  0.72628704887E+01  0.15280470677E+02  0.27889718372E+02  0.00000000000E+00 0. -1.
          1    1    1    2  502    0 -0.31579149494E+02 -0.65322622463E+02  0.95434870968E+03  0.95710278829E+03  0.00000000000E+00 0. -1.
         22    1    3    3    0    0  0.69213837647E+02 -0.95182649383E+01  0.15666912334E+03  0.17154115220E+03  0.00000000000E+00 0.  1.
         22    1    3    3    0    0 -0.15462761782E+02  0.67578016912E+02  0.32618232252E+03  0.33346782888E+03  0.00000000000E+00 0.  1.
</event>
<event>
 7    1  0.5676357E-006  0.6205201E+02  0.7818608E-02  0.1441915E+00
          2   -1    0    0  502    0  0.00000000000E+00  0.00000000000E+00  0.96360615741E+03  0.96360615741E+03  0.00000000000E+00 0. -1.
          1   -1    0    0  501    0 -0.00000000000E+00 -0.00000000000E+00 -0.24065148635E+04  0.24065148635E+04  0.00000000000E+00 0. -1.
         25    2    1    2    0    0  0.35976836022E+02  0.22251526499E+01  0.14838799580E+02  0.13093848067E+03  0.12500164684E+03 0.  0.
          2    1    1    2  501    0 -0.50423716384E+02  0.36495923868E+02 -0.23475728676E+04  0.23483979374E+04  0.00000000000E+00 0. -1.
          1    1    1    2  502    0  0.14446880362E+02 -0.38721076518E+02  0.88982536188E+03  0.89078460290E+03  0.00000000000E+00 0. -1.
         22    1    3    3    0    0  0.81235026301E+02  0.15334014947E+02  0.13765593894E+02  0.83807834287E+02  0.00000000000E+00 0. -1.
         22    1    3    3    0    0 -0.45258190279E+02 -0.13108862297E+02  0.10732056859E+01  0.47130646384E+02  0.00000000000E+00 0. -1.
</event>
<event>
 7    1  0.5676357E-006  0.8776612E+02  0.7818608E-02  0.1347716E+00
          2   -1    0    0  502    0  0.00000000000E+00  0.00000000000E+00  0.62444274777E+03  0.62444274777E+03  0.00000000000E+00 0. -1.
          1   -1    0    0  501    0 -0.00000000000E+00 -0.00000000000E+00 -0.77046452753E+02  0.77046452753E+02  0.00000000000E+00 0. -1.
         25    2    1    2    0    0 -0.35680094444E+02 -0.10576093329E+03  0.30465064686E+03  0.34769841228E+03  0.12499490039E+03 0.  0.
          2    1    1    2  501    0 -0.31055137268E+02  0.53672429813E+02 -0.29512746469E+02  0.68674256289E+02  0.00000000000E+00 0. -1.
          1    1    1    2  502    0  0.66735231713E+02  0.52088503479E+02  0.27225839463E+03  0.28511653195E+03  0.00000000000E+00 0. -1.
         22    1    3    3    0    0  0.21796505730E+01 -0.10039605373E+03  0.28975286837E+03  0.30666079503E+03  0.00000000000E+00 0. -1.
         22    1    3    3    0    0 -0.37859745017E+02 -0.53648795632E+01  0.14897778483E+02  0.41037617246E+02  0.00000000000E+00 0. -1.
</event>
<event>
 7    1  0.5676357E-006  0.1003993E+03  0.7818608E-02  0.1293762E+00
          2   -1    0    0  502    0  0.00000000000E+00  0.00000000000E+00  0.25080265557E+04  0.25080265557E+04  0.00000000000E+00 0. -1.
          1   -1    0    0  501    0 -0.00000000000E+00 -0.00000000000E+00 -0.28260470610E+03  0.28260470610E+03  0.00000000000E+00 0. -1.
         25    2    1    2    0    0 -0.15154297209E+03  0.10671970122E+03  0.31619794411E+03  0.38724741180E+03  0.12500020427E+03 0.  0.
          2    1    1    2  501    0  0.73782745622E+02 -0.47496639601E+02 -0.23814221746E+03  0.25379428690E+03  0.00000000000E+00 0. -1.
          1    1    1    2  502    0  0.77760226467E+02 -0.59223061624E+02  0.21473661229E+04  0.21495895631E+04  0.00000000000E+00 0. -1.
         22    1    3    3    0    0 -0.49100073835E+02  0.39378995857E+01  0.12743175390E+02  0.50879394875E+02  0.00000000000E+00 0.  1.
         22    1    3    3    0    0 -0.10244289825E+03  0.10278180164E+03  0.30345476872E+03  0.33636801693E+03  0.00000000000E+00 0.  1.
</event>
<event>
 7    1  0.5676357E-006  0.3029846E+02  0.7818608E-02  0.1608605E+00
          2   -1    0    0  502    0  0.00000000000E+00  0.00000000000E+00  0.80695452873E+03  0.80695452873E+03  0.00000000000E+00 0. -1.
          1   -1    0    0  501    0 -0.00000000000E+00 -0.00000000000E+00 -0.51487202703E+02  0.51487202703E+02  0.00000000000E+00 0. -1.
         25    2    1    2    0    0  0.38294457612E+02  0.37644251183E+02  0.36237031551E+03  0.38706849123E+03  0.12500486475E+03 0.  0.
          2    1    1    2  501    0 -0.11493950584E+02 -0.25412335078E+02 -0.33595967609E+02  0.43664478856E+02  0.00000000000E+00 0. -1.
          1    1    1    2  502    0 -0.26800507028E+02 -0.12231916106E+02  0.42669297813E+03  0.42770876135E+03  0.00000000000E+00 0. -1.
         22    1    3    3    0    0 -0.40141673783E+02 -0.11251418552E+02  0.14473938369E+03  0.15062349613E+03  0.00000000000E+00 0. -1.
         22    1    3    3    0    0  0.78436131395E+02  0.48895669735E+02  0.21763093182E+03  0.23644499511E+03  0.00000000000E+00 0. -1.
</event>
<event>
 7    1  0.5676357E-006  0.1209996E+03  0.7818608E-02  0.1414030E+00
          2   -1    0    0  502    0  0.00000000000E+00  0.00000000000E+00  0.26186525340E+04  0.26186525340E+04  0.00000000000E+00 0. -1.
          1   -1    0    0  501    0 -0.00000000000E+00 -0.00000000000E+00 -0.11748731965E+04  0.11748731965E+04  0.00000000000E+00 0. -1.
         25    2    1    2    0    0  0.14091024853E+03  0.24560000790E+02  0.79491872973E+03  0.81729983905E+03  0.12499739302E+03 0.  0.
          2    1    1    2  501    0 -0.24708046230E+02 -0.87141865692E+01 -0.11616377144E+04  0.11619331323E+04  0.00000000000E+00 0. -1.
          1    1    1    2  502    0 -0.11620220230E+03 -0.15845814221E+02  0.18104983221E+04  0.18142927591E+04  0.00000000000E+00 0. -1.
         22    1    3    3    0    0 -0.13986660564E+02  0.11801000959E+02  0.24946450302E+03  0.25013482078E+03  0.00000000000E+00 0.  1.
         22    1    3    3    0    0  0.15489690909E+03  0.12758999831E+02  0.54545422671E+03  0.56716501828E+03  0.00000000000E+00 0.  1.
</event>
<event>
 7    1  0.5676357E-006  0.1493227E+03  0.7818608E-02  0.1256593E+00
          2   -1    0    0  502    0  0.00000000000E+00  0.00000000000E+00  0.18326276044E+03  0.18326276044E+03  0.00000000000E+00 0. -1.
          1   -1    0    0  501    0 -0.00000000000E+00 -0.00000000000E+00 -0.93892633188E+03  0.93892633188E+03  0.00000000000E+00 0. -1.
         25    2    1    2    0    0 -0.92280543988E+02 -0.20534098777E+03 -0.11084815697E+03  0.28034504230E+03  0.12500163512E+03 0.  0.
          2    1    1    2  501    0  0.44299689947E+02  0.13606412209E+03 -0.71684355211E+03  0.73098603684E+03  0.00000000000E+00 0. -1.
          1    1    1    2  502    0  0.47980854042E+02  0.69276865680E+02  0.72028137651E+02  0.11085801318E+03  0.00000000000E+00 0. -1.
         22    1    3    3    0    0 -0.98245328890E+01 -0.32115033000E+02 -0.79036677059E+02  0.85876033394E+02  0.00000000000E+00 0. -1.
         22    1    3    3    0    0 -0.82456011099E+02 -0.17322595477E+03 -0.31811479914E+02  0.19446900891E+03  0.00000000000E+00 0. -1.
</event>
<event>
 7    1  0.5676357E-006  0.9399099E+02  0.7818608E-02  0.1298961E+00
          2   -1    0    0  502    0  0.00000000000E+00  0.00000000000E+00  0.28591126906E+03  0.28591126906E+03  0.00000000000E+00 0. -1.
          1   -1    0    0  501    0 -0.00000000000E+00 -0.00000000000E+00 -0.44759964288E+03  0.44759964288E+03  0.00000000000E+00 0. -1.
         25    2    1    2    0    0 -0.36403934417E+02  0.88974366302E+02 -0.62432176916E+02  0.16960130915E+03  0.12500057221E+03 0.  0.
          2    1    1    2  501    0  0.96189040526E+02 -0.22612724612E+02 -0.31514512959E+03  0.33027279564E+03  0.00000000000E+00 0. -1.
          1    1    1    2  502    0 -0.59785106109E+02 -0.66361641690E+02  0.21588893269E+03  0.23363680716E+03  0.00000000000E+00 0. -1.
         22    1    3    3    0    0 -0.22940396633E+02 -0.15446324674E+02 -0.57961466991E+02  0.64221354699E+02  0.00000000000E+00 0. -1.
         22    1    3    3    0    0 -0.13463537784E+02  0.10442069098E+03 -0.44707099256E+01  0.10537995445E+03  0.00000000000E+00 0. -1.
</event>
<event>
 7    1  0.5676357E-006  0.4887084E+02  0.7818608E-02  0.1582162E+00
          2   -1    0    0  502    0  0.00000000000E+00  0.00000000000E+00  0.19530873801E+03  0.19530873801E+03  0.00000000000E+00 0. -1.
          1   -1    0    0  501    0 -0.00000000000E+00 -0.00000000000E+00 -0.90977382698E+03  0.90977382698E+03  0.00000000000E+00 0. -1.
         25    2    1    2    0    0  0.31319028987E+02  0.34112872508E+02 -0.21027280693E+03  0.24896542410E+03  0.12499823765E+03 0.  0.
          2    1    1    2  501    0  0.13738761021E+02 -0.14934743648E+02 -0.67659265364E+03  0.67689690432E+03  0.00000000000E+00 0. -1.
          1    1    1    2  502    0 -0.45057790008E+02 -0.19178128859E+02  0.17240037160E+03  0.17922023657E+03  0.00000000000E+00 0. -1.
         22    1    3    3    0    0 -0.27145385350E+02  0.40498902940E+01  0.12377190693E+01  0.27473723914E+02  0.00000000000E+00 0.  1.
         22    1    3    3    0    0  0.58464414337E+02  0.30062982214E+02 -0.21151052600E+03  0.22149170019E+03  0.00000000000E+00 0.  1.
</event>
<event>
 7    1  0.5676357E-006  0.1891978E+03  0.7818608E-02  0.1328365E+00
          2   -1    0    0  502    0  0.00000000000E+00  0.00000000000E+00  0.14936584508E+04  0.14936584508E+04  0.00000000000E+00 0. -1.
          1   -1    0    0  501    0 -0.00000000000E+00 -0.00000000000E+00 -0.28599077494E+03  0.28599077494E+03  0.00000000000E+00 0. -1.
         25    2    1    2    0    0  0.16783176118E+03  0.10266239464E+03  0.65412784933E+03  0.69441891410E+03  0.12500927032E+03 0.  0.
          2    1    1    2  501    0 -0.17569385133E+03 -0.69550757888E+02 -0.23185267643E+03  0.29910082061E+03  0.00000000000E+00 0. -1.
          1    1    1    2  502    0  0.78620901504E+01 -0.33111636754E+02  0.78539250297E+03  0.78612949103E+03  0.00000000000E+00 0. -1.
         22    1    3    3    0    0  0.12207130215E+03  0.53940095202E+01  0.28830927909E+03  0.31313373909E+03  0.00000000000E+00 0.  1.
         22    1    3    3    0    0  0.45760459034E+02  0.97268385123E+02  0.36581857023E+03  0.38128517501E+03  0.00000000000E+00 0.  1.
</event>
<event>
 7    1  0.5676357E-006  0.3408122E+02  0.7818608E-02  0.1625724E+00
          2   -1    0    0  502    0  0.00000000000E+00  0.00000000000E+00  0.92994029679E+03  0.92994029679E+03  0.00000000000E+00 0. -1.
          1   -1    0    0  501    0 -0.00000000000E+00 -0.00000000000E+00 -0.13056940615E+04  0.13056940615E+04  0.00000000000E+00 0. -1.
         25    2    1    2    0    0 -0.51670228991E+02  0.22161376122E+02  0.59701245359E+02  0.14950568441E+03  0.12500708707E+03 0.  0.
          2    1    1    2  501    0  0.21212112504E+02 -0.72553304048E+01 -0.12603438056E+04  0.12605431773E+04  0.00000000000E+00 0. -1.
          1    1    1    2  502    0  0.30458116487E+02 -0.14906045717E+02  0.82488879556E+03  0.82558549654E+03  0.00000000000E+00 0. -1.
         22    1    3    3    0    0 -0.90113195992E+01  0.14342726792E+02  0.93186560702E+02  0.94713530122E+02  0.00000000000E+00 0.  1.
         22    1    3    3    0    0 -0.42658909392E+02  0.78186493298E+01 -0.33485315343E+02  0.54792154287E+02  0.00000000000E+00 0.  1.
</event>
<event>
 7    1  0.5676357E-006  0.1859110E+03  0.7818608E-02  0.1201734E+00
          2   -1    0    0  502    0  0.00000000000E+00  0.00000000000E+00  0.12196661245E+04  0.12196661245E+04  0.00000000000E+00 0. -1.
          1   -1    0    0  501    0 -0.00000000000E+00 -0.00000000000E+00 -0.56314129093E+03  0.56314129093E+03  0.00000000000E+00 0. -1.
         25    2    1    2    0    0  0.15075616930E+03  0.24923110836E+03  0.34401637987E+03  0.46777639403E+03  0.12499566885E+03 0.  0.
          2    1    1    2  501    0 -0.60027321937E+02 -0.17163846032E+03 -0.48015310761E+03  0.51342969060E+03  0.00000000000E+00 0. -1.
          1    1    1    2  502    0 -0.90728847368E+02 -0.77592648038E+02  0.79266156126E+03  0.80160133076E+03  0.00000000000E+00 0. -1.
         22    1    3    3    0    0  0.57136435295E+02  0.13482485592E+03  0.25823106127E+03  0.29685955436E+03  0.00000000000E+00 0.  1.
         22    1    3    3    0    0  0.93619734009E+02  0.11440625244E+03  0.85785318609E+02  0.17091683967E+03  0.00000000000E+00 0.  1.
</event>
<event>
 7    1  0.5676357E-006  0.9650644E+02  0.7818608E-02  0.1419797E+00
          2   -1    0    0  502    0  0.00000000000E+00  0.00000000000E+00  0.17788748636E+04  0.17788748636E+04  0.00000000000E+00 0. -1.
          1   -1    0    0  501    0 -0.00000000000E+00 -0.00000000000E+00 -0.10420093880E+03  0.10420093880E+03  0.00000000000E+00 0. -1.
         25    2    1    2    0    0 -0.79545124336E+02 -0.18047106531E+02  0.98921244814E+03  0.10004092853E+04  0.12499738299E+03 0.  0.
          2    1    1    2  501    0 -0.27395532332E+02  0.15380754259E+02 -0.92342451323E+02  0.97540817659E+02  0.00000000000E+00 0. -1.
          1    1    1    2  502    0  0.10694065667E+03  0.26663522717E+01  0.77780392800E+03  0.78512569942E+03  0.00000000000E+00 0. -1.
         22    1    3    3    0    0 -0.10276708672E+03 -0.23629560598E+02  0.51971434315E+03  0.53030409080E+03  0.00000000000E+00 0. -1.
         22    1    3    3    0    0  0.23221962380E+02  0.55824540673E+01  0.46949810499E+03  0.47010519453E+03  0.00000000000E+00 0. -1.
</event>
<event>
 7    1  0.5676357E-006  0.1308204E+03  0.7818608E-02  0.1272209E+00
          2   -1    0    0  502    0  0.00000000000E+00  0.00000000000E+00  0.92552721789E+03  0.92552721789E+03  0.00000000000E+00 0. -1.
          1   -1    0    0  501    0 -0.00000000000E+00 -0.00000000000E+00 -0.66081637647E+03  0.66081637647E+03  0.00000000000E+00 0. -1.
         25    2    1    2    0    0 -0.47910418726E+02 -0.30094001504E+02  0.92797947665E+02  0.16564624039E+03  0.12500464278E+03 0.  0.
          2    1    1    2  501    0  0.13029394807E+03  0.35979531325E+02 -0.61488969127E+03  0.62957157814E+03  0.00000000000E+00 0. -1.
          1    1    1    2  502    0 -0.82383529340E+02 -0.58855298209E+01  0.78680258503E+03  0.79112577582E+03  0.00000000000E+00 0. -1.
         22    1    3    3    0    0 -0.80184371790E+02 -0.45305006683E+02  0.91678077257E+02  0.12994978630E+03  0.00000000000E+00 0. -1.
         22    1    3    3    0    0  0.32273953064E+02  0.15211005179E+02  0.11198704085E+01  0.35696454091E+02  0.00000000000E+00 0. -1.
</event>
<event>
 7    1  0.5676357E-006  0.7228911E+02  0.7818608E-02  0.1412112E+00
          2   -1    0    0  502    0  0.00000000000E+00  0.00000000000E+00  0.54669409616E+03  0.54669409616E+03  0.00000000000E+00 0. -1.
          1   -1    0    0  501    0 -0.00000000000E+00 -0.00000000000E+00 -0.33937615037E+04  0.33937615037E+04  0.00000000000E+00 0. -1.
         25    2    1    2    0    0  0.57692046144E+02 -0.10080305845E+03  0.35457099010E+02  0.17427482252E+03  0.12499951645E+03 0.  0.
          2    1    1    2  501    0 -0.31213951482E+02  0.65022542837E+02 -0.33228391934E+04  0.33236219020E+04  0.00000000000E+00 0. -1.
          1    1    1    2  502    0 -0.26478094662E+02  0.35780515611E+02  0.44031468681E+03  0.44255887543E+03  0.00000000000E+00 0. -1.
         22    1    3    3    0    0  0.32465396047E+02  0.18552677736E+02  0.36534066531E+02  0.52277545935E+02  0.00000000000E+00 0.  1.
         22    1    3    3    0    0  0.25226650097E+02 -0.11935573618E+03 -0.10769675211E+01  0.12199727659E+03  0.00000000000E+00 0.  1.
</event>
<event>
 7    1  0.6253576E-006  0.7505479E+02  0.7818608E-02  0.1348304E+00
          2   -1    0    0  502    0  0.00000000000E+00  0.00000000000E+00  0.45743437831E+03  0.45743437831E+03  0.00000000000E+00 0. -1.
          1   -1    0    0  501    0 -0.00000000000E+00 -0.00000000000E+00 -0.10774735310E+04  0.10774735310E+04  0.00000000000E+00 0. -1.
         25    2    1    2    0    0 -0.17035690204E+02 -0.41822021602E+02 -0.18427131166E+03  0.22720256097E+03  0.12500316468E+03 0.  0.
          2    1    1    2  501    0  0.79468038654E+02  0.56626678749E+01 -0.86691256850E+03  0.87056569908E+03  0.00000000000E+00 0. -1.
          1    1    1    2  502    0 -0.62432348450E+02  0.36159353727E+02  0.43114472743E+03  0.43713964930E+03  0.00000000000E+00 0. -1.
         22    1    3    3    0    0 -0.99748917754E+01 -0.13829420502E+02  0.16878040170E+02  0.23992073219E+02  0.00000000000E+00 0.  1.
         22    1    3    3    0    0 -0.70607984288E+01 -0.27992601100E+02 -0.20114935183E+03  0.20321048775E+03  0.00000000000E+00 0.  1.
</event>
<event>
 7    1  0.5676357E-006  0.2344750E+03  0.7818608E-02  0.1236932E+00
          2   -1    0    0  502    0  0.00000000000E+00  0.00000000000E+00  0.11235007748E+04  0.11235007748E+04  0.00000000000E+00 0. -1.
          1   -1    0    0  501    0 -0.00000000000E+00 -0.00000000000E+00 -0.17488074511E+04  0.17488074511E+04  0.00000000000E+00 0. -1.
         25    2    1    2    0    0 -0.21961606072E+03 -0.18346902924E+03  0.50146579519E+02  0.31627681003E+03  0.12499696919E+03 0.  0.
          2    1    1    2  501    0  0.19770111818E+03  0.12187001347E+03 -0.16062439792E+04  0.16229472428E+04  0.00000000000E+00 0. -1.
          1    1    1    2  502    0  0.21914942544E+02  0.61599015773E+02  0.93079072334E+03  0.93308417311E+03  0.00000000000E+00 0. -1.
         22    1    3    3    0    0 -0.18891626344E+03 -0.15292505991E+03 -0.87034399237E+01  0.24321015276E+03  0.00000000000E+00 0. -1.
         22    1    3    3    0    0 -0.30699797282E+02 -0.30543969337E+02  0.58850019443E+02  0.73066657269E+02  0.00000000000E+00 0. -1.
</event>
<event>
 7    1  0.5676357E-006  0.1684742E+03  0.7818608E-02  0.1258619E+00
          2   -1    0    0  502    0  0.00000000000E+00  0.00000000000E+00  0.28397644868E+03  0.28397644868E+03  0.00000000000E+00 0. -1.
          1   -1    0    0  501    0 -0.00000000000E+00 -0.00000000000E+00 -0.61951746281E+03  0.61951746281E+03  0.00000000000E+00 0. -1.
         25    2    1    2    0    0  0.93234112893E+02  0.11992972653E+03 -0.53709809705E+02  0.20392470032E+03  0.12499920252E+03 0.  0.
          2    1    1    2  501    0 -0.39677908063E+02 -0.16984706071E+03 -0.46804074233E+03  0.49948423088E+03  0.00000000000E+00 0. -1.
          1    1    1    2  502    0 -0.53556204829E+02  0.49917334184E+02  0.18620953791E+03  0.20008498028E+03  0.00000000000E+00 0. -1.
         22    1    3    3    0    0  0.10139271096E+03  0.37784368718E+02 -0.54967883004E+02  0.12136559858E+03  0.00000000000E+00 0.  1.
         22    1    3    3    0    0 -0.81585980716E+01  0.82145357807E+02  0.12580732995E+01  0.82559101740E+02  0.00000000000E+00 0.  1.
</event>
<event>
 7    1  0.5676357E-006  0.6478288E+02  0.7818608E-02  0.1398466E+00
          2   -1    0    0  502    0  0.00000000000E+00  0.00000000000E+00  0.12564991888E+04  0.12564991888E+04  0.00000000000E+00 0. -1.
          1   -1    0    0  501    0 -0.00000000000E+00 -0.00000000000E+00 -0.42863432121E+03  0.42863432121E+03  0.00000000000E+00 0. -1.
         25    2    1    2    0    0 -0.11614015825E+03 -0.18000623878E+02  0.91770571647E+03  0.93360661746E+03  0.12499990123E+03 0.  0.
          2    1    1    2  501    0  0.64613442231E+02 -0.20513646268E+01 -0.41585889238E+03  0.42085356525E+03  0.00000000000E+00 0. -1.
          1    1    1    2  502    0  0.51526716016E+02  0.20051988505E+02  0.32601804354E+03  0.33067332735E+03  0.00000000000E+00 0. -1.
         22    1    3    3    0    0 -0.10143145253E+03  0.22542504371E+02  0.82311640997E+03  0.82964879825E+03  0.00000000000E+00 0.  1.
         22    1    3    3    0    0 -0.14708705716E+02 -0.40543128249E+02  0.94589306495E+02  0.10395781921E+03  0.00000000000E+00 0.  1.
</event>
<event>
 7    1  0.5676357E-006  0.5914605E+02  0.7818608E-02  0.1416660E+00
          2   -1    0    0  502    0  0.00000000000E+00  0.00000000000E+00  0.11065278390E+04  0.11065278390E+04  0.00000000000E+00 0. -1.
          1   -1    0    0  501    0 -0.00000000000E+00 -0.00000000000E+00 -0.29332708008E+04  0.29332708008E+04  0.00000000000E+00 0. -1.
         25    2    1    2    0    0  0.28099802429E+01  0.14470187512E+02 -0.16444351678E+02  0.12693448865E+03  0.12499866156E+03 0.  0.
          2    1    1    2  501    0 -0.54519112773E+02 -0.23655338488E+02 -0.28606166413E+04  0.28612339082E+04  0.00000000000E+00 0. -1.
          1    1    1    2  502    0  0.51709132530E+02  0.91851509766E+01  0.10503180311E+04  0.10516302430E+04  0.00000000000E+00 0. -1.
         22    1    3    3    0    0 -0.11822783257E+02  0.29802332517E+02  0.48768670772E+02  0.58363862760E+02  0.00000000000E+00 0.  1.
         22    1    3    3    0    0  0.14632763500E+02 -0.15332145005E+02 -0.65213022450E+02  0.68570625892E+02  0.00000000000E+00 0.  1.
</event>
<event>
 7    1  0.5676357E-006  0.2105235E+03  0.7818608E-02  0.1345007E+00
          2   -1    0    0  502    0  0.00000000000E+00  0.00000000000E+00  0.35956781742E+03  0.35956781742E+03  0.00000000000E+00 0. -1.
          1   -1    0    0  501    0 -0.00000000000E+00 -0.00000000000E+00 -0.88446722233E+03  0.88446722233E+03  0.00000000000E+00 0. -1.
         25    2    1    2    0    0  0.47545698603E+02  0.21603589645E+03 -0.42033107880E+03  0.49115702547E+03  0.12499962341E+03 0.  0.
          2    1    1    2  501    0 -0.25407313432E+02 -0.73864438424E+01 -0.39427980505E+03  0.39516661777E+03  0.00000000000E+00 0. -1.
          1    1    1    2  502    0 -0.22138385171E+02 -0.20864945261E+03  0.28971147894E+03  0.35771139652E+03  0.00000000000E+00 0. -1.
         22    1    3    3    0    0 -0.39100334051E+02  0.91088162311E+02 -0.20310053687E+03  0.22599937503E+03  0.00000000000E+00 0. -1.
         22    1    3    3    0    0  0.86646032654E+02  0.12494773414E+03 -0.21723054193E+03  0.26515765044E+03  0.00000000000E+00 0. -1.
</event>
<event>
 7    1  0.5676357E-006  0.6433083E+02  0.7818608E-02  0.1503034E+00
          2   -1    0    0  502    0  0.00000000000E+00  0.00000000000E+00  0.10433359093E+04  0.10433359093E+04  0.00000000000E+00 0. -1.
          1   -1    0    0  501    0 -0.00000000000E+00 -0.00000000000E+00 -0.39666604843E+02  0.39666604843E+02  0.00000000000E+00 0. -1.
         25    2    1    2    0    0  0.52695477082E+02  0.65663281111E+02  0.19602146498E+03  0.24726216779E+03  0.12500274034E+03 0.  0.
          2    1    1    2  501    0 -0.39422474057E+02 -0.43580018691E+02  0.48607817220E+02  0.76263158764E+02  0.00000000000E+00 0. -1.
          1    1    1    2  502    0 -0.13273003025E+02 -0.22083262421E+02  0.75904002228E+03  0.75947718762E+03  0.00000000000E+00 0. -1.
         22    1    3    3    0    0  0.12340323903E+02 -0.27356949545E+02  0.11084928658E+03  0.11484010893E+03  0.00000000000E+00 0.  1.
         22    1    3    3    0    0  0.40355153178E+02  0.93020230656E+02  0.85172178400E+02  0.13242205886E+03  0.00000000000E+00 0.  1.
</event>
<event>
 7    1  0.5676357E-006  0.3791722E+02  0.7818608E-02  0.1612974E+00
          2   -1    0    0  502    0  0.00000000000E+00  0.00000000000E+00  0.11330790118E+04  0.11330790118E+04  0.00000000000E+00 0. -1.
          1   -1    0    0  501    0 -0.00000000000E+00 -0.00000000000E+00 -0.73659250527E+03  0.73659250527E+03  0.00000000000E+00 0. -1.
         25    2    1    2    0    0  0.31900480356E+02  0.27726207838E+02  0.12165396963E+01  0.13195069858E+03  0.12499249434E+03 0.  0.
          2    1    1    2  501    0 -0.37333346577E+02 -0.67004483801E+01 -0.67057889437E+03  0.67165074878E+03  0.00000000000E+00 0. -1.
          1    1    1    2  502    0  0.54328662208E+01 -0.21025759458E+02  0.10658488612E+04  0.10660700697E+04  0.00000000000E+00 0. -1.
         22    1    3    3    0    0 -0.27433451357E+02 -0.21463448555E+02 -0.32672020535E+02  0.47757039304E+02  0.00000000000E+00 0.  1.
         22    1    3    3    0    0  0.59333931713E+02  0.49189656393E+02  0.33888560232E+02  0.84193659281E+02  0.00000000000E+00 0.  1.
</event>
<event>
 7    1  0.5676357E-006  0.2381954E+03  0.7818608E-02  0.1263830E+00
          2   -1    0    0  502    0  0.00000000000E+00  0.00000000000E+00  0.16945131136E+03  0.16945131136E+03  0.00000000000E+00 0. -1.
          1   -1    0    0  501    0 -0.00000000000E+00 -0.00000000000E+00 -0.95837411024E+03  0.95837411024E+03  0.00000000000E+00 0. -1.
         25    2    1    2    0    0  0.23327921200E+03 -0.29273736852E+02 -0.17544336765E+03  0.31887308062E+03  0.12499409534E+03 0.  0.
          2    1    1    2  501    0 -0.22714456277E+03  0.78092418657E+02 -0.68287363824E+03  0.72388499366E+03  0.00000000000E+00 0. -1.
          1    1    1    2  502    0 -0.61346492381E+01 -0.48818681806E+02  0.69394207006E+02  0.85067347323E+02  0.00000000000E+00 0. -1.
         22    1    3    3    0    0  0.19249011989E+03 -0.53813474672E+02 -0.86073973778E+02  0.21761678537E+03  0.00000000000E+00 0.  1.
         22    1    3    3    0    0  0.40789092111E+02  0.24539737820E+02 -0.89369393869E+02  0.10125629525E+03  0.00000000000E+00 0.  1.
</event>
<event>
 7    1  0.5676357E-006  0.9593731E+02  0.7818608E-02  0.1372656E+00
          2   -1    0    0  502    0  0.00000000000E+00  0.00000000000E+00  0.90748923596E+03  0.90748923596E+03  0.00000000000E+00 0. -1.
          1   -1    0    0  501    0 -0.00000000000E+00 -0.00000000000E+00 -0.59340346427E+03  0.59340346427E+03  0.00000000000E+00 0. -1.
         25    2    1    2    0    0 -0.85172258077E+02 -0.29260744621E+02  0.33321060492E+02  0.15762140307E+03  0.12499483554E+03 0.  0.
          2    1    1    2  501    0  0.95418874573E+02 -0.15587813158E+02 -0.52619381593E+03  0.53500249856E+03  0.00000000000E+00 0. -1.
          1    1    1    2  502    0 -0.10246616496E+02  0.44848557779E+02  0.80695852713E+03  0.80826879860E+03  0.00000000000E+00 0. -1.
         22    1    3    3    0    0 -0.27912043569E+02 -0.52561905382E+02 -0.32095153350E+02  0.67616084936E+02  0.00000000000E+00 0.  1.
         22    1    3    3    0    0 -0.57260214508E+02  0.23301160761E+02  0.65416213842E+02  0.90005318130E+02  0.00000000000E+00 0.  1.
</event>
<event>
 7    1  0.5676357E-006  0.4294840E+02  0.7818608E-02  0.1489340E+00
          2   -1    0    0  502    0  0.00000000000E+00  0.00000000000E+00  0.15780453027E+04  0.15780453027E+04  0.00000000000E+00 0. -1.
          1   -1    0    0  501    0 -0.00000000000E+00 -0.00000000000E+00 -0.26460868640E+03  0.26460868640E+03  0.00000000000E+00 0. -1.
         25    2    1    2    0    0  0.63528301393E+02  0.56664444713E+02  0.44229256954E+01  0.15129815823E+03  0.12499946416E+03 0.  0.
          2    1    1    2  501    0 -0.32757546815E+02 -0.26953931718E+02 -0.18850858505E+03  0.19322281942E+03  0.00000000000E+00 0. -1.
          1    1    1    2  502    0 -0.30770754578E+02 -0.29710512995E+02  0.14975222756E+04  0.14981330114E+04  0.00000000000E+00 0. -1.
         22    1    3    3    0    0  0.39992672878E+02 -0.11553949281E+02 -0.46926283363E+02  0.62729448413E+02  0.00000000000E+00 0. -1.
         22    1    3    3    0    0  0.23535628515E+02  0.68218393994E+02  0.51349209058E+02  0.88568709822E+02  0.00000000000E+00 0. -1.
</event>
<event>
 7    1  0.5676357E-006  0.4626813E+02  0.7818608E-02  0.1491412E+00
          2   -1    0    0  502    0  0.00000000000E+00  0.00000000000E+00  0.19249951864E+04  0.19249951864E+04  0.00000000000E+00 0. -1.
          1   -1    0    0  501    0 -0.00000000000E+00 -0.00000000000E+00 -0.55154616101E+02  0.55154616101E+02  0.00000000000E+00 0. -1.
         25    2    1    2    0    0  0.83008962617E+01  0.33366591257E+02  0.33725065081E+03  0.36131247522E+03  0.12500587583E+03 0.  0.
          2    1    1    2  501    0  0.35384973508E+02 -0.15950255945E+02 -0.33965118735E+02  0.51576509242E+02  0.00000000000E+00 0. -1.
          1    1    1    2  502    0 -0.43685869770E+02 -0.17416335312E+02  0.15665550383E+04  0.15672608181E+04  0.00000000000E+00 0. -1.
         22    1    3    3    0    0 -0.52622432854E+02 -0.33419536882E+01  0.92909441421E+02  0.10682908499E+03  0.00000000000E+00 0.  1.
         22    1    3    3    0    0  0.60923329115E+02  0.36708544945E+02  0.24434120938E+03  0.25448339024E+03  0.00000000000E+00 0.  1.
</event>
<event>
 7    1  0.5676357E-006  0.6939647E+02  0.7818608E-02  0.1384301E+00
          2   -1    0    0  502    0  0.00000000000E+00  0.00000000000E+00  0.62101244836E+03  0.62101244836E+03  0.00000000000E+00 0. -1.
          1   -1    0    0  501    0 -0.00000000000E+00 -0.00000000000E+00 -0.43140602384E+03  0.43140602384E+03  0.00000000000E+00 0. -1.
         25    2    1    2    0    0 -0.68845908580E+00 -0.15371332001E+02  0.42855912204E+02  0.13303328121E+03  0.12499789148E+03 0.  0.
          2    1    1    2  501    0  0.18431812456E+02 -0.54807949068E+02 -0.38167210261E+03  0.38602750796E+03  0.00000000000E+00 0. -1.
          1    1    1    2  502    0 -0.17743353370E+02  0.70179281069E+02  0.52842261492E+03  0.53335768303E+03  0.00000000000E+00 0. -1.
         22    1    3    3    0    0  0.15907319152E+02  0.41026909118E+02 -0.18791789475E+02  0.47847480875E+02  0.00000000000E+00 0.  1.
         22    1    3    3    0    0 -0.16595778238E+02 -0.56398241119E+02  0.61647701678E+02  0.85185800336E+02  0.00000000000E+00 0.  1.
</event>
<event>
 7    1  0.5676357E-006  0.1071925E+03  0.7818608E-02  0.1416600E+00
          2   -1    0    0  502    0  0.00000000000E+00  0.00000000000E+00  0.19003948660E+03  0.19003948660E+03  0.00000000000E+00 0. -1.
          1   -1    0    0  501    0 -0.00000000000E+00 -0.00000000000E+00 -0.17135337870E+04  0.17135337870E+04  0.00000000000E+00 0. -1.
         25    2    1    2    0    0  0.57584546322E+02 -0.98940322944E+02 -0.15592693064E+04  0.15684548644E+04  0.12499889654E+03 0.  0.
          2    1    1    2  501    0 -0.28679546436E+02 -0.42435749057E+01 -0.13249291360E+03  0.13562778648E+03  0.00000000000E+00 0. -1.
          1    1    1    2  502    0 -0.28904999886E+02  0.10318389785E+03  0.16826791961E+03  0.19949062275E+03  0.00000000000E+00 0. -1.
         22    1    3    3    0    0 -0.32439560768E+02 -0.61230990391E+02 -0.78640003642E+03  0.78944700681E+03  0.00000000000E+00 0.  1.
         22    1    3    3    0    0  0.90024107091E+02 -0.37709332553E+02 -0.77286927000E+03  0.77900785755E+03  0.00000000000E+00 0.  1.
</event>
<event>
 7    1  0.5676357E-006  0.4949071E+02  0.7818608E-02  0.1492521E+00
          2   -1    0    0  502    0  0.00000000000E+00  0.00000000000E+00  0.82400679611E+03  0.82400679611E+03  0.00000000000E+00 0. -1.
          1   -1    0    0  501    0 -0.00000000000E+00 -0.00000000000E+00 -0.10645353629E+04  0.10645353629E+04  0.00000000000E+00 0. -1.
         25    2    1    2    0    0 -0.25513334873E+02 -0.45909142183E+01 -0.57860137705E+03  0.59250745838E+03  0.12495410342E+03 0.  0.
          2    1    1    2  501    0  0.52230720235E+02 -0.19548989234E+02 -0.47695874223E+03  0.48020813498E+03  0.00000000000E+00 0. -1.
          1    1    1    2  502    0 -0.26717385362E+02  0.24139903452E+02  0.81503155250E+03  0.81582656564E+03  0.00000000000E+00 0. -1.
         22    1    3    3    0    0  0.22449700213E+01  0.50163395975E+02 -0.41027184798E+03  0.41333327404E+03  0.00000000000E+00 0.  1.
         22    1    3    3    0    0 -0.27758304895E+02 -0.54754310193E+02 -0.16832952907E+03  0.17917418433E+03  0.00000000000E+00 0.  1.
</event>
<event>
 7    1  0.5676357E-006  0.1465036E+03  0.7818608E-02  0.1285380E+00
          2   -1    0    0  502    0  0.00000000000E+00  0.00000000000E+00  0.82549340897E+02  0.82549340897E+02  0.00000000000E+00 0. -1.
          1   -1    0    0  501    0 -0.00000000000E+00 -0.00000000000E+00 -0.83859667672E+03  0.83859667672E+03  0.00000000000E+00 0. -1.
         25    2    1    2    0    0 -0.13908155509E+03 -0.11120625231E+03 -0.47114113625E+03  0.51894992746E+03  0.12499818969E+03 0.  0.
          2    1    1    2  501    0  0.74097416197E+02  0.10831130140E+03 -0.30669769483E+03  0.33359442608E+03  0.00000000000E+00 0. -1.
          1    1    1    2  502    0  0.64984138891E+02  0.28949509168E+01  0.21791495259E+02  0.68601664075E+02  0.00000000000E+00 0. -1.
         22    1    3    3    0    0  0.99884465868E+01 -0.18390179377E+02 -0.60089648794E+01  0.21773273104E+02  0.00000000000E+00 0. -1.
         22    1    3    3    0    0 -0.14907000167E+03 -0.92816072936E+02 -0.46513217137E+03  0.49717665436E+03  0.00000000000E+00 0. -1.
</event>
<event>
 7    1  0.5676357E-006  0.6815820E+02  0.7818608E-02  0.1376740E+00
          2   -1    0    0  502    0  0.00000000000E+00  0.00000000000E+00  0.44692552059E+02  0.44692552059E+02  0.00000000000E+00 0. -1.
          1   -1    0    0  501    0 -0.00000000000E+00 -0.00000000000E+00 -0.18043014817E+04  0.18043014817E+04  0.00000000000E+00 0. -1.
         25    2    1    2    0    0 -0.60009536794E+02 -0.66466071179E+01 -0.68695205315E+03  0.70083736888E+03  0.12499828958E+03 0.  0.
          2    1    1    2  501    0  0.15739130722E+02  0.60606077206E+02 -0.10764385472E+04  0.10782582078E+04  0.00000000000E+00 0. -1.
          1    1    1    2  502    0  0.44270406073E+02 -0.53959470088E+02  0.37816707104E+01  0.69898457060E+02  0.00000000000E+00 0. -1.
         22    1    3    3    0    0 -0.68687168222E+02 -0.14938691260E+02 -0.68509543049E+03  0.68869212313E+03  0.00000000000E+00 0. -1.
         22    1    3    3    0    0  0.86776314278E+01  0.82920841422E+01 -0.18566226532E+01  0.12145245749E+02  0.00000000000E+00 0. -1.
</event>
<event>
 7    1  0.5676357E-006  0.3983020E+03  0.7818608E-02  0.1253016E+00
          2   -1    0    0  502    0  0.00000000000E+00  0.00000000000E+00  0.20767261607E+04  0.20767261607E+04  0.00000000000E+00 0. -1.
          1   -1    0    0  501    0 -0.00000000000E+00 -0.00000000000E+00 -0.15643637264E+03  0.15643637264E+03  0.00000000000E+00 0. -1.
         25    2    1    2    0    0  0.29490978560E+03  0.27985845838E+03  0.14033900721E+04  0.14664316412E+04  0.12500210232E+03 0.  0.
          2    1    1    2  501    0 -0.26567995728E+03 -0.29459069093E+03  0.19295416537E+03  0.44113583489E+03  0.00000000000E+00 0. -1.
          1    1    1    2  502    0 -0.29229828318E+02  0.14732232557E+02  0.32394555060E+03  0.32559505723E+03  0.00000000000E+00 0. -1.
         22    1    3    3    0    0  0.26069392220E+03  0.25131223265E+03  0.13455250823E+04  0.13933976125E+04  0.00000000000E+00 0.  1.
         22    1    3    3    0    0  0.34215863397E+02  0.28546225724E+02  0.57864989743E+02  0.73034028706E+02  0.00000000000E+00 0.  1.
</event>
<event>
 7    1  0.5676357E-006  0.6454164E+02  0.7818608E-02  0.1424088E+00
          2   -1    0    0  502    0  0.00000000000E+00  0.00000000000E+00  0.48487570626E+03  0.48487570626E+03  0.00000000000E+00 0. -1.
          1   -1    0    0  501    0 -0.00000000000E+00 -0.00000000000E+00 -0.72855605555E+03  0.72855605555E+03  0.00000000000E+00 0. -1.
         25    2    1    2    0    0  0.21910139270E+02 -0.44658275428E+02  0.27959469801E+03  0.31027818392E+03  0.12499976197E+03 0.  0.
          2    1    1    2  501    0  0.44515422249E+02  0.92047473801E+01 -0.70499144587E+03  0.70645544017E+03  0.00000000000E+00 0. -1.
          1    1    1    2  502    0 -0.66425561519E+02  0.35453528048E+02  0.18171639857E+03  0.19669813772E+03  0.00000000000E+00 0. -1.
         22    1    3    3    0    0 -0.35033776203E+02 -0.19752414110E+02  0.23141433962E+02  0.46400962318E+02  0.00000000000E+00 0. -1.
         22    1    3    3    0    0  0.56943915474E+02 -0.24905861318E+02  0.25645326405E+03  0.26387722160E+03  0.00000000000E+00 0. -1.
</event>
<event>
 7    1  0.5676357E-006  0.2960196E+02  0.7818608E-02  0.1656618E+00
          2   -1    0    0  502    0  0.00000000000E+00  0.00000000000E+00  0.58464588516E+03  0.58464588516E+03  0.00000000000E+00 0. -1.
          1   -1    0    0  501    0 -0.00000000000E+00 -0.00000000000E+00 -0.11001719841E+03  0.11001719841E+03  0.00000000000E+00 0. -1.
         25    2    1    2    0    0  0.85293824047E+01  0.33724888058E+02 -0.49534745082E+02  0.13888548915E+03  0.12500147874E+03 0.  0.
          2    1    1    2  501    0  0.14932238212E+02 -0.15658162217E+02 -0.77931619489E+01  0.22997459755E+02  0.00000000000E+00 0. -1.
          1    1    1    2  502    0 -0.23461620617E+02 -0.18066725841E+02  0.53195659378E+03  0.53278013467E+03  0.00000000000E+00 0. -1.
         22    1    3    3    0    0 -0.22168703658E+02 -0.15354215169E+02  0.30113075764E+02  0.40422774241E+02  0.00000000000E+00 0.  1.
         22    1    3    3    0    0  0.30698086062E+02  0.49079103227E+02 -0.79647820846E+02  0.98462714908E+02  0.00000000000E+00 0.  1.
</event>
<event>
 7    1  0.5676357E-006  0.3245774E+02  0.7818608E-02  0.1599231E+00
          2   -1    0    0  502    0  0.00000000000E+00  0.00000000000E+00  0.52847862759E+03  0.52847862759E+03  0.00000000000E+00 0. -1.
          1   -1    0    0  501    0 -0.00000000000E+00 -0.00000000000E+00 -0.73355235996E+03  0.73355235996E+03  0.00000000000E+00 0. -1.
         25    2    1    2    0    0 -0.30491745165E+02 -0.38527739663E+02 -0.73486414572E+02  0.15309648742E+03  0.12499659230E+03 0.  0.
          2    1    1    2  501    0  0.37034614813E+01  0.32145228070E+02 -0.61945033387E+03  0.62029488749E+03  0.00000000000E+00 0. -1.
          1    1    1    2  502    0  0.26788283684E+02  0.63825115922E+01  0.48786301607E+03  0.48863961264E+03  0.00000000000E+00 0. -1.
         22    1    3    3    0    0 -0.16446985075E+02 -0.54322442421E+02 -0.10252102773E+03  0.11718358330E+03  0.00000000000E+00 0.  1.
         22    1    3    3    0    0 -0.14044760091E+02  0.15794702758E+02  0.29034613154E+02  0.35912904118E+02  0.00000000000E+00 0.  1.
</event>
<event>
 7    1  0.5676357E-006  0.4729160E+02  0.7818608E-02  0.1565477E+00
          2   -1    0    0  502    0  0.00000000000E+00  0.00000000000E+00  0.12566988314E+04  0.12566988314E+04  0.00000000000E+00 0. -1.
          1   -1    0    0  501    0 -0.00000000000E+00 -0.00000000000E+00 -0.16637569514E+02  0.16637569514E+02  0.00000000000E+00 0. -1.
         25    2    1    2    0    0 -0.15968496439E+02  0.22037264518E+02  0.35066372679E+03  0.37327260606E+03  0.12500702077E+03 0.  0.
          2    1    1    2  501    0 -0.16457420230E+01  0.23207277597E+02  0.24434523135E+02  0.33739177837E+02  0.00000000000E+00 0. -1.
          1    1    1    2  502    0  0.17614238462E+02 -0.45244542115E+02  0.86496301200E+03  0.86632461705E+03  0.00000000000E+00 0. -1.
         22    1    3    3    0    0 -0.56100516312E+02 -0.16491206424E+02  0.26318195895E+03  0.26959965010E+03  0.00000000000E+00 0. -1.
         22    1    3    3    0    0  0.40132019873E+02  0.38528470942E+02  0.87481767841E+02  0.10367295596E+03  0.00000000000E+00 0. -1.
</event>
<event>
 7    1  0.5676357E-006  0.7863908E+02  0.7818608E-02  0.1421690E+00
          2   -1    0    0  502    0  0.00000000000E+00  0.00000000000E+00  0.11887655246E+04  0.11887655246E+04  0.00000000000E+00 0. -1.
          1   -1    0    0  501    0 -0.00000000000E+00 -0.00000000000E+00 -0.93392875344E+03  0.93392875344E+03  0.00000000000E+00 0. -1.
         25    2    1    2    0    0  0.10904237227E+03  0.37297318320E+02 -0.16752860373E+03  0.23869214565E+03  0.12500711350E+03 0.  0.
          2    1    1    2  501    0 -0.37696461334E+02 -0.47904487122E+01 -0.72899034580E+03  0.72998006539E+03  0.00000000000E+00 0. -1.
          1    1    1    2  502    0 -0.71345910933E+02 -0.32506869608E+02  0.11513557207E+04  0.11540220670E+04  0.00000000000E+00 0. -1.
         22    1    3    3    0    0  0.28690734175E+02 -0.33238811123E+02 -0.50611465278E+01  0.44199456971E+02  0.00000000000E+00 0. -1.
         22    1    3    3    0    0  0.80351638092E+02  0.70536129443E+02 -0.16246745720E+03  0.19449268868E+03  0.00000000000E+00 0. -1.
</event>
<event>
 7    1  0.5676357E-006  0.7220053E+02  0.7818608E-02  0.1415782E+00
          2   -1    0    0  502    0  0.00000000000E+00  0.00000000000E+00  0.10269690649E+04  0.10269690649E+04  0.00000000000E+00 0. -1.
          1   -1    0    0  501    0 -0.00000000000E+00 -0.00000000000E+00 -0.78976118641E+02  0.78976118641E+02  0.00000000000E+00 0. -1.
         25    2    1    2    0    0  0.11855478253E+02  0.97521846834E+02  0.11083492414E+03  0.19380616145E+03  0.12500153932E+03 0.  0.
          2    1    1    2  501    0 -0.32230829849E+02 -0.28938176438E+02 -0.22977680527E+02  0.49032828296E+02  0.00000000000E+00 0. -1.
          1    1    1    2  502    0  0.20375351596E+02 -0.68583670396E+02  0.86013570269E+03  0.86310619383E+03  0.00000000000E+00 0. -1.
         22    1    3    3    0    0  0.23202273968E+02  0.59776154169E+02 -0.11618942153E+02  0.65165435173E+02  0.00000000000E+00 0. -1.
         22    1    3    3    0    0 -0.11346795715E+02  0.37745692665E+02  0.12245386629E+03  0.12864072628E+03  0.00000000000E+00 0. -1.
</event>
<event>
 7    1  0.5676357E-006  0.1269640E+03  0.7818608E-02  0.1409669E+00
          2   -1    0    0  502    0  0.00000000000E+00  0.00000000000E+00  0.24315344814E+03  0.24315344814E+03  0.00000000000E+00 0. -1.
          1   -1    0    0  501    0 -0.00000000000E+00 -0.00000000000E+00 -0.15619821905E+04  0.15619821905E+04  0.00000000000E+00 0. -1.
         25    2    1    2    0    0 -0.13106711122E+03  0.21705315817E+01 -0.11745476777E+03  0.21587936528E+03  0.12499991611E+03 0.  0.
          2    1    1    2  501    0  0.12395671303E+03 -0.27003480958E+02 -0.13915565717E+04  0.13973275017E+04  0.00000000000E+00 0. -1.
          1    1    1    2  502    0  0.71103981918E+01  0.24832949377E+02  0.19018259714E+03  0.19192877166E+03  0.00000000000E+00 0. -1.
         22    1    3    3    0    0 -0.14879282281E+03  0.24445879679E+02 -0.86549618714E+02  0.17386127129E+03  0.00000000000E+00 0. -1.
         22    1    3    3    0    0  0.17725711591E+02 -0.22275348098E+02 -0.30905149056E+02  0.42018093989E+02  0.00000000000E+00 0. -1.
</event>
<event>
 7    1  0.5676357E-006  0.1555105E+03  0.7818608E-02  0.1347581E+00
          2   -1    0    0  502    0  0.00000000000E+00  0.00000000000E+00  0.24029004742E+04  0.24029004742E+04  0.00000000000E+00 0. -1.
          1   -1    0    0  501    0 -0.00000000000E+00 -0.00000000000E+00 -0.34509939652E+03  0.34509939652E+03  0.00000000000E+00 0. -1.
         25    2    1    2    0    0 -0.11722742549E+03 -0.53438730952E+02  0.29432479106E+03  0.34474947680E+03  0.12500860717E+03 0.  0.
          2    1    1    2  501    0  0.15094389399E+03  0.43910615638E+02 -0.30041616135E+03  0.33906057173E+03  0.00000000000E+00 0. -1.
          1    1    1    2  502    0 -0.33716468494E+02  0.95281153142E+01  0.20638924479E+04  0.20641898222E+04  0.00000000000E+00 0. -1.
         22    1    3    3    0    0 -0.10331856740E+03  0.56382356515E+01  0.11150173654E+03  0.15211559198E+03  0.00000000000E+00 0. -1.
         22    1    3    3    0    0 -0.13908858089E+02 -0.59076966604E+02  0.18282305452E+03  0.19263388482E+03  0.00000000000E+00 0. -1.
</event>
<event>
 7    1  0.5676357E-006  0.7547242E+02  0.7818608E-02  0.1408259E+00
          2   -1    0    0  502    0  0.00000000000E+00  0.00000000000E+00  0.81448890483E+03  0.81448890483E+03  0.00000000000E+00 0. -1.
          1   -1    0    0  501    0 -0.00000000000E+00 -0.00000000000E+00 -0.11854158425E+03  0.11854158425E+03  0.00000000000E+00 0. -1.
         25    2    1    2    0    0 -0.29952148848E+02  0.37731208083E+02  0.10022862062E+03  0.16730609385E+03  0.12499910945E+03 0.  0.
          2    1    1    2  501    0  0.73494481898E+02 -0.31866149832E+02 -0.65237620593E+02  0.10330942607E+03  0.00000000000E+00 0. -1.
          1    1    1    2  502    0 -0.43542333049E+02 -0.58650582519E+01  0.66095632056E+03  0.66241496916E+03  0.00000000000E+00 0. -1.
         22    1    3    3    0    0  0.17273076747E+02  0.22469562576E+02 -0.21679598047E+02  0.35682564287E+02  0.00000000000E+00 0.  1.
         22    1    3    3    0    0 -0.47225225595E+02  0.15261645507E+02  0.12190821866E+03  0.13162352956E+03  0.00000000000E+00 0.  1.
</event>
<event>
 7    1  0.5676357E-006  0.7019471E+02  0.7818608E-02  0.1362188E+00
          2   -1    0    0  502    0  0.00000000000E+00  0.00000000000E+00  0.17302174741E+03  0.17302174741E+03  0.00000000000E+00 0. -1.
          1   -1    0    0  501    0 -0.00000000000E+00 -0.00000000000E+00 -0.75946900586E+03  0.75946900586E+03  0.00000000000E+00 0. -1.
         25    2    1    2    0    0  0.23596434786E+02  0.80942814049E+01 -0.90422165243E+02  0.15627985219E+03  0.12499966043E+03 0.  0.
          2    1    1    2  501    0 -0.48065718278E+01 -0.74060382495E+02 -0.62539481266E+03  0.62978306987E+03  0.00000000000E+00 0. -1.
          1    1    1    2  502    0 -0.18789862958E+02  0.65966101090E+02  0.12936971945E+03  0.14642783121E+03  0.00000000000E+00 0. -1.
         22    1    3    3    0    0 -0.41695018910E+01  0.23688212919E+02 -0.11409305488E+03  0.11660077765E+03  0.00000000000E+00 0. -1.
         22    1    3    3    0    0  0.27765936677E+02 -0.15593931514E+02  0.23670889639E+02  0.39679074535E+02  0.00000000000E+00 0. -1.
</event>
<event>
 7    1  0.5676357E-006  0.6564210E+02  0.7818608E-02  0.1457554E+00
          2   -1    0    0  502    0  0.00000000000E+00  0.00000000000E+00  0.44264719566E+03  0.44264719566E+03  0.00000000000E+00 0. -1.
          1   -1    0    0  501    0 -0.00000000000E+00 -0.00000000000E+00 -0.16629600039E+04  0.16629600039E+04  0.00000000000E+00 0. -1.
         25    2    1    2    0    0 -0.78687197512E+02 -0.54087022087E+02 -0.33976739034E+03  0.37440771672E+03  0.12498871064E+03 0.  0.
          2    1    1    2  501    0  0.59202183927E+02  0.25235613373E+02 -0.13043653459E+04  0.13059520245E+04  0.00000000000E+00 0. -1.
          1    1    1    2  502    0  0.19485013585E+02  0.28851408714E+02  0.42381992794E+03  0.42524745838E+03  0.00000000000E+00 0. -1.
         22    1    3    3    0    0 -0.90642375395E+02 -0.32125155019E+02 -0.33553869021E+03  0.34904767358E+03  0.00000000000E+00 0.  1.
         22    1    3    3    0    0  0.11955177883E+02 -0.21961867068E+02 -0.42287001350E+01  0.25360043142E+02  0.00000000000E+00 0.  1.
</event>
<event>
 7    1  0.5676357E-006  0.5417515E+02  0.7818608E-02  0.1504859E+00
          2   -1    0    0  502    0  0.00000000000E+00  0.00000000000E+00  0.17669038380E+04  0.17669038380E+04  0.00000000000E+00 0. -1.
          1   -1    0    0  501    0 -0.00000000000E+00 -0.00000000000E+00 -0.84079904383E+03  0.84079904383E+03  0.00000000000E+00 0. -1.
         25    2    1    2    0    0  0.24572715599E+02  0.34189969892E+02  0.18313051950E+03  0.22568630954E+03  0.12499900298E+03 0.  0.
          2    1    1    2  501    0 -0.50772197258E+02 -0.19137200103E+02 -0.81847672415E+03  0.82027324498E+03  0.00000000000E+00 0. -1.
          1    1    1    2  502    0  0.26199481659E+02 -0.15052769788E+02  0.15614509988E+04  0.15617433273E+04  0.00000000000E+00 0. -1.
         22    1    3    3    0    0  0.64467666835E+02 -0.73698228005E+01  0.13803645664E+03  0.15252690817E+03  0.00000000000E+00 0. -1.
         22    1    3    3    0    0 -0.39894951236E+02  0.41559792692E+02  0.45094062866E+02  0.73159401367E+02  0.00000000000E+00 0. -1.
</event>
<event>
 7    1  0.5676357E-006  0.1119590E+03  0.7818608E-02  0.1299403E+00
          2   -1    0    0  502    0  0.00000000000E+00  0.00000000000E+00  0.21177030541E+04  0.21177030541E+04  0.00000000000E+00 0. -1.
          1   -1    0    0  501    0 -0.00000000000E+00 -0.00000000000E+00 -0.42359570414E+03  0.42359570414E+03  0.00000000000E+00 0. -1.
         25    2    1    2    0    0  0.87929653495E+02  0.15641557788E+03  0.59494032021E+03  0.63385981265E+03  0.12500728187E+03 0.  0.
          2    1    1    2  501    0 -0.43686666961E+02 -0.60569557380E+02 -0.39881243423E+03  0.40574444402E+03  0.00000000000E+00 0. -1.
          1    1    1    2  502    0 -0.44242986534E+02 -0.95846020500E+02  0.14979794640E+04  0.15016945016E+04  0.00000000000E+00 0. -1.
         22    1    3    3    0    0  0.75033094922E+02  0.14660875376E+03  0.33380998644E+03  0.37222734862E+03  0.00000000000E+00 0. -1.
         22    1    3    3    0    0  0.12896558573E+02  0.98068241177E+01  0.26113033377E+03  0.26163246404E+03  0.00000000000E+00 0. -1.
</event>
<event>
 7    1  0.5676357E-006  0.7920024E+02  0.7818608E-02  0.1345336E+00
          2   -1    0    0  502    0  0.00000000000E+00  0.00000000000E+00  0.16737656534E+04  0.16737656534E+04  0.00000000000E+00 0. -1.
          1   -1    0    0  501    0 -0.00000000000E+00 -0.00000000000E+00 -0.42536965764E+03  0.42536965764E+03  0.00000000000E+00 0. -1.
         25    2    1    2    0    0 -0.10004729976E+03  0.68265620188E+01  0.13448194960E+03  0.20920187998E+03  0.12499587066E+03 0.  0.
          2    1    1    2  501    0  0.60636985139E+02  0.51185966191E+02 -0.38312300135E+03  0.39125449680E+03  0.00000000000E+00 0. -1.
          1    1    1    2  502    0  0.39410314623E+02 -0.58012528210E+02  0.14970370475E+04  0.14986789343E+04  0.00000000000E+00 0. -1.
         22    1    3    3    0    0 -0.59542073816E+02  0.30058770325E+02  0.14651397226E+03  0.16098177628E+03  0.00000000000E+00 0. -1.
         22    1    3    3    0    0 -0.40505225946E+02 -0.23232208306E+02 -0.12032022661E+02  0.48220103702E+02  0.00000000000E+00 0. -1.
</event>
<event>
 7    1  0.5676357E-006  0.5449228E+02  0.7818608E-02  0.1557101E+00
          2   -1    0    0  502    0  0.00000000000E+00  0.00000000000E+00  0.35676034782E+03  0.35676034782E+03  0.00000000000E+00 0. -1.
          1   -1    0    0  501    0 -0.00000000000E+00 -0.00000000000E+00 -0.90600097394E+03  0.90600097394E+03  0.00000000000E+00 0. -1.
         25    2    1    2    0    0 -0.55957733043E+01 -0.33990836446E+02 -0.19550806872E+03  0.23459455573E+03  0.12499804400E+03 0.  0.
          2    1    1    2  501    0  0.11543792244E+02  0.54433226893E+02 -0.68949167422E+03  0.69173333312E+03  0.00000000000E+00 0. -1.
          1    1    1    2  502    0 -0.59480189396E+01 -0.20442390448E+02  0.33575911681E+03  0.33643343291E+03  0.00000000000E+00 0. -1.
         22    1    3    3    0    0 -0.55786146500E+01 -0.81290922914E+02 -0.13648005185E+03  0.15895326245E+03  0.00000000000E+00 0.  1.
         22    1    3    3    0    0 -0.17158654299E-01  0.47300086468E+02 -0.59028016865E+02  0.75641293281E+02  0.00000000000E+00 0.  1.
</event>
<event>
 7    1  0.5676357E-006  0.1329560E+03  0.7818608E-02  0.1311316E+00
          2   -1    0    0  502    0  0.00000000000E+00  0.00000000000E+00  0.10450126483E+04  0.10450126483E+04  0.00000000000E+00 0. -1.
          1   -1    0    0  501    0 -0.00000000000E+00 -0.00000000000E+00 -0.17174785714E+03  0.17174785714E+03  0.00000000000E+00 0. -1.
         25    2    1    2    0    0  0.56640649599E+02 -0.13783282403E+03  0.13786620380E+03  0.23840786397E+03  0.12500067553E+03 0.  0.
          2    1    1    2  501    0 -0.58638575311E+00  0.13161324212E+03 -0.84572327435E+02  0.15644445633E+03  0.00000000000E+00 0. -1.
          1    1    1    2  502    0 -0.56054263846E+02  0.62195819121E+01  0.81997091476E+03  0.82190818511E+03  0.00000000000E+00 0. -1.
         22    1    3    3    0    0  0.52123492915E+02 -0.16180138725E+03  0.12330279377E+03  0.21000030091E+03  0.00000000000E+00 0.  1.
         22    1    3    3    0    0  0.45171566839E+01  0.23968563217E+02  0.14563410026E+02  0.28407563056E+02  0.00000000000E+00 0.  1.
</event>
<event>
 7    1  0.5676357E-006  0.3029602E+02  0.7818608E-02  0.1612179E+00
          2   -1    0    0  502    0  0.00000000000E+00  0.00000000000E+00  0.56972049591E+03  0.56972049591E+03  0.00000000000E+00 0. -1.
          1   -1    0    0  501    0 -0.00000000000E+00 -0.00000000000E+00 -0.22130405476E+02  0.22130405476E+02  0.00000000000E+00 0. -1.
         25    2    1    2    0    0 -0.21667001081E+02 -0.24321217499E+02  0.30048905334E+03  0.32707818599E+03  0.12500195205E+03 0.  0.
          2    1    1    2  501    0  0.31111851982E+02 -0.13009978418E+01  0.22254616673E+02  0.38274115174E+02  0.00000000000E+00 0. -1.
          1    1    1    2  502    0 -0.94448509010E+01  0.25622215341E+02  0.22484642042E+03  0.22649860022E+03  0.00000000000E+00 0. -1.
         22    1    3    3    0    0  0.31132785116E+02  0.25877751646E+02  0.41251337474E+02  0.57797761053E+02  0.00000000000E+00 0.  1.
         22    1    3    3    0    0 -0.52799786197E+02 -0.50198969145E+02  0.25923771587E+03  0.26928042494E+03  0.00000000000E+00 0.  1.
</event>
<event>
 7    1  0.5676357E-006  0.5129752E+02  0.7818608E-02  0.1474298E+00
          2   -1    0    0  502    0  0.00000000000E+00  0.00000000000E+00  0.14350302486E+04  0.14350302486E+04  0.00000000000E+00 0. -1.
          1   -1    0    0  501    0 -0.00000000000E+00 -0.00000000000E+00 -0.12688543351E+03  0.12688543351E+03  0.00000000000E+00 0. -1.
         25    2    1    2    0    0 -0.16707175614E+02 -0.24755871269E+02  0.15905123700E+03  0.20448364873E+03  0.12499713487E+03 0.  0.
          2    1    1    2  501    0 -0.12968026214E+02  0.50807355005E+02 -0.97237885960E+02  0.11047517138E+03  0.00000000000E+00 0. -1.
          1    1    1    2  502    0  0.29675201829E+02 -0.26051483736E+02  0.12463314641E+04  0.12469568620E+04  0.00000000000E+00 0. -1.
         22    1    3    3    0    0 -0.26225539353E+02  0.47236356424E+02  0.51000014816E+02  0.74297064503E+02  0.00000000000E+00 0. -1.
         22    1    3    3    0    0  0.95183637381E+01 -0.71992227693E+02  0.10805122219E+03  0.13018658423E+03  0.00000000000E+00 0. -1.
</event>
<event>
 7    1  0.5676357E-006  0.7711309E+02  0.7818608E-02  0.1337785E+00
          2   -1    0    0  502    0  0.00000000000E+00  0.00000000000E+00  0.39899098661E+02  0.39899098661E+02  0.00000000000E+00 0. -1.
          1   -1    0    0  501    0 -0.00000000000E+00 -0.00000000000E+00 -0.18372164462E+04  0.18372164462E+04  0.00000000000E+00 0. -1.
         25    2    1    2    0    0 -0.62530867885E+02  0.45922331050E+02 -0.53202550867E+03  0.55199182851E+03  0.12499946773E+03 0.  0.
          2    1    1    2  501    0 -0.11926370496E+02 -0.76185233519E+02 -0.12377700149E+04  0.12401697617E+04  0.00000000000E+00 0. -1.
          1    1    1    2  502    0  0.74457238381E+02  0.30262902469E+02 -0.27521823977E+02  0.84953954636E+02  0.00000000000E+00 0. -1.
         22    1    3    3    0    0  0.34041506778E+02  0.22523971954E+02 -0.88324669771E+02  0.97300569302E+02  0.00000000000E+00 0.  1.
         22    1    3    3    0    0 -0.96572374664E+02  0.23398359096E+02 -0.44370083890E+03  0.45469125921E+03  0.00000000000E+00 0.  1.
</event>
<event>
 7    1  0.5676357E-006  0.8369457E+02  0.7818608E-02  0.1381310E+00
          2   -1    0    0  502    0  0.00000000000E+00  0.00000000000E+00  0.13532066766E+03  0.13532066766E+03  0.00000000000E+00 0. -1.
          1   -1    0    0  501    0 -0.00000000000E+00 -0.00000000000E+00 -0.96907067281E+03  0.96907067281E+03  0.00000000000E+00 0. -1.
         25    2    1    2    0    0  0.76952527404E+02  0.43790365825E+02 -0.76401225669E+01  0.15337808408E+03  0.12500871005E+03 0.  0.
          2    1    1    2  501    0 -0.38630657924E+02 -0.74525939521E+02 -0.87657562831E+03  0.88058575706E+03  0.00000000000E+00 0. -1.
          1    1    1    2  502    0 -0.38321869480E+02  0.30735573696E+02  0.50465745721E+02  0.70427499331E+02  0.00000000000E+00 0. -1.
         22    1    3    3    0    0  0.28500005164E+02 -0.42394854938E+02 -0.17542390778E+02  0.54012123581E+02  0.00000000000E+00 0.  1.
         22    1    3    3    0    0  0.48452522240E+02  0.86185220764E+02  0.99022682111E+01  0.99365960496E+02  0.00000000000E+00 0.  1.
</event>
<event>
 7    1  0.5676357E-006  0.1136874E+03  0.7818608E-02  0.1264663E+00
          2   -1    0    0  502    0  0.00000000000E+00  0.00000000000E+00  0.30534621651E+03  0.30534621651E+03  0.00000000000E+00 0. -1.
          1   -1    0    0  501    0 -0.00000000000E+00 -0.00000000000E+00 -0.93642028488E+03  0.93642028488E+03  0.00000000000E+00 0. -1.
         25    2    1    2    0    0  0.25324538170E+02  0.49668029384E+02 -0.26919331453E+03  0.30199044212E+03  0.12499976467E+03 0.  0.
          2    1    1    2  501    0 -0.90264367197E+02  0.48041690191E+02 -0.63465602246E+03  0.64284051430E+03  0.00000000000E+00 0. -1.
          1    1    1    2  502    0  0.64939829027E+02 -0.97709719574E+02  0.27277526862E+03  0.29693554497E+03  0.00000000000E+00 0. -1.
         22    1    3    3    0    0  0.31828776940E+02  0.81696619226E+02 -0.11632287710E+03  0.14566543987E+03  0.00000000000E+00 0. -1.
         22    1    3    3    0    0 -0.65042387704E+01 -0.32028589843E+02 -0.15287043742E+03  0.15632500225E+03  0.00000000000E+00 0. -1.
</event>
<event>
 7    1  0.5676357E-006  0.9800621E+02  0.7818608E-02  0.1343781E+00
          2   -1    0    0  502    0  0.00000000000E+00  0.00000000000E+00  0.35780468936E+04  0.35780468936E+04  0.00000000000E+00 0. -1.
          1   -1    0    0  501    0 -0.00000000000E+00 -0.00000000000E+00 -0.32694770120E+03  0.32694770120E+03  0.00000000000E+00 0. -1.
         25    2    1    2    0    0  0.16937628267E+02  0.40952975292E+02  0.25027026097E+03  0.28323670157E+03  0.12499518451E+03 0.  0.
          2    1    1    2  501    0 -0.15861060017E+02 -0.98381846861E+02 -0.30221181591E+03  0.31821775986E+03  0.00000000000E+00 0. -1.
          1    1    1    2  502    0 -0.10765682502E+01  0.57428871569E+02  0.33030407473E+04  0.33035401334E+04  0.00000000000E+00 0. -1.
         22    1    3    3    0    0  0.24974042391E+02  0.42648561226E+02  0.26326502089E+03  0.26786390908E+03  0.00000000000E+00 0.  1.
         22    1    3    3    0    0 -0.80364141241E+01 -0.16955859342E+01 -0.12994759912E+02  0.15372792485E+02  0.00000000000E+00 0.  1.
</event>
<event>
 7    1  0.5676357E-006  0.1276037E+03  0.7818608E-02  0.1379138E+00
          2   -1    0    0  502    0  0.00000000000E+00  0.00000000000E+00  0.57584191374E+03  0.57584191374E+03  0.00000000000E+00 0. -1.
          1   -1    0    0  501    0 -0.00000000000E+00 -0.00000000000E+00 -0.89331652682E+03  0.89331652682E+03  0.00000000000E+00 0. -1.
         25    2    1    2    0    0 -0.15116032905E+03  0.13856002103E+02 -0.28983261583E+03  0.35024222019E+03  0.12500093493E+03 0.  0.
          2    1    1    2  501    0  0.27927050136E+02  0.17195189577E+02 -0.56539757627E+03  0.56634796188E+03  0.00000000000E+00 0. -1.
          1    1    1    2  502    0  0.12323327891E+03 -0.31051191679E+02  0.53775557901E+03  0.55256825849E+03  0.00000000000E+00 0. -1.
         22    1    3    3    0    0 -0.72473818846E+02  0.44016066615E+02 -0.23468260584E+03  0.24953114840E+03  0.00000000000E+00 0. -1.
         22    1    3    3    0    0 -0.78686510200E+02 -0.30160064512E+02 -0.55150009992E+02  0.10071107179E+03  0.00000000000E+00 0. -1.
</event>
<event>
 7    1  0.5676357E-006  0.7207037E+02  0.7818608E-02  0.1443798E+00
          2   -1    0    0  502    0  0.00000000000E+00  0.00000000000E+00  0.32415854869E+03  0.32415854869E+03  0.00000000000E+00 0. -1.
          1   -1    0    0  501    0 -0.00000000000E+00 -0.00000000000E+00 -0.53947767979E+03  0.53947767979E+03  0.00000000000E+00 0. -1.
         25    2    1    2    0    0 -0.14778042543E+02 -0.58449305435E+02  0.18919890344E+02  0.14006274530E+03  0.12499959410E+03 0.  0.
          2    1    1    2  501    0  0.49486481722E+02  0.53300887601E+02 -0.47486503281E+03  0.48040263933E+03  0.00000000000E+00 0. -1.
          1    1    1    2  502    0 -0.34708439179E+02  0.51484178339E+01  0.24062601136E+03  0.24317084385E+03  0.00000000000E+00 0. -1.
         22    1    3    3    0    0 -0.11581355682E+02  0.38834952432E+02 -0.17207280169E+01  0.40561585703E+02  0.00000000000E+00 0.  1.
         22    1    3    3    0    0 -0.31966868607E+01 -0.97284257867E+02  0.20640618361E+02  0.99501159601E+02  0.00000000000E+00 0.  1.
</event>
<event>
 7    1  0.5676357E-006  0.1031936E+03  0.7818608E-02  0.1428658E+00
          2   -1    0    0  502    0  0.00000000000E+00  0.00000000000E+00  0.11402591072E+04  0.11402591072E+04  0.00000000000E+00 0. -1.
          1   -1    0    0  501    0 -0.00000000000E+00 -0.00000000000E+00 -0.31206781993E+03  0.31206781993E+03  0.00000000000E+00 0. -1.
         25    2    1    2    0    0 -0.24320385428E+02  0.78196024177E+02  0.16373075589E+03  0.22167243608E+03  0.12499923661E+03 0.  0.
          2    1    1    2  501    0 -0.21886014277E+02  0.16581262377E+02 -0.27948885773E+03  0.28083439512E+03  0.00000000000E+00 0. -1.
          1    1    1    2  502    0  0.46206399705E+02 -0.94777286554E+02  0.94394938915E+03  0.94982009597E+03  0.00000000000E+00 0. -1.
         22    1    3    3    0    0 -0.45865650113E+02  0.83270976930E+02  0.17321727986E+03  0.19759033251E+03  0.00000000000E+00 0.  1.
         22    1    3    3    0    0  0.21545264685E+02 -0.50749527531E+01 -0.94865239693E+01  0.24082103579E+02  0.00000000000E+00 0.  1.
</event>
<event>
 7    1  0.5676357E-006  0.1127938E+03  0.7818608E-02  0.1399783E+00
          2   -1    0    0  502    0  0.00000000000E+00  0.00000000000E+00  0.12165302005E+04  0.12165302005E+04  0.00000000000E+00 0. -1.
          1   -1    0    0  501    0 -0.00000000000E+00 -0.00000000000E+00 -0.57650927166E+03  0.57650927166E+03  0.00000000000E+00 0. -1.
         25    2    1    2    0    0 -0.75691859164E+02 -0.95824643662E+02  0.58309170867E+02  0.18422257250E+03  0.12500550762E+03 0.  0.
          2    1    1    2  501    0  0.45112479244E+02  0.10307180288E+03 -0.50716071104E+03  0.51949101932E+03  0.00000000000E+00 0. -1.
          1    1    1    2  502    0  0.30579379920E+02 -0.72471592219E+01  0.10888724691E+04  0.10893258804E+04  0.00000000000E+00 0. -1.
         22    1    3    3    0    0 -0.41363440133E+02  0.14923581210E+02 -0.15673825544E+02  0.46683147526E+02  0.00000000000E+00 0. -1.
         22    1    3    3    0    0 -0.34328419031E+02 -0.11074822487E+03  0.73982996410E+02  0.13753942498E+03  0.00000000000E+00 0. -1.
</event>
<event>
 7    1  0.5676357E-006  0.2463955E+03  0.7818608E-02  0.1191990E+00
          2   -1    0    0  502    0  0.00000000000E+00  0.00000000000E+00  0.17650091483E+04  0.17650091483E+04  0.00000000000E+00 0. -1.
          1   -1    0    0  501    0 -0.00000000000E+00 -0.00000000000E+00 -0.53484896404E+03  0.53484896404E+03  0.00000000000E+00 0. -1.
         25    2    1    2    0    0 -0.30563453947E+03 -0.12804631509E+03  0.55050149401E+02  0.35841830569E+03  0.12499932952E+03 0.  0.
          2    1    1    2  501    0  0.21771141931E+03  0.80013865083E+02 -0.34626294863E+03  0.41677153250E+03  0.00000000000E+00 0. -1.
          1    1    1    2  502    0  0.87923120159E+02  0.48032450006E+02  0.15213729835E+04  0.15246682741E+04  0.00000000000E+00 0. -1.
         22    1    3    3    0    0 -0.11137155844E+03  0.10613769214E+02 -0.60802135158E+01  0.11204126527E+03  0.00000000000E+00 0.  1.
         22    1    3    3    0    0 -0.19426298102E+03 -0.13866008430E+03  0.61130362916E+02  0.24637704042E+03  0.00000000000E+00 0.  1.
</event>
<event>
 7    1  0.5676357E-006  0.1090623E+03  0.7818608E-02  0.1397336E+00
          2   -1    0    0  502    0  0.00000000000E+00  0.00000000000E+00  0.59097807687E+03  0.59097807687E+03  0.00000000000E+00 0. -1.
          1   -1    0    0  501    0 -0.00000000000E+00 -0.00000000000E+00 -0.78294986735E+03  0.78294986735E+03  0.00000000000E+00 0. -1.
         25    2    1    2    0    0  0.70557259045E+00 -0.86416621547E+02 -0.21420849417E+02  0.15346746201E+03  0.12500031517E+03 0.  0.
          2    1    1    2  501    0  0.25506570524E+02 -0.21156709780E+02 -0.68926502246E+03  0.69006120214E+03  0.00000000000E+00 0. -1.
          1    1    1    2  502    0 -0.26212143114E+02  0.10757333133E+03  0.51871408140E+03  0.53039928007E+03  0.00000000000E+00 0. -1.
         22    1    3    3    0    0 -0.53486024745E+02 -0.81160492840E+02 -0.89445534375E+01  0.97610375868E+02  0.00000000000E+00 0.  1.
         22    1    3    3    0    0  0.54191597335E+02 -0.52561287071E+01 -0.12476295979E+02  0.55857086140E+02  0.00000000000E+00 0.  1.
</event>
<event>
 7    1  0.5676357E-006  0.1359600E+03  0.7818608E-02  0.1264382E+00
          2   -1    0    0  502    0  0.00000000000E+00  0.00000000000E+00  0.11058104342E+04  0.11058104342E+04  0.00000000000E+00 0. -1.
          1   -1    0    0  501    0 -0.00000000000E+00 -0.00000000000E+00 -0.18075397563E+03  0.18075397563E+03  0.00000000000E+00 0. -1.
         25    2    1    2    0    0  0.13499933074E+02 -0.11479214298E+03  0.25389501805E+03  0.30569470661E+03  0.12500835642E+03 0.  0.
          2    1    1    2  501    0 -0.84841320687E+02 -0.12364244126E+02 -0.13593201920E+03  0.16071228351E+03  0.00000000000E+00 0. -1.
          1    1    1    2  502    0  0.71341387613E+02  0.12715638711E+03  0.80709345968E+03  0.82015741966E+03  0.00000000000E+00 0. -1.
         22    1    3    3    0    0 -0.99636626993E+01  0.22705820142E+02  0.14771732130E+02  0.28862309555E+02  0.00000000000E+00 0. -1.
         22    1    3    3    0    0  0.23463595774E+02 -0.13749796313E+03  0.23912328592E+03  0.27683239706E+03  0.00000000000E+00 0. -1.
</event>
<event>
 7    1  0.5676357E-006  0.6727204E+02  0.7818608E-02  0.1458930E+00
          2   -1    0    0  502    0  0.00000000000E+00  0.00000000000E+00  0.21781154482E+04  0.21781154482E+04  0.00000000000E+00 0. -1.
          1   -1    0    0  501    0 -0.00000000000E+00 -0.00000000000E+00 -0.65616483633E+03  0.65616483633E+03  0.00000000000E+00 0. -1.
         25    2    1    2    0    0 -0.75825765701E+02  0.61463481980E+02  0.32293260118E+03  0.35977423760E+03  0.12499892309E+03 0.  0.
          2    1    1    2  501    0  0.18523801405E+02 -0.28071463038E+02 -0.63670136124E+03  0.63758902254E+03  0.00000000000E+00 0. -1.
          1    1    1    2  502    0  0.57301964296E+02 -0.33392018941E+02  0.18357193720E+04  0.18369170244E+04  0.00000000000E+00 0. -1.
         22    1    3    3    0    0 -0.10747473473E+03  0.26833602811E+02  0.20853234078E+03  0.23612835069E+03  0.00000000000E+00 0.  1.
         22    1    3    3    0    0  0.31648969027E+02  0.34629879168E+02  0.11440026040E+03  0.12364588691E+03  0.00000000000E+00 0.  1.
</event>
<event>
 7    1  0.5676357E-006  0.4705669E+02  0.7818608E-02  0.1535575E+00
          2   -1    0    0  502    0  0.00000000000E+00  0.00000000000E+00  0.97224784536E+03  0.97224784536E+03  0.00000000000E+00 0. -1.
          1   -1    0    0  501    0 -0.00000000000E+00 -0.00000000000E+00 -0.10756580340E+04  0.10756580340E+04  0.00000000000E+00 0. -1.
         25    2    1    2    0    0  0.38042080911E+02 -0.55577829369E+02 -0.25053599755E+03  0.28797469013E+03  0.12500016419E+03 0.  0.
          2    1    1    2  501    0 -0.37634449421E+02  0.27251661304E+02 -0.80552262274E+03  0.80686163658E+03  0.00000000000E+00 0. -1.
          1    1    1    2  502    0 -0.40763148980E+00  0.28326168066E+02  0.95264843163E+03  0.95306955268E+03  0.00000000000E+00 0. -1.
         22    1    3    3    0    0 -0.21198570517E+02  0.82768453714E+01 -0.16266239483E+03  0.16424658369E+03  0.00000000000E+00 0.  1.
         22    1    3    3    0    0  0.59240651428E+02 -0.63854674741E+02 -0.87873602727E+02  0.12372810644E+03  0.00000000000E+00 0.  1.
</event>
<event>
 7    1  0.5676357E-006  0.8943448E+02  0.7818608E-02  0.1311510E+00
          2   -1    0    0  502    0  0.00000000000E+00  0.00000000000E+00  0.13330280029E+04  0.13330280029E+04  0.00000000000E+00 0. -1.
          1   -1    0    0  501    0 -0.00000000000E+00 -0.00000000000E+00 -0.10611161728E+03  0.10611161728E+03  0.00000000000E+00 0. -1.
         25    2    1    2    0    0 -0.92152859229E+01 -0.76002298713E+01  0.11550985593E+03  0.17059028707E+03  0.12496333157E+03 0.  0.
          2    1    1    2  501    0  0.46690835116E+02  0.88804350628E+02 -0.44094252404E+02  0.10959265427E+03  0.00000000000E+00 0. -1.
          1    1    1    2  502    0 -0.37475549193E+02 -0.81204120757E+02  0.11555007821E+04  0.11589566789E+04  0.00000000000E+00 0. -1.
         22    1    3    3    0    0 -0.47293252343E+02 -0.26253629634E+02  0.75672778722E+01  0.54618389581E+02  0.00000000000E+00 0. -1.
         22    1    3    3    0    0  0.38077966420E+02  0.18653399762E+02  0.10794257806E+03  0.11597189749E+03  0.00000000000E+00 0. -1.
</event>
<event>
 7    1  0.5676357E-006  0.3919122E+03  0.7818608E-02  0.1284849E+00
          2   -1    0    0  502    0  0.00000000000E+00  0.00000000000E+00  0.40705585608E+03  0.40705585608E+03  0.00000000000E+00 0. -1.
          1   -1    0    0  501    0 -0.00000000000E+00 -0.00000000000E+00 -0.11597743189E+04  0.11597743189E+04  0.00000000000E+00 0. -1.
         25    2    1    2    0    0  0.33762481718E+03  0.23363663758E+03 -0.83152975324E+03  0.93575802708E+03  0.12499903652E+03 0.  0.
          2    1    1    2  501    0 -0.10346117542E+02 -0.22140317149E+02 -0.16803092126E+03  0.16979878177E+03  0.00000000000E+00 0. -1.
          1    1    1    2  502    0 -0.32727869964E+03 -0.21149632043E+03  0.24684221170E+03  0.46127336610E+03  0.00000000000E+00 0. -1.
         22    1    3    3    0    0  0.41620467639E+02  0.71326760333E+02 -0.25068321459E+03  0.26393530295E+03  0.00000000000E+00 0.  1.
         22    1    3    3    0    0  0.29600434954E+03  0.16230987725E+03 -0.58084653865E+03  0.67182272413E+03  0.00000000000E+00 0.  1.
</event>
<event>
 7    1  0.5676357E-006  0.4972430E+02  0.7818608E-02  0.1532536E+00
          2   -1    0    0  502    0  0.00000000000E+00  0.00000000000E+00  0.39242836284E+04  0.39242836284E+04  0.00000000000E+00 0. -1.
          1   -1    0    0  501    0 -0.00000000000E+00 -0.00000000000E+00 -0.83639661000E+01  0.83639661000E+01  0.00000000000E+00 0. -1.
         25    2    1    2    0    0  0.13962335360E+02 -0.72690304031E+02  0.16274874029E+04  0.16339568688E+04  0.12498390055E+03 0.  0.
          2    1    1    2  501    0  0.12821315020E+01  0.27319227490E+02  0.33480734652E+02  0.43231280858E+02  0.00000000000E+00 0. -1.
          1    1    1    2  502    0 -0.15244466862E+02  0.45371076542E+02  0.22549515248E+04  0.22554594449E+04  0.00000000000E+00 0. -1.
         22    1    3    3    0    0  0.32095000310E+02  0.28215123361E+02  0.47475452107E+03  0.47667393206E+03  0.00000000000E+00 0.  1.
         22    1    3    3    0    0 -0.18132664950E+02 -0.10090542739E+03  0.11527328819E+04  0.11572829368E+04  0.00000000000E+00 0.  1.
</event>
<event>
 7    1  0.5676357E-006  0.7996352E+02  0.7818608E-02  0.1432454E+00
          2   -1    0    0  502    0  0.00000000000E+00  0.00000000000E+00  0.12183712043E+02  0.12183712043E+02  0.00000000000E+00 0. -1.
          1   -1    0    0  501    0 -0.00000000000E+00 -0.00000000000E+00 -0.26490407485E+04  0.26490407485E+04  0.00000000000E+00 0. -1.
         25    2    1    2    0    0  0.77439188503E+02 -0.61987167316E+01 -0.18488259477E+04  0.18546750144E+04  0.12500708849E+03 0.  0.
          2    1    1    2  501    0 -0.16509894899E+01  0.34390711583E+02 -0.61050057391E+03  0.61147068413E+03  0.00000000000E+00 0. -1.
          1    1    1    2  502    0 -0.75788199013E+02 -0.28191994851E+02 -0.17753051487E+03  0.19507876203E+03  0.00000000000E+00 0. -1.
         22    1    3    3    0    0  0.57701160896E+02  0.27649365910E+02 -0.38167391080E+03  0.38699985219E+03  0.00000000000E+00 0.  1.
         22    1    3    3    0    0  0.19738027608E+02 -0.33848082642E+02 -0.14671520369E+04  0.14676751622E+04  0.00000000000E+00 0.  1.
</event>
<event>
 7    1  0.5676357E-006  0.9326254E+02  0.7818608E-02  0.1439926E+00
          2   -1    0    0  502    0  0.00000000000E+00  0.00000000000E+00  0.11513576651E+04  0.11513576651E+04  0.00000000000E+00 0. -1.
          1   -1    0    0  501    0 -0.00000000000E+00 -0.00000000000E+00 -0.56970468824E+02  0.56970468824E+02  0.00000000000E+00 0. -1.
         25    2    1    2    0    0 -0.56967185201E+02 -0.96383708732E+02  0.55286108742E+03  0.57776696743E+03  0.12499682868E+03 0.  0.
          2    1    1    2  501    0  0.23965625999E+02  0.14302106244E+02 -0.36419756439E+02  0.45883549684E+02  0.00000000000E+00 0. -1.
          1    1    1    2  502    0  0.33001559202E+02  0.82081602488E+02  0.57794586528E+03  0.58467761678E+03  0.00000000000E+00 0. -1.
         22    1    3    3    0    0 -0.43972633902E+02  0.55824177436E+01  0.32225304771E+03  0.32528723104E+03  0.00000000000E+00 0. -1.
         22    1    3    3    0    0 -0.12994551299E+02 -0.10196612648E+03  0.23060803971E+03  0.25247973640E+03  0.00000000000E+00 0. -1.
</event>
<event>
 7    1  0.5676357E-006  0.4417734E+02  0.7818608E-02  0.1482633E+00
          2   -1    0    0  502    0  0.00000000000E+00  0.00000000000E+00  0.12479214246E+03  0.12479214246E+03  0.00000000000E+00 0. -1.
          1   -1    0    0  501    0 -0.00000000000E+00 -0.00000000000E+00 -0.76327242176E+03  0.76327242176E+03  0.00000000000E+00 0. -1.
         25    2    1    2    0    0 -0.47893343102E+02 -0.37556163918E+02 -0.36247781985E+02  0.14367487875E+03  0.12499732527E+03 0.  0.
          2    1    1    2  501    0  0.51350119489E+01  0.43891970657E+02 -0.66593869626E+03  0.66740334178E+03  0.00000000000E+00 0. -1.
          1    1    1    2  502    0  0.42758331153E+02 -0.63358067385E+01  0.63706198952E+02  0.76986343691E+02  0.00000000000E+00 0. -1.
         22    1    3    3    0    0 -0.30527043127E+02 -0.73456965749E+02 -0.57813072841E+02  0.98337061022E+02  0.00000000000E+00 0.  1.
         22    1    3    3    0    0 -0.17366299974E+02  0.35900801831E+02  0.21565290856E+02  0.45337817731E+02  0.00000000000E+00 0.  1.
</event>
<event>
 7    1  0.5676357E-006  0.1131212E+03  0.7818608E-02  0.1295751E+00
          2   -1    0    0  502    0  0.00000000000E+00  0.00000000000E+00  0.84954145184E+03  0.84954145184E+03  0.00000000000E+00 0. -1.
          1   -1    0    0  501    0 -0.00000000000E+00 -0.00000000000E+00 -0.41252709585E+03  0.41252709585E+03  0.00000000000E+00 0. -1.
         25    2    1    2    0    0 -0.20936464658E+02 -0.89807565125E+02  0.16984132350E+03  0.23016435954E+03  0.12500329167E+03 0.  0.
          2    1    1    2  501    0 -0.74655541850E+02  0.16483083006E+02 -0.37286691964E+03  0.38062433148E+03  0.00000000000E+00 0. -1.
          1    1    1    2  502    0  0.95592006508E+02  0.73324482119E+02  0.64003995213E+03  0.65127985667E+03  0.00000000000E+00 0. -1.
         22    1    3    3    0    0 -0.35675028180E+02 -0.11229244745E+03  0.16515283519E+03  0.20287375474E+03  0.00000000000E+00 0. -1.
         22    1    3    3    0    0  0.14738563522E+02  0.22484882325E+02  0.46884883073E+01  0.27290604802E+02  0.00000000000E+00 0. -1.
</event>
<event>
 7    1  0.5676357E-006  0.1158156E+03  0.7818608E-02  0.1312017E+00
          2   -1    0    0  502    0  0.00000000000E+00  0.00000000000E+00  0.11478928672E+04  0.11478928672E+04  0.00000000000E+00 0. -1.
          1   -1    0    0  501    0 -0.00000000000E+00 -0.00000000000E+00 -0.53522967968E+03  0.53522967968E+03  0.00000000000E+00 0. -1.
         25    2    1    2    0    0  0.10784118906E+03 -0.10818256543E+03  0.57499482880E+03  0.60792962903E+03  0.12500476463E+03 0.  0.
          2    1    1    2  501    0 -0.63285770736E+02  0.11575391945E+02 -0.51164414483E+03  0.51567316143E+03  0.00000000000E+00 0. -1.
          1    1    1    2  502    0 -0.44555418327E+02  0.96607173481E+02  0.54931250355E+03  0.55951975642E+03  0.00000000000E+00 0. -1.
         22    1    3    3    0    0  0.21981312698E+02  0.11264977376E+02  0.24970802485E+03  0.25092663369E+03  0.00000000000E+00 0.  1.
         22    1    3    3    0    0  0.85859876365E+02 -0.11944754280E+03  0.32528680395E+03  0.35700299533E+03  0.00000000000E+00 0.  1.
</event>
<event>
 7    1  0.5676357E-006  0.4458117E+02  0.7818608E-02  0.1497369E+00
          2   -1    0    0  502    0  0.00000000000E+00  0.00000000000E+00  0.20509363571E+04  0.20509363571E+04  0.00000000000E+00 0. -1.
          1   -1    0    0  501    0 -0.00000000000E+00 -0.00000000000E+00 -0.32803664250E+02  0.32803664250E+02  0.00000000000E+00 0. -1.
         25    2    1    2    0    0 -0.40683735469E+02 -0.30600537496E+02  0.17678415010E+03  0.22241509081E+03  0.12499711063E+03 0.  0.
          2    1    1    2  501    0  0.52297788652E+01  0.46001344672E+02  0.45010494656E+02  0.64571037841E+02  0.00000000000E+00 0. -1.
          1    1    1    2  502    0  0.35453956604E+02 -0.15400807177E+02  0.17963380481E+04  0.17967538927E+04  0.00000000000E+00 0. -1.
         22    1    3    3    0    0  0.24444205515E+02  0.30847333719E+02  0.26399347920E+02  0.47392011473E+02  0.00000000000E+00 0. -1.
         22    1    3    3    0    0 -0.65127940984E+02 -0.61447871214E+02  0.15038480218E+03  0.17502307933E+03  0.00000000000E+00 0. -1.
</event>
<event>
 7    1  0.5676357E-006  0.1488145E+03  0.7818608E-02  0.1242610E+00
          2   -1    0    0  502    0  0.00000000000E+00  0.00000000000E+00  0.75219652879E+03  0.75219652879E+03  0.00000000000E+00 0. -1.
          1   -1    0    0  501    0 -0.00000000000E+00 -0.00000000000E+00 -0.10430601788E+04  0.10430601788E+04  0.00000000000E+00 0. -1.
         25    2    1    2    0    0  0.46296198214E+02 -0.77439707267E+02  0.43087587822E+01  0.15422623569E+03  0.12500768033E+03 0.  0.
          2    1    1    2  501    0 -0.54993632606E+02 -0.80198416333E+02 -0.95634175262E+03  0.96127292348E+03  0.00000000000E+00 0. -1.
          1    1    1    2  502    0  0.86974343920E+01  0.15763812360E+03  0.66116934384E+03  0.67975754840E+03  0.00000000000E+00 0. -1.
         22    1    3    3    0    0  0.16980324501E+02  0.31721425870E+02  0.18244036601E+02  0.40341357822E+02  0.00000000000E+00 0. -1.
         22    1    3    3    0    0  0.29315873714E+02 -0.10916113314E+03 -0.13935277819E+02  0.11388487787E+03  0.00000000000E+00 0. -1.
</event>
<event>
 7    1  0.5676357E-006  0.7254088E+02  0.7818608E-02  0.1358369E+00
          2   -1    0    0  502    0  0.00000000000E+00  0.00000000000E+00  0.20261999759E+04  0.20261999759E+04  0.00000000000E+00 0. -1.
          1   -1    0    0  501    0 -0.00000000000E+00 -0.00000000000E+00 -0.91511061169E+02  0.91511061169E+02  0.00000000000E+00 0. -1.
         25    2    1    2    0    0  0.10821990489E+03 -0.43524980407E+02  0.23191420290E+03  0.28812392099E+03  0.12500089843E+03 0.  0.
          2    1    1    2  501    0 -0.69243701207E+02 -0.12847610313E+02 -0.42968762571E+02  0.82498883656E+02  0.00000000000E+00 0. -1.
          1    1    1    2  502    0 -0.38976203684E+02  0.56372590720E+02  0.17457434744E+04  0.17470882325E+04  0.00000000000E+00 0. -1.
         22    1    3    3    0    0  0.75877436748E+02 -0.80227681000E+02  0.10611529736E+03  0.15314804126E+03  0.00000000000E+00 0. -1.
         22    1    3    3    0    0  0.32342468143E+02  0.36702700594E+02  0.12579890553E+03  0.13497587974E+03  0.00000000000E+00 0. -1.
</event>
<event>
 7    1  0.5676357E-006  0.8032013E+02  0.7818608E-02  0.1475070E+00
          2   -1    0    0  502    0  0.00000000000E+00  0.00000000000E+00  0.88823648377E+03  0.88823648377E+03  0.00000000000E+00 0. -1.
          1   -1    0    0  501    0 -0.00000000000E+00 -0.00000000000E+00 -0.24350922595E+03  0.24350922595E+03  0.00000000000E+00 0. -1.
         25    2    1    2    0    0 -0.71355576817E+02 -0.34828076844E+02  0.15582850958E+03  0.21497290868E+03  0.12500485507E+03 0.  0.
          2    1    1    2  501    0 -0.85326904239E+01  0.23585228129E+02 -0.21087631563E+03  0.21236263863E+03  0.00000000000E+00 0. -1.
          1    1    1    2  502    0  0.79888267241E+02  0.11242848715E+02  0.69977506387E+03  0.70441016241E+03  0.00000000000E+00 0. -1.
         22    1    3    3    0    0 -0.26568855846E+02 -0.38803945212E+02  0.16281467375E+03  0.16947055276E+03  0.00000000000E+00 0.  1.
         22    1    3    3    0    0 -0.44786720971E+02  0.39758683677E+01 -0.69861641709E+01  0.45502355922E+02  0.00000000000E+00 0.  1.
</event>
<event>
 7    1  0.5676357E-006  0.5980953E+02  0.7818608E-02  0.1418107E+00
          2   -1    0    0  502    0  0.00000000000E+00  0.00000000000E+00  0.48421123633E+03  0.48421123633E+03  0.00000000000E+00 0. -1.
          1   -1    0    0  501    0 -0.00000000000E+00 -0.00000000000E+00 -0.58726024259E+03  0.58726024259E+03  0.00000000000E+00 0. -1.
         25    2    1    2    0    0  0.10466662098E+03  0.16996246671E+02  0.72036250427E+02  0.17904939938E+03  0.12500196836E+03 0.  0.
          2    1    1    2  501    0 -0.46903779943E+02 -0.20923528234E+02 -0.53016823165E+03  0.53265008445E+03  0.00000000000E+00 0. -1.
          1    1    1    2  502    0 -0.57762841035E+02  0.39272815622E+01  0.35508297497E+03  0.35977199510E+03  0.00000000000E+00 0. -1.
         22    1    3    3    0    0  0.99108343061E+02 -0.35735360263E+02  0.25255210381E+02  0.10833884478E+03  0.00000000000E+00 0. -1.
         22    1    3    3    0    0  0.55582779169E+01  0.52731606934E+02  0.46781040047E+02  0.70710554595E+02  0.00000000000E+00 0. -1.
</event>
<event>
 7    1  0.5676357E-006  0.7927888E+02  0.7818608E-02  0.1370844E+00
          2   -1    0    0  502    0  0.00000000000E+00  0.00000000000E+00  0.13183851182E+04  0.13183851182E+04  0.00000000000E+00 0. -1.
          1   -1    0    0  501    0 -0.00000000000E+00 -0.00000000000E+00 -0.80613568345E+02  0.80613568345E+02  0.00000000000E+00 0. -1.
         25    2    1    2    0    0 -0.36285896524E+02 -0.23520735489E+02  0.55986323524E+03  0.57527537275E+03  0.12500008418E+03 0.  0.
          2    1    1    2  501    0 -0.18334622627E+02 -0.53452702638E+02 -0.58473590921E+02  0.81317345268E+02  0.00000000000E+00 0. -1.
          1    1    1    2  502    0  0.54620519150E+02  0.76973438128E+02  0.73638190551E+03  0.74240596849E+03  0.00000000000E+00 0. -1.
         22    1    3    3    0    0 -0.28442868143E+02  0.40244596971E+02  0.39939718883E+03  0.40242606623E+03  0.00000000000E+00 0. -1.
         22    1    3    3    0    0 -0.78430283810E+01 -0.63765332461E+02  0.16046604640E+03  0.17284930653E+03  0.00000000000E+00 0. -1.
</event>
<event>
 7    1  0.5676357E-006  0.7275911E+02  0.7818608E-02  0.1424721E+00
          2   -1    0    0  502    0  0.00000000000E+00  0.00000000000E+00  0.18147382132E+03  0.18147382132E+03  0.00000000000E+00 0. -1.
          1   -1    0    0  501    0 -0.00000000000E+00 -0.00000000000E+00 -0.20343133127E+03  0.20343133127E+03  0.00000000000E+00 0. -1.
         25    2    1    2    0    0  0.70302584697E+02 -0.71034965350E+02 -0.65572115388E+02  0.17295419462E+03  0.12500012561E+03 0.  0.
          2    1    1    2  501    0 -0.32306272310E+02  0.58128454454E+02 -0.66927899913E+02  0.94350178773E+02  0.00000000000E+00 0. -1.
          1    1    1    2  502    0 -0.37996312388E+02  0.12906510897E+02  0.11054250535E+03  0.11760077920E+03  0.00000000000E+00 0. -1.
         22    1    3    3    0    0 -0.15976828997E+02 -0.24062112500E+02  0.25847361069E+02  0.38759907081E+02  0.00000000000E+00 0. -1.
         22    1    3    3    0    0  0.86279413695E+02 -0.46972852851E+02 -0.91419476457E+02  0.13419428754E+03  0.00000000000E+00 0. -1.
</event>
<event>
 7    1  0.5676357E-006  0.1236582E+03  0.7818608E-02  0.1261904E+00
          2   -1    0    0  502    0  0.00000000000E+00  0.00000000000E+00  0.25786430618E+04  0.25786430618E+04  0.00000000000E+00 0. -1.
          1   -1    0    0  501    0 -0.00000000000E+00 -0.00000000000E+00 -0.30881397976E+03  0.30881397976E+03  0.00000000000E+00 0. -1.
         25    2    1    2    0    0  0.19380109454E+02  0.62361765440E+02  0.18656763321E+03  0.23387382598E+03  0.12499962516E+03 0.  0.
          2    1    1    2  501    0 -0.82026720340E+02  0.50980674009E+02 -0.27515584349E+03  0.29161301442E+03  0.00000000000E+00 0. -1.
          1    1    1    2  502    0  0.62646610886E+02 -0.11334243945E+03  0.23584172923E+04  0.23619702011E+04  0.00000000000E+00 0. -1.
         22    1    3    3    0    0 -0.44100712917E+02 -0.76847018329E+01  0.43671654372E+02  0.62539115101E+02  0.00000000000E+00 0.  1.
         22    1    3    3    0    0  0.63480822371E+02  0.70046467273E+02  0.14289597883E+03  0.17133471088E+03  0.00000000000E+00 0.  1.
</event>
<event>
 7    1  0.5676357E-006  0.8114847E+02  0.7818608E-02  0.1358861E+00
          2   -1    0    0  502    0  0.00000000000E+00  0.00000000000E+00  0.19465499002E+03  0.19465499002E+03  0.00000000000E+00 0. -1.
          1   -1    0    0  501    0 -0.00000000000E+00 -0.00000000000E+00 -0.58775729491E+03  0.58775729491E+03  0.00000000000E+00 0. -1.
         25    2    1    2    0    0  0.19892930069E+01 -0.13200164107E+03 -0.13533401533E+03  0.22664060079E+03  0.12498910228E+03 0.  0.
          2    1    1    2  501    0  0.21478991879E+02  0.57106308716E+02 -0.39392045011E+03  0.39861735863E+03  0.00000000000E+00 0. -1.
          1    1    1    2  502    0 -0.23468284886E+02  0.74895332352E+02  0.13615216055E+03  0.15715432551E+03  0.00000000000E+00 0. -1.
         22    1    3    3    0    0  0.54619296272E+02 -0.11320751076E+03 -0.98747942078E+02  0.15984481250E+03  0.00000000000E+00 0.  1.
         22    1    3    3    0    0 -0.52630003265E+02 -0.18794130310E+02 -0.36586073257E+02  0.66795788297E+02  0.00000000000E+00 0.  1.
</event>
<event>
 7    1  0.5676357E-006  0.7295338E+02  0.7818608E-02  0.1355392E+00
          2   -1    0    0  502    0  0.00000000000E+00  0.00000000000E+00  0.10436212811E+04  0.10436212811E+04  0.00000000000E+00 0. -1.
          1   -1    0    0  501    0 -0.00000000000E+00 -0.00000000000E+00 -0.53592182842E+03  0.53592182842E+03  0.00000000000E+00 0. -1.
         25    2    1    2    0    0 -0.76228821374E+02 -0.30657005447E+02  0.16683366837E+02  0.15050743207E+03  0.12499386860E+03 0.  0.
          2    1    1    2  501    0  0.13351844388E+02  0.68594777392E+02 -0.46499069400E+03  0.47021256974E+03  0.00000000000E+00 0. -1.
          1    1    1    2  502    0  0.62876976985E+02 -0.37937771945E+02  0.95600677985E+03  0.95882310771E+03  0.00000000000E+00 0. -1.
         22    1    3    3    0    0 -0.24333856900E+02  0.48632259379E+02  0.11632718598E+02  0.55610730852E+02  0.00000000000E+00 0. -1.
         22    1    3    3    0    0 -0.51894964474E+02 -0.79289264826E+02  0.50506482396E+01  0.94896701218E+02  0.00000000000E+00 0. -1.
</event>
<event>
 7    1  0.5676357E-006  0.1650036E+03  0.7818608E-02  0.1277764E+00
          2   -1    0    0  502    0  0.00000000000E+00  0.00000000000E+00  0.26489124986E+03  0.26489124986E+03  0.00000000000E+00 0. -1.
          1   -1    0    0  501    0 -0.00000000000E+00 -0.00000000000E+00 -0.97760722988E+03  0.97760722988E+03  0.00000000000E+00 0. -1.
         25    2    1    2    0    0 -0.48544264515E+02 -0.17637975901E+03  0.90965561285E+01  0.22175310352E+03  0.12500130633E+03 0.  0.
          2    1    1    2  501    0  0.59938997511E+02  0.16182001231E+02 -0.82663415223E+03  0.82896234065E+03  0.00000000000E+00 0. -1.
          1    1    1    2  502    0 -0.11394732996E+02  0.16019775778E+03  0.10482161608E+03  0.19178303557E+03  0.00000000000E+00 0. -1.
         22    1    3    3    0    0 -0.59603392351E+02 -0.19201301591E+03  0.15277596277E+02  0.20163077048E+03  0.00000000000E+00 0.  1.
         22    1    3    3    0    0  0.11059127836E+02  0.15633256898E+02 -0.61810401490E+01  0.20122333042E+02  0.00000000000E+00 0.  1.
</event>
<event>
 7    1  0.5676357E-006  0.1094475E+03  0.7818608E-02  0.1416591E+00
          2   -1    0    0  502    0  0.00000000000E+00  0.00000000000E+00  0.10482142746E+04  0.10482142746E+04  0.00000000000E+00 0. -1.
          1   -1    0    0  501    0 -0.00000000000E+00 -0.00000000000E+00 -0.18065464498E+04  0.18065464498E+04  0.00000000000E+00 0. -1.
         25    2    1    2    0    0 -0.85917692836E+02 -0.65247380101E+02 -0.10143056135E+03  0.19378050046E+03  0.12499461201E+03 0.  0.
          2    1    1    2  501    0  0.18766485661E+02 -0.21311276666E+02 -0.16558245042E+04  0.16560679758E+04  0.00000000000E+00 0. -1.
          1    1    1    2  502    0  0.67151207175E+02  0.86558656767E+02  0.99892289038E+03  0.10049122482E+04  0.00000000000E+00 0. -1.
         22    1    3    3    0    0 -0.50951954804E+02  0.71337028556E+01  0.13813795007E+02  0.53271121138E+02  0.00000000000E+00 0. -1.
         22    1    3    3    0    0 -0.34965738032E+02 -0.72381082956E+02 -0.11524435635E+03  0.14050937932E+03  0.00000000000E+00 0. -1.
</event>
<event>
 7    1  0.5676357E-006  0.5900935E+02  0.7818608E-02  0.1476927E+00
          2   -1    0    0  502    0  0.00000000000E+00  0.00000000000E+00  0.27099375824E+04  0.27099375824E+04  0.00000000000E+00 0. -1.
          1   -1    0    0  501    0 -0.00000000000E+00 -0.00000000000E+00 -0.20735359080E+03  0.20735359080E+03  0.00000000000E+00 0. -1.
         25    2    1    2    0    0  0.64413596249E+02 -0.88234605141E+01  0.13415761120E+04  0.13489545784E+04  0.12500010243E+03 0.  0.
          2    1    1    2  501    0 -0.45967873369E+02  0.37017412273E+02 -0.19917554059E+03  0.20773596262E+03  0.00000000000E+00 0. -1.
          1    1    1    2  502    0 -0.18445722880E+02 -0.28193951759E+02  0.13601834202E+04  0.13606006321E+04  0.00000000000E+00 0. -1.
         22    1    3    3    0    0  0.17588134117E+02 -0.12404000508E+02  0.32163169547E+02  0.38699756661E+02  0.00000000000E+00 0.  1.
         22    1    3    3    0    0  0.46825462132E+02  0.35805399937E+01  0.13094129424E+04  0.13102548218E+04  0.00000000000E+00 0.  1.
</event>
<event>
 7    1  0.5676357E-006  0.4579265E+02  0.7818608E-02  0.1508512E+00
          2   -1    0    0  502    0  0.00000000000E+00  0.00000000000E+00  0.14333908334E+04  0.14333908334E+04  0.00000000000E+00 0. -1.
          1   -1    0    0  501    0 -0.00000000000E+00 -0.00000000000E+00 -0.15712917964E+02  0.15712917964E+02  0.00000000000E+00 0. -1.
         25    2    1    2    0    0 -0.67376998240E+01 -0.74336110136E+02  0.75229658082E+03  0.76625381367E+03  0.12499403019E+03 0.  0.
          2    1    1    2  501    0 -0.84726926927E+01  0.42959754383E+02  0.49924693941E+02  0.66406340686E+02  0.00000000000E+00 0. -1.
          1    1    1    2  502    0  0.15210392517E+02  0.31376355753E+02  0.61545664064E+03  0.61644359698E+03  0.00000000000E+00 0. -1.
         22    1    3    3    0    0 -0.38861081340E+01  0.18834640921E+02  0.43809229736E+03  0.43851420335E+03  0.00000000000E+00 0.  1.
         22    1    3    3    0    0 -0.28515916900E+01 -0.93170751057E+02  0.31420428346E+03  0.32773961032E+03  0.00000000000E+00 0.  1.
</event>
<event>
 7    1  0.5676357E-006  0.1298122E+03  0.7818608E-02  0.1310083E+00
          2   -1    0    0  502    0  0.00000000000E+00  0.00000000000E+00  0.21336028093E+04  0.21336028093E+04  0.00000000000E+00 0. -1.
          1   -1    0    0  501    0 -0.00000000000E+00 -0.00000000000E+00 -0.52302261682E+03  0.52302261682E+03  0.00000000000E+00 0. -1.
         25    2    1    2    0    0 -0.33083965161E+02 -0.17780921588E+03 -0.52690072826E+02  0.22608002430E+03  0.12500107044E+03 0.  0.
          2    1    1    2  501    0  0.32247938823E+02  0.48705473759E+02 -0.37936410312E+03  0.38383495863E+03  0.00000000000E+00 0. -1.
          1    1    1    2  502    0  0.83602633800E+00  0.12910374212E+03  0.20426343684E+04  0.20467104432E+04  0.00000000000E+00 0. -1.
         22    1    3    3    0    0  0.21246039622E+01 -0.17244356842E+03 -0.70439068827E+02  0.18628730673E+03  0.00000000000E+00 0. -1.
         22    1    3    3    0    0 -0.35208569123E+02 -0.53656474581E+01  0.17748996001E+02  0.39792717567E+02  0.00000000000E+00 0. -1.
</event>
<event>
 7    1  0.5676357E-006  0.6234317E+02  0.7818608E-02  0.1480625E+00
          2   -1    0    0  502    0  0.00000000000E+00  0.00000000000E+00  0.34363245442E+03  0.34363245442E+03  0.00000000000E+00 0. -1.
          1   -1    0    0  501    0 -0.00000000000E+00 -0.00000000000E+00 -0.11689074955E+04  0.11689074955E+04  0.00000000000E+00 0. -1.
         25    2    1    2    0    0 -0.20545540977E+02  0.64148636903E+02 -0.52705871422E+03  0.54585133452E+03  0.12500249717E+03 0.  0.
          2    1    1    2  501    0 -0.10424669311E+02 -0.61703756456E+02 -0.63017748473E+03  0.63327694538E+03  0.00000000000E+00 0. -1.
          1    1    1    2  502    0  0.30970210288E+02 -0.24448804475E+01  0.33196115787E+03  0.33341167001E+03  0.00000000000E+00 0. -1.
         22    1    3    3    0    0 -0.58469448670E+01  0.48587097846E+02 -0.56258797794E+02  0.74565039869E+02  0.00000000000E+00 0.  1.
         22    1    3    3    0    0 -0.14698596110E+02  0.15561539057E+02 -0.47079991642E+03  0.47128629465E+03  0.00000000000E+00 0.  1.
</event>
<event>
 7    1  0.5676357E-006  0.9992284E+02  0.7818608E-02  0.1290659E+00
          2   -1    0    0  502    0  0.00000000000E+00  0.00000000000E+00  0.34725407589E+03  0.34725407589E+03  0.00000000000E+00 0. -1.
          1   -1    0    0  501    0 -0.00000000000E+00 -0.00000000000E+00 -0.21719989299E+04  0.21719989299E+04  0.00000000000E+00 0. -1.
         25    2    1    2    0    0  0.22924532937E+02  0.35898191048E+02 -0.76878974428E+02  0.15280460819E+03  0.12499862896E+03 0.  0.
          2    1    1    2  501    0 -0.10229620139E+03  0.81141000876E+01 -0.20491875738E+04  0.20517553616E+04  0.00000000000E+00 0. -1.
          1    1    1    2  502    0  0.79371668452E+02 -0.44012291136E+02  0.30132169418E+03  0.31469303600E+03  0.00000000000E+00 0. -1.
         22    1    3    3    0    0  0.10447703232E+02  0.73940921846E+02 -0.83723230239E+02  0.11218731527E+03  0.00000000000E+00 0. -1.
         22    1    3    3    0    0  0.12476829705E+02 -0.38042730798E+02  0.68442558106E+01  0.40617292914E+02  0.00000000000E+00 0. -1.
</event>
<event>
 7    1  0.5676357E-006  0.6261815E+02  0.7818608E-02  0.1478167E+00
          2   -1    0    0  502    0  0.00000000000E+00  0.00000000000E+00  0.90299073561E+03  0.90299073561E+03  0.00000000000E+00 0. -1.
          1   -1    0    0  501    0 -0.00000000000E+00 -0.00000000000E+00 -0.32051372173E+03  0.32051372173E+03  0.00000000000E+00 0. -1.
         25    2    1    2    0    0  0.19226851237E+01  0.93591667385E+02 -0.78480333837E+01  0.15636538174E+03  0.12500177622E+03 0.  0.
          2    1    1    2  501    0 -0.19146212225E+01 -0.31414039274E+02 -0.23619550123E+03  0.23828307208E+03  0.00000000000E+00 0. -1.
          1    1    1    2  502    0 -0.80639012246E-02 -0.62177628111E+02  0.82652054849E+03  0.82885600352E+03  0.00000000000E+00 0. -1.
         22    1    3    3    0    0 -0.45590849159E+02  0.15120909062E+01  0.18863160866E+02  0.49362240466E+02  0.00000000000E+00 0. -1.
         22    1    3    3    0    0  0.47513534282E+02  0.92079576479E+02 -0.26711194250E+02  0.10700314128E+03  0.00000000000E+00 0. -1.
</event>
<event>
 7    1  0.5676357E-006  0.2296473E+03  0.7818608E-02  0.1212865E+00
          2   -1    0    0  502    0  0.00000000000E+00  0.00000000000E+00  0.98607968587E+03  0.98607968587E+03  0.00000000000E+00 0. -1.
          1   -1    0    0  501    0 -0.00000000000E+00 -0.00000000000E+00 -0.98878298406E+03  0.98878298406E+03  0.00000000000E+00 0. -1.
         25    2    1    2    0    0  0.28034375573E+03  0.13384236147E+03  0.39958858238E+03  0.52134641265E+03  0.12499859086E+03 0.  0.
          2    1    1    2  501    0 -0.19716011487E+03 -0.11293814200E+03 -0.91034585538E+03  0.93827326042E+03  0.00000000000E+00 0. -1.
          1    1    1    2  502    0 -0.83183640858E+02 -0.20904219471E+02  0.50805397481E+03  0.51524299686E+03  0.00000000000E+00 0. -1.
         22    1    3    3    0    0  0.74789803233E+02  0.32140751143E+02  0.20503248361E+03  0.22060113754E+03  0.00000000000E+00 0.  1.
         22    1    3    3    0    0  0.20555395250E+03  0.10170161033E+03  0.19455609878E+03  0.30074527511E+03  0.00000000000E+00 0.  1.
</event>
<event>
 7    1  0.5676357E-006  0.9506602E+02  0.7818608E-02  0.1306902E+00
          2   -1    0    0  502    0  0.00000000000E+00  0.00000000000E+00  0.25780046662E+04  0.25780046662E+04  0.00000000000E+00 0. -1.
          1   -1    0    0  501    0 -0.00000000000E+00 -0.00000000000E+00 -0.16498439373E+02  0.16498439373E+02  0.00000000000E+00 0. -1.
         25    2    1    2    0    0 -0.11679029439E+03 -0.74465587399E+02  0.10799505613E+04  0.10959484911E+04  0.12499913524E+03 0.  0.
          2    1    1    2  501    0  0.81666970009E+02 -0.84670511340E+01  0.23842975887E+03  0.25217044803E+03  0.00000000000E+00 0. -1.
          1    1    1    2  502    0  0.35123324383E+02  0.82932638533E+02  0.12431259067E+04  0.12463841664E+04  0.00000000000E+00 0. -1.
         22    1    3    3    0    0 -0.40110820747E+02 -0.11002824375E+02  0.72426164451E+02  0.83519395246E+02  0.00000000000E+00 0.  1.
         22    1    3    3    0    0 -0.76679473645E+02 -0.63462763024E+02  0.10075243968E+04  0.10124290959E+04  0.00000000000E+00 0.  1.
</event>
<event>
 7    1  0.5676357E-006  0.9616139E+02  0.7818608E-02  0.1393229E+00
          2   -1    0    0  502    0  0.00000000000E+00  0.00000000000E+00  0.11392445048E+04  0.11392445048E+04  0.00000000000E+00 0. -1.
          1   -1    0    0  501    0 -0.00000000000E+00 -0.00000000000E+00 -0.28059323534E+03  0.28059323534E+03  0.00000000000E+00 0. -1.
         25    2    1    2    0    0 -0.57591598033E+02 -0.12033506878E+03  0.10316341444E+03  0.20991547619E+03  0.12499798447E+03 0.  0.
          2    1    1    2  501    0  0.16872409021E+02  0.34979186953E+02 -0.22326178291E+03  0.22661430982E+03  0.00000000000E+00 0. -1.
          1    1    1    2  502    0  0.40719189012E+02  0.85355881824E+02  0.97874963792E+03  0.98330795412E+03  0.00000000000E+00 0. -1.
         22    1    3    3    0    0 -0.49201313095E+02  0.13037852379E+01  0.66231182925E+02  0.82516899226E+02  0.00000000000E+00 0. -1.
         22    1    3    3    0    0 -0.83902849388E+01 -0.12163885401E+03  0.36932231516E+02  0.12739857696E+03  0.00000000000E+00 0. -1.
</event>
<event>
 7    1  0.5676357E-006  0.2678699E+03  0.7818608E-02  0.1232522E+00
          2   -1    0    0  502    0  0.00000000000E+00  0.00000000000E+00  0.23249724153E+04  0.23249724153E+04  0.00000000000E+00 0. -1.
          1   -1    0    0  501    0 -0.00000000000E+00 -0.00000000000E+00 -0.10085338459E+04  0.10085338459E+04  0.00000000000E+00 0. -1.
         25    2    1    2    0    0 -0.28221467298E+03 -0.79961594647E+02 -0.37639406699E+03  0.49329289053E+03  0.12500561558E+03 0.  0.
          2    1    1    2  501    0  0.43625741966E+02 -0.41009756497E+02 -0.56420777231E+03  0.56737590346E+03  0.00000000000E+00 0. -1.
          1    1    1    2  502    0  0.23858893101E+03  0.12097135114E+03  0.22570404087E+04  0.22728374672E+04  0.00000000000E+00 0. -1.
         22    1    3    3    0    0 -0.27262554975E+03 -0.42811368661E+02 -0.35403455404E+03  0.44888525162E+03  0.00000000000E+00 0.  1.
         22    1    3    3    0    0 -0.95891232244E+01 -0.37150225986E+02 -0.22359512947E+02  0.44407638918E+02  0.00000000000E+00 0.  1.
</event>
<event>
 7    1  0.5676357E-006  0.1603705E+03  0.7818608E-02  0.1275302E+00
          2   -1    0    0  502    0  0.00000000000E+00  0.00000000000E+00  0.89851285375E+03  0.89851285375E+03  0.00000000000E+00 0. -1.
          1   -1    0    0  501    0 -0.00000000000E+00 -0.00000000000E+00 -0.83330335938E+03  0.83330335938E+03  0.00000000000E+00 0. -1.
         25    2    1    2    0    0  0.14524837380E+03  0.77506007389E+02  0.55228165555E+03  0.58969869949E+03  0.12500103141E+03 0.  0.
          2    1    1    2  501    0 -0.15990168630E+03 -0.13767529152E+02 -0.80331105528E+03  0.81918663665E+03  0.00000000000E+00 0. -1.
          1    1    1    2  502    0  0.14653312500E+02 -0.63738478237E+02  0.31623889409E+03  0.32293087699E+03  0.00000000000E+00 0. -1.
         22    1    3    3    0    0  0.11618515995E+03  0.70446745707E+02  0.54088904724E+03  0.55769408890E+03  0.00000000000E+00 0. -1.
         22    1    3    3    0    0  0.29063213849E+02  0.70592616827E+01  0.11392608305E+02  0.32004610585E+02  0.00000000000E+00 0. -1.
</event>
<event>
 7    1  0.5676357E-006  0.7891352E+02  0.7818608E-02  0.1397316E+00
          2   -1    0    0  502    0  0.00000000000E+00  0.00000000000E+00  0.13753241510E+04  0.13753241510E+04  0.00000000000E+00 0. -1.
          1   -1    0    0  501    0 -0.00000000000E+00 -0.00000000000E+00 -0.41906200839E+03  0.41906200839E+03  0.00000000000E+00 0. -1.
         25    2    1    2    0    0 -0.32391348279E+02  0.76382472317E+01  0.99182016211E+03  0.10002191301E+04  0.12499412756E+03 0.  0.
          2    1    1    2  501    0  0.76982067385E+02 -0.18124059516E+02 -0.40968372831E+03  0.41724750146E+03  0.00000000000E+00 0. -1.
          1    1    1    2  502    0 -0.44590719106E+02  0.10485812284E+02  0.37412570877E+03  0.37691952782E+03  0.00000000000E+00 0. -1.
         22    1    3    3    0    0 -0.63068794742E+02 -0.65032082402E+01  0.90250574976E+03  0.90473012160E+03  0.00000000000E+00 0.  1.
         22    1    3    3    0    0  0.30677446463E+02  0.14141455472E+02  0.89314412354E+02  0.95489008470E+02  0.00000000000E+00 0.  1.
</event>
<event>
 7    1  0.5676357E-006  0.8601346E+02  0.7818608E-02  0.1315055E+00
          2   -1    0    0  502    0  0.00000000000E+00  0.00000000000E+00  0.28669769460E+04  0.28669769460E+04  0.00000000000E+00 0. -1.
          1   -1    0    0  501    0 -0.00000000000E+00 -0.00000000000E+00 -0.12768114754E+04  0.12768114754E+04  0.00000000000E+00 0. -1.
         25    2    1    2    0    0  0.65559766243E+02 -0.14091245323E+03  0.12077731038E+03  0.23316206020E+03  0.12499194048E+03 0.  0.
          2    1    1    2  501    0 -0.20435398175E+01  0.85509422512E+02 -0.12184592901E+04  0.12214577680E+04  0.00000000000E+00 0. -1.
          1    1    1    2  502    0 -0.63516226425E+02  0.55403030723E+02  0.26878474502E+04  0.26891685932E+04  0.00000000000E+00 0. -1.
         22    1    3    3    0    0  0.76855854115E+02 -0.11376004984E+03  0.33857375253E+02  0.14140188510E+03  0.00000000000E+00 0. -1.
         22    1    3    3    0    0 -0.11296087872E+02 -0.27152403397E+02  0.86919935126E+02  0.91760175096E+02  0.00000000000E+00 0. -1.
</event>
<event>
 7    1  0.5676357E-006  0.8555925E+02  0.7818608E-02  0.1324354E+00
          2   -1    0    0  502    0  0.00000000000E+00  0.00000000000E+00  0.40361299454E+03  0.40361299454E+03  0.00000000000E+00 0. -1.
          1   -1    0    0  501    0 -0.00000000000E+00 -0.00000000000E+00 -0.62789639788E+03  0.62789639788E+03  0.00000000000E+00 0. -1.
         25    2    1    2    0    0  0.71680881233E+01  0.29723236501E+02  0.11094630436E+03  0.16990913086E+03  0.12500071209E+03 0.  0.
          2    1    1    2  501    0 -0.77044125698E+02  0.37210059184E+02 -0.58631020752E+03  0.59252008004E+03  0.00000000000E+00 0. -1.
          1    1    1    2  502    0  0.69876037575E+02 -0.66933295685E+02  0.25108049982E+03  0.26908018152E+03  0.00000000000E+00 0. -1.
         22    1    3    3    0    0 -0.54089179195E+02  0.27687204181E+01  0.21673355995E+02  0.58335576442E+02  0.00000000000E+00 0. -1.
         22    1    3    3    0    0  0.61257267318E+02  0.26954516083E+02  0.89272948361E+02  0.11157355442E+03  0.00000000000E+00 0. -1.
</event>
<event>
 7    1  0.7499124E-006  0.7029179E+02  0.7818608E-02  0.1369854E+00
          2   -1    0    0  502    0  0.00000000000E+00  0.00000000000E+00  0.97550028898E+03  0.97550028898E+03  0.00000000000E+00 0. -1.
          1   -1    0    0  501    0 -0.00000000000E+00 -0.00000000000E+00 -0.10444983766E+04  0.10444983766E+04  0.00000000000E+00 0. -1.
         25    2    1    2    0    0 -0.75970898209E+02  0.10453624629E+03 -0.22333339685E+03  0.28670842982E+03  0.12499805365E+03 0.  0.
          2    1    1    2  501    0  0.21493055473E+02 -0.60557891478E+02 -0.78686748665E+03  0.78948695442E+03  0.00000000000E+00 0. -1.
          1    1    1    2  502    0  0.54477842736E+02 -0.43978354811E+02  0.94120279585E+03  0.94380328139E+03  0.00000000000E+00 0. -1.
         22    1    3    3    0    0 -0.10786280724E+03  0.97534143868E+02 -0.16565097919E+03  0.22042581816E+03  0.00000000000E+00 0. -1.
         22    1    3    3    0    0  0.31891909034E+02  0.70021024208E+01 -0.57682417662E+02  0.66282611653E+02  0.00000000000E+00 0. -1.
</event>
<event>
 7    1  0.5676357E-006  0.3950816E+02  0.7818608E-02  0.1521635E+00
          2   -1    0    0  502    0  0.00000000000E+00  0.00000000000E+00  0.13085909443E+04  0.13085909443E+04  0.00000000000E+00 0. -1.
          1   -1    0    0  501    0 -0.00000000000E+00 -0.00000000000E+00 -0.83071048556E+02  0.83071048556E+02  0.00000000000E+00 0. -1.
         25    2    1    2    0    0  0.75385695403E+02 -0.58963770618E+01  0.58815188568E+03  0.60602413834E+03  0.12499938113E+03 0.  0.
          2    1    1    2  501    0 -0.38431857060E+02  0.77091879152E+01 -0.68435078960E+02  0.78865703875E+02  0.00000000000E+00 0. -1.
          1    1    1    2  502    0 -0.36953838343E+02 -0.18128108534E+01  0.70580308906E+03  0.70677215068E+03  0.00000000000E+00 0. -1.
         22    1    3    3    0    0  0.97141787883E+02  0.93137071176E+01  0.55519335760E+03  0.56370465353E+03  0.00000000000E+00 0. -1.
         22    1    3    3    0    0 -0.21756092480E+02 -0.15210084179E+02  0.32958528085E+02  0.42319484806E+02  0.00000000000E+00 0. -1.
</event>
<event>
 7    1  0.5676357E-006  0.1216805E+03  0.7818608E-02  0.1408104E+00
          2   -1    0    0  502    0  0.00000000000E+00  0.00000000000E+00  0.45423282846E+03  0.45423282846E+03  0.00000000000E+00 0. -1.
          1   -1    0    0  501    0 -0.00000000000E+00 -0.00000000000E+00 -0.94856227849E+03  0.94856227849E+03  0.00000000000E+00 0. -1.
         25    2    1    2    0    0  0.63248423385E+01  0.14588344144E+03  0.34891166761E+03  0.39835337310E+03  0.12499630375E+03 0.  0.
          2    1    1    2  501    0 -0.15990141042E+02 -0.12036847887E+03 -0.91741136296E+03  0.92541226716E+03  0.00000000000E+00 0. -1.
          1    1    1    2  502    0  0.96652987034E+01 -0.25514962569E+02  0.74170245321E+02  0.79029466688E+02  0.00000000000E+00 0. -1.
         22    1    3    3    0    0  0.15905240485E+02  0.12875689362E+02 -0.42090406774E+01  0.20892009833E+02  0.00000000000E+00 0. -1.
         22    1    3    3    0    0 -0.95803981461E+01  0.13300775208E+03  0.35312070828E+03  0.37746136327E+03  0.00000000000E+00 0. -1.
</event>
<event>
 7    1  0.5676357E-006  0.3806728E+02  0.7818608E-02  0.1566102E+00
          2   -1    0    0  502    0  0.00000000000E+00  0.00000000000E+00  0.20879185613E+04  0.20879185613E+04  0.00000000000E+00 0. -1.
          1   -1    0    0  501    0 -0.00000000000E+00 -0.00000000000E+00 -0.26862516267E+02  0.26862516267E+02  0.00000000000E+00 0. -1.
         25    2    1    2    0    0  0.44322429141E+02 -0.20817252758E+02  0.55501376764E+03  0.57101971925E+03  0.12500160705E+03 0.  0.
          2    1    1    2  501    0 -0.37329807838E+02 -0.71103838282E+01  0.56126472899E+00  0.38005093468E+02  0.00000000000E+00 0. -1.
          1    1    1    2  502    0 -0.69926213023E+01  0.27927636586E+02  0.15054810126E+04  0.15057562648E+04  0.00000000000E+00 0. -1.
         22    1    3    3    0    0 -0.33316725027E+02  0.85543619303E+00  0.53229093721E+02  0.62801849941E+02  0.00000000000E+00 0.  1.
         22    1    3    3    0    0  0.77639154168E+02 -0.21672688951E+02  0.50178467392E+03  0.50821786931E+03  0.00000000000E+00 0.  1.
</event>
<event>
 7    1  0.5676357E-006  0.1205780E+03  0.7818608E-02  0.1388149E+00
          2   -1    0    0  502    0  0.00000000000E+00  0.00000000000E+00  0.19141460570E+04  0.19141460570E+04  0.00000000000E+00 0. -1.
          1   -1    0    0  501    0 -0.00000000000E+00 -0.00000000000E+00 -0.65999185142E+02  0.65999185142E+02  0.00000000000E+00 0. -1.
         25    2    1    2    0    0  0.10944972317E+03  0.61524371049E+02  0.43985300698E+03  0.47418924617E+03  0.12498113178E+03 0.  0.
          2    1    1    2  501    0  0.71238023577E+01 -0.31464363886E+02 -0.40719476050E+02  0.51950269341E+02  0.00000000000E+00 0. -1.
          1    1    1    2  502    0 -0.11657352553E+03 -0.30060007163E+02  0.14490133410E+04  0.14540057267E+04  0.00000000000E+00 0. -1.
         22    1    3    3    0    0  0.10831646705E+03  0.54494326155E+02  0.19762863254E+03  0.23186022733E+03  0.00000000000E+00 0.  1.
         22    1    3    3    0    0  0.11332561179E+01  0.70300448941E+01  0.24222437444E+03  0.24232901884E+03  0.00000000000E+00 0.  1.
</event>
<event>
 7    1  0.5676357E-006  0.2276990E+03  0.7818608E-02  0.1232362E+00
          2   -1    0    0  502    0  0.00000000000E+00  0.00000000000E+00  0.21858047538E+03  0.21858047538E+03  0.00000000000E+00 0. -1.
          1   -1    0    0  501    0 -0.00000000000E+00 -0.00000000000E+00 -0.98181852102E+03  0.98181852102E+03  0.00000000000E+00 0. -1.
         25    2    1    2    0    0 -0.21812890734E+03 -0.60895989527E+02 -0.67263562290E+02  0.26727375424E+03  0.12498932410E+03 0.  0.
          2    1    1    2  501    0 -0.14699751613E+02  0.69006191700E+02 -0.69659060337E+03  0.70015455857E+03  0.00000000000E+00 0. -1.
          1    1    1    2  502    0  0.23282865895E+03 -0.81102021725E+01  0.61612001686E+00  0.23297068359E+03  0.00000000000E+00 0. -1.
         22    1    3    3    0    0 -0.16041806594E+03 -0.60857372209E+02 -0.10230298216E+03  0.19975854372E+03  0.00000000000E+00 0.  1.
         22    1    3    3    0    0 -0.57710841399E+02 -0.38617317953E-01  0.35039419873E+02  0.67515210518E+02  0.00000000000E+00 0.  1.
</event>
<event>
 7    1  0.5676357E-006  0.4525041E+02  0.7818608E-02  0.1495691E+00
          2   -1    0    0  502    0  0.00000000000E+00  0.00000000000E+00  0.12823122383E+04  0.12823122383E+04  0.00000000000E+00 0. -1.
          1   -1    0    0  501    0 -0.00000000000E+00 -0.00000000000E+00 -0.38913053073E+03  0.38913053073E+03  0.00000000000E+00 0. -1.
         25    2    1    2    0    0 -0.49501690340E+02  0.59261591106E+01  0.29212512796E+03  0.32165009019E+03  0.12504460576E+03 0.  0.
          2    1    1    2  501    0  0.22772343703E+02  0.31075914237E+02 -0.37284086305E+03  0.37482609467E+03  0.00000000000E+00 0. -1.
          1    1    1    2  502    0  0.26729346638E+02 -0.37002073348E+02  0.97389744270E+03  0.97496658420E+03  0.00000000000E+00 0. -1.
         22    1    3    3    0    0 -0.55482584049E+02  0.20355221507E+02  0.29885506444E+03  0.30464241615E+03  0.00000000000E+00 0. -1.
         22    1    3    3    0    0  0.59808937085E+01 -0.14429062397E+02 -0.67299364856E+01  0.17007674041E+02  0.00000000000E+00 0. -1.
</event>
<event>
 7    1  0.5676357E-006  0.5421225E+02  0.7818608E-02  0.1435090E+00
          2   -1    0    0  502    0  0.00000000000E+00  0.00000000000E+00  0.77911570345E+03  0.77911570345E+03  0.00000000000E+00 0. -1.
          1   -1    0    0  501    0 -0.00000000000E+00 -0.00000000000E+00 -0.30915932358E+04  0.30915932358E+04  0.00000000000E+00 0. -1.
         25    2    1    2    0    0  0.96354649411E+01  0.26086191583E+02 -0.14443825450E+03  0.19302956080E+03  0.12499868160E+03 0.  0.
          2    1    1    2  501    0 -0.54476639081E+02 -0.44556836184E+01 -0.29217825171E+04  0.29222937283E+04  0.00000000000E+00 0. -1.
          1    1    1    2  502    0  0.44841174140E+02 -0.21630507965E+02  0.75374323924E+03  0.75538565016E+03  0.00000000000E+00 0. -1.
         22    1    3    3    0    0 -0.39434848928E+02 -0.32360284960E+02 -0.68102201726E+02  0.85089395535E+02  0.00000000000E+00 0. -1.
         22    1    3    3    0    0  0.49070313869E+02  0.58446476543E+02 -0.76336052773E+02  0.10794016526E+03  0.00000000000E+00 0. -1.
</event>
<event>
 7    1  0.5676357E-006  0.1087688E+03  0.7818608E-02  0.1305371E+00
          2   -1    0    0  502    0  0.00000000000E+00  0.00000000000E+00  0.10130211239E+04  0.10130211239E+04  0.00000000000E+00 0. -1.
          1   -1    0    0  501    0 -0.00000000000E+00 -0.00000000000E+00 -0.14422297039E+04  0.14422297039E+04  0.00000000000E+00 0. -1.
         25    2    1    2    0    0 -0.16196119606E+03 -0.34719201142E+02 -0.29806931293E+03  0.36318974077E+03  0.12499848212E+03 0.  0.
          2    1    1    2  501    0  0.91241993956E+02  0.51879268119E+02 -0.11077657935E+04  0.11127271064E+04  0.00000000000E+00 0. -1.
          1    1    1    2  502    0  0.70719202103E+02 -0.17160066977E+02  0.97662652650E+03  0.97933398068E+03  0.00000000000E+00 0. -1.
         22    1    3    3    0    0 -0.14152932659E+03  0.25357323889E+02 -0.19805200351E+03  0.24474096562E+03  0.00000000000E+00 0. -1.
         22    1    3    3    0    0 -0.20431869470E+02 -0.60076525031E+02 -0.10001730942E+03  0.11844877515E+03  0.00000000000E+00 0. -1.
</event>
<event>
 7    1  0.5676357E-006  0.6790558E+02  0.7818608E-02  0.1370836E+00
          2   -1    0    0  502    0  0.00000000000E+00  0.00000000000E+00  0.51281181728E+03  0.51281181728E+03  0.00000000000E+00 0. -1.
          1   -1    0    0  501    0 -0.00000000000E+00 -0.00000000000E+00 -0.10163751687E+04  0.10163751687E+04  0.00000000000E+00 0. -1.
         25    2    1    2    0    0  0.80795749679E+00 -0.58667497647E+02  0.29830884285E+02  0.14126951112E+03  0.12499866015E+03 0.  0.
          2    1    1    2  501    0 -0.61471729590E+02  0.23967418206E+02 -0.95665412656E+03  0.95892665441E+03  0.00000000000E+00 0. -1.
          1    1    1    2  502    0  0.60663772094E+02  0.34700079441E+02  0.42325989089E+03  0.42899082041E+03  0.00000000000E+00 0. -1.
         22    1    3    3    0    0  0.18371761373E+02 -0.51845235383E+02 -0.40597751347E+02  0.68363933930E+02  0.00000000000E+00 0. -1.
         22    1    3    3    0    0 -0.17563803876E+02 -0.68222622636E+01  0.70428635632E+02  0.72905577194E+02  0.00000000000E+00 0. -1.
</event>
<event>
 7    1  0.5676357E-006  0.1681028E+03  0.7818608E-02  0.1256910E+00
          2   -1    0    0  502    0  0.00000000000E+00  0.00000000000E+00  0.33209918316E+04  0.33209918316E+04  0.00000000000E+00 0. -1.
          1   -1    0    0  501    0 -0.00000000000E+00 -0.00000000000E+00 -0.59022486437E+02  0.59022486437E+02  0.00000000000E+00 0. -1.
         25    2    1    2    0    0 -0.18917537893E+03  0.12027380511E+03  0.64286555173E+03  0.69220972216E+03  0.12500027869E+03 0.  0.
          2    1    1    2  501    0  0.74472903277E+02 -0.46999179396E+01  0.11951135780E+02  0.75572033171E+02  0.00000000000E+00 0. -1.
          1    1    1    2  502    0  0.11470247566E+03 -0.11557388717E+03  0.26071526577E+04  0.26122325627E+04  0.00000000000E+00 0. -1.
         22    1    3    3    0    0 -0.14450252437E+03  0.51220284699E+02  0.27102572813E+03  0.31138311198E+03  0.00000000000E+00 0. -1.
         22    1    3    3    0    0 -0.44672854559E+02  0.69053520413E+02  0.37183982359E+03  0.38082661019E+03  0.00000000000E+00 0. -1.
</event>
<event>
 7    1  0.5676357E-006  0.9547033E+02  0.7818608E-02  0.1352958E+00
          2   -1    0    0  502    0  0.00000000000E+00  0.00000000000E+00  0.28718698451E+04  0.28718698451E+04  0.00000000000E+00 0. -1.
          1   -1    0    0  501    0 -0.00000000000E+00 -0.00000000000E+00 -0.26550259963E+03  0.26550259963E+03  0.00000000000E+00 0. -1.
         25    2    1    2    0    0 -0.19958229286E+02  0.12232059574E+03  0.17070583254E+03  0.24520658123E+03  0.12500050864E+03 0.  0.
          2    1    1    2  501    0  0.52597644702E+02 -0.78658399445E+02 -0.21815350909E+03  0.23779110488E+03  0.00000000000E+00 0. -1.
          1    1    1    2  502    0 -0.32639415416E+02 -0.43662196291E+02  0.26538149221E+04  0.26543747587E+04  0.00000000000E+00 0. -1.
         22    1    3    3    0    0  0.40234437768E+02  0.68873700413E+02  0.13574513243E+03  0.15744566545E+03  0.00000000000E+00 0. -1.
         22    1    3    3    0    0 -0.60192667054E+02  0.53446895324E+02  0.34960700106E+02  0.87760915781E+02  0.00000000000E+00 0. -1.
</event>
<event>
 7    1  0.5676357E-006  0.1239891E+03  0.7818608E-02  0.1371624E+00
          2   -1    0    0  502    0  0.00000000000E+00  0.00000000000E+00  0.28796979074E+02  0.28796979074E+02  0.00000000000E+00 0. -1.
          1   -1    0    0  501    0 -0.00000000000E+00 -0.00000000000E+00 -0.22595453423E+04  0.22595453423E+04  0.00000000000E+00 0. -1.
         25    2    1    2    0    0 -0.31536387017E+02 -0.14941512364E+03 -0.65487677367E+03  0.68396472012E+03  0.12499890721E+03 0.  0.
          2    1    1    2  501    0  0.36526523375E+02  0.11386320215E+03 -0.15609110509E+04  0.15654846932E+04  0.00000000000E+00 0. -1.
          1    1    1    2  502    0 -0.49901363587E+01  0.35551921484E+02 -0.14960538648E+02  0.38892908077E+02  0.00000000000E+00 0. -1.
         22    1    3    3    0    0 -0.71596060264E+02 -0.55057504429E+02 -0.38027307026E+03  0.39085154804E+03  0.00000000000E+00 0.  1.
         22    1    3    3    0    0  0.40059673247E+02 -0.94357619208E+02 -0.27460370341E+03  0.29311317208E+03  0.00000000000E+00 0.  1.
</event>
<event>
 7    1  0.5676357E-006  0.8117730E+02  0.7818608E-02  0.1351083E+00
          2   -1    0    0  502    0  0.00000000000E+00  0.00000000000E+00  0.11916913150E+04  0.11916913150E+04  0.00000000000E+00 0. -1.
          1   -1    0    0  501    0 -0.00000000000E+00 -0.00000000000E+00 -0.18835997714E+03  0.18835997714E+03  0.00000000000E+00 0. -1.
         25    2    1    2    0    0 -0.10781877255E+03 -0.10600794808E+02  0.27506802808E+03  0.32097474708E+03  0.12500041451E+03 0.  0.
          2    1    1    2  501    0  0.38859688542E+02  0.52282606351E+02 -0.15709148192E+03  0.17006257675E+03  0.00000000000E+00 0. -1.
          1    1    1    2  502    0  0.68959084007E+02 -0.41681811544E+02  0.88535479173E+03  0.88901396835E+03  0.00000000000E+00 0. -1.
         22    1    3    3    0    0 -0.83113397091E+02  0.32801054441E+02  0.24919497537E+03  0.26472982774E+03  0.00000000000E+00 0.  1.
         22    1    3    3    0    0 -0.24705375458E+02 -0.43401849249E+02  0.25873052715E+02  0.56244919339E+02  0.00000000000E+00 0.  1.
</event>
<event>
 7    1  0.5676357E-006  0.1038855E+03  0.7818608E-02  0.1405175E+00
          2   -1    0    0  502    0  0.00000000000E+00  0.00000000000E+00  0.20027124119E+04  0.20027124119E+04  0.00000000000E+00 0. -1.
          1   -1    0    0  501    0 -0.00000000000E+00 -0.00000000000E+00 -0.45358222487E+03  0.45358222487E+03  0.00000000000E+00 0. -1.
         25    2    1    2    0    0  0.42608750450E+02  0.11605217840E+03 -0.33447491640E+02  0.17896274861E+03  0.12500126786E+03 0.  0.
          2    1    1    2  501    0 -0.29934681295E+02 -0.13161451424E+02 -0.34521174188E+03  0.34675705571E+03  0.00000000000E+00 0. -1.
          1    1    1    2  502    0 -0.12674069155E+02 -0.10289072698E+03  0.19277894206E+04  0.19305748325E+04  0.00000000000E+00 0. -1.
         22    1    3    3    0    0  0.54973074787E+02  0.87967120375E+02 -0.74497352186E+02  0.12771103594E+03  0.00000000000E+00 0.  1.
         22    1    3    3    0    0 -0.12364324337E+02  0.28085058025E+02  0.41049860547E+02  0.51251712669E+02  0.00000000000E+00 0.  1.
</event>
<event>
 7    1  0.5676357E-006  0.1341081E+03  0.7818608E-02  0.1280065E+00
          2   -1    0    0  502    0  0.00000000000E+00  0.00000000000E+00  0.41399569347E+03  0.41399569347E+03  0.00000000000E+00 0. -1.
          1   -1    0    0  501    0 -0.00000000000E+00 -0.00000000000E+00 -0.95530149225E+03  0.95530149225E+03  0.00000000000E+00 0. -1.
         25    2    1    2    0    0 -0.21611477330E+02 -0.93607806639E+02 -0.50724643519E+03  0.53118021247E+03  0.12499597871E+03 0.  0.
          2    1    1    2  501    0 -0.74718325412E+02 -0.13645683610E+01 -0.42132696926E+03  0.42790314935E+03  0.00000000000E+00 0. -1.
          1    1    1    2  502    0  0.96329802742E+02  0.94972375000E+02  0.38726760567E+03  0.41021382389E+03  0.00000000000E+00 0. -1.
         22    1    3    3    0    0  0.45901763891E+02 -0.63161545822E+02 -0.19028253547E+03  0.20567886645E+03  0.00000000000E+00 0.  1.
         22    1    3    3    0    0 -0.67513241220E+02 -0.30446260817E+02 -0.31696389972E+03  0.32550134602E+03  0.00000000000E+00 0.  1.
</event>
<event>
 7    1  0.5676357E-006  0.3146273E+02  0.7818608E-02  0.1596289E+00
          2   -1    0    0  502    0  0.00000000000E+00  0.00000000000E+00  0.12252744402E+04  0.12252744402E+04  0.00000000000E+00 0. -1.
          1   -1    0    0  501    0 -0.00000000000E+00 -0.00000000000E+00 -0.10336552068E+02  0.10336552068E+02  0.00000000000E+00 0. -1.
         25    2    1    2    0    0 -0.28757383471E+02 -0.15144285852E+02  0.84879970814E+03  0.85856989255E+03  0.12499991742E+03 0.  0.
          2    1    1    2  501    0  0.21361026053E+01  0.31913624634E+02  0.31754338606E+03  0.31915019098E+03  0.00000000000E+00 0. -1.
          1    1    1    2  502    0  0.26621280866E+02 -0.16769338781E+02  0.48594793960E+02  0.57890908770E+02  0.00000000000E+00 0. -1.
         22    1    3    3    0    0  0.43670666130E+02 -0.17269663324E+02  0.50722193754E+03  0.50939126639E+03  0.00000000000E+00 0. -1.
         22    1    3    3    0    0 -0.72428049601E+02  0.21253774719E+01  0.34157777060E+03  0.34917862616E+03  0.00000000000E+00 0. -1.
</event>
<event>
 7    1  0.5676357E-006  0.6177710E+02  0.7818608E-02  0.1435575E+00
          2   -1    0    0  502    0  0.00000000000E+00  0.00000000000E+00  0.53955948420E+03  0.53955948420E+03  0.00000000000E+00 0. -1.
          1   -1    0    0  501    0 -0.00000000000E+00 -0.00000000000E+00 -0.57523918229E+03  0.57523918229E+03  0.00000000000E+00 0. -1.
         25    2    1    2    0    0  0.64298165840E+02 -0.34171406891E+02 -0.30216971452E+03  0.33501212677E+03  0.12499859811E+03 0.  0.
          2    1    1    2  501    0 -0.26572217820E+02  0.55887780194E+02 -0.25199258560E+03  0.25947984494E+03  0.00000000000E+00 0. -1.
          1    1    1    2  502    0 -0.37725948020E+02 -0.21716373303E+02  0.51848260203E+03  0.52030669478E+03  0.00000000000E+00 0. -1.
         22    1    3    3    0    0  0.99811177962E+02 -0.26393676676E+02 -0.17954492780E+03  0.20711175369E+03  0.00000000000E+00 0. -1.
         22    1    3    3    0    0 -0.35513012122E+02 -0.77777302150E+01 -0.12262478672E+03  0.12790037308E+03  0.00000000000E+00 0. -1.
</event>
<event>
 7    1  0.5676357E-006  0.1782565E+03  0.7818608E-02  0.1287841E+00
          2   -1    0    0  502    0  0.00000000000E+00  0.00000000000E+00  0.51578604638E+03  0.51578604638E+03  0.00000000000E+00 0. -1.
          1   -1    0    0  501    0 -0.00000000000E+00 -0.00000000000E+00 -0.20126084033E+03  0.20126084033E+03  0.00000000000E+00 0. -1.
         25    2    1    2    0    0  0.30741107568E+02  0.15238166004E+03  0.32627736097E+03  0.38242949979E+03  0.12502087832E+03 0.  0.
          2    1    1    2  501    0  0.12480699616E+02 -0.18171687959E+03 -0.11744129378E+03  0.21672390195E+03  0.00000000000E+00 0. -1.
          1    1    1    2  502    0 -0.43221807184E+02  0.29335219549E+02  0.10568913887E+03  0.11789348497E+03  0.00000000000E+00 0. -1.
         22    1    3    3    0    0  0.34291668434E+02  0.17298155245E+03  0.30672896400E+03  0.35380954392E+03  0.00000000000E+00 0.  1.
         22    1    3    3    0    0 -0.35505608662E+01 -0.20599892410E+02  0.19548396963E+02  0.28619955863E+02  0.00000000000E+00 0.  1.
</event>
<event>
 7    1  0.5676357E-006  0.1851074E+03  0.7818608E-02  0.1330918E+00
          2   -1    0    0  502    0  0.00000000000E+00  0.00000000000E+00  0.51481045570E+03  0.51481045570E+03  0.00000000000E+00 0. -1.
          1   -1    0    0  501    0 -0.00000000000E+00 -0.00000000000E+00 -0.15118124773E+03  0.15118124773E+03  0.00000000000E+00 0. -1.
         25    2    1    2    0    0  0.14187703111E+03  0.13191923012E+03  0.12549997151E+03  0.26249284117E+03  0.12498189303E+03 0.  0.
          2    1    1    2  501    0 -0.31289307332E+02  0.13332274119E+02 -0.51153536019E+02  0.61428450524E+02  0.00000000000E+00 0. -1.
          1    1    1    2  502    0 -0.11058772378E+03 -0.14525150424E+03  0.28928277248E+03  0.34207041174E+03  0.00000000000E+00 0. -1.
         22    1    3    3    0    0  0.12896842149E+01  0.80031214584E+02  0.53179776967E+02  0.96097592433E+02  0.00000000000E+00 0.  1.
         22    1    3    3    0    0  0.14058734690E+03  0.51888015534E+02  0.72320194544E+02  0.16639524874E+03  0.00000000000E+00 0.  1.
</event>
<event>
 7    1  0.5676357E-006  0.1191447E+03  0.7818608E-02  0.1329780E+00
          2   -1    0    0  502    0  0.00000000000E+00  0.00000000000E+00  0.26746350611E+03  0.26746350611E+03  0.00000000000E+00 0. -1.
          1   -1    0    0  501    0 -0.00000000000E+00 -0.00000000000E+00 -0.84117141955E+03  0.84117141955E+03  0.00000000000E+00 0. -1.
         25    2    1    2    0    0 -0.79882041236E+02 -0.16764156722E+02 -0.28003686214E+02  0.15189883746E+03  0.12500749144E+03 0.  0.
          2    1    1    2  501    0 -0.47979413297E+02  0.23379986335E+02 -0.73021077183E+03  0.73215873904E+03  0.00000000000E+00 0. -1.
          1    1    1    2  502    0  0.12786145453E+03 -0.66158296132E+01  0.18450654460E+03  0.22457734916E+03  0.00000000000E+00 0. -1.
         22    1    3    3    0    0 -0.11217760685E+03  0.10366325014E+01 -0.17364728053E+02  0.11351838558E+03  0.00000000000E+00 0.  1.
         22    1    3    3    0    0  0.32295565613E+02 -0.17800789224E+02 -0.10638958161E+02  0.38380451873E+02  0.00000000000E+00 0.  1.
</event>
<event>
 7    1  0.5676357E-006  0.5165491E+02  0.7818608E-02  0.1446627E+00
          2   -1    0    0  502    0  0.00000000000E+00  0.00000000000E+00  0.14851871625E+03  0.14851871625E+03  0.00000000000E+00 0. -1.
          1   -1    0    0  501    0 -0.00000000000E+00 -0.00000000000E+00 -0.16644687410E+04  0.16644687410E+04  0.00000000000E+00 0. -1.
         25    2    1    2    0    0 -0.29183951133E+02  0.19576844988E+02 -0.14359915257E+03  0.19360407658E+03  0.12500746372E+03 0.  0.
          2    1    1    2  501    0 -0.17283229790E+02 -0.44715254704E+02 -0.14898145566E+04  0.14905856490E+04  0.00000000000E+00 0. -1.
          1    1    1    2  502    0  0.46467180923E+02  0.25138409716E+02  0.11746368437E+03  0.12879773170E+03  0.00000000000E+00 0. -1.
         22    1    3    3    0    0 -0.40148085017E+02 -0.47322745279E+02 -0.68085251638E+02  0.92124439981E+02  0.00000000000E+00 0.  1.
         22    1    3    3    0    0  0.10964133883E+02  0.66899590267E+02 -0.75513900936E+02  0.10147963660E+03  0.00000000000E+00 0.  1.
</event>
<event>
 7    1  0.5676357E-006  0.1895100E+03  0.7818608E-02  0.1312600E+00
          2   -1    0    0  502    0  0.00000000000E+00  0.00000000000E+00  0.56116751979E+03  0.56116751979E+03  0.00000000000E+00 0. -1.
          1   -1    0    0  501    0 -0.00000000000E+00 -0.00000000000E+00 -0.14887198978E+04  0.14887198978E+04  0.00000000000E+00 0. -1.
         25    2    1    2    0    0  0.45686968735E+02 -0.16104135070E+03 -0.43325207786E+03  0.48099254132E+03  0.12499938437E+03 0.  0.
          2    1    1    2  501    0  0.37781419887E+02 -0.10110796829E+02 -0.10143373824E+04  0.10150911236E+04  0.00000000000E+00 0. -1.
          1    1    1    2  502    0 -0.83468388622E+02  0.17115214753E+03  0.52003708226E+03  0.55380375264E+03  0.00000000000E+00 0. -1.
         22    1    3    3    0    0  0.18216052475E+02 -0.12825166960E+03 -0.16712713746E+03  0.21145163844E+03  0.00000000000E+00 0.  1.
         22    1    3    3    0    0  0.27470916260E+02 -0.32789681101E+02 -0.26612494039E+03  0.26954090288E+03  0.00000000000E+00 0.  1.
</event>
<event>
 7    1  0.5676357E-006  0.3563018E+02  0.7818608E-02  0.1544369E+00
          2   -1    0    0  502    0  0.00000000000E+00  0.00000000000E+00  0.10216752191E+04  0.10216752191E+04  0.00000000000E+00 0. -1.
          1   -1    0    0  501    0 -0.00000000000E+00 -0.00000000000E+00 -0.45143918937E+03  0.45143918937E+03  0.00000000000E+00 0. -1.
         25    2    1    2    0    0 -0.42332106047E+02 -0.35571559403E+02  0.35265406163E+03  0.37821546118E+03  0.12499881941E+03 0.  0.
          2    1    1    2  501    0  0.35604110071E+02  0.88535480050E+00 -0.43745868506E+03  0.43890606927E+03  0.00000000000E+00 0. -1.
          1    1    1    2  502    0  0.67279959760E+01  0.34686204603E+02  0.65504065317E+03  0.65599287803E+03  0.00000000000E+00 0. -1.
         22    1    3    3    0    0 -0.18698808275E+02 -0.14220491999E+02 -0.62835591674E+00  0.23500269249E+02  0.00000000000E+00 0. -1.
         22    1    3    3    0    0 -0.23633297772E+02 -0.21351067404E+02  0.35328241755E+03  0.35471519194E+03  0.00000000000E+00 0. -1.
</event>
<event>
 7    1  0.5676357E-006  0.6125534E+02  0.7818608E-02  0.1536339E+00
          2   -1    0    0  502    0  0.00000000000E+00  0.00000000000E+00  0.81332914037E+03  0.81332914037E+03  0.00000000000E+00 0. -1.
          1   -1    0    0  501    0 -0.00000000000E+00 -0.00000000000E+00 -0.33788579505E+02  0.33788579505E+02  0.00000000000E+00 0. -1.
         25    2    1    2    0    0 -0.44801001087E+02 -0.50551390979E+02  0.43336562271E+03  0.45606312498E+03  0.12500095276E+03 0.  0.
          2    1    1    2  501    0  0.21052781067E+02 -0.50675342325E+01 -0.14033988290E+02  0.25804114423E+02  0.00000000000E+00 0. -1.
          1    1    1    2  502    0  0.23748220021E+02  0.55618925211E+02  0.36020892644E+03  0.36525048047E+03  0.00000000000E+00 0. -1.
         22    1    3    3    0    0  0.50838220946E+00 -0.84647597929E+02  0.23645412600E+03  0.25114941368E+03  0.00000000000E+00 0. -1.
         22    1    3    3    0    0 -0.45309383297E+02  0.34096206951E+02  0.19691149672E+03  0.20491371131E+03  0.00000000000E+00 0. -1.
</event>
<event>
 7    1  0.5676357E-006  0.6378447E+02  0.7818608E-02  0.1388453E+00
          2   -1    0    0  502    0  0.00000000000E+00  0.00000000000E+00  0.39066579907E+04  0.39066579907E+04  0.00000000000E+00 0. -1.
          1   -1    0    0  501    0 -0.00000000000E+00 -0.00000000000E+00 -0.14308313653E+03  0.14308313653E+03  0.00000000000E+00 0. -1.
         25    2    1    2    0    0 -0.27795601653E+02 -0.15253279054E+02  0.73120603202E+03  0.74249150539E+03  0.12500446523E+03 0.  0.
          2    1    1    2  501    0 -0.26075899262E+02  0.54964678689E+02 -0.13033686195E+03  0.14383589959E+03  0.00000000000E+00 0. -1.
          1    1    1    2  502    0  0.53871500915E+02 -0.39711399635E+02  0.31627056841E+04  0.31634137223E+04  0.00000000000E+00 0. -1.
         22    1    3    3    0    0 -0.29737464609E+02  0.15542117819E+02  0.47867085830E+02  0.58456241185E+02  0.00000000000E+00 0.  1.
         22    1    3    3    0    0  0.19418629558E+01 -0.30795396873E+02  0.68333894619E+03  0.68403526421E+03  0.00000000000E+00 0.  1.
</event>
<event>
 7    1  0.5676357E-006  0.1278530E+03  0.7818608E-02  0.1238542E+00
          2   -1    0    0  502    0  0.00000000000E+00  0.00000000000E+00  0.19445633777E+04  0.19445633777E+04  0.00000000000E+00 0. -1.
          1   -1    0    0  501    0 -0.00000000000E+00 -0.00000000000E+00 -0.57923479068E+03  0.57923479068E+03  0.00000000000E+00 0. -1.
         25    2    1    2    0    0 -0.15756736234E+03 -0.92806371381E+02  0.69258366387E+02  0.23208124596E+03  0.12499794865E+03 0.  0.
          2    1    1    2  501    0  0.12533703754E+03 -0.20658498332E+02 -0.48774038990E+03  0.50401074837E+03  0.00000000000E+00 0. -1.
          1    1    1    2  502    0  0.32230324797E+02  0.11346486971E+03  0.17838106105E+04  0.17877061740E+04  0.00000000000E+00 0. -1.
         22    1    3    3    0    0 -0.12111830492E+03  0.52625740638E+00  0.33121665505E+02  0.12556657780E+03  0.00000000000E+00 0. -1.
         22    1    3    3    0    0 -0.36449057417E+02 -0.93332628787E+02  0.36136700882E+02  0.10651466816E+03  0.00000000000E+00 0. -1.
</event>
<event>
 7    1  0.1005799E-005  0.9449071E+02  0.7818608E-02  0.1357523E+00
          2   -1    0    0  502    0  0.00000000000E+00  0.00000000000E+00  0.25790173989E+04  0.25790173989E+04  0.00000000000E+00 0. -1.
          1   -1    0    0  501    0 -0.00000000000E+00 -0.00000000000E+00 -0.13528125984E+04  0.13528125984E+04  0.00000000000E+00 0. -1.
         25    2    1    2    0    0  0.29490086335E+02  0.58077272497E+02 -0.12888772861E+03  0.19101679362E+03  0.12503093251E+03 0.  0.
          2    1    1    2  501    0 -0.82076354608E+02 -0.51539857101E+02 -0.11906155851E+04  0.11945536222E+04  0.00000000000E+00 0. -1.
          1    1    1    2  502    0  0.52586268273E+02 -0.65374153957E+01  0.25457081143E+04  0.25462595815E+04  0.00000000000E+00 0. -1.
         22    1    3    3    0    0  0.33860335964E+02  0.44148580495E+02  0.54350069539E+01  0.55903119877E+02  0.00000000000E+00 0.  1.
         22    1    3    3    0    0 -0.43702496296E+01  0.13928692002E+02 -0.13432273556E+03  0.13511367374E+03  0.00000000000E+00 0.  1.
</event>
<event>
 7    1  0.5676357E-006  0.7839667E+02  0.7818608E-02  0.1335029E+00
          2   -1    0    0  502    0  0.00000000000E+00  0.00000000000E+00  0.19069881287E+04  0.19069881287E+04  0.00000000000E+00 0. -1.
          1   -1    0    0  501    0 -0.00000000000E+00 -0.00000000000E+00 -0.82306538560E+03  0.82306538560E+03  0.00000000000E+00 0. -1.
         25    2    1    2    0    0  0.55157560826E+02 -0.12029185086E+03  0.37061855535E+02  0.18576855665E+03  0.12499555834E+03 0.  0.
          2    1    1    2  501    0 -0.64527225667E+02  0.43393511227E+02 -0.74585423384E+03  0.74989685811E+03  0.00000000000E+00 0. -1.
          1    1    1    2  502    0  0.93696648408E+01  0.76898339631E+02  0.17927151214E+04  0.17943880995E+04  0.00000000000E+00 0. -1.
         22    1    3    3    0    0  0.17736648778E+02 -0.16960205682E+02 -0.43198361847E+02  0.49682348505E+02  0.00000000000E+00 0.  1.
         22    1    3    3    0    0  0.37420912047E+02 -0.10333164518E+03  0.80260217382E+02  0.13608620815E+03  0.00000000000E+00 0.  1.
</event>
<event>
 7    1  0.5676357E-006  0.2063659E+03  0.7818608E-02  0.1145980E+00
          2   -1    0    0  502    0  0.00000000000E+00  0.00000000000E+00  0.28608413271E+04  0.28608413271E+04  0.00000000000E+00 0. -1.
          1   -1    0    0  501    0 -0.00000000000E+00 -0.00000000000E+00 -0.91715019996E+03  0.91715019996E+03  0.00000000000E+00 0. -1.
         25    2    1    2    0    0 -0.20168585606E+03  0.61174586277E+02  0.42622474265E+03  0.49164319359E+03  0.12500393601E+03 0.  0.
          2    1    1    2  501    0  0.40106683228E+02 -0.20243103671E+03 -0.86751872438E+03  0.89172619554E+03  0.00000000000E+00 0. -1.
          1    1    1    2  502    0  0.16157917283E+03  0.14125645043E+03  0.23849851088E+04  0.23946221379E+04  0.00000000000E+00 0. -1.
         22    1    3    3    0    0 -0.99596645465E+02 -0.20767544623E+02  0.11238187834E+03  0.15159310432E+03  0.00000000000E+00 0.  1.
         22    1    3    3    0    0 -0.10208921060E+03  0.81942130900E+02  0.31384286431E+03  0.34005008928E+03  0.00000000000E+00 0.  1.
</event>
<event>
 7    1  0.5676357E-006  0.6237151E+02  0.7818608E-02  0.1512404E+00
          2   -1    0    0  502    0  0.00000000000E+00  0.00000000000E+00  0.15062223625E+04  0.15062223625E+04  0.00000000000E+00 0. -1.
          1   -1    0    0  501    0 -0.00000000000E+00 -0.00000000000E+00 -0.51882037728E+02  0.51882037728E+02  0.00000000000E+00 0. -1.
         25    2    1    2    0    0  0.58245840459E+02 -0.21426885734E+02  0.64178059775E+02  0.15360527554E+03  0.12499627176E+03 0.  0.
          2    1    1    2  501    0 -0.65586679103E+02 -0.24023958674E+01  0.14584088027E+03  0.15992794108E+03  0.00000000000E+00 0. -1.
          1    1    1    2  502    0  0.73408386447E+01  0.23829281601E+02  0.12443213847E+04  0.12445711836E+04  0.00000000000E+00 0. -1.
         22    1    3    3    0    0  0.27052616761E+02 -0.73022147243E+02  0.46824330955E+02  0.90865813324E+02  0.00000000000E+00 0. -1.
         22    1    3    3    0    0  0.31193223698E+02  0.51595261510E+02  0.17353728820E+02  0.62739462214E+02  0.00000000000E+00 0. -1.
</event>
<event>
 7    1  0.5676357E-006  0.5637410E+02  0.7818608E-02  0.1440362E+00
          2   -1    0    0  502    0  0.00000000000E+00  0.00000000000E+00  0.24820261432E+02  0.24820261432E+02  0.00000000000E+00 0. -1.
          1   -1    0    0  501    0 -0.00000000000E+00 -0.00000000000E+00 -0.17867790599E+04  0.17867790599E+04  0.00000000000E+00 0. -1.
         25    2    1    2    0    0  0.17127872849E+02 -0.72724577275E+02 -0.37181581319E+03  0.39931743287E+03  0.12500074035E+03 0.  0.
          2    1    1    2  501    0  0.23491423242E+02  0.51091365563E+02 -0.13501242843E+04  0.13512948448E+04  0.00000000000E+00 0. -1.
          1    1    1    2  502    0 -0.40619296092E+02  0.21633211713E+02 -0.40018700999E+02  0.60987043654E+02  0.00000000000E+00 0. -1.
         22    1    3    3    0    0 -0.21950704555E+02 -0.92425229009E+02 -0.19150827015E+03  0.21377482060E+03  0.00000000000E+00 0. -1.
         22    1    3    3    0    0  0.39078577404E+02  0.19700651733E+02 -0.18030754304E+03  0.18554261227E+03  0.00000000000E+00 0. -1.
</event>
<event>
 7    1  0.5676357E-006  0.7673520E+02  0.7818608E-02  0.1484941E+00
          2   -1    0    0  502    0  0.00000000000E+00  0.00000000000E+00  0.11297041041E+04  0.11297041041E+04  0.00000000000E+00 0. -1.
          1   -1    0    0  501    0 -0.00000000000E+00 -0.00000000000E+00 -0.38924796089E+03  0.38924796089E+03  0.00000000000E+00 0. -1.
         25    2    1    2    0    0 -0.68683389882E+02 -0.66684416204E+02  0.76535171450E+03  0.78137840252E+03  0.12499896653E+03 0.  0.
          2    1    1    2  501    0  0.63635337930E+02  0.42725549273E+02 -0.37695254140E+03  0.38466628038E+03  0.00000000000E+00 0. -1.
          1    1    1    2  502    0  0.50480519513E+01  0.23958866931E+02  0.35205697015E+03  0.35290738213E+03  0.00000000000E+00 0. -1.
         22    1    3    3    0    0 -0.55716357000E+02 -0.16169197483E+02  0.67156575261E+03  0.67406699627E+03  0.00000000000E+00 0.  1.
         22    1    3    3    0    0 -0.12967032882E+02 -0.50515218721E+02  0.93785961887E+02  0.10731140625E+03  0.00000000000E+00 0.  1.
</event>
<event>
 7    1  0.5676357E-006  0.2413117E+03  0.7818608E-02  0.1232536E+00
          2   -1    0    0  502    0  0.00000000000E+00  0.00000000000E+00  0.79376129469E+03  0.79376129469E+03  0.00000000000E+00 0. -1.
          1   -1    0    0  501    0 -0.00000000000E+00 -0.00000000000E+00 -0.45936224177E+03  0.45936224177E+03  0.00000000000E+00 0. -1.
         25    2    1    2    0    0  0.97238834044E+02  0.23773983780E+03  0.63775706177E+02  0.29269042840E+03  0.12499889941E+03 0.  0.
          2    1    1    2  501    0 -0.14433182247E+03 -0.19085127511E+03 -0.30124668106E+03  0.38471476062E+03  0.00000000000E+00 0. -1.
          1    1    1    2  502    0  0.47092988424E+02 -0.46888562693E+02  0.57187002781E+03  0.57571834744E+03  0.00000000000E+00 0. -1.
         22    1    3    3    0    0  0.59090932156E+02  0.48449469958E+02  0.63874367510E+02  0.99594298166E+02  0.00000000000E+00 0. -1.
         22    1    3    3    0    0  0.38147901888E+02  0.18929036784E+03 -0.98661332849E-01  0.19309613023E+03  0.00000000000E+00 0. -1.
</event>
<event>
 7    1  0.5676357E-006  0.8221916E+02  0.7818608E-02  0.1444521E+00
          2   -1    0    0  502    0  0.00000000000E+00  0.00000000000E+00  0.33373956332E+03  0.33373956332E+03  0.00000000000E+00 0. -1.
          1   -1    0    0  501    0 -0.00000000000E+00 -0.00000000000E+00 -0.23145746058E+03  0.23145746058E+03  0.00000000000E+00 0. -1.
         25    2    1    2    0    0 -0.98938695696E+01 -0.11042071623E+03  0.80851341186E+02  0.18561335008E+03  0.12499901251E+03 0.  0.
          2    1    1    2  501    0  0.73905754387E+01  0.79930970699E+02 -0.16879696172E+03  0.18691173042E+03  0.00000000000E+00 0. -1.
          1    1    1    2  502    0  0.25032941308E+01  0.30489745536E+02  0.19022772328E+03  0.19267194339E+03  0.00000000000E+00 0. -1.
         22    1    3    3    0    0 -0.39693914352E+02 -0.83276539491E+01  0.67058094450E+02  0.78369284086E+02  0.00000000000E+00 0.  1.
         22    1    3    3    0    0  0.29800044782E+02 -0.10209306229E+03  0.13793246736E+02  0.10724406600E+03  0.00000000000E+00 0.  1.
</event>
<event>
 7    1  0.5676357E-006  0.1009995E+03  0.7818608E-02  0.1397866E+00
          2   -1    0    0  502    0  0.00000000000E+00  0.00000000000E+00  0.27606665199E+04  0.27606665199E+04  0.00000000000E+00 0. -1.
          1   -1    0    0  501    0 -0.00000000000E+00 -0.00000000000E+00 -0.12321977565E+04  0.12321977565E+04  0.00000000000E+00 0. -1.
         25    2    1    2    0    0 -0.11370254572E+03  0.66114145070E+02  0.81424445620E+03  0.83421699214E+03  0.12499842580E+03 0.  0.
          2    1    1    2  501    0  0.94168063714E+02 -0.36311480056E+02 -0.12199635490E+04  0.12241312057E+04  0.00000000000E+00 0. -1.
          1    1    1    2  502    0  0.19534482003E+02 -0.29802665014E+02  0.19341878562E+04  0.19345160785E+04  0.00000000000E+00 0. -1.
         22    1    3    3    0    0 -0.31791989114E+01  0.57889342833E+02  0.44314422833E+03  0.44692067576E+03  0.00000000000E+00 0. -1.
         22    1    3    3    0    0 -0.11052334681E+03  0.82248022370E+01  0.37110022787E+03  0.38729631638E+03  0.00000000000E+00 0. -1.
</event>
<event>
 7    1  0.5676357E-006  0.1237437E+03  0.7818608E-02  0.1423190E+00
          2   -1    0    0  502    0  0.00000000000E+00  0.00000000000E+00  0.14831062634E+04  0.14831062634E+04  0.00000000000E+00 0. -1.
          1   -1    0    0  501    0 -0.00000000000E+00 -0.00000000000E+00 -0.34862317871E+03  0.34862317871E+03  0.00000000000E+00 0. -1.
         25    2    1    2    0    0  0.29570556167E+02 -0.10999586847E+03 -0.15073399769E+03  0.22653671238E+03  0.12499854048E+03 0.  0.
          2    1    1    2  501    0 -0.19677146888E+02 -0.13517307278E+02 -0.15642464869E+03  0.15823583166E+03  0.00000000000E+00 0. -1.
          1    1    1    2  502    0 -0.98934092794E+01  0.12351317575E+03  0.14416417310E+04  0.14469568980E+04  0.00000000000E+00 0. -1.
         22    1    3    3    0    0  0.69721421277E+02 -0.49516522118E+02 -0.12081869228E+03  0.14802067069E+03  0.00000000000E+00 0. -1.
         22    1    3    3    0    0 -0.40150865110E+02 -0.60479346356E+02 -0.29915305409E+02  0.78516041689E+02  0.00000000000E+00 0. -1.
</event>
<event>
 7    1  0.5676357E-006  0.1186617E+03  0.7818608E-02  0.1326898E+00
          2   -1    0    0  502    0  0.00000000000E+00  0.00000000000E+00  0.85944511833E+03  0.85944511833E+03  0.00000000000E+00 0. -1.
          1   -1    0    0  501    0 -0.00000000000E+00 -0.00000000000E+00 -0.94549847782E+03  0.94549847782E+03  0.00000000000E+00 0. -1.
         25    2    1    2    0    0 -0.53084112684E+02 -0.15756227539E+03 -0.97981631410E+02  0.22992836552E+03  0.12499143782E+03 0.  0.
          2    1    1    2  501    0  0.19520680555E+02  0.11402917696E+03 -0.77629984992E+03  0.78487270761E+03  0.00000000000E+00 0. -1.
          1    1    1    2  502    0  0.33563432129E+02  0.43533098430E+02  0.78822812184E+03  0.79014252302E+03  0.00000000000E+00 0. -1.
         22    1    3    3    0    0 -0.58889123046E+02 -0.15068310565E+02 -0.80217279986E+01  0.61313382849E+02  0.00000000000E+00 0.  1.
         22    1    3    3    0    0  0.58050103615E+01 -0.14249396483E+03 -0.89959903411E+02  0.16861498267E+03  0.00000000000E+00 0.  1.
</event>
<event>
 7    1  0.5676357E-006  0.9863589E+02  0.7818608E-02  0.1343365E+00
          2   -1    0    0  502    0  0.00000000000E+00  0.00000000000E+00  0.25168480784E+04  0.25168480784E+04  0.00000000000E+00 0. -1.
          1   -1    0    0  501    0 -0.00000000000E+00 -0.00000000000E+00 -0.53263403193E+03  0.53263403193E+03  0.00000000000E+00 0. -1.
         25    2    1    2    0    0 -0.38752717825E+02 -0.11231667629E+03  0.93915004711E+02  0.19636840856E+03  0.12499485933E+03 0.  0.
          2    1    1    2  501    0 -0.16448768164E+02  0.97037433171E+02 -0.47602668590E+03  0.48609487870E+03  0.00000000000E+00 0. -1.
          1    1    1    2  502    0  0.55201485989E+02  0.15279243117E+02  0.23663257277E+04  0.23670188231E+04  0.00000000000E+00 0. -1.
         22    1    3    3    0    0  0.29375024742E+02 -0.67698320856E+02  0.23596123058E+01  0.73834426222E+02  0.00000000000E+00 0. -1.
         22    1    3    3    0    0 -0.68127742567E+02 -0.44618355432E+02  0.91555392405E+02  0.12253398234E+03  0.00000000000E+00 0. -1.
</event>
<event>
 7    1  0.5676357E-006  0.1073795E+03  0.7818608E-02  0.1283666E+00
          2   -1    0    0  502    0  0.00000000000E+00  0.00000000000E+00  0.75019025855E+03  0.75019025855E+03  0.00000000000E+00 0. -1.
          1   -1    0    0  501    0 -0.00000000000E+00 -0.00000000000E+00 -0.14525890989E+03  0.14525890989E+03  0.00000000000E+00 0. -1.
         25    2    1    2    0    0  0.17141249403E+03  0.14740953405E+02  0.33814077746E+03  0.39945446051E+03  0.12500056730E+03 0.  0.
          2    1    1    2  501    0 -0.85687927796E+02  0.28163085390E+02 -0.89480347125E+02  0.12705240206E+03  0.00000000000E+00 0. -1.
          1    1    1    2  502    0 -0.85724566238E+02 -0.42904038795E+02  0.35627091833E+03  0.36894230585E+03  0.00000000000E+00 0. -1.
         22    1    3    3    0    0  0.12766781246E+03 -0.38050229363E+02  0.27793296156E+03  0.30821035254E+03  0.00000000000E+00 0. -1.
         22    1    3    3    0    0  0.43744681578E+02  0.52791182768E+02  0.60207815893E+02  0.91244107969E+02  0.00000000000E+00 0. -1.
</event>
<event>
 7    1  0.5676357E-006  0.8662184E+02  0.7818608E-02  0.1448609E+00
          2   -1    0    0  502    0  0.00000000000E+00  0.00000000000E+00  0.70577038267E+02  0.70577038267E+02  0.00000000000E+00 0. -1.
          1   -1    0    0  501    0 -0.00000000000E+00 -0.00000000000E+00 -0.27262530606E+04  0.27262530606E+04  0.00000000000E+00 0. -1.
         25    2    1    2    0    0 -0.63597196302E+02  0.74923341395E+02 -0.12224026015E+04  0.12327009262E+04  0.12500137092E+03 0.  0.
          2    1    1    2  501    0 -0.82872523086E+01 -0.26925121911E+02 -0.14699598467E+04  0.14702297751E+04  0.00000000000E+00 0. -1.
          1    1    1    2  502    0  0.71884448610E+02 -0.47998219484E+02  0.36686425863E+02  0.93899397593E+02  0.00000000000E+00 0. -1.
         22    1    3    3    0    0  0.11345167352E+02  0.77880610945E+02 -0.46712909832E+03  0.47371267334E+03  0.00000000000E+00 0. -1.
         22    1    3    3    0    0 -0.74942363654E+02 -0.29572695493E+01 -0.75527350319E+03  0.75898825283E+03  0.00000000000E+00 0. -1.
</event>
<event>
 7    1  0.5676357E-006  0.1208993E+03  0.7818608E-02  0.1249964E+00
          2   -1    0    0  502    0  0.00000000000E+00  0.00000000000E+00  0.18733795476E+04  0.18733795476E+04  0.00000000000E+00 0. -1.
          1   -1    0    0  501    0 -0.00000000000E+00 -0.00000000000E+00 -0.35505690926E+02  0.35505690926E+02  0.00000000000E+00 0. -1.
         25    2    1    2    0    0  0.51823399751E+02 -0.11730848614E+03  0.58160138922E+03  0.60855076287E+03  0.12500763722E+03 0.  0.
          2    1    1    2  501    0 -0.11972903025E+03  0.17281166581E+02  0.17746169373E+03  0.21477041729E+03  0.00000000000E+00 0. -1.
          1    1    1    2  502    0  0.67905630496E+02  0.10002731956E+03  0.10788107737E+04  0.10855640583E+04  0.00000000000E+00 0. -1.
         22    1    3    3    0    0 -0.26235212142E+02  0.54841898177E+01  0.43237407234E+02  0.50870778236E+02  0.00000000000E+00 0.  1.
         22    1    3    3    0    0  0.78058611893E+02 -0.12279267596E+03  0.53836398199E+03  0.55767998463E+03  0.00000000000E+00 0.  1.
</event>
<event>
 7    1  0.5676357E-006  0.4708800E+02  0.7818608E-02  0.1532602E+00
          2   -1    0    0  502    0  0.00000000000E+00  0.00000000000E+00  0.62655006304E+02  0.62655006304E+02  0.00000000000E+00 0. -1.
          1   -1    0    0  501    0 -0.00000000000E+00 -0.00000000000E+00 -0.52500700398E+03  0.52500700398E+03  0.00000000000E+00 0. -1.
         25    2    1    2    0    0 -0.39028029450E+02  0.19959922423E+02 -0.55366404084E+02  0.14357019125E+03  0.12500150210E+03 0.  0.
          2    1    1    2  501    0  0.15279342446E+02  0.24492894603E+02 -0.38976420993E+03  0.39083180466E+03  0.00000000000E+00 0. -1.
          1    1    1    2  502    0  0.23748687004E+02 -0.44452817025E+02 -0.17221383659E+02  0.53260014373E+02  0.00000000000E+00 0. -1.
         22    1    3    3    0    0 -0.25085012484E+02  0.47122465005E+02 -0.85419435431E+02  0.10072866776E+03  0.00000000000E+00 0.  1.
         22    1    3    3    0    0 -0.13943016966E+02 -0.27162542582E+02  0.30053031346E+02  0.42841523488E+02  0.00000000000E+00 0.  1.
</event>
<event>
 7    1  0.5676357E-006  0.1132491E+03  0.7818608E-02  0.1286438E+00
          2   -1    0    0  502    0  0.00000000000E+00  0.00000000000E+00  0.26785922751E+04  0.26785922751E+04  0.00000000000E+00 0. -1.
          1   -1    0    0  501    0 -0.00000000000E+00 -0.00000000000E+00 -0.10459548281E+04  0.10459548281E+04  0.00000000000E+00 0. -1.
         25    2    1    2    0    0  0.18113828916E+03 -0.48780780290E+02 -0.56910802732E+02  0.23249822838E+03  0.12500376958E+03 0.  0.
          2    1    1    2  501    0 -0.68477575224E+02  0.47456022959E+02 -0.89809639666E+03  0.90195254316E+03  0.00000000000E+00 0. -1.
          1    1    1    2  502    0 -0.11266071394E+03  0.13247573316E+01  0.25876446463E+04  0.25900963316E+04  0.00000000000E+00 0. -1.
         22    1    3    3    0    0  0.52907100688E+02 -0.57537580200E+02 -0.67847790828E+02  0.10350389924E+03  0.00000000000E+00 0. -1.
         22    1    3    3    0    0  0.12823118847E+03  0.87567999095E+01  0.10936988096E+02  0.12899432914E+03  0.00000000000E+00 0. -1.
</event>
<event>
 7    1  0.5676357E-006  0.5485503E+02  0.7818608E-02  0.1484870E+00
          2   -1    0    0  502    0  0.00000000000E+00  0.00000000000E+00  0.17197274997E+03  0.17197274997E+03  0.00000000000E+00 0. -1.
          1   -1    0    0  501    0 -0.00000000000E+00 -0.00000000000E+00 -0.13012766076E+04  0.13012766076E+04  0.00000000000E+00 0. -1.
         25    2    1    2    0    0 -0.43618492626E+02 -0.54424302973E+02  0.52440896433E+02  0.15244487080E+03  0.12499925344E+03 0.  0.
          2    1    1    2  501    0  0.34205699429E+02  0.20719817541E+01 -0.12408301311E+04  0.12413032415E+04  0.00000000000E+00 0. -1.
          1    1    1    2  502    0  0.94127931970E+01  0.52352321219E+02  0.59085377097E+02  0.79501245270E+02  0.00000000000E+00 0. -1.
         22    1    3    3    0    0  0.11905875226E+02  0.35322085571E+02  0.91801391890E+01  0.38388468965E+02  0.00000000000E+00 0. -1.
         22    1    3    3    0    0 -0.55524367853E+02 -0.89746388544E+02  0.43260757244E+02  0.11405640183E+03  0.00000000000E+00 0. -1.
</event>
<event>
 7    1  0.5676357E-006  0.1227949E+03  0.7818608E-02  0.1241686E+00
          2   -1    0    0  502    0  0.00000000000E+00  0.00000000000E+00  0.38604089348E+03  0.38604089348E+03  0.00000000000E+00 0. -1.
          1   -1    0    0  501    0 -0.00000000000E+00 -0.00000000000E+00 -0.15788235182E+04  0.15788235182E+04  0.00000000000E+00 0. -1.
         25    2    1    2    0    0  0.19403737669E+03 -0.14062226010E+03 -0.54246491049E+03  0.60607312347E+03  0.12502531059E+03 0.  0.
          2    1    1    2  501    0 -0.96094825011E+02  0.70113416047E+02 -0.99061333530E+03  0.99772986653E+03  0.00000000000E+00 0. -1.
          1    1    1    2  502    0 -0.97942551679E+02  0.70508844055E+02  0.34029562106E+03  0.36106142169E+03  0.00000000000E+00 0. -1.
         22    1    3    3    0    0  0.20160849216E+03 -0.14316624810E+03 -0.45165311965E+03  0.51491076819E+03  0.00000000000E+00 0.  1.
         22    1    3    3    0    0 -0.75711154722E+01  0.25439879992E+01 -0.90811790842E+02  0.91162355281E+02  0.00000000000E+00 0.  1.
</event>
<event>
 7    1  0.5676357E-006  0.7667490E+02  0.7818608E-02  0.1404774E+00
          2   -1    0    0  502    0  0.00000000000E+00  0.00000000000E+00  0.88404355571E+03  0.88404355571E+03  0.00000000000E+00 0. -1.
          1   -1    0    0  501    0 -0.00000000000E+00 -0.00000000000E+00 -0.10510388722E+03  0.10510388722E+03  0.00000000000E+00 0. -1.
         25    2    1    2    0    0 -0.29553968427E+02 -0.31150799034E+02  0.49953506728E+03  0.51672429752E+03  0.12499962750E+03 0.  0.
          2    1    1    2  501    0  0.21492267076E+02  0.74858411679E+02 -0.79198094531E+02  0.11107671908E+03  0.00000000000E+00 0. -1.
          1    1    1    2  502    0  0.80617013510E+01 -0.43707612645E+02  0.35860269574E+03  0.36134642633E+03  0.00000000000E+00 0. -1.
         22    1    3    3    0    0 -0.27192361212E+02 -0.15318628914E+02  0.20320709663E+02  0.37242665604E+02  0.00000000000E+00 0.  1.
         22    1    3    3    0    0 -0.23616072142E+01 -0.15832170120E+02  0.47921435762E+03  0.47948163192E+03  0.00000000000E+00 0.  1.
</event>
<event>
 7    1  0.5676357E-006  0.1141575E+03  0.7818608E-02  0.1389253E+00
          2   -1    0    0  502    0  0.00000000000E+00  0.00000000000E+00  0.36715645327E+04  0.36715645327E+04  0.00000000000E+00 0. -1.
          1   -1    0    0  501    0 -0.00000000000E+00 -0.00000000000E+00 -0.44490273905E+02  0.44490273905E+02  0.00000000000E+00 0. -1.
         25    2    1    2    0    0 -0.11678235691E+03 -0.11408277504E+01  0.44511561639E+03  0.47685754281E+03  0.12500313518E+03 0.  0.
          2    1    1    2  501    0  0.76780688390E+01 -0.32889296254E+02 -0.17266485936E+02  0.37931386552E+02  0.00000000000E+00 0. -1.
          1    1    1    2  502    0  0.10910428807E+03  0.34030124004E+02  0.31992251283E+04  0.32012658772E+04  0.00000000000E+00 0. -1.
         22    1    3    3    0    0 -0.13032584287E+03  0.87997051159E+01  0.44046549710E+03  0.45942585284E+03  0.00000000000E+00 0. -1.
         22    1    3    3    0    0  0.13543485960E+02 -0.99405328662E+01  0.46501192957E+01  0.17431689966E+02  0.00000000000E+00 0. -1.
</event>
<event>
 7    1  0.5676357E-006  0.9725517E+02  0.7818608E-02  0.1348588E+00
          2   -1    0    0  502    0  0.00000000000E+00  0.00000000000E+00  0.27918913281E+03  0.27918913281E+03  0.00000000000E+00 0. -1.
          1   -1    0    0  501    0 -0.00000000000E+00 -0.00000000000E+00 -0.14315300601E+04  0.14315300601E+04  0.00000000000E+00 0. -1.
         25    2    1    2    0    0 -0.60604107416E+02 -0.56973094970E+02 -0.67040747696E+03  0.68701676655E+03  0.12500824363E+03 0.  0.
          2    1    1    2  501    0  0.30252429666E+02  0.10349006234E+03 -0.74605391066E+03  0.75380490852E+03  0.00000000000E+00 0. -1.
          1    1    1    2  502    0  0.30351677751E+02 -0.46516967367E+02  0.26412046031E+03  0.26989751786E+03  0.00000000000E+00 0. -1.
         22    1    3    3    0    0 -0.60618043297E+02 -0.80902324016E+02 -0.31543262837E+03  0.33123628461E+03  0.00000000000E+00 0.  1.
         22    1    3    3    0    0  0.13935880703E-01  0.23929229046E+02 -0.35497484859E+03  0.35578048194E+03  0.00000000000E+00 0.  1.
</event>
<event>
 7    1  0.5676357E-006  0.5280211E+02  0.7818608E-02  0.1545816E+00
          2   -1    0    0  502    0  0.00000000000E+00  0.00000000000E+00  0.37004496596E+02  0.37004496596E+02  0.00000000000E+00 0. -1.
          1   -1    0    0  501    0 -0.00000000000E+00 -0.00000000000E+00 -0.20517103356E+04  0.20517103356E+04  0.00000000000E+00 0. -1.
         25    2    1    2    0    0  0.18430878083E+01 -0.68179555530E+02 -0.10128888850E+04  0.10228527968E+04  0.12502840387E+03 0.  0.
          2    1    1    2  501    0 -0.15822404266E+02  0.17537378330E+02 -0.10120608525E+04  0.10123364447E+04  0.00000000000E+00 0. -1.
          1    1    1    2  502    0  0.13979316458E+02  0.50642177200E+02  0.10243898524E+02  0.53525590676E+02  0.00000000000E+00 0. -1.
         22    1    3    3    0    0  0.17508849017E+02  0.21754581954E+02 -0.67245211122E+02  0.72813048616E+02  0.00000000000E+00 0. -1.
         22    1    3    3    0    0 -0.15665761209E+02 -0.89934137484E+02 -0.94564367392E+03  0.95003974821E+03  0.00000000000E+00 0. -1.
</event>
<event>
 7    1  0.5676357E-006  0.1611378E+03  0.7818608E-02  0.1244709E+00
          2   -1    0    0  502    0  0.00000000000E+00  0.00000000000E+00  0.17365798876E+04  0.17365798876E+04  0.00000000000E+00 0. -1.
          1   -1    0    0  501    0 -0.00000000000E+00 -0.00000000000E+00 -0.42979556462E+03  0.42979556462E+03  0.00000000000E+00 0. -1.
         25    2    1    2    0    0  0.10465293204E+03  0.16249742688E+03 -0.40533776635E+02  0.23372143955E+03  0.12500029731E+03 0.  0.
          2    1    1    2  501    0  0.34001492067E+02 -0.81082443942E+02 -0.28201674237E+03  0.29540464985E+03  0.00000000000E+00 0. -1.
          1    1    1    2  502    0 -0.13865442411E+03 -0.81414982940E+02  0.16293348419E+04  0.16372493628E+04  0.00000000000E+00 0. -1.
         22    1    3    3    0    0  0.59705269927E+02  0.83668039788E+02  0.42021147547E+02  0.11104430188E+03  0.00000000000E+00 0. -1.
         22    1    3    3    0    0  0.44947662115E+02  0.78829387093E+02 -0.82554924182E+02  0.12267713767E+03  0.00000000000E+00 0. -1.
</event>
<event>
 7    1  0.5676357E-006  0.3759401E+02  0.7818608E-02  0.1537897E+00
          2   -1    0    0  502    0  0.00000000000E+00  0.00000000000E+00  0.77277039389E+03  0.77277039389E+03  0.00000000000E+00 0. -1.
          1   -1    0    0  501    0 -0.00000000000E+00 -0.00000000000E+00 -0.37064001742E+03  0.37064001742E+03  0.00000000000E+00 0. -1.
         25    2    1    2    0    0  0.52463231475E+02  0.30217418521E+02 -0.64804726891E+02  0.15323229824E+03  0.12495999983E+03 0.  0.
          2    1    1    2  501    0 -0.34804883481E+02  0.29018095004E+01 -0.25996956465E+03  0.26230511805E+03  0.00000000000E+00 0. -1.
          1    1    1    2  502    0 -0.17658347994E+02 -0.33119228021E+02  0.72690466801E+03  0.72787299503E+03  0.00000000000E+00 0. -1.
         22    1    3    3    0    0  0.36951456264E+02  0.74989576816E+02 -0.64924317488E+02  0.10584901394E+03  0.00000000000E+00 0.  1.
         22    1    3    3    0    0  0.15511775210E+02 -0.44772158295E+02  0.11959059721E+00  0.47383284294E+02  0.00000000000E+00 0.  1.
</event>
<event>
 7    1  0.5676357E-006  0.7100790E+02  0.7818608E-02  0.1429062E+00
          2   -1    0    0  502    0  0.00000000000E+00  0.00000000000E+00  0.23872101724E+03  0.23872101724E+03  0.00000000000E+00 0. -1.
          1   -1    0    0  501    0 -0.00000000000E+00 -0.00000000000E+00 -0.70239624432E+03  0.70239624432E+03  0.00000000000E+00 0. -1.
         25    2    1    2    0    0  0.19781045414E+02 -0.25476830671E+02  0.21267710428E+02  0.13083819122E+03  0.12500383241E+03 0.  0.
          2    1    1    2  501    0 -0.44786415565E+02  0.56416812625E+02 -0.64313773281E+03  0.64715904006E+03  0.00000000000E+00 0. -1.
          1    1    1    2  502    0  0.25005370151E+02 -0.30939981953E+02  0.15819479529E+03  0.16312003028E+03  0.00000000000E+00 0. -1.
         22    1    3    3    0    0 -0.41701856327E+02  0.23624114330E+02 -0.42600491973E+01  0.48117477263E+02  0.00000000000E+00 0. -1.
         22    1    3    3    0    0  0.61482901741E+02 -0.49100945001E+02  0.25527759625E+02  0.82720713960E+02  0.00000000000E+00 0. -1.
</event>
<event>
 7    1  0.8982119E-006  0.8287641E+02  0.7818608E-02  0.1340097E+00
          2   -1    0    0  502    0  0.00000000000E+00  0.00000000000E+00  0.19319952613E+04  0.19319952613E+04  0.00000000000E+00 0. -1.
          1   -1    0    0  501    0 -0.00000000000E+00 -0.00000000000E+00 -0.14431180138E+04  0.14431180138E+04  0.00000000000E+00 0. -1.
         25    2    1    2    0    0 -0.82071419701E+01 -0.14328702440E+02 -0.11781046997E+03  0.17256194089E+03  0.12500259084E+03 0.  0.
          2    1    1    2  501    0  0.54337755545E+02  0.67138863822E+02 -0.12958482644E+04  0.12987235823E+04  0.00000000000E+00 0. -1.
          1    1    1    2  502    0 -0.46130613575E+02 -0.52810161382E+02  0.19025359819E+04  0.19038277519E+04  0.00000000000E+00 0. -1.
         22    1    3    3    0    0 -0.21151475736E+02 -0.62831096573E+02 -0.98592397570E+02  0.11880905892E+03  0.00000000000E+00 0.  1.
         22    1    3    3    0    0  0.12944333766E+02  0.48502394133E+02 -0.19218072400E+02  0.53752881970E+02  0.00000000000E+00 0.  1.
</event>
<event>
 7    1  0.7135110E-006  0.7544878E+02  0.7818608E-02  0.1351671E+00
          2   -1    0    0  502    0  0.00000000000E+00  0.00000000000E+00  0.15255999300E+04  0.15255999300E+04  0.00000000000E+00 0. -1.
          1   -1    0    0  501    0 -0.00000000000E+00 -0.00000000000E+00 -0.53405215131E+03  0.53405215131E+03  0.00000000000E+00 0. -1.
         25    2    1    2    0    0  0.64265087576E+02  0.20586182206E+02 -0.62879211778E+02  0.15534573501E+03  0.12499883893E+03 0.  0.
          2    1    1    2  501    0 -0.45496652630E+02  0.52853566677E+02 -0.42109900576E+03  0.42683464897E+03  0.00000000000E+00 0. -1.
          1    1    1    2  502    0 -0.18768434946E+02 -0.73439748884E+02  0.14755259963E+04  0.14774716974E+04  0.00000000000E+00 0. -1.
         22    1    3    3    0    0 -0.34377130475E+02  0.12985247989E+02  0.23825960017E+01  0.36824998693E+02  0.00000000000E+00 0.  1.
         22    1    3    3    0    0  0.98642218051E+02  0.76009342178E+01 -0.65261807780E+02  0.11852073632E+03  0.00000000000E+00 0.  1.
</event>
<event>
 7    1  0.5676357E-006  0.6164466E+02  0.7818608E-02  0.1412441E+00
          2   -1    0    0  502    0  0.00000000000E+00  0.00000000000E+00  0.20799634203E+03  0.20799634203E+03  0.00000000000E+00 0. -1.
          1   -1    0    0  501    0 -0.00000000000E+00 -0.00000000000E+00 -0.24606845430E+04  0.24606845430E+04  0.00000000000E+00 0. -1.
         25    2    1    2    0    0  0.35022036351E+01  0.84245386042E+02 -0.30703694441E+03  0.34206238520E+03  0.12500175856E+03 0.  0.
          2    1    1    2  501    0  0.35756101498E+02 -0.50047041878E+02 -0.21321253631E+04  0.21330123696E+04  0.00000000000E+00 0. -1.
          1    1    1    2  502    0 -0.39258305133E+02 -0.34198344163E+02  0.18647410648E+03  0.19360613021E+03  0.00000000000E+00 0. -1.
         22    1    3    3    0    0 -0.32815278091E+02  0.26829115721E+02 -0.19588078754E+02  0.46694076239E+02  0.00000000000E+00 0. -1.
         22    1    3    3    0    0  0.36317481726E+02  0.57416270320E+02 -0.28744886565E+03  0.29536830897E+03  0.00000000000E+00 0. -1.
</event>
<event>
 7    1  0.5676357E-006  0.4074592E+02  0.7818608E-02  0.1548541E+00
          2   -1    0    0  502    0  0.00000000000E+00  0.00000000000E+00  0.19820410237E+04  0.19820410237E+04  0.00000000000E+00 0. -1.
          1   -1    0    0  501    0 -0.00000000000E+00 -0.00000000000E+00 -0.78155003156E+02  0.78155003156E+02  0.00000000000E+00 0. -1.
         25    2    1    2    0    0  0.82150644287E+01 -0.57186659323E+02  0.66627958512E+03  0.68036124834E+03  0.12500056563E+03 0.  0.
          2    1    1    2  501    0 -0.22799837788E+02  0.19614430892E+02 -0.67609189516E+02  0.73997033788E+02  0.00000000000E+00 0. -1.
          1    1    1    2  502    0  0.14584773360E+02  0.37572228431E+02  0.13052156249E+04  0.13058377447E+04  0.00000000000E+00 0. -1.
         22    1    3    3    0    0  0.44006921886E+01 -0.51798048125E+02  0.67050868144E+03  0.67252085154E+03  0.00000000000E+00 0. -1.
         22    1    3    3    0    0  0.38143722401E+01 -0.53886111978E+01 -0.42290963182E+01  0.78403967945E+01  0.00000000000E+00 0. -1.
</event>
<event>
 7    1  0.5676357E-006  0.6420483E+02  0.7818608E-02  0.1431204E+00
          2   -1    0    0  502    0  0.00000000000E+00  0.00000000000E+00  0.20355421272E+04  0.20355421272E+04  0.00000000000E+00 0. -1.
          1   -1    0    0  501    0 -0.00000000000E+00 -0.00000000000E+00 -0.16744175049E+03  0.16744175049E+03  0.00000000000E+00 0. -1.
         25    2    1    2    0    0  0.26926033073E+01  0.24875954662E+02  0.46437395142E+02  0.13567294169E+03  0.12499860882E+03 0.  0.
          2    1    1    2  501    0 -0.88588678507E+01 -0.67722489812E+02 -0.11306820224E+03  0.13209554695E+03  0.00000000000E+00 0. -1.
          1    1    1    2  502    0  0.61662645435E+01  0.42846535150E+02  0.19347311839E+04  0.19352153891E+04  0.00000000000E+00 0. -1.
         22    1    3    3    0    0 -0.50054226873E+02 -0.72446663946E+01  0.53370519834E+02  0.73527703666E+02  0.00000000000E+00 0. -1.
         22    1    3    3    0    0  0.52746830180E+02  0.32120621057E+02 -0.69331246926E+01  0.62145238025E+02  0.00000000000E+00 0. -1.
</event>
<event>
 7    1  0.5676357E-006  0.7409925E+02  0.7818608E-02  0.1448652E+00
          2   -1    0    0  502    0  0.00000000000E+00  0.00000000000E+00  0.30797239264E+03  0.30797239264E+03  0.00000000000E+00 0. -1.
          1   -1    0    0  501    0 -0.00000000000E+00 -0.00000000000E+00 -0.67630229122E+03  0.67630229122E+03  0.00000000000E+00 0. -1.
         25    2    1    2    0    0  0.75702565316E+01  0.10163693939E+03 -0.43018989103E+03  0.45942959721E+03  0.12499934486E+03 0.  0.
          2    1    1    2  501    0  0.12307697076E+02 -0.30535124794E+02 -0.22563386366E+03  0.22802305516E+03  0.00000000000E+00 0. -1.
          1    1    1    2  502    0 -0.19877953607E+02 -0.71101814599E+02  0.28749385611E+03  0.29682203149E+03  0.00000000000E+00 0. -1.
         22    1    3    3    0    0  0.31373135866E+02  0.12443040054E+03 -0.34323080617E+03  0.36643496632E+03  0.00000000000E+00 0. -1.
         22    1    3    3    0    0 -0.23802879335E+02 -0.22793461149E+02 -0.86959084853E+02  0.92994630889E+02  0.00000000000E+00 0. -1.
</event>
<event>
 7    1  0.5676357E-006  0.4103561E+02  0.7818608E-02  0.1548422E+00
          2   -1    0    0  502    0  0.00000000000E+00  0.00000000000E+00  0.33673010215E+03  0.33673010215E+03  0.00000000000E+00 0. -1.
          1   -1    0    0  501    0 -0.00000000000E+00 -0.00000000000E+00 -0.14682614263E+04  0.14682614263E+04  0.00000000000E+00 0. -1.
         25    2    1    2    0    0 -0.10956481754E+02 -0.37053312599E+02  0.52507708975E+02  0.14097765143E+03  0.12499858493E+03 0.  0.
          2    1    1    2  501    0  0.35707613629E+02  0.20302737007E+02 -0.14227984363E+04  0.14233912411E+04  0.00000000000E+00 0. -1.
          1    1    1    2  502    0 -0.24751131875E+02  0.16750575593E+02  0.23875940320E+03  0.24062263594E+03  0.00000000000E+00 0. -1.
         22    1    3    3    0    0  0.71293532066E+01 -0.25000437509E+01  0.87952866424E+02  0.88276750099E+02  0.00000000000E+00 0. -1.
         22    1    3    3    0    0 -0.18085834961E+02 -0.34553268848E+02 -0.35445157449E+02  0.52700901329E+02  0.00000000000E+00 0. -1.
</event>
<event>
 7    1  0.5676357E-006  0.9908634E+02  0.7818608E-02  0.1300809E+00
          2   -1    0    0  502    0  0.00000000000E+00  0.00000000000E+00  0.55756423525E+03  0.55756423525E+03  0.00000000000E+00 0. -1.
          1   -1    0    0  501    0 -0.00000000000E+00 -0.00000000000E+00 -0.81661762386E+03  0.81661762386E+03  0.00000000000E+00 0. -1.
         25    2    1    2    0    0 -0.30658162129E+02  0.10347864164E+03  0.15148811179E+02  0.16587491751E+03  0.12504898880E+03 0.  0.
          2    1    1    2  501    0 -0.59441778359E+02 -0.58351861176E+02 -0.73343420337E+03  0.73814903332E+03  0.00000000000E+00 0. -1.
          1    1    1    2  502    0  0.90099940488E+02 -0.45126780461E+02  0.45923200359E+03  0.47015790827E+03  0.00000000000E+00 0. -1.
         22    1    3    3    0    0 -0.11950906776E+02 -0.19022057234E+02 -0.26870271616E+02  0.35023910845E+02  0.00000000000E+00 0. -1.
         22    1    3    3    0    0 -0.18707255353E+02  0.12250069887E+03  0.42019082795E+02  0.13085100667E+03  0.00000000000E+00 0. -1.
</event>
<event>
 7    1  0.5676357E-006  0.7485610E+02  0.7818608E-02  0.1404934E+00
          2   -1    0    0  502    0  0.00000000000E+00  0.00000000000E+00  0.92414089855E+03  0.92414089855E+03  0.00000000000E+00 0. -1.
          1   -1    0    0  501    0 -0.00000000000E+00 -0.00000000000E+00 -0.27213916484E+04  0.27213916484E+04  0.00000000000E+00 0. -1.
         25    2    1    2    0    0  0.40131590180E+02  0.45476400119E+02 -0.18215734527E+02  0.14012607439E+03  0.12499942497E+03 0.  0.
          2    1    1    2  501    0 -0.73628821119E+02 -0.14731657644E+02 -0.26410880361E+04  0.26421552262E+04  0.00000000000E+00 0. -1.
          1    1    1    2  502    0  0.33497230939E+02 -0.30744742475E+02  0.86205302078E+03  0.86325124634E+03  0.00000000000E+00 0. -1.
         22    1    3    3    0    0 -0.55273678069E+01 -0.74509381072E+01 -0.58646182883E+02  0.59375441390E+02  0.00000000000E+00 0. -1.
         22    1    3    3    0    0  0.45658957987E+02  0.52927338226E+02  0.40430448356E+02  0.80750633003E+02  0.00000000000E+00 0. -1.
</event>
<event>
 7    1  0.5676357E-006  0.1320167E+03  0.7818608E-02  0.1373609E+00
          2   -1    0    0  502    0  0.00000000000E+00  0.00000000000E+00  0.67257167352E+03  0.67257167352E+03  0.00000000000E+00 0. -1.
          1   -1    0    0  501    0 -0.00000000000E+00 -0.00000000000E+00 -0.24472881986E+04  0.24472881986E+04  0.00000000000E+00 0. -1.
         25    2    1    2    0    0 -0.61953730086E+02 -0.13566712684E+03 -0.12687661753E+03  0.23230763429E+03  0.12500130757E+03 0.  0.
          2    1    1    2  501    0  0.77397917743E+02  0.10631174968E+03 -0.22653441634E+04  0.22691577302E+04  0.00000000000E+00 0. -1.
          1    1    1    2  502    0 -0.15444187656E+02  0.29355377158E+02  0.61750425585E+03  0.61839450765E+03  0.00000000000E+00 0. -1.
         22    1    3    3    0    0 -0.22667525109E+02 -0.59464101057E+02  0.16057759056E+02  0.65632672008E+02  0.00000000000E+00 0. -1.
         22    1    3    3    0    0 -0.39286204977E+02 -0.76203025782E+02 -0.14293437659E+03  0.16667496228E+03  0.00000000000E+00 0. -1.
</event>
<event>
 7    1  0.5676357E-006  0.2629150E+02  0.7818608E-02  0.1656170E+00
          2   -1    0    0  502    0  0.00000000000E+00  0.00000000000E+00  0.15054698603E+04  0.15054698603E+04  0.00000000000E+00 0. -1.
          1   -1    0    0  501    0 -0.00000000000E+00 -0.00000000000E+00 -0.17611731057E+03  0.17611731057E+03  0.00000000000E+00 0. -1.
         25    2    1    2    0    0 -0.17771944807E+02 -0.14470914125E+02  0.49837017726E+03  0.51431882031E+03  0.12500306382E+03 0.  0.
          2    1    1    2  501    0 -0.73279554569E+01  0.23297042334E+02 -0.16707794290E+03  0.16885345752E+03  0.00000000000E+00 0. -1.
          1    1    1    2  502    0  0.25099900264E+02 -0.88261282093E+01  0.99806031539E+03  0.99841489307E+03  0.00000000000E+00 0. -1.
         22    1    3    3    0    0 -0.54785801617E+02 -0.40103346901E+02  0.40510419325E+03  0.41075439118E+03  0.00000000000E+00 0. -1.
         22    1    3    3    0    0  0.37013856810E+02  0.25632432777E+02  0.93265984012E+02  0.10356442912E+03  0.00000000000E+00 0. -1.
</event>
<event>
 7    1  0.5676357E-006  0.7248621E+02  0.7818608E-02  0.1412390E+00
          2   -1    0    0  502    0  0.00000000000E+00  0.00000000000E+00  0.25963230271E+04  0.25963230271E+04  0.00000000000E+00 0. -1.
          1   -1    0    0  501    0 -0.00000000000E+00 -0.00000000000E+00 -0.12516484040E+03  0.12516484040E+03  0.00000000000E+00 0. -1.
         25    2    1    2    0    0 -0.37820374556E+01  0.71254923397E+02  0.79571749144E+02  0.16445860386E+03  0.12499360466E+03 0.  0.
          2    1    1    2  501    0  0.46108648563E+02 -0.58195681977E+02 -0.65820949539E+02  0.99222690305E+02  0.00000000000E+00 0. -1.
          1    1    1    2  502    0 -0.42326611107E+02 -0.13059241420E+02  0.24574073871E+04  0.24578065733E+04  0.00000000000E+00 0. -1.
         22    1    3    3    0    0  0.16559988527E+02  0.10400515591E+03  0.56162933404E+02  0.11935485229E+03  0.00000000000E+00 0. -1.
         22    1    3    3    0    0 -0.20342025983E+02 -0.32750232517E+02  0.23408815739E+02  0.45103751566E+02  0.00000000000E+00 0. -1.
</event>
<event>
 7    1  0.5676357E-006  0.3797697E+02  0.7818608E-02  0.1523787E+00
          2   -1    0    0  502    0  0.00000000000E+00  0.00000000000E+00  0.14800646179E+04  0.14800646179E+04  0.00000000000E+00 0. -1.
          1   -1    0    0  501    0 -0.00000000000E+00 -0.00000000000E+00 -0.25235809241E+03  0.25235809241E+03  0.00000000000E+00 0. -1.
         25    2    1    2    0    0 -0.11056415429E+02 -0.31889405680E+02 -0.69658904355E+02  0.14702346044E+03  0.12499742576E+03 0.  0.
          2    1    1    2  501    0  0.38977687465E+02  0.61986736145E+01 -0.14105804758E+03  0.14647544662E+03  0.00000000000E+00 0. -1.
          1    1    1    2  502    0 -0.27921272036E+02  0.25690732066E+02  0.14384234774E+04  0.14389238032E+04  0.00000000000E+00 0. -1.
         22    1    3    3    0    0  0.49928118901E+02 -0.36674958273E+02 -0.12287139295E+02  0.63157291054E+02  0.00000000000E+00 0.  1.
         22    1    3    3    0    0 -0.60984534329E+02  0.47855525927E+01 -0.57371765061E+02  0.83866169384E+02  0.00000000000E+00 0.  1.
</event>
<event>
 7    1  0.5676357E-006  0.4143786E+02  0.7818608E-02  0.1553305E+00
          2   -1    0    0  502    0  0.00000000000E+00  0.00000000000E+00  0.17767239606E+03  0.17767239606E+03  0.00000000000E+00 0. -1.
          1   -1    0    0  501    0 -0.00000000000E+00 -0.00000000000E+00 -0.41085660636E+03  0.41085660636E+03  0.00000000000E+00 0. -1.
         25    2    1    2    0    0  0.21480188771E+02  0.43348934848E+01 -0.84315640811E+02  0.15236506547E+03  0.12500318428E+03 0.  0.
          2    1    1    2  501    0 -0.27617951598E+02 -0.32354084868E+02 -0.28951448837E+03  0.29262292637E+03  0.00000000000E+00 0. -1.
          1    1    1    2  502    0  0.61377628275E+01  0.28019191384E+02  0.14064591889E+03  0.14354101058E+03  0.00000000000E+00 0. -1.
         22    1    3    3    0    0 -0.47840593490E+02 -0.17968481754E+02 -0.18929271205E+02  0.54496844224E+02  0.00000000000E+00 0.  1.
         22    1    3    3    0    0  0.69320782261E+02  0.22303375238E+02 -0.65386369606E+02  0.97868221250E+02  0.00000000000E+00 0.  1.
</event>
<event>
 7    1  0.5676357E-006  0.6118341E+02  0.7818608E-02  0.1406168E+00
          2   -1    0    0  502    0  0.00000000000E+00  0.00000000000E+00  0.22792670402E+04  0.22792670402E+04  0.00000000000E+00 0. -1.
          1   -1    0    0  501    0 -0.00000000000E+00 -0.00000000000E+00 -0.14719180310E+02  0.14719180310E+02  0.00000000000E+00 0. -1.
         25    2    1    2    0    0 -0.56816605518E+02 -0.57283071090E+02  0.65414007492E+03  0.67084550706E+03  0.12499991932E+03 0.  0.
          2    1    1    2  501    0  0.54953144521E+02 -0.39064243972E+01  0.12656348814E+03  0.13803414351E+03  0.00000000000E+00 0. -1.
          1    1    1    2  502    0  0.18634609965E+01  0.61189495487E+02  0.14838442968E+04  0.14851065699E+04  0.00000000000E+00 0. -1.
         22    1    3    3    0    0  0.14895863000E+02 -0.28391465091E+02  0.37328917575E+02  0.49207825718E+02  0.00000000000E+00 0.  1.
         22    1    3    3    0    0 -0.71712468518E+02 -0.28891605998E+02  0.61681115735E+03  0.62163768134E+03  0.00000000000E+00 0.  1.
</event>
<event>
 7    1  0.5676357E-006  0.5777761E+02  0.7818608E-02  0.1549118E+00
          2   -1    0    0  502    0  0.00000000000E+00  0.00000000000E+00  0.30433061079E+02  0.30433061079E+02  0.00000000000E+00 0. -1.
          1   -1    0    0  501    0 -0.00000000000E+00 -0.00000000000E+00 -0.16722547004E+04  0.16722547004E+04  0.00000000000E+00 0. -1.
         25    2    1    2    0    0 -0.35382846742E+02  0.19943702264E+02 -0.40326929452E+03  0.42414661618E+03  0.12499812400E+03 0.  0.
          2    1    1    2  501    0  0.44051484434E+02 -0.39215368721E+02 -0.12520684529E+04  0.12534567361E+04  0.00000000000E+00 0. -1.
          1    1    1    2  502    0 -0.86686376928E+01  0.19271666458E+02  0.13516108121E+02  0.25084409227E+02  0.00000000000E+00 0. -1.
         22    1    3    3    0    0 -0.24447219726E+02  0.25774089371E+02 -0.20177929905E+02  0.40854853940E+02  0.00000000000E+00 0.  1.
         22    1    3    3    0    0 -0.10935627016E+02 -0.58303871069E+01 -0.38309136462E+03  0.38329176224E+03  0.00000000000E+00 0.  1.
</event>
<event>
 7    1  0.5676357E-006  0.1859089E+03  0.7818608E-02  0.1311640E+00
          2   -1    0    0  502    0  0.00000000000E+00  0.00000000000E+00  0.14266982141E+04  0.14266982141E+04  0.00000000000E+00 0. -1.
          1   -1    0    0  501    0 -0.00000000000E+00 -0.00000000000E+00 -0.26724239714E+03  0.26724239714E+03  0.00000000000E+00 0. -1.
         25    2    1    2    0    0  0.15604344626E+03  0.41336707848E+01  0.22848120130E+03  0.30363487954E+03  0.12499534539E+03 0.  0.
          2    1    1    2  501    0 -0.18842678174E+03 -0.27980301541E+02 -0.18974233628E+03  0.26886744602E+03  0.00000000000E+00 0. -1.
          1    1    1    2  502    0  0.32383335478E+02  0.23846630756E+02  0.11207169519E+04  0.11214382857E+04  0.00000000000E+00 0. -1.
         22    1    3    3    0    0  0.48713483137E+02  0.51020328244E+02  0.14026910846E+03  0.15700796197E+03  0.00000000000E+00 0.  1.
         22    1    3    3    0    0  0.10732996313E+03 -0.46886657459E+02  0.88212092841E+02  0.14662691757E+03  0.00000000000E+00 0.  1.
</event>
<event>
 7    1  0.5676357E-006  0.1822885E+03  0.7818608E-02  0.1336228E+00
          2   -1    0    0  502    0  0.00000000000E+00  0.00000000000E+00  0.12397903185E+04  0.12397903185E+04  0.00000000000E+00 0. -1.
          1   -1    0    0  501    0 -0.00000000000E+00 -0.00000000000E+00 -0.17848846975E+03  0.17848846975E+03  0.00000000000E+00 0. -1.
         25    2    1    2    0    0  0.38553392790E+02 -0.15608233161E+03  0.99992381448E+03  0.10204518778E+04  0.12500536686E+03 0.  0.
          2    1    1    2  501    0 -0.18791615990E+02  0.18247294527E+03 -0.11624559114E+03  0.21716937640E+03  0.00000000000E+00 0. -1.
          1    1    1    2  502    0 -0.19761776800E+02 -0.26390613659E+02  0.17762362542E+03  0.18065753408E+03  0.00000000000E+00 0. -1.
         22    1    3    3    0    0  0.51999160259E+02 -0.16918728140E+03  0.96185441505E+03  0.97800417413E+03  0.00000000000E+00 0.  1.
         22    1    3    3    0    0 -0.13445767469E+02  0.13104949789E+02  0.38069399428E+02  0.42447703644E+02  0.00000000000E+00 0.  1.
</event>
<event>
 7    1  0.5676357E-006  0.2052937E+03  0.7818608E-02  0.1332283E+00
          2   -1    0    0  502    0  0.00000000000E+00  0.00000000000E+00  0.13264733202E+04  0.13264733202E+04  0.00000000000E+00 0. -1.
          1   -1    0    0  501    0 -0.00000000000E+00 -0.00000000000E+00 -0.17698409754E+03  0.17698409754E+03  0.00000000000E+00 0. -1.
         25    2    1    2    0    0  0.80823348580E+02 -0.17807893253E+03  0.70261095856E+03  0.73995688098E+03  0.12501802565E+03 0.  0.
          2    1    1    2  501    0 -0.58028408700E+02  0.19804400433E+03 -0.90447640804E+02  0.22532088139E+03  0.00000000000E+00 0. -1.
          1    1    1    2  502    0 -0.22794939880E+02 -0.19965071795E+02  0.53732590492E+03  0.53817965539E+03  0.00000000000E+00 0. -1.
         22    1    3    3    0    0  0.27861756928E+02 -0.17020977730E+03  0.45429081494E+03  0.48592982037E+03  0.00000000000E+00 0. -1.
         22    1    3    3    0    0  0.52961591652E+02 -0.78691552284E+01  0.24832014362E+03  0.25402706061E+03  0.00000000000E+00 0. -1.
</event>
<event>
 7    1  0.5676357E-006  0.2250643E+03  0.7818608E-02  0.1326428E+00
          2   -1    0    0  502    0  0.00000000000E+00  0.00000000000E+00  0.44065474404E+03  0.44065474404E+03  0.00000000000E+00 0. -1.
          1   -1    0    0  501    0 -0.00000000000E+00 -0.00000000000E+00 -0.21880637735E+04  0.21880637735E+04  0.00000000000E+00 0. -1.
         25    2    1    2    0    0  0.38917421126E+02 -0.22221480184E+03 -0.55053452511E+03  0.60795375156E+03  0.12500206747E+03 0.  0.
          2    1    1    2  501    0 -0.99586846227E+01  0.22510313618E+03 -0.16004036129E+04  0.16161875886E+04  0.00000000000E+00 0. -1.
          1    1    1    2  502    0 -0.28958736503E+02 -0.28883343413E+01  0.40352910863E+03  0.40457717732E+03  0.00000000000E+00 0. -1.
         22    1    3    3    0    0  0.65932252515E+02 -0.81457512845E+02 -0.15367873483E+03  0.18600952088E+03  0.00000000000E+00 0.  1.
         22    1    3    3    0    0 -0.27014831389E+02 -0.14075728900E+03 -0.39685579028E+03  0.42194423068E+03  0.00000000000E+00 0.  1.
</event>
<event>
 7    1  0.5676357E-006  0.5493039E+02  0.7818608E-02  0.1498051E+00
          2   -1    0    0  502    0  0.00000000000E+00  0.00000000000E+00  0.32062876099E+03  0.32062876099E+03  0.00000000000E+00 0. -1.
          1   -1    0    0  501    0 -0.00000000000E+00 -0.00000000000E+00 -0.22323007215E+04  0.22323007215E+04  0.00000000000E+00 0. -1.
         25    2    1    2    0    0  0.37204627221E+02  0.18187056184E+02 -0.29055971917E+03  0.31900548671E+03  0.12499838737E+03 0.  0.
          2    1    1    2  501    0 -0.54997952688E+02  0.74717314495E+01 -0.19263218651E+04  0.19271213064E+04  0.00000000000E+00 0. -1.
          1    1    1    2  502    0  0.17793325467E+02 -0.25658787634E+02  0.30520962374E+03  0.30680268942E+03  0.00000000000E+00 0. -1.
         22    1    3    3    0    0  0.17532293697E+01  0.43197919991E+02 -0.25033551488E+02  0.49958110501E+02  0.00000000000E+00 0.  1.
         22    1    3    3    0    0  0.35451397851E+02 -0.25010863806E+02 -0.26552616768E+03  0.26904737621E+03  0.00000000000E+00 0.  1.
</event>
<event>
 7    1  0.5676357E-006  0.4790626E+02  0.7818608E-02  0.1579233E+00
          2   -1    0    0  502    0  0.00000000000E+00  0.00000000000E+00  0.63155111985E+03  0.63155111985E+03  0.00000000000E+00 0. -1.
          1   -1    0    0  501    0 -0.00000000000E+00 -0.00000000000E+00 -0.61187724837E+02  0.61187724837E+02  0.00000000000E+00 0. -1.
         25    2    1    2    0    0 -0.13119164100E+02  0.64530171434E+02  0.10506115006E+03  0.17607126479E+03  0.12500795791E+03 0.  0.
          2    1    1    2  501    0  0.12211068552E+02 -0.17181554178E+02 -0.20001814524E+02  0.29058365119E+02  0.00000000000E+00 0. -1.
          1    1    1    2  502    0  0.90809554754E+00 -0.47348617257E+02  0.48530405947E+03  0.48760921478E+03  0.00000000000E+00 0. -1.
         22    1    3    3    0    0 -0.49745075913E+02  0.62102312085E+02  0.11330249778E+03  0.13845116737E+03  0.00000000000E+00 0. -1.
         22    1    3    3    0    0  0.36625911814E+02  0.24278593489E+01 -0.82413477200E+01  0.37620097414E+02  0.00000000000E+00 0. -1.
</event>
<event>
 7    1  0.5676357E-006  0.3575894E+02  0.7818608E-02  0.1584101E+00
          2   -1    0    0  502    0  0.00000000000E+00  0.00000000000E+00  0.20613633414E+03  0.20613633414E+03  0.00000000000E+00 0. -1.
          1   -1    0    0  501    0 -0.00000000000E+00 -0.00000000000E+00 -0.69415787040E+03  0.69415787040E+03  0.00000000000E+00 0. -1.
         25    2    1    2    0    0  0.16123306021E+02 -0.25363276782E+01 -0.11718151492E+03  0.17211343278E+03  0.12500052939E+03 0.  0.
          2    1    1    2  501    0 -0.21172802043E+02  0.29472036918E+02 -0.54785572381E+03  0.54905626544E+03  0.00000000000E+00 0. -1.
          1    1    1    2  502    0  0.50494960224E+01 -0.26935709240E+02  0.17701570247E+03  0.17912450632E+03  0.00000000000E+00 0. -1.
         22    1    3    3    0    0  0.53183055398E+02  0.14445721946E+02 -0.81488620005E+01  0.55709247131E+02  0.00000000000E+00 0.  1.
         22    1    3    3    0    0 -0.37059749377E+02 -0.16982049625E+02 -0.10903265292E+03  0.11640418565E+03  0.00000000000E+00 0.  1.
</event>
<event>
 7    1  0.5676357E-006  0.6723514E+02  0.7818608E-02  0.1422338E+00
          2   -1    0    0  502    0  0.00000000000E+00  0.00000000000E+00  0.25506260987E+03  0.25506260987E+03  0.00000000000E+00 0. -1.
          1   -1    0    0  501    0 -0.00000000000E+00 -0.00000000000E+00 -0.48131832247E+03  0.48131832247E+03  0.00000000000E+00 0. -1.
         25    2    1    2    0    0 -0.26238301897E+02  0.81085920871E+01  0.13943378363E+01  0.12799319063E+03  0.12500445959E+03 0.  0.
          2    1    1    2  501    0 -0.39786252238E+02  0.19309822742E+02 -0.41007582694E+03  0.41245363250E+03  0.00000000000E+00 0. -1.
          1    1    1    2  502    0  0.66024554135E+02 -0.27418414829E+02  0.18242577650E+03  0.19593410922E+03  0.00000000000E+00 0. -1.
         22    1    3    3    0    0 -0.43256785067E+02  0.34335494982E+02 -0.45551610261E+02  0.71589278997E+02  0.00000000000E+00 0. -1.
         22    1    3    3    0    0  0.17018483170E+02 -0.26226902895E+02  0.46945948097E+02  0.56403911634E+02  0.00000000000E+00 0. -1.
</event>
<event>
 7    1  0.5676357E-006  0.4482377E+02  0.7818608E-02  0.1532298E+00
          2   -1    0    0  502    0  0.00000000000E+00  0.00000000000E+00  0.93317423331E+03  0.93317423331E+03  0.00000000000E+00 0. -1.
          1   -1    0    0  501    0 -0.00000000000E+00 -0.00000000000E+00 -0.34273668203E+03  0.34273668203E+03  0.00000000000E+00 0. -1.
         25    2    1    2    0    0  0.35766406513E+01  0.61755865232E+02  0.43146607235E+02  0.14599056219E+03  0.12500014113E+03 0.  0.
          2    1    1    2  501    0  0.19387902890E+02 -0.23398230495E+02 -0.28992426593E+03  0.29151234613E+03  0.00000000000E+00 0. -1.
          1    1    1    2  502    0 -0.22964543541E+02 -0.38357634737E+02  0.83721520998E+03  0.83840800701E+03  0.00000000000E+00 0. -1.
         22    1    3    3    0    0 -0.14836636800E+02 -0.23131736281E+02 -0.23775789511E+02  0.36338563287E+02  0.00000000000E+00 0.  1.
         22    1    3    3    0    0  0.18413277452E+02  0.84887601512E+02  0.66922396746E+02  0.10965199890E+03  0.00000000000E+00 0.  1.
</event>
<event>
 7    1  0.5676357E-006  0.5496130E+02  0.7818608E-02  0.1429693E+00
          2   -1    0    0  502    0  0.00000000000E+00  0.00000000000E+00  0.27725476503E+04  0.27725476503E+04  0.00000000000E+00 0. -1.
          1   -1    0    0  501    0 -0.00000000000E+00 -0.00000000000E+00 -0.55223220785E+03  0.55223220785E+03  0.00000000000E+00 0. -1.
         25    2    1    2    0    0 -0.54211051750E+02 -0.31924176565E+02  0.25650318702E+03  0.29219256873E+03  0.12499848434E+03 0.  0.
          2    1    1    2  501    0  0.82701848191E+01  0.54414678398E+02 -0.53270763801E+03  0.53554344434E+03  0.00000000000E+00 0. -1.
          1    1    1    2  502    0  0.45940866931E+02 -0.22490501833E+02  0.24965198934E+04  0.24970438451E+04  0.00000000000E+00 0. -1.
         22    1    3    3    0    0  0.76629247570E+01 -0.57724926178E+02  0.18601429576E+03  0.19491589403E+03  0.00000000000E+00 0.  1.
         22    1    3    3    0    0 -0.61873976507E+02  0.25800749613E+02  0.70488891268E+02  0.97276674705E+02  0.00000000000E+00 0.  1.
</event>
<event>
 7    1  0.5676357E-006  0.1017264E+04  0.7818608E-02  0.1140543E+00
          2   -1    0    0  502    0  0.00000000000E+00  0.00000000000E+00  0.18547598945E+04  0.18547598945E+04  0.00000000000E+00 0. -1.
          1   -1    0    0  501    0 -0.00000000000E+00 -0.00000000000E+00 -0.13211388338E+04  0.13211388338E+04  0.00000000000E+00 0. -1.
         25    2    1    2    0    0 -0.51042755436E+03 -0.91707229108E+03 -0.34690338808E+01  0.10569744875E+04  0.12500063084E+03 0.  0.
          2    1    1    2  501    0  0.21196468474E+02  0.38430868977E+02 -0.59960985153E+03  0.60121393532E+03  0.00000000000E+00 0. -1.
          1    1    1    2  502    0  0.48923108589E+03  0.87864142210E+03  0.11366999460E+04  0.15177103055E+04  0.00000000000E+00 0. -1.
         22    1    3    3    0    0 -0.30160849181E+03 -0.66082711103E+03 -0.14703468537E+00  0.72640221271E+03  0.00000000000E+00 0.  1.
         22    1    3    3    0    0 -0.20881906255E+03 -0.25624518005E+03 -0.33219991954E+01  0.33057227479E+03  0.00000000000E+00 0.  1.
</event>
<event>
 7    1  0.5676357E-006  0.1256037E+03  0.7818608E-02  0.1250137E+00
          2   -1    0    0  502    0  0.00000000000E+00  0.00000000000E+00  0.26603871753E+04  0.26603871753E+04  0.00000000000E+00 0. -1.
          1   -1    0    0  501    0 -0.00000000000E+00 -0.00000000000E+00 -0.57257935342E+03  0.57257935342E+03  0.00000000000E+00 0. -1.
         25    2    1    2    0    0  0.63771330017E+02  0.17621820603E+03  0.24001149787E+03  0.32916012216E+03  0.12498491206E+03 0.  0.
          2    1    1    2  501    0 -0.91581169079E+02 -0.54983873158E+02 -0.52095400884E+03  0.53179264396E+03  0.00000000000E+00 0. -1.
          1    1    1    2  502    0  0.27809839062E+02 -0.12123433287E+03  0.23687503329E+04  0.23720137626E+04  0.00000000000E+00 0. -1.
         22    1    3    3    0    0 -0.23954846394E+02  0.10128894146E+03  0.77074423146E+02  0.12951351679E+03  0.00000000000E+00 0.  1.
         22    1    3    3    0    0  0.87726176411E+02  0.74929264568E+02  0.16293707472E+03  0.19964660537E+03  0.00000000000E+00 0.  1.
</event>
<event>
 7    1  0.5676357E-006  0.1368932E+03  0.7818608E-02  0.1254634E+00
          2   -1    0    0  502    0  0.00000000000E+00  0.00000000000E+00  0.71412494940E+03  0.71412494940E+03  0.00000000000E+00 0. -1.
          1   -1    0    0  501    0 -0.00000000000E+00 -0.00000000000E+00 -0.60633380011E+03  0.60633380011E+03  0.00000000000E+00 0. -1.
         25    2    1    2    0    0  0.79124725173E+02  0.15093432329E+03  0.10450280796E+03  0.23576940349E+03  0.12499793068E+03 0.  0.
          2    1    1    2  501    0  0.13378053612E+02 -0.13587300851E+03 -0.52791380268E+03  0.54528288972E+03  0.00000000000E+00 0. -1.
          1    1    1    2  502    0 -0.92502778785E+02 -0.15061314772E+02  0.53120214401E+03  0.53940645629E+03  0.00000000000E+00 0. -1.
         22    1    3    3    0    0  0.11142868818E+03  0.12060533662E+03  0.65653097400E+02  0.17683983988E+03  0.00000000000E+00 0.  1.
         22    1    3    3    0    0 -0.32303963004E+02  0.30328986667E+02  0.38849710555E+02  0.58929563618E+02  0.00000000000E+00 0.  1.
</event>
<event>
 7    1  0.5676357E-006  0.1367447E+03  0.7818608E-02  0.1411276E+00
          2   -1    0    0  502    0  0.00000000000E+00  0.00000000000E+00  0.20535057466E+03  0.20535057466E+03  0.00000000000E+00 0. -1.
          1   -1    0    0  501    0 -0.00000000000E+00 -0.00000000000E+00 -0.40429785614E+03  0.40429785614E+03  0.00000000000E+00 0. -1.
         25    2    1    2    0    0 -0.13664605481E+03 -0.65144176322E+02 -0.14805550915E+03  0.24588894991E+03  0.12500013558E+03 0.  0.
          2    1    1    2  501    0  0.90704975392E+01  0.21878993801E+02 -0.17739016818E+03  0.17896434300E+03  0.00000000000E+00 0. -1.
          1    1    1    2  502    0  0.12757555727E+03  0.43265182521E+02  0.12649839586E+03  0.18479513789E+03  0.00000000000E+00 0. -1.
         22    1    3    3    0    0 -0.54381082994E+01 -0.63250431910E+02 -0.63457292871E+02  0.89760894476E+02  0.00000000000E+00 0. -1.
         22    1    3    3    0    0 -0.13120794651E+03 -0.18937444118E+01 -0.84598216282E+02  0.15612805544E+03  0.00000000000E+00 0. -1.
</event>
<event>
 7    1  0.5676357E-006  0.8259545E+02  0.7818608E-02  0.1444685E+00
          2   -1    0    0  502    0  0.00000000000E+00  0.00000000000E+00  0.23075284561E+04  0.23075284561E+04  0.00000000000E+00 0. -1.
          1   -1    0    0  501    0 -0.00000000000E+00 -0.00000000000E+00 -0.35704247043E+03  0.35704247043E+03  0.00000000000E+00 0. -1.
         25    2    1    2    0    0 -0.48973741713E+02 -0.10088306876E+03  0.36794687411E+03  0.40445747969E+03  0.12500051908E+03 0.  0.
          2    1    1    2  501    0  0.40033200733E+02  0.71810942737E+02 -0.33367671078E+03  0.34365624681E+03  0.00000000000E+00 0. -1.
          1    1    1    2  502    0  0.89405409790E+01  0.29072126020E+02  0.19162158223E+04  0.19164572000E+04  0.00000000000E+00 0. -1.
         22    1    3    3    0    0 -0.41365721045E+01 -0.10477663424E+03  0.32774601582E+03  0.34411147205E+03  0.00000000000E+00 0. -1.
         22    1    3    3    0    0 -0.44837169608E+02  0.38935654836E+01  0.40200858294E+02  0.60346007641E+02  0.00000000000E+00 0. -1.
</event>
<event>
 7    1  0.5676357E-006  0.1144284E+03  0.7818608E-02  0.1335981E+00
          2   -1    0    0  502    0  0.00000000000E+00  0.00000000000E+00  0.14084585525E+04  0.14084585525E+04  0.00000000000E+00 0. -1.
          1   -1    0    0  501    0 -0.00000000000E+00 -0.00000000000E+00 -0.12178779629E+03  0.12178779629E+03  0.00000000000E+00 0. -1.
         25    2    1    2    0    0  0.67373083377E+01  0.14881874309E+03  0.53057279931E+03  0.56508958874E+03  0.12500535315E+03 0.  0.
          2    1    1    2  501    0 -0.30284468878E+02 -0.43049906077E+02 -0.94239947191E+02  0.10794262881E+03  0.00000000000E+00 0. -1.
          1    1    1    2  502    0  0.23547160540E+02 -0.10576883701E+03  0.85033790413E+03  0.85721413127E+03  0.00000000000E+00 0. -1.
         22    1    3    3    0    0  0.27745783540E+02  0.10828765102E+03  0.49429688178E+03  0.50677948972E+03  0.00000000000E+00 0.  1.
         22    1    3    3    0    0 -0.21008475202E+02  0.40531092072E+02  0.36275917537E+02  0.58310099023E+02  0.00000000000E+00 0.  1.
</event>
<event>
 7    1  0.5676357E-006  0.3054672E+02  0.7818608E-02  0.1640040E+00
          2   -1    0    0  502    0  0.00000000000E+00  0.00000000000E+00  0.12103755069E+04  0.12103755069E+04  0.00000000000E+00 0. -1.
          1   -1    0    0  501    0 -0.00000000000E+00 -0.00000000000E+00 -0.10011627825E+03  0.10011627825E+03  0.00000000000E+00 0. -1.
         25    2    1    2    0    0 -0.15776921894E+02 -0.46646265097E+02 -0.27025788965E+02  0.13703638309E+03  0.12499516675E+03 0.  0.
          2    1    1    2  501    0  0.13163521399E+02  0.23765307618E+02 -0.77009998559E+01  0.28237803395E+02  0.00000000000E+00 0. -1.
          1    1    1    2  502    0  0.26134004945E+01  0.22880957479E+02  0.11449860174E+04  0.11452175986E+04  0.00000000000E+00 0. -1.
         22    1    3    3    0    0  0.19198287946E+02 -0.56703064057E+02  0.31858152063E+02  0.67814110525E+02  0.00000000000E+00 0. -1.
         22    1    3    3    0    0 -0.34975209839E+02  0.10056798959E+02 -0.58883941028E+02  0.69222272569E+02  0.00000000000E+00 0. -1.
</event>
<event>
 7    1  0.5676357E-006  0.1370988E+03  0.7818608E-02  0.1245070E+00
          2   -1    0    0  502    0  0.00000000000E+00  0.00000000000E+00  0.19739989528E+04  0.19739989528E+04  0.00000000000E+00 0. -1.
          1   -1    0    0  501    0 -0.00000000000E+00 -0.00000000000E+00 -0.15436167337E+03  0.15436167337E+03  0.00000000000E+00 0. -1.
         25    2    1    2    0    0 -0.56344450174E+02 -0.13124700970E+02  0.24031966140E+03  0.27699100128E+03  0.12499408104E+03 0.  0.
          2    1    1    2  501    0 -0.93650408981E+02  0.42792652374E+02 -0.11258735463E+03  0.15256973036E+03  0.00000000000E+00 0. -1.
          1    1    1    2  502    0  0.14999485916E+03 -0.29667951404E+02  0.16919049727E+04  0.16987998946E+04  0.00000000000E+00 0. -1.
         22    1    3    3    0    0 -0.64611224635E+02 -0.41192177475E+02  0.23509684232E+03  0.24726894488E+03  0.00000000000E+00 0.  1.
         22    1    3    3    0    0  0.82667744611E+01  0.28067476505E+02  0.52228190761E+01  0.29722056396E+02  0.00000000000E+00 0.  1.
</event>
<event>
 7    1  0.5676357E-006  0.1041406E+03  0.7818608E-02  0.1357114E+00
          2   -1    0    0  502    0  0.00000000000E+00  0.00000000000E+00  0.75622788102E+03  0.75622788102E+03  0.00000000000E+00 0. -1.
          1   -1    0    0  501    0 -0.00000000000E+00 -0.00000000000E+00 -0.18962357768E+04  0.18962357768E+04  0.00000000000E+00 0. -1.
         25    2    1    2    0    0 -0.32143451861E+02  0.12753321196E+03  0.48201102099E+03  0.51503142795E+03  0.12499930309E+03 0.  0.
          2    1    1    2  501    0 -0.97628777292E+01 -0.10362433525E+03 -0.18760121448E+04  0.18788972521E+04  0.00000000000E+00 0. -1.
          1    1    1    2  502    0  0.41906329590E+02 -0.23908876710E+02  0.25399322801E+03  0.25853497775E+03  0.00000000000E+00 0. -1.
         22    1    3    3    0    0  0.17568509930E+02  0.91427097199E+01  0.24219381393E+03  0.24300223289E+03  0.00000000000E+00 0. -1.
         22    1    3    3    0    0 -0.49711961791E+02  0.11839050224E+03  0.23981720705E+03  0.27202919506E+03  0.00000000000E+00 0. -1.
</event>
<event>
 7    1  0.5676357E-006  0.8811611E+02  0.7818608E-02  0.1344802E+00
          2   -1    0    0  502    0  0.00000000000E+00  0.00000000000E+00  0.22371625592E+03  0.22371625592E+03  0.00000000000E+00 0. -1.
          1   -1    0    0  501    0 -0.00000000000E+00 -0.00000000000E+00 -0.69531605686E+03  0.69531605686E+03  0.00000000000E+00 0. -1.
         25    2    1    2    0    0 -0.34283297855E+02  0.28018172115E+02 -0.24469696508E+03  0.27832438019E+03  0.12500997324E+03 0.  0.
          2    1    1    2  501    0 -0.55876038994E+02 -0.29802430066E+02 -0.42150068734E+03  0.42623132921E+03  0.00000000000E+00 0. -1.
          1    1    1    2  502    0  0.90159336849E+02  0.17842579510E+01  0.19459785148E+03  0.21447660338E+03  0.00000000000E+00 0. -1.
         22    1    3    3    0    0  0.11765456591E+02 -0.44681467540E+02 -0.75934012744E+02  0.88886634550E+02  0.00000000000E+00 0. -1.
         22    1    3    3    0    0 -0.46048754446E+02  0.72699639655E+02 -0.16876295234E+03  0.18943774564E+03  0.00000000000E+00 0. -1.
</event>
<event>
 7    1  0.5676357E-006  0.1131904E+03  0.7818608E-02  0.1322745E+00
          2   -1    0    0  502    0  0.00000000000E+00  0.00000000000E+00  0.19875736347E+04  0.19875736347E+04  0.00000000000E+00 0. -1.
          1   -1    0    0  501    0 -0.00000000000E+00 -0.00000000000E+00 -0.33960982244E+03  0.33960982244E+03  0.00000000000E+00 0. -1.
         25    2    1    2    0    0 -0.10270403625E+03  0.32782877696E+02 -0.12194731717E+03  0.20522401215E+03  0.12499164318E+03 0.  0.
          2    1    1    2  501    0  0.11820702134E+03  0.24960770924E+02 -0.15477511384E+03  0.19634478817E+03  0.00000000000E+00 0. -1.
          1    1    1    2  502    0 -0.15502985084E+02 -0.57743648619E+02  0.19246862433E+04  0.19256146568E+04  0.00000000000E+00 0. -1.
         22    1    3    3    0    0 -0.19117991418E+02 -0.36684206878E+02  0.67013367305E+00  0.41372426920E+02  0.00000000000E+00 0.  1.
         22    1    3    3    0    0 -0.83586044836E+02  0.69467084574E+02 -0.12261745085E+03  0.16385158523E+03  0.00000000000E+00 0.  1.
</event>
<event>
 7    1  0.5676357E-006  0.8173351E+02  0.7818608E-02  0.1494793E+00
          2   -1    0    0  502    0  0.00000000000E+00  0.00000000000E+00  0.52909553407E+03  0.52909553407E+03  0.00000000000E+00 0. -1.
          1   -1    0    0  501    0 -0.00000000000E+00 -0.00000000000E+00 -0.30966800205E+03  0.30966800205E+03  0.00000000000E+00 0. -1.
         25    2    1    2    0    0  0.63488861657E+02 -0.13811114061E+02 -0.29186770085E+02  0.14386690670E+03  0.12499694744E+03 0.  0.
          2    1    1    2  501    0 -0.79155412213E+02  0.28480845674E+02 -0.21495550012E+03  0.23083025123E+03  0.00000000000E+00 0. -1.
          1    1    1    2  502    0  0.15666550556E+02 -0.14669731613E+02  0.46356980222E+03  0.46406637818E+03  0.00000000000E+00 0. -1.
         22    1    3    3    0    0  0.64469715591E+02 -0.57220294774E+02  0.81720538692E+01  0.86586885998E+02  0.00000000000E+00 0. -1.
         22    1    3    3    0    0 -0.98085393390E+00  0.43409180713E+02 -0.37358823954E+02  0.57280020704E+02  0.00000000000E+00 0. -1.
</event>
<event>
 7    1  0.5676357E-006  0.4215795E+02  0.7818608E-02  0.1512621E+00
          2   -1    0    0  502    0  0.00000000000E+00  0.00000000000E+00  0.16988285885E+04  0.16988285885E+04  0.00000000000E+00 0. -1.
          1   -1    0    0  501    0 -0.00000000000E+00 -0.00000000000E+00 -0.65140985955E+02  0.65140985955E+02  0.00000000000E+00 0. -1.
         25    2    1    2    0    0 -0.10213596766E+02 -0.74358806638E+01  0.40656595176E+03  0.42553534838E+03  0.12499939884E+03 0.  0.
          2    1    1    2  501    0 -0.31840980697E+02  0.18520841725E+02 -0.49150193526E+02  0.61421585405E+02  0.00000000000E+00 0. -1.
          1    1    1    2  502    0  0.42054577463E+02 -0.11084961062E+02  0.12762718443E+04  0.12770126407E+04  0.00000000000E+00 0. -1.
         22    1    3    3    0    0 -0.57813780974E+02  0.28683090676E+02  0.24197906892E+03  0.25043766241E+03  0.00000000000E+00 0.  1.
         22    1    3    3    0    0  0.47600184208E+02 -0.36118971339E+02  0.16458688284E+03  0.17509768597E+03  0.00000000000E+00 0.  1.
</event>
<event>
 7    1  0.5676357E-006  0.6999109E+02  0.7818608E-02  0.1391144E+00
          2   -1    0    0  502    0  0.00000000000E+00  0.00000000000E+00  0.17503483442E+03  0.17503483442E+03  0.00000000000E+00 0. -1.
          1   -1    0    0  501    0 -0.00000000000E+00 -0.00000000000E+00 -0.73808718422E+03  0.73808718422E+03  0.00000000000E+00 0. -1.
         25    2    1    2    0    0  0.64635548727E+02 -0.21289798235E+02 -0.37756774060E+03  0.40350224440E+03  0.12500261126E+03 0.  0.
          2    1    1    2  501    0 -0.23615378546E+01  0.54204034028E+02 -0.33762948985E+03  0.34196100155E+03  0.00000000000E+00 0. -1.
          1    1    1    2  502    0 -0.62274010872E+02 -0.32914235793E+02  0.15214488065E+03  0.16765877268E+03  0.00000000000E+00 0. -1.
         22    1    3    3    0    0  0.66523670261E+02  0.42045845938E+02 -0.19685261862E+03  0.21200048425E+03  0.00000000000E+00 0. -1.
         22    1    3    3    0    0 -0.18881215342E+01 -0.63335644173E+02 -0.18071512198E+03  0.19150176014E+03  0.00000000000E+00 0. -1.
</event>
<event>
 7    1  0.5676357E-006  0.9312579E+02  0.7818608E-02  0.1332474E+00
          2   -1    0    0  502    0  0.00000000000E+00  0.00000000000E+00  0.74173558197E+03  0.74173558197E+03  0.00000000000E+00 0. -1.
          1   -1    0    0  501    0 -0.00000000000E+00 -0.00000000000E+00 -0.11871685732E+03  0.11871685732E+03  0.00000000000E+00 0. -1.
         25    2    1    2    0    0 -0.26817340718E+02  0.47247677130E+02  0.24005941490E+03  0.27605832967E+03  0.12501266311E+03 0.  0.
          2    1    1    2  501    0  0.25999091568E+02  0.61411615976E+02 -0.82692024772E+02  0.10623234112E+03  0.00000000000E+00 0. -1.
          1    1    1    2  502    0  0.81824915045E+00 -0.10865929311E+03  0.46565133452E+03  0.47816176849E+03  0.00000000000E+00 0. -1.
         22    1    3    3    0    0 -0.35599824537E+02 -0.11547114479E+02  0.20207620476E+03  0.20551271467E+03  0.00000000000E+00 0. -1.
         22    1    3    3    0    0  0.87824838189E+01  0.58794791609E+02  0.37983210138E+02  0.70545614994E+02  0.00000000000E+00 0. -1.
</event>
<event>
 7    1  0.5676357E-006  0.4345290E+02  0.7818608E-02  0.1539341E+00
          2   -1    0    0  502    0  0.00000000000E+00  0.00000000000E+00  0.64982597707E+03  0.64982597707E+03  0.00000000000E+00 0. -1.
          1   -1    0    0  501    0 -0.00000000000E+00 -0.00000000000E+00 -0.38070363860E+02  0.38070363860E+02  0.00000000000E+00 0. -1.
         25    2    1    2    0    0 -0.45883276944E+02  0.11285690038E+02  0.20134057331E+03  0.24165262110E+03  0.12500128367E+03 0.  0.
          2    1    1    2  501    0  0.27229042030E+02 -0.34695457904E+02  0.10666273107E+02  0.45375818571E+02  0.00000000000E+00 0. -1.
          1    1    1    2  502    0  0.18654234914E+02  0.23409767865E+02  0.39974876679E+03  0.40086790126E+03  0.00000000000E+00 0. -1.
         22    1    3    3    0    0 -0.61789231936E+02 -0.44155925260E+02  0.11293456767E+03  0.13609508254E+03  0.00000000000E+00 0.  1.
         22    1    3    3    0    0  0.15905954992E+02  0.55441615298E+02  0.88406005645E+02  0.10555753855E+03  0.00000000000E+00 0.  1.
</event>
<event>
 7    1  0.5676357E-006  0.5009725E+02  0.7818608E-02  0.1451985E+00
          2   -1    0    0  502    0  0.00000000000E+00  0.00000000000E+00  0.22679495352E+03  0.22679495352E+03  0.00000000000E+00 0. -1.
          1   -1    0    0  501    0 -0.00000000000E+00 -0.00000000000E+00 -0.16202980054E+04  0.16202980054E+04  0.00000000000E+00 0. -1.
         25    2    1    2    0    0 -0.57220511395E+02 -0.39412964405E+02 -0.24132275736E+03  0.28051439247E+03  0.12499632984E+03 0.  0.
          2    1    1    2  501    0  0.10666886255E+02  0.48921432628E+02 -0.13561873318E+04  0.13571113322E+04  0.00000000000E+00 0. -1.
          1    1    1    2  502    0  0.46553625140E+02 -0.95084682232E+01  0.20400703727E+03  0.20946723428E+03  0.00000000000E+00 0. -1.
         22    1    3    3    0    0 -0.76238400558E+02 -0.56791419120E+02 -0.10443714562E+03  0.14122562229E+03  0.00000000000E+00 0.  1.
         22    1    3    3    0    0  0.19017889164E+02  0.17378454715E+02 -0.13688561174E+03  0.13928877018E+03  0.00000000000E+00 0.  1.
</event>
<event>
 7    1  0.5676357E-006  0.1583741E+03  0.7818608E-02  0.1300663E+00
          2   -1    0    0  502    0  0.00000000000E+00  0.00000000000E+00  0.18299053020E+04  0.18299053020E+04  0.00000000000E+00 0. -1.
          1   -1    0    0  501    0 -0.00000000000E+00 -0.00000000000E+00 -0.95551767384E+02  0.95551767384E+02  0.00000000000E+00 0. -1.
         25    2    1    2    0    0 -0.12711995177E+03 -0.13430040336E+03  0.45066388630E+03  0.50291072209E+03  0.12500070199E+03 0.  0.
          2    1    1    2  501    0  0.74940735655E+02  0.13502002765E+03  0.17646502055E+02  0.15542818522E+03  0.00000000000E+00 0. -1.
          1    1    1    2  502    0  0.52179216116E+02 -0.71962429176E+00  0.12660431462E+04  0.12671181621E+04  0.00000000000E+00 0. -1.
         22    1    3    3    0    0  0.22762350353E+02 -0.34288663724E+02  0.11152302277E+03  0.11887481509E+03  0.00000000000E+00 0. -1.
         22    1    3    3    0    0 -0.14988230212E+03 -0.10001173963E+03  0.33914086353E+03  0.38403590701E+03  0.00000000000E+00 0. -1.
</event>
<event>
 7    1  0.5676357E-006  0.3983256E+02  0.7818608E-02  0.1561499E+00
          2   -1    0    0  502    0  0.00000000000E+00  0.00000000000E+00  0.17560448061E+04  0.17560448061E+04  0.00000000000E+00 0. -1.
          1   -1    0    0  501    0 -0.00000000000E+00 -0.00000000000E+00 -0.19316205153E+04  0.19316205153E+04  0.00000000000E+00 0. -1.
         25    2    1    2    0    0  0.14961382360E+02  0.11257807057E+01 -0.99588295789E+03  0.10038089205E+04  0.12499749059E+03 0.  0.
          2    1    1    2  501    0 -0.41591507860E+02 -0.10774618122E+02 -0.93116473295E+03  0.93215540862E+03  0.00000000000E+00 0. -1.
          1    1    1    2  502    0  0.26630125500E+02  0.96488374161E+01  0.17514719817E+04  0.17517009923E+04  0.00000000000E+00 0. -1.
         22    1    3    3    0    0 -0.28473214967E+02  0.12341404550E+02 -0.66940012197E+02  0.73783463390E+02  0.00000000000E+00 0.  1.
         22    1    3    3    0    0  0.43434597327E+02 -0.11215623845E+02 -0.92894294569E+03  0.93002545708E+03  0.00000000000E+00 0.  1.
</event>
<event>
 7    1  0.5676357E-006  0.3368242E+02  0.7818608E-02  0.1619306E+00
          2   -1    0    0  502    0  0.00000000000E+00  0.00000000000E+00  0.12949705913E+04  0.12949705913E+04  0.00000000000E+00 0. -1.
          1   -1    0    0  501    0 -0.00000000000E+00 -0.00000000000E+00 -0.14056467639E+03  0.14056467639E+03  0.00000000000E+00 0. -1.
         25    2    1    2    0    0 -0.27761221581E+02  0.47838089157E+02 -0.35080756428E+02  0.14112135650E+03  0.12500163835E+03 0.  0.
          2    1    1    2  501    0  0.50966674235E+01 -0.22993133192E+02 -0.49580860994E+02  0.54890089905E+02  0.00000000000E+00 0. -1.
          1    1    1    2  502    0  0.22664554158E+02 -0.24844955964E+02  0.12390675323E+04  0.12395238213E+04  0.00000000000E+00 0. -1.
         22    1    3    3    0    0 -0.53326235857E+02 -0.24010405281E+02 -0.27060425328E+02  0.64439534537E+02  0.00000000000E+00 0. -1.
         22    1    3    3    0    0  0.25565014276E+02  0.71848494437E+02 -0.80203310995E+01  0.76681821958E+02  0.00000000000E+00 0. -1.
</event>
<event>
 7    1  0.5676357E-006  0.7036824E+02  0.7818608E-02  0.1408969E+00
          2   -1    0    0  502    0  0.00000000000E+00  0.00000000000E+00  0.79127802465E+03  0.79127802465E+03  0.00000000000E+00 0. -1.
          1   -1    0    0  501    0 -0.00000000000E+00 -0.00000000000E+00 -0.71152783883E+02  0.71152783883E+02  0.00000000000E+00 0. -1.
         25    2    1    2    0    0 -0.57162144640E+02 -0.46042383260E+02  0.15781571065E+03  0.21428505115E+03  0.12499949112E+03 0.  0.
          2    1    1    2  501    0 -0.14054209486E+02  0.44704688914E+02 -0.27310292895E+02  0.54239119768E+02  0.00000000000E+00 0. -1.
          1    1    1    2  502    0  0.71216354127E+02  0.13376943454E+01  0.58961982301E+03  0.59390663762E+03  0.00000000000E+00 0. -1.
         22    1    3    3    0    0 -0.59964425138E+02 -0.77810417459E+02  0.69354420180E+02  0.12025069208E+03  0.00000000000E+00 0.  1.
         22    1    3    3    0    0  0.28022804972E+01  0.31768034199E+02  0.88461290472E+02  0.94034359066E+02  0.00000000000E+00 0.  1.
</event>
<event>
 7    1  0.5676357E-006  0.1277253E+03  0.7818608E-02  0.1315564E+00
          2   -1    0    0  502    0  0.00000000000E+00  0.00000000000E+00  0.14292720368E+04  0.14292720368E+04  0.00000000000E+00 0. -1.
          1   -1    0    0  501    0 -0.00000000000E+00 -0.00000000000E+00 -0.18839249201E+03  0.18839249201E+03  0.00000000000E+00 0. -1.
         25    2    1    2    0    0 -0.13236518704E+03  0.12217589867E+03  0.96145576882E+03  0.98613667601E+03  0.12498342059E+03 0.  0.
          2    1    1    2  501    0  0.82205108826E+02 -0.96172085435E+02 -0.15123594095E+03  0.19717773649E+03  0.00000000000E+00 0. -1.
          1    1    1    2  502    0  0.50160078211E+02 -0.26003813231E+02  0.43065971691E+03  0.43435011629E+03  0.00000000000E+00 0. -1.
         22    1    3    3    0    0 -0.12694730374E+03  0.68120551276E+02  0.85026229267E+03  0.86238158246E+03  0.00000000000E+00 0.  1.
         22    1    3    3    0    0 -0.54178832938E+01  0.54055347390E+02  0.11119347615E+03  0.12375509355E+03  0.00000000000E+00 0.  1.
</event>
<event>
 7    1  0.5676357E-006  0.4368027E+03  0.7818608E-02  0.1143224E+00
          2   -1    0    0  502    0  0.00000000000E+00  0.00000000000E+00  0.15196001024E+04  0.15196001024E+04  0.00000000000E+00 0. -1.
          1   -1    0    0  501    0 -0.00000000000E+00 -0.00000000000E+00 -0.28792378294E+03  0.28792378294E+03  0.00000000000E+00 0. -1.
         25    2    1    2    0    0  0.12361122636E+03 -0.47039597125E+03  0.23901304943E+03  0.55615160509E+03  0.12500105995E+03 0.  0.
          2    1    1    2  501    0 -0.60678893885E+02  0.39401023517E+03  0.18820395973E+03  0.44084773339E+03  0.00000000000E+00 0. -1.
          1    1    1    2  502    0 -0.62932332477E+02  0.76385736082E+02  0.80445931028E+03  0.81052454685E+03  0.00000000000E+00 0. -1.
         22    1    3    3    0    0  0.32138438298E+02 -0.55373394019E+02 -0.81186243733E+01  0.64536842525E+02  0.00000000000E+00 0. -1.
         22    1    3    3    0    0  0.91472788064E+02 -0.41502257723E+03  0.24713167381E+03  0.49161476256E+03  0.00000000000E+00 0. -1.
</event>
<event>
 7    1  0.5676357E-006  0.1016173E+03  0.7818608E-02  0.1348071E+00
          2   -1    0    0  502    0  0.00000000000E+00  0.00000000000E+00  0.23443979789E+04  0.23443979789E+04  0.00000000000E+00 0. -1.
          1   -1    0    0  501    0 -0.00000000000E+00 -0.00000000000E+00 -0.20634976986E+03  0.20634976986E+03  0.00000000000E+00 0. -1.
         25    2    1    2    0    0  0.87556063095E+02 -0.58890403165E+02  0.10392323931E+04  0.10520277759E+04  0.12499732230E+03 0.  0.
          2    1    1    2  501    0 -0.10147460661E+03  0.73418300155E+01 -0.18641992661E+03  0.21237558074E+03  0.00000000000E+00 0. -1.
          1    1    1    2  502    0  0.13918543520E+02  0.51548573150E+02  0.12852357426E+04  0.12863443921E+04  0.00000000000E+00 0. -1.
         22    1    3    3    0    0  0.53668789891E+02  0.16084488185E+02  0.17186563622E+03  0.18076738279E+03  0.00000000000E+00 0.  1.
         22    1    3    3    0    0  0.33887273205E+02 -0.74974891350E+02  0.86736675692E+03  0.87126039312E+03  0.00000000000E+00 0.  1.
</event>
<event>
 7    1  0.5676357E-006  0.1862532E+03  0.7818608E-02  0.1386102E+00
          2   -1    0    0  502    0  0.00000000000E+00  0.00000000000E+00  0.41745686668E+03  0.41745686668E+03  0.00000000000E+00 0. -1.
          1   -1    0    0  501    0 -0.00000000000E+00 -0.00000000000E+00 -0.13371055604E+04  0.13371055604E+04  0.00000000000E+00 0. -1.
         25    2    1    2    0    0 -0.17502870963E+03  0.38506863601E+02 -0.17402635049E+02  0.21919118269E+03  0.12499638043E+03 0.  0.
          2    1    1    2  501    0  0.17704606515E+03 -0.59643941584E+02 -0.12112830367E+04  0.12256056886E+04  0.00000000000E+00 0. -1.
          1    1    1    2  502    0 -0.20173555169E+01  0.21137077983E+02  0.30903697801E+03  0.30976555581E+03  0.00000000000E+00 0. -1.
         22    1    3    3    0    0  0.44944255907E+01  0.26234195759E+02  0.22529656453E+02  0.34871454062E+02  0.00000000000E+00 0.  1.
         22    1    3    3    0    0 -0.17952313522E+03  0.12272667843E+02 -0.39932291502E+02  0.18431972863E+03  0.00000000000E+00 0.  1.
</event>
<event>
 7    1  0.5676357E-006  0.4559509E+02  0.7818608E-02  0.1573354E+00
          2   -1    0    0  502    0  0.00000000000E+00  0.00000000000E+00  0.47824803443E+02  0.47824803443E+02  0.00000000000E+00 0. -1.
          1   -1    0    0  501    0 -0.00000000000E+00 -0.00000000000E+00 -0.15402429313E+04  0.15402429313E+04  0.00000000000E+00 0. -1.
         25    2    1    2    0    0 -0.17091862744E+02 -0.62652343875E+02 -0.97589900414E+03  0.98601457513E+03  0.12501371176E+03 0.  0.
          2    1    1    2  501    0  0.72379067005E+01  0.41903281298E+02 -0.55532922599E+03  0.55695495466E+03  0.00000000000E+00 0. -1.
          1    1    1    2  502    0  0.98539560431E+01  0.20749062577E+02  0.38810102298E+02  0.45098204930E+02  0.00000000000E+00 0. -1.
         22    1    3    3    0    0  0.36866501757E+02 -0.66844066224E+02 -0.37547242622E+03  0.38315376938E+03  0.00000000000E+00 0.  1.
         22    1    3    3    0    0 -0.53958364500E+02  0.41917223486E+01 -0.60042657792E+03  0.60286080575E+03  0.00000000000E+00 0.  1.
</event>
<event>
 7    1  0.5676357E-006  0.3599406E+02  0.7818608E-02  0.1555091E+00
          2   -1    0    0  502    0  0.00000000000E+00  0.00000000000E+00  0.15574240438E+04  0.15574240438E+04  0.00000000000E+00 0. -1.
          1   -1    0    0  501    0 -0.00000000000E+00 -0.00000000000E+00 -0.14840592925E+03  0.14840592925E+03  0.00000000000E+00 0. -1.
         25    2    1    2    0    0  0.66219543107E+02  0.37619449708E+01  0.73674224066E+03  0.75020831374E+03  0.12499681881E+03 0.  0.
          2    1    1    2  501    0 -0.31956745997E+02 -0.66781592952E+01 -0.13942322676E+03  0.14319450962E+03  0.00000000000E+00 0. -1.
          1    1    1    2  502    0 -0.34262797111E+02  0.29162143244E+01  0.81169910069E+03  0.81242714974E+03  0.00000000000E+00 0. -1.
         22    1    3    3    0    0  0.78300547969E+02  0.46309381063E+02  0.58913214745E+03  0.59611426903E+03  0.00000000000E+00 0.  1.
         22    1    3    3    0    0 -0.12081004862E+02 -0.42547436092E+02  0.14761009321E+03  0.15409404471E+03  0.00000000000E+00 0.  1.
</event>
<event>
 7    1  0.5676357E-006  0.8602289E+02  0.7818608E-02  0.1396314E+00
          2   -1    0    0  502    0  0.00000000000E+00  0.00000000000E+00  0.10582218288E+04  0.10582218288E+04  0.00000000000E+00 0. -1.
          1   -1    0    0  501    0 -0.00000000000E+00 -0.00000000000E+00 -0.11253350361E+04  0.11253350361E+04  0.00000000000E+00 0. -1.
         25    2    1    2    0    0  0.28291871257E+02  0.61321977835E+02  0.49587924652E+02  0.15048375831E+03  0.12500233717E+03 0.  0.
          2    1    1    2  501    0  0.41367236777E+02 -0.91052809535E+01 -0.10724907698E+04  0.10733268868E+04  0.00000000000E+00 0. -1.
          1    1    1    2  502    0 -0.69659108033E+02 -0.52216696882E+02  0.95578963781E+03  0.95974621985E+03  0.00000000000E+00 0. -1.
         22    1    3    3    0    0  0.16459991629E+01  0.54872131155E+02  0.87742678930E+02  0.10350090723E+03  0.00000000000E+00 0.  1.
         22    1    3    3    0    0  0.26645872094E+02  0.64498466803E+01 -0.38154754277E+02  0.46982851082E+02  0.00000000000E+00 0.  1.
</event>
<event>
 7    1  0.5676357E-006  0.9789904E+02  0.7818608E-02  0.1469625E+00
          2   -1    0    0  502    0  0.00000000000E+00  0.00000000000E+00  0.50461993166E+02  0.50461993166E+02  0.00000000000E+00 0. -1.
          1   -1    0    0  501    0 -0.00000000000E+00 -0.00000000000E+00 -0.15544811007E+04  0.15544811007E+04  0.00000000000E+00 0. -1.
         25    2    1    2    0    0 -0.32260578448E+02  0.86229208386E+02 -0.30133489866E+03  0.33897763362E+03  0.12500757435E+03 0.  0.
          2    1    1    2  501    0 -0.21291232172E+02 -0.20880788385E+01 -0.11553813231E+04  0.11555793692E+04  0.00000000000E+00 0. -1.
          1    1    1    2  502    0  0.53551810620E+02 -0.84141129548E+02 -0.47302885757E+02  0.11038609108E+03  0.00000000000E+00 0. -1.
         22    1    3    3    0    0  0.45332481225E+02  0.46322106167E+02 -0.16312939223E+03  0.17553338709E+03  0.00000000000E+00 0.  1.
         22    1    3    3    0    0 -0.77593059673E+02  0.39907102219E+02 -0.13820550643E+03  0.16344424653E+03  0.00000000000E+00 0.  1.
</event>
<event>
 7    1  0.5676357E-006  0.9046677E+02  0.7818608E-02  0.1393020E+00
          2   -1    0    0  502    0  0.00000000000E+00  0.00000000000E+00  0.90661921428E+03  0.90661921428E+03  0.00000000000E+00 0. -1.
          1   -1    0    0  501    0 -0.00000000000E+00 -0.00000000000E+00 -0.78707622161E+02  0.78707622161E+02  0.00000000000E+00 0. -1.
         25    2    1    2    0    0 -0.15573057850E+02 -0.65527121723E+02  0.39540306312E+03  0.42012480539E+03  0.12499978387E+03 0.  0.
          2    1    1    2  501    0 -0.16816376931E+02  0.91231637921E+02 -0.32546655209E+02  0.98312191798E+02  0.00000000000E+00 0. -1.
          1    1    1    2  502    0  0.32389434781E+02 -0.25704516198E+02  0.46505518421E+03  0.46688983926E+03  0.00000000000E+00 0. -1.
         22    1    3    3    0    0 -0.52572044129E+02 -0.62842648912E+02  0.35870595164E+03  0.36794425948E+03  0.00000000000E+00 0. -1.
         22    1    3    3    0    0  0.36998986279E+02 -0.26844728110E+01  0.36697111479E+02  0.52180545905E+02  0.00000000000E+00 0. -1.
</event>
<event>
 7    1  0.5676357E-006  0.8399185E+02  0.7818608E-02  0.1337124E+00
          2   -1    0    0  502    0  0.00000000000E+00  0.00000000000E+00  0.70130528550E+03  0.70130528550E+03  0.00000000000E+00 0. -1.
          1   -1    0    0  501    0 -0.00000000000E+00 -0.00000000000E+00 -0.23403111125E+03  0.23403111125E+03  0.00000000000E+00 0. -1.
         25    2    1    2    0    0 -0.61036924203E+02 -0.41192302908E+02  0.38152182235E+01  0.14512550732E+03  0.12499818019E+03 0.  0.
          2    1    1    2  501    0  0.88178242017E+01  0.89295708634E+02 -0.14884760183E+03  0.17380185895E+03  0.00000000000E+00 0. -1.
          1    1    1    2  502    0  0.52219100001E+02 -0.48103405726E+02  0.61230655787E+03  0.61640903048E+03  0.00000000000E+00 0. -1.
         22    1    3    3    0    0 -0.96942189329E+01  0.11828680886E+02 -0.50965878266E+02  0.53211054488E+02  0.00000000000E+00 0.  1.
         22    1    3    3    0    0 -0.51342705270E+02 -0.53020983795E+02  0.54781096490E+02  0.91914452833E+02  0.00000000000E+00 0.  1.
</event>
<event>
 7    1  0.5676357E-006  0.5671159E+02  0.7818608E-02  0.1458398E+00
          2   -1    0    0  502    0  0.00000000000E+00  0.00000000000E+00  0.15892490034E+03  0.15892490034E+03  0.00000000000E+00 0. -1.
          1   -1    0    0  501    0 -0.00000000000E+00 -0.00000000000E+00 -0.59195300680E+03  0.59195300680E+03  0.00000000000E+00 0. -1.
         25    2    1    2    0    0  0.19692467891E+02  0.98005507967E+01 -0.76043413748E+01  0.12714645111E+03  0.12499819973E+03 0.  0.
          2    1    1    2  501    0  0.38802781450E+02  0.99170910703E+01 -0.51411525474E+03  0.51567286113E+03  0.00000000000E+00 0. -1.
          1    1    1    2  502    0 -0.58495249341E+02 -0.19717641867E+02  0.88691489652E+02  0.10805859491E+03  0.00000000000E+00 0. -1.
         22    1    3    3    0    0  0.47955613255E+02  0.20330443497E+02 -0.51917785831E+02  0.73542669662E+02  0.00000000000E+00 0. -1.
         22    1    3    3    0    0 -0.28263145364E+02 -0.10529892700E+02  0.44313444456E+02  0.53603781450E+02  0.00000000000E+00 0. -1.
</event>
<event>
 7    1  0.5676357E-006  0.1530952E+03  0.7818608E-02  0.1413301E+00
          2   -1    0    0  502    0  0.00000000000E+00  0.00000000000E+00  0.28521604230E+04  0.28521604230E+04  0.00000000000E+00 0. -1.
          1   -1    0    0  501    0 -0.00000000000E+00 -0.00000000000E+00 -0.83469432942E+03  0.83469432942E+03  0.00000000000E+00 0. -1.
         25    2    1    2    0    0 -0.12713840495E+03 -0.76700233105E+02 -0.88598371285E+02  0.21335694130E+03  0.12499765291E+03 0.  0.
          2    1    1    2  501    0  0.77870998890E+01 -0.19313946767E+02 -0.68145486896E+03  0.68177298707E+03  0.00000000000E+00 0. -1.
          1    1    1    2  502    0  0.11935130506E+03  0.96014179872E+02  0.27875193338E+04  0.27917248240E+04  0.00000000000E+00 0. -1.
         22    1    3    3    0    0 -0.89225499176E+02 -0.97017813324E+02 -0.21347444586E+02  0.13352662355E+03  0.00000000000E+00 0.  1.
         22    1    3    3    0    0 -0.37912905775E+02  0.20317580218E+02 -0.67250926699E+02  0.79830317751E+02  0.00000000000E+00 0.  1.
</event>
<event>
 7    1  0.5676357E-006  0.4286687E+02  0.7818608E-02  0.1517193E+00
          2   -1    0    0  502    0  0.00000000000E+00  0.00000000000E+00  0.20573174581E+04  0.20573174581E+04  0.00000000000E+00 0. -1.
          1   -1    0    0  501    0 -0.00000000000E+00 -0.00000000000E+00 -0.51449326279E+03  0.51449326279E+03  0.00000000000E+00 0. -1.
         25    2    1    2    0    0 -0.77094544918E+02  0.77991331640E+01  0.15713429146E+03  0.21521910912E+03  0.12499473606E+03 0.  0.
          2    1    1    2  501    0  0.42687604198E+02 -0.71662724136E+00 -0.48434689276E+03  0.48622490437E+03  0.00000000000E+00 0. -1.
          1    1    1    2  502    0  0.34406940721E+02 -0.70825059226E+01  0.18700367966E+04  0.18703667074E+04  0.00000000000E+00 0. -1.
         22    1    3    3    0    0 -0.94092806463E+02 -0.27864385210E+02  0.73116272324E+02  0.12237593501E+03  0.00000000000E+00 0. -1.
         22    1    3    3    0    0  0.16998261545E+02  0.35663518374E+02  0.84018019136E+02  0.92843174105E+02  0.00000000000E+00 0. -1.
</event>
<event>
 7    1  0.5676357E-006  0.8144090E+02  0.7818608E-02  0.1374740E+00
          2   -1    0    0  502    0  0.00000000000E+00  0.00000000000E+00  0.60375532800E+03  0.60375532800E+03  0.00000000000E+00 0. -1.
          1   -1    0    0  501    0 -0.00000000000E+00 -0.00000000000E+00 -0.67684258872E+02  0.67684258872E+02  0.00000000000E+00 0. -1.
         25    2    1    2    0    0  0.91636060298E+02 -0.56576404501E+02  0.26294327100E+03  0.31042767289E+03  0.12501247632E+03 0.  0.
          2    1    1    2  501    0 -0.52201704403E+02 -0.10620667750E+02 -0.20608077694E+02  0.57118380511E+02  0.00000000000E+00 0. -1.
          1    1    1    2  502    0 -0.39434355895E+02  0.67197072250E+02  0.29373587582E+03  0.30389353347E+03  0.00000000000E+00 0. -1.
         22    1    3    3    0    0  0.49347265428E+02  0.88708899109E+01  0.21077313265E+03  0.21665446854E+03  0.00000000000E+00 0. -1.
         22    1    3    3    0    0  0.42288794870E+02 -0.65447294412E+02  0.52170138355E+02  0.93773204346E+02  0.00000000000E+00 0. -1.
</event>
<event>
 7    1  0.5676357E-006  0.3253971E+02  0.7818608E-02  0.1607669E+00
          2   -1    0    0  502    0  0.00000000000E+00  0.00000000000E+00  0.53519312623E+03  0.53519312623E+03  0.00000000000E+00 0. -1.
          1   -1    0    0  501    0 -0.00000000000E+00 -0.00000000000E+00 -0.84685537484E+03  0.84685537484E+03  0.00000000000E+00 0. -1.
         25    2    1    2    0    0 -0.16571442892E+02  0.11749040869E+01  0.70266435970E+02  0.14435931971E+03  0.12500499208E+03 0.  0.
          2    1    1    2  501    0  0.21566671938E+02  0.24457885563E+02 -0.80908173435E+03  0.80973857656E+03  0.00000000000E+00 0. -1.
          1    1    1    2  502    0 -0.49952290454E+01 -0.25632789650E+02  0.42715304977E+03  0.42795060480E+03  0.00000000000E+00 0. -1.
         22    1    3    3    0    0  0.51264723095E+02  0.20464281301E+02  0.36436415718E+02  0.66139784045E+02  0.00000000000E+00 0.  1.
         22    1    3    3    0    0 -0.67836165988E+02 -0.19289377214E+02  0.33830020252E+02  0.78219535664E+02  0.00000000000E+00 0.  1.
</event>
<event>
 7    1  0.5676357E-006  0.6023293E+02  0.7818608E-02  0.1497807E+00
          2   -1    0    0  502    0  0.00000000000E+00  0.00000000000E+00  0.17498492456E+03  0.17498492456E+03  0.00000000000E+00 0. -1.
          1   -1    0    0  501    0 -0.00000000000E+00 -0.00000000000E+00 -0.11270254943E+03  0.11270254943E+03  0.00000000000E+00 0. -1.
         25    2    1    2    0    0 -0.38654618519E+02 -0.46869640105E+02 -0.31950154471E+02  0.14260394016E+03  0.12499651467E+03 0.  0.
          2    1    1    2  501    0  0.25637007876E+02 -0.12503980866E+02 -0.47607396184E+01  0.28918339373E+02  0.00000000000E+00 0. -1.
          1    1    1    2  502    0  0.13017610643E+02  0.59373620971E+02  0.98993269218E+02  0.11616519446E+03  0.00000000000E+00 0. -1.
         22    1    3    3    0    0 -0.28822939137E+02 -0.84599428817E+02  0.41460650547E+01  0.89470749589E+02  0.00000000000E+00 0. -1.
         22    1    3    3    0    0 -0.98316793815E+01  0.37729788711E+02 -0.36096219526E+02  0.53133190566E+02  0.00000000000E+00 0. -1.
</event>
<event>
 7    1  0.5676357E-006  0.1222414E+03  0.7818608E-02  0.1278440E+00
          2   -1    0    0  502    0  0.00000000000E+00  0.00000000000E+00  0.13467663245E+03  0.13467663245E+03  0.00000000000E+00 0. -1.
          1   -1    0    0  501    0 -0.00000000000E+00 -0.00000000000E+00 -0.14679422475E+04  0.14679422475E+04  0.00000000000E+00 0. -1.
         25    2    1    2    0    0  0.16492176176E+03  0.16593204729E+02 -0.82825086870E+03  0.85387379922E+03  0.12500576605E+03 0.  0.
          2    1    1    2  501    0 -0.64910255332E+02  0.52149525348E+02 -0.59301930893E+03  0.59883621718E+03  0.00000000000E+00 0. -1.
          1    1    1    2  502    0 -0.10001150643E+03 -0.68742730077E+02  0.88004562541E+02  0.14990886359E+03  0.00000000000E+00 0. -1.
         22    1    3    3    0    0  0.59199474878E+02  0.65714704210E+02 -0.29219126787E+03  0.30528468221E+03  0.00000000000E+00 0.  1.
         22    1    3    3    0    0  0.10572228688E+03 -0.49121499481E+02 -0.53605960083E+03  0.54858911701E+03  0.00000000000E+00 0.  1.
</event>
<event>
 7    1  0.5676357E-006  0.3907787E+02  0.7818608E-02  0.1526682E+00
          2   -1    0    0  502    0  0.00000000000E+00  0.00000000000E+00  0.29688274191E+03  0.29688274191E+03  0.00000000000E+00 0. -1.
          1   -1    0    0  501    0 -0.00000000000E+00 -0.00000000000E+00 -0.52360109739E+03  0.52360109739E+03  0.00000000000E+00 0. -1.
         25    2    1    2    0    0  0.33851956890E+02  0.53674602503E+02 -0.23155094668E+03  0.27067997226E+03  0.12499955413E+03 0.  0.
          2    1    1    2  501    0 -0.33054339137E+02 -0.14689065626E+02 -0.26990243592E+03  0.27231541069E+03  0.00000000000E+00 0. -1.
          1    1    1    2  502    0 -0.79761775335E+00 -0.38985536877E+02  0.27473502712E+03  0.27748845635E+03  0.00000000000E+00 0. -1.
         22    1    3    3    0    0 -0.43178394486E+02  0.26623858106E+02 -0.13512994936E+03  0.14433747533E+03  0.00000000000E+00 0. -1.
         22    1    3    3    0    0  0.77030351376E+02  0.27050744397E+02 -0.96420997326E+02  0.12634249693E+03  0.00000000000E+00 0. -1.
</event>
<event>
 7    1  0.5676357E-006  0.1257102E+03  0.7818608E-02  0.1282513E+00
          2   -1    0    0  502    0  0.00000000000E+00  0.00000000000E+00  0.14305284764E+04  0.14305284764E+04  0.00000000000E+00 0. -1.
          1   -1    0    0  501    0 -0.00000000000E+00 -0.00000000000E+00 -0.16248883603E+03  0.16248883603E+03  0.00000000000E+00 0. -1.
         25    2    1    2    0    0  0.76928924003E+02 -0.62808582164E+02  0.15944148366E+03  0.22563265015E+03  0.12500211503E+03 0.  0.
          2    1    1    2  501    0 -0.13312799028E+03  0.88760698933E+01 -0.93399485470E+02  0.16286592737E+03  0.00000000000E+00 0. -1.
          1    1    1    2  502    0  0.56199066277E+02  0.53932512271E+02  0.12019976421E+04  0.12045187349E+04  0.00000000000E+00 0. -1.
         22    1    3    3    0    0  0.51526589165E+02 -0.15276530159E+02 -0.36498124258E+01  0.53867271097E+02  0.00000000000E+00 0. -1.
         22    1    3    3    0    0  0.25402334838E+02 -0.47532052005E+02  0.16309129608E+03  0.17176537905E+03  0.00000000000E+00 0. -1.
</event>
<event>
 7    1  0.5676357E-006  0.7805785E+02  0.7818608E-02  0.1373023E+00
          2   -1    0    0  502    0  0.00000000000E+00  0.00000000000E+00  0.19288036196E+04  0.19288036196E+04  0.00000000000E+00 0. -1.
          1   -1    0    0  501    0 -0.00000000000E+00 -0.00000000000E+00 -0.10487383955E+04  0.10487383955E+04  0.00000000000E+00 0. -1.
         25    2    1    2    0    0  0.25581006773E+02 -0.84005992440E+02  0.32274193476E+03  0.35707061511E+03  0.12500269217E+03 0.  0.
          2    1    1    2  501    0 -0.55235343133E+02  0.11257982375E+02 -0.10298316930E+04  0.10313733569E+04  0.00000000000E+00 0. -1.
          1    1    1    2  502    0  0.29654336361E+02  0.72748010066E+02  0.15871549823E+04  0.15890980431E+04  0.00000000000E+00 0. -1.
         22    1    3    3    0    0  0.15909223225E+00  0.32974538352E+02  0.65074541618E+02  0.72952323175E+02  0.00000000000E+00 0.  1.
         22    1    3    3    0    0  0.25421914541E+02 -0.11698053079E+03  0.25766739315E+03  0.28411829194E+03  0.00000000000E+00 0.  1.
</event>
<event>
 7    1  0.5676357E-006  0.7887760E+02  0.7818608E-02  0.1382513E+00
          2   -1    0    0  502    0  0.00000000000E+00  0.00000000000E+00  0.17547490598E+04  0.17547490598E+04  0.00000000000E+00 0. -1.
          1   -1    0    0  501    0 -0.00000000000E+00 -0.00000000000E+00 -0.18536888179E+03  0.18536888179E+03  0.00000000000E+00 0. -1.
         25    2    1    2    0    0 -0.27599488164E+00  0.10208570214E+03  0.10100416711E+04  0.10228599376E+04  0.12504682289E+03 0.  0.
          2    1    1    2  501    0 -0.38925520674E+02 -0.68506327419E+02 -0.16932953186E+03  0.18676403138E+03  0.00000000000E+00 0. -1.
          1    1    1    2  502    0  0.39201515555E+02 -0.33579374720E+02  0.72866803877E+03  0.73049397257E+03  0.00000000000E+00 0. -1.
         22    1    3    3    0    0  0.29266000845E+02  0.42359337396E+02  0.12329308985E+03  0.13361137030E+03  0.00000000000E+00 0. -1.
         22    1    3    3    0    0 -0.29541995727E+02  0.59726364743E+02  0.88674858126E+03  0.88924856734E+03  0.00000000000E+00 0. -1.
</event>
<event>
 7    1  0.5676357E-006  0.6851118E+02  0.7818608E-02  0.1370759E+00
          2   -1    0    0  502    0  0.00000000000E+00  0.00000000000E+00  0.57757201918E+02  0.57757201918E+02  0.00000000000E+00 0. -1.
          1   -1    0    0  501    0 -0.00000000000E+00 -0.00000000000E+00 -0.88580244543E+03  0.88580244543E+03  0.00000000000E+00 0. -1.
         25    2    1    2    0    0 -0.29648211103E+02  0.97534832060E+02 -0.23656547707E+03  0.28631655588E+03  0.12498754074E+03 0.  0.
          2    1    1    2  501    0 -0.25500888975E+02 -0.60264070373E+02 -0.58688564092E+03  0.59052248817E+03  0.00000000000E+00 0. -1.
          1    1    1    2  502    0  0.55149100078E+02 -0.37270761687E+02 -0.45941255221E+01  0.66720603306E+02  0.00000000000E+00 0. -1.
         22    1    3    3    0    0  0.36236279016E+02  0.62730689352E+01 -0.19080505918E+02  0.41430484150E+02  0.00000000000E+00 0.  1.
         22    1    3    3    0    0 -0.65884490119E+02  0.91261763124E+02 -0.21748497116E+03  0.24488607173E+03  0.00000000000E+00 0.  1.
</event>
<event>
 7    1  0.1003271E-005  0.4709370E+02  0.7818608E-02  0.1524188E+00
          2   -1    0    0  502    0  0.00000000000E+00  0.00000000000E+00  0.15562639283E+04  0.15562639283E+04  0.00000000000E+00 0. -1.
          1   -1    0    0  501    0 -0.00000000000E+00 -0.00000000000E+00 -0.13250255942E+04  0.13250255942E+04  0.00000000000E+00 0. -1.
         25    2    1    2    0    0 -0.65721879085E+02 -0.31734950105E+02 -0.63270171787E+03  0.64904762261E+03  0.12499952070E+03 0.  0.
          2    1    1    2  501    0  0.19349905174E+02  0.23596144023E+02 -0.68345243542E+03  0.68413334104E+03  0.00000000000E+00 0. -1.
          1    1    1    2  502    0  0.46371973911E+02  0.81388060824E+01  0.15473924873E+04  0.15481085589E+04  0.00000000000E+00 0. -1.
         22    1    3    3    0    0 -0.48399017856E+01 -0.67965828464E+02 -0.40129404367E+03  0.40703769847E+03  0.00000000000E+00 0. -1.
         22    1    3    3    0    0 -0.60881977299E+02  0.36230878359E+02 -0.23140767420E+03  0.24200992414E+03  0.00000000000E+00 0. -1.
</event>
<event>
 7    1  0.5676357E-006  0.1270280E+03  0.7818608E-02  0.1316654E+00
          2   -1    0    0  502    0  0.00000000000E+00  0.00000000000E+00  0.17924304761E+03  0.17924304761E+03  0.00000000000E+00 0. -1.
          1   -1    0    0  501    0 -0.00000000000E+00 -0.00000000000E+00 -0.33912747616E+03  0.33912747616E+03  0.00000000000E+00 0. -1.
         25    2    1    2    0    0  0.45962494049E+02 -0.72385208737E+02 -0.90603338510E+02  0.17659587574E+03  0.12499987630E+03 0.  0.
          2    1    1    2  501    0  0.47722544752E+02 -0.29787732091E+02 -0.16433217013E+03  0.17369459520E+03  0.00000000000E+00 0. -1.
          1    1    1    2  502    0 -0.93685038802E+02  0.10217294083E+03  0.95051080097E+02  0.16808005283E+03  0.00000000000E+00 0. -1.
         22    1    3    3    0    0  0.19234828053E+02  0.35415917711E+02 -0.20027393761E+02  0.45004025802E+02  0.00000000000E+00 0.  1.
         22    1    3    3    0    0  0.26727665996E+02 -0.10780112645E+03 -0.70575944749E+02  0.13159184994E+03  0.00000000000E+00 0.  1.
</event>
<event>
 7    1  0.5676357E-006  0.1150960E+03  0.7818608E-02  0.1286388E+00
          2   -1    0    0  502    0  0.00000000000E+00  0.00000000000E+00  0.86736755522E+03  0.86736755522E+03  0.00000000000E+00 0. -1.
          1   -1    0    0  501    0 -0.00000000000E+00 -0.00000000000E+00 -0.71331059938E+02  0.71331059938E+02  0.00000000000E+00 0. -1.
         25    2    1    2    0    0  0.75010513346E+02  0.10606240966E+03  0.45819155932E+03  0.49238747172E+03  0.12502042001E+03 0.  0.
          2    1    1    2  501    0  0.37004520592E+02 -0.73193680263E+02 -0.69306827554E+01  0.82308466990E+02  0.00000000000E+00 0. -1.
          1    1    1    2  502    0 -0.11201503394E+03 -0.32868729396E+02  0.34477561872E+03  0.36400267645E+03  0.00000000000E+00 0. -1.
         22    1    3    3    0    0  0.53998313355E+01  0.95578693481E+02  0.35347199677E+03  0.36620608587E+03  0.00000000000E+00 0. -1.
         22    1    3    3    0    0  0.69610682011E+02  0.10483716179E+02  0.10471956255E+03  0.12618138585E+03  0.00000000000E+00 0. -1.
</event>
<event>
 7    1  0.5676357E-006  0.1340752E+03  0.7818608E-02  0.1279528E+00
          2   -1    0    0  502    0  0.00000000000E+00  0.00000000000E+00  0.20873456787E+04  0.20873456787E+04  0.00000000000E+00 0. -1.
          1   -1    0    0  501    0 -0.00000000000E+00 -0.00000000000E+00 -0.99407759892E+03  0.99407759892E+03  0.00000000000E+00 0. -1.
         25    2    1    2    0    0 -0.91572939529E+02  0.10636855953E+01 -0.11163273032E+03  0.19097952201E+03  0.12499830666E+03 0.  0.
          2    1    1    2  501    0  0.12426617703E+03 -0.68709722811E+02 -0.83609417464E+03  0.84806637572E+03  0.00000000000E+00 0. -1.
          1    1    1    2  502    0 -0.32693237503E+02  0.67646037216E+02  0.20409949847E+04  0.20423773799E+04  0.00000000000E+00 0. -1.
         22    1    3    3    0    0 -0.50037821813E+02  0.61201839361E+02 -0.39821111269E+02  0.88516493692E+02  0.00000000000E+00 0. -1.
         22    1    3    3    0    0 -0.41535117716E+02 -0.60138153766E+02 -0.71811619049E+02  0.10246302832E+03  0.00000000000E+00 0. -1.
</event>
<event>
 7    1  0.5676357E-006  0.2541576E+02  0.7818608E-02  0.1694905E+00
          2   -1    0    0  502    0  0.00000000000E+00  0.00000000000E+00  0.12733067960E+04  0.12733067960E+04  0.00000000000E+00 0. -1.
          1   -1    0    0  501    0 -0.00000000000E+00 -0.00000000000E+00 -0.25194014673E+02  0.25194014673E+02  0.00000000000E+00 0. -1.
         25    2    1    2    0    0  0.54541885857E+01  0.24964782238E+02  0.95363165086E+03  0.96212895585E+03  0.12500325457E+03 0.  0.
          2    1    1    2  501    0 -0.21964991987E+02 -0.12917036166E+02 -0.12728003304E+02  0.28483552524E+02  0.00000000000E+00 0. -1.
          1    1    1    2  502    0  0.16510803401E+02 -0.12047746072E+02  0.30720913377E+03  0.30788830229E+03  0.00000000000E+00 0. -1.
         22    1    3    3    0    0  0.55742355847E+02  0.36856887768E+02  0.35235660194E+03  0.35863744275E+03  0.00000000000E+00 0.  1.
         22    1    3    3    0    0 -0.50288167262E+02 -0.11892105530E+02  0.60127504891E+03  0.60349151310E+03  0.00000000000E+00 0.  1.
</event>
<event>
 7    1  0.5676357E-006  0.4900178E+02  0.7818608E-02  0.1539064E+00
          2   -1    0    0  502    0  0.00000000000E+00  0.00000000000E+00  0.13834541136E+04  0.13834541136E+04  0.00000000000E+00 0. -1.
          1   -1    0    0  501    0 -0.00000000000E+00 -0.00000000000E+00 -0.20722153885E+03  0.20722153885E+03  0.00000000000E+00 0. -1.
         25    2    1    2    0    0 -0.12526605098E+02  0.19200382686E+02  0.30446533875E+03  0.32992353337E+03  0.12499929937E+03 0.  0.
          2    1    1    2  501    0  0.22231003766E+02 -0.43958020840E+02 -0.19120444414E+03  0.19744787815E+03  0.00000000000E+00 0. -1.
          1    1    1    2  502    0 -0.97043986683E+01  0.24757638154E+02  0.10629716801E+04  0.10633042409E+04  0.00000000000E+00 0. -1.
         22    1    3    3    0    0 -0.68588945673E+02  0.17910558379E+02  0.16289541334E+03  0.17765175839E+03  0.00000000000E+00 0.  1.
         22    1    3    3    0    0  0.56062340575E+02  0.12898243066E+01  0.14156992541E+03  0.15227177499E+03  0.00000000000E+00 0.  1.
</event>
<event>
 7    1  0.5676357E-006  0.1445014E+03  0.7818608E-02  0.1210210E+00
          2   -1    0    0  502    0  0.00000000000E+00  0.00000000000E+00  0.16690261757E+04  0.16690261757E+04  0.00000000000E+00 0. -1.
          1   -1    0    0  501    0 -0.00000000000E+00 -0.00000000000E+00 -0.18498847679E+03  0.18498847679E+03  0.00000000000E+00 0. -1.
         25    2    1    2    0    0 -0.10187882463E+03 -0.16867408265E+02  0.60301574867E+03  0.62442911956E+03  0.12497970971E+03 0.  0.
          2    1    1    2  501    0  0.86241083976E+02 -0.12247541963E+03 -0.13637407956E+03  0.20257256121E+03  0.00000000000E+00 0. -1.
          1    1    1    2  502    0  0.15637740649E+02  0.13934282790E+03  0.10173960298E+04  0.10270129717E+04  0.00000000000E+00 0. -1.
         22    1    3    3    0    0 -0.76481378502E+02  0.32247358963E+02  0.18492759247E+03  0.20270053743E+03  0.00000000000E+00 0.  1.
         22    1    3    3    0    0 -0.25397446123E+02 -0.49114767228E+02  0.41808815620E+03  0.42172858212E+03  0.00000000000E+00 0.  1.
</event>
<event>
 7    1  0.5676357E-006  0.8125937E+02  0.7818608E-02  0.1420701E+00
          2   -1    0    0  502    0  0.00000000000E+00  0.00000000000E+00  0.13488684518E+04  0.13488684518E+04  0.00000000000E+00 0. -1.
          1   -1    0    0  501    0 -0.00000000000E+00 -0.00000000000E+00 -0.18937853915E+03  0.18937853915E+03  0.00000000000E+00 0. -1.
         25    2    1    2    0    0  0.55030704944E+02  0.39793151586E+02  0.68219121567E+03  0.69686562774E+03  0.12499989999E+03 0.  0.
          2    1    1    2  501    0 -0.93926660872E+01  0.35844306373E+02 -0.17715688182E+03  0.18099059990E+03  0.00000000000E+00 0. -1.
          1    1    1    2  502    0 -0.45638038857E+02 -0.75637457959E+02  0.65445557877E+03  0.66039076328E+03  0.00000000000E+00 0. -1.
         22    1    3    3    0    0  0.33277276449E+02 -0.27515925290E+02  0.49292424347E+03  0.49481189666E+03  0.00000000000E+00 0. -1.
         22    1    3    3    0    0  0.21753428494E+02  0.67309076877E+02  0.18926697219E+03  0.20205373108E+03  0.00000000000E+00 0. -1.
</event>
<event>
 7    1  0.5676357E-006  0.1045554E+03  0.7818608E-02  0.1321276E+00
          2   -1    0    0  502    0  0.00000000000E+00  0.00000000000E+00  0.15848572020E+04  0.15848572020E+04  0.00000000000E+00 0. -1.
          1   -1    0    0  501    0 -0.00000000000E+00 -0.00000000000E+00 -0.16196080908E+03  0.16196080908E+03  0.00000000000E+00 0. -1.
         25    2    1    2    0    0 -0.12268775479E+03  0.86032498639E+02  0.98789885415E+03  0.10069875001E+04  0.12500321313E+03 0.  0.
          2    1    1    2  501    0  0.40540321053E+02 -0.51546536302E+02 -0.14178043811E+03  0.15621221357E+03  0.00000000000E+00 0. -1.
          1    1    1    2  502    0  0.82147433742E+02 -0.34485962338E+02  0.57677797684E+03  0.58361829738E+03  0.00000000000E+00 0. -1.
         22    1    3    3    0    0 -0.94515471599E+02  0.11615494998E+03  0.67696453562E+03  0.69332974064E+03  0.00000000000E+00 0. -1.
         22    1    3    3    0    0 -0.28172283196E+02 -0.30122451343E+02  0.31093431853E+03  0.31365775944E+03  0.00000000000E+00 0. -1.
</event>
<event>
 7    1  0.5676357E-006  0.5477843E+03  0.7818608E-02  0.1037848E+00
          2   -1    0    0  502    0  0.00000000000E+00  0.00000000000E+00  0.26759874922E+03  0.26759874922E+03  0.00000000000E+00 0. -1.
          1   -1    0    0  501    0 -0.00000000000E+00 -0.00000000000E+00 -0.22590404646E+04  0.22590404646E+04  0.00000000000E+00 0. -1.
         25    2    1    2    0    0 -0.56302423894E+02 -0.70102154415E+02 -0.39600461221E+03  0.42488714679E+03  0.12500063849E+03 0.  0.
          2    1    1    2  501    0 -0.54527029249E+03  0.52420815495E+02 -0.13405846676E+04  0.14481833050E+04  0.00000000000E+00 0. -1.
          1    1    1    2  502    0  0.60157271639E+03  0.17681338920E+02 -0.25485243558E+03  0.65356876208E+03  0.00000000000E+00 0. -1.
         22    1    3    3    0    0 -0.71173995972E+01  0.34574582885E+02 -0.13243108079E+03  0.13705491716E+03  0.00000000000E+00 0. -1.
         22    1    3    3    0    0 -0.49185024297E+02 -0.10467673730E+03 -0.26357353142E+03  0.28783222963E+03  0.00000000000E+00 0. -1.
</event>
<event>
 7    1  0.5676357E-006  0.1427130E+03  0.7818608E-02  0.1215412E+00
          2   -1    0    0  502    0  0.00000000000E+00  0.00000000000E+00  0.17845543115E+04  0.17845543115E+04  0.00000000000E+00 0. -1.
          1   -1    0    0  501    0 -0.00000000000E+00 -0.00000000000E+00 -0.55869723407E+03  0.55869723407E+03  0.00000000000E+00 0. -1.
         25    2    1    2    0    0 -0.24437434429E+02  0.13156431785E+03  0.46940071319E+03  0.50385387086E+03  0.12500134281E+03 0.  0.
          2    1    1    2  501    0  0.13328882546E+03 -0.16771721354E+02 -0.52821102296E+03  0.54502668412E+03  0.00000000000E+00 0. -1.
          1    1    1    2  502    0 -0.10885139103E+03 -0.11479259650E+03  0.12846673872E+04  0.12943709906E+04  0.00000000000E+00 0. -1.
         22    1    3    3    0    0  0.87827503973E+01  0.12513431349E+03  0.44444822108E+03  0.46181160048E+03  0.00000000000E+00 0. -1.
         22    1    3    3    0    0 -0.33220184826E+02  0.64300043623E+01  0.24952492106E+02  0.42042270375E+02  0.00000000000E+00 0. -1.
</event>
<event>
 7    1  0.5676357E-006  0.1173615E+03  0.7818608E-02  0.1440731E+00
          2   -1    0    0  502    0  0.00000000000E+00  0.00000000000E+00  0.33154663910E+03  0.33154663910E+03  0.00000000000E+00 0. -1.
          1   -1    0    0  501    0 -0.00000000000E+00 -0.00000000000E+00 -0.11948061449E+03  0.11948061449E+03  0.00000000000E+00 0. -1.
         25    2    1    2    0    0  0.27011858804E+02 -0.97773719094E+02  0.10033946529E+03  0.18966459419E+03  0.12496123133E+03 0.  0.
          2    1    1    2  501    0 -0.37568641412E+02  0.11712684215E+03 -0.22750425378E+02  0.12509069440E+03  0.00000000000E+00 0. -1.
          1    1    1    2  502    0  0.10556782609E+02 -0.19353123060E+02  0.13447698470E+03  0.13627196500E+03  0.00000000000E+00 0. -1.
         22    1    3    3    0    0  0.50394869839E+01 -0.96155853024E+01 -0.29363349279E+02  0.31305944973E+02  0.00000000000E+00 0.  1.
         22    1    3    3    0    0  0.21972371820E+02 -0.88158133792E+02  0.12970281457E+03  0.15835864922E+03  0.00000000000E+00 0.  1.
</event>
<event>
 7    1  0.5676357E-006  0.8135118E+02  0.7818608E-02  0.1354937E+00
          2   -1    0    0  502    0  0.00000000000E+00  0.00000000000E+00  0.81472668327E+03  0.81472668327E+03  0.00000000000E+00 0. -1.
          1   -1    0    0  501    0 -0.00000000000E+00 -0.00000000000E+00 -0.49836015862E+03  0.49836015862E+03  0.00000000000E+00 0. -1.
         25    2    1    2    0    0  0.16884850363E+02 -0.38816743403E+02  0.25700844391E+02  0.13445105375E+03  0.12499885885E+03 0.  0.
          2    1    1    2  501    0 -0.50209333364E+02 -0.37903324412E+02 -0.43935635352E+03  0.44383740777E+03  0.00000000000E+00 0. -1.
          1    1    1    2  502    0  0.33324483001E+02  0.76720067815E+02  0.73002203378E+03  0.73479838036E+03  0.00000000000E+00 0. -1.
         22    1    3    3    0    0  0.48878115077E+02  0.41061466619E+01 -0.29756205160E+02  0.57370395845E+02  0.00000000000E+00 0. -1.
         22    1    3    3    0    0 -0.31993264714E+02 -0.42922890065E+02  0.55457049551E+02  0.77080657908E+02  0.00000000000E+00 0. -1.
</event>
<event>
 7    1  0.5676357E-006  0.1675209E+03  0.7818608E-02  0.1276691E+00
          2   -1    0    0  502    0  0.00000000000E+00  0.00000000000E+00  0.52519835656E+03  0.52519835656E+03  0.00000000000E+00 0. -1.
          1   -1    0    0  501    0 -0.00000000000E+00 -0.00000000000E+00 -0.22534490216E+03  0.22534490216E+03  0.00000000000E+00 0. -1.
         25    2    1    2    0    0 -0.10457786211E+03 -0.10776355014E+03  0.31816999620E+02  0.19795753840E+03  0.12500141423E+03 0.  0.
          2    1    1    2  501    0  0.75691079565E+02  0.16237687095E+03 -0.82080179091E+02  0.19705974613E+03  0.00000000000E+00 0. -1.
          1    1    1    2  502    0  0.28886782545E+02 -0.54613320810E+02  0.35011663387E+03  0.35552597419E+03  0.00000000000E+00 0. -1.
         22    1    3    3    0    0  0.17970710648E+02 -0.61919693534E+02  0.80791357658E+01  0.64978976010E+02  0.00000000000E+00 0.  1.
         22    1    3    3    0    0 -0.12254857276E+03 -0.45843856610E+02  0.23737863854E+02  0.13297856239E+03  0.00000000000E+00 0.  1.
</event>
<event>
 7    1  0.5676357E-006  0.9559288E+02  0.7818608E-02  0.1358800E+00
          2   -1    0    0  502    0  0.00000000000E+00  0.00000000000E+00  0.43094235865E+03  0.43094235865E+03  0.00000000000E+00 0. -1.
          1   -1    0    0  501    0 -0.00000000000E+00 -0.00000000000E+00 -0.12936602591E+04  0.12936602591E+04  0.00000000000E+00 0. -1.
         25    2    1    2    0    0 -0.54901344635E+02  0.88876437452E+02  0.66554088870E+02  0.17597572278E+03  0.12499931794E+03 0.  0.
          2    1    1    2  501    0  0.51335270622E+02  0.70684048871E+01 -0.12309494763E+04  0.12320397256E+04  0.00000000000E+00 0. -1.
          1    1    1    2  502    0  0.35660740129E+01 -0.95944842339E+02  0.30167748696E+03  0.31658716935E+03  0.00000000000E+00 0. -1.
         22    1    3    3    0    0 -0.77688858735E+02  0.40948367540E+02 -0.37386381980E+01  0.87899402679E+02  0.00000000000E+00 0.  1.
         22    1    3    3    0    0  0.22787514100E+02  0.47928069912E+02  0.70292727068E+02  0.88076320104E+02  0.00000000000E+00 0.  1.
</event>
<event>
 7    1  0.5676357E-006  0.4395154E+02  0.7818608E-02  0.1541184E+00
          2   -1    0    0  502    0  0.00000000000E+00  0.00000000000E+00  0.95614994368E+03  0.95614994368E+03  0.00000000000E+00 0. -1.
          1   -1    0    0  501    0 -0.00000000000E+00 -0.00000000000E+00 -0.10009983227E+04  0.10009983227E+04  0.00000000000E+00 0. -1.
         25    2    1    2    0    0 -0.26070564527E+02  0.40948591410E+02 -0.72363954295E+02  0.15237506545E+03  0.12500062887E+03 0.  0.
          2    1    1    2  501    0  0.41065527300E+02 -0.15845130935E+02 -0.88785014086E+03  0.88894055951E+03  0.00000000000E+00 0. -1.
          1    1    1    2  502    0 -0.14994962773E+02 -0.25103460474E+02  0.91536571618E+03  0.91583264137E+03  0.00000000000E+00 0. -1.
         22    1    3    3    0    0 -0.31647953510E+01 -0.27997763089E+02  0.20226021046E+02  0.34684039484E+02  0.00000000000E+00 0.  1.
         22    1    3    3    0    0 -0.22905769176E+02  0.68946354499E+02 -0.92589975342E+02  0.11769102597E+03  0.00000000000E+00 0.  1.
</event>
<event>
 7    1  0.5676357E-006  0.8451856E+02  0.7818608E-02  0.1342454E+00
          2   -1    0    0  502    0  0.00000000000E+00  0.00000000000E+00  0.87539789938E+03  0.87539789938E+03  0.00000000000E+00 0. -1.
          1   -1    0    0  501    0 -0.00000000000E+00 -0.00000000000E+00 -0.59990593342E+02  0.59990593342E+02  0.00000000000E+00 0. -1.
         25    2    1    2    0    0  0.30816651933E+02  0.57581657481E+02  0.41163972037E+03  0.43512977258E+03  0.12500138512E+03 0.  0.
          2    1    1    2  501    0 -0.53930546358E+02  0.40377792348E+02 -0.15456708686E+02  0.69121485725E+02  0.00000000000E+00 0. -1.
          1    1    1    2  502    0  0.23113894425E+02 -0.97959449829E+02  0.41922429436E+03  0.43113723442E+03  0.00000000000E+00 0. -1.
         22    1    3    3    0    0  0.67466301159E+02  0.81008230585E+01  0.30035469073E+03  0.30794523112E+03  0.00000000000E+00 0.  1.
         22    1    3    3    0    0 -0.36649649227E+02  0.49480834422E+02  0.11128502964E+03  0.12718454145E+03  0.00000000000E+00 0.  1.
</event>
<event>
 7    1  0.5676357E-006  0.1778388E+03  0.7818608E-02  0.1267608E+00
          2   -1    0    0  502    0  0.00000000000E+00  0.00000000000E+00  0.60711653108E+03  0.60711653108E+03  0.00000000000E+00 0. -1.
          1   -1    0    0  501    0 -0.00000000000E+00 -0.00000000000E+00 -0.90235167303E+03  0.90235167303E+03  0.00000000000E+00 0. -1.
         25    2    1    2    0    0  0.13689331122E+03 -0.70183584339E+01 -0.23515738779E+03  0.29952249197E+03  0.12500276056E+03 0.  0.
          2    1    1    2  501    0 -0.19731324910E+03 -0.12587487283E+02 -0.61777512580E+03  0.64864248177E+03  0.00000000000E+00 0. -1.
          1    1    1    2  502    0  0.60419937879E+02  0.19605845717E+02  0.55769737165E+03  0.56130323037E+03  0.00000000000E+00 0. -1.
         22    1    3    3    0    0  0.11223824520E+03  0.42711665238E+02 -0.20160870660E+03  0.23466525224E+03  0.00000000000E+00 0. -1.
         22    1    3    3    0    0  0.24655066015E+02 -0.49730023672E+02 -0.33548681196E+02  0.64857239724E+02  0.00000000000E+00 0. -1.
</event>
<event>
 7    1  0.5676357E-006  0.3074345E+02  0.7818608E-02  0.1604390E+00
          2   -1    0    0  502    0  0.00000000000E+00  0.00000000000E+00  0.19000608577E+04  0.19000608577E+04  0.00000000000E+00 0. -1.
          1   -1    0    0  501    0 -0.00000000000E+00 -0.00000000000E+00 -0.91230590615E+02  0.91230590615E+02  0.00000000000E+00 0. -1.
         25    2    1    2    0    0  0.15562960329E+01  0.31281559117E+02  0.20779336311E+03  0.24450930484E+03  0.12500304159E+03 0.  0.
          2    1    1    2  501    0 -0.25842960022E+02 -0.16975187837E+02 -0.69468616214E+02  0.76038833654E+02  0.00000000000E+00 0. -1.
          1    1    1    2  502    0  0.24286663989E+02 -0.14306371280E+02  0.16705055202E+04  0.16707433099E+04  0.00000000000E+00 0. -1.
         22    1    3    3    0    0  0.62733444938E+02  0.10070399458E+02  0.91332222627E+02  0.11125858596E+03  0.00000000000E+00 0.  1.
         22    1    3    3    0    0 -0.61177148905E+02  0.21211159659E+02  0.11646114048E+03  0.13325071889E+03  0.00000000000E+00 0.  1.
</event>
<event>
 7    1  0.5676357E-006  0.8398122E+02  0.7818608E-02  0.1343848E+00
          2   -1    0    0  502    0  0.00000000000E+00  0.00000000000E+00  0.11888447140E+03  0.11888447140E+03  0.00000000000E+00 0. -1.
          1   -1    0    0  501    0 -0.00000000000E+00 -0.00000000000E+00 -0.62568372407E+03  0.62568372407E+03  0.00000000000E+00 0. -1.
         25    2    1    2    0    0 -0.48180248345E+01  0.13975110573E+03 -0.14541578656E+03  0.23732533926E+03  0.12499592296E+03 0.  0.
          2    1    1    2  501    0  0.24792498636E+02 -0.75805930571E+02 -0.41427822910E+03  0.42188583551E+03  0.00000000000E+00 0. -1.
          1    1    1    2  502    0 -0.19974473802E+02 -0.63945175163E+02  0.52894762988E+02  0.85357020695E+02  0.00000000000E+00 0. -1.
         22    1    3    3    0    0  0.29072819028E+02  0.63456183630E+02 -0.17302252327E+00  0.69799326529E+02  0.00000000000E+00 0.  1.
         22    1    3    3    0    0 -0.33890843863E+02  0.76294922104E+02 -0.14524276403E+03  0.16752601273E+03  0.00000000000E+00 0.  1.
</event>
<event>
 7    1  0.6535510E-006  0.1036976E+03  0.7818608E-02  0.1337906E+00
          2   -1    0    0  502    0  0.00000000000E+00  0.00000000000E+00  0.15871122625E+04  0.15871122625E+04  0.00000000000E+00 0. -1.
          1   -1    0    0  501    0 -0.00000000000E+00 -0.00000000000E+00 -0.16884970285E+04  0.16884970285E+04  0.00000000000E+00 0. -1.
         25    2    1    2    0    0 -0.42476461273E+02 -0.68815859439E+02 -0.92045458347E+03  0.93241719118E+03  0.12500122362E+03 0.  0.
          2    1    1    2  501    0  0.26322412913E+02  0.12360058177E+03 -0.75630097211E+03  0.76678623726E+03  0.00000000000E+00 0. -1.
          1    1    1    2  502    0  0.16154048360E+02 -0.54784722331E+02  0.15753707896E+04  0.15764058626E+04  0.00000000000E+00 0. -1.
         22    1    3    3    0    0  0.24246423685E+02 -0.42885030943E+02 -0.67342860183E+03  0.67522818121E+03  0.00000000000E+00 0. -1.
         22    1    3    3    0    0 -0.66722884958E+02 -0.25930828497E+02 -0.24702598164E+03  0.25718900997E+03  0.00000000000E+00 0. -1.
</event>
<event>
 7    1  0.5676357E-006  0.1232585E+03  0.7818608E-02  0.1387881E+00
          2   -1    0    0  502    0  0.00000000000E+00  0.00000000000E+00  0.59906205920E+02  0.59906205920E+02  0.00000000000E+00 0. -1.
          1   -1    0    0  501    0 -0.00000000000E+00 -0.00000000000E+00 -0.98807703197E+03  0.98807703197E+03  0.00000000000E+00 0. -1.
         25    2    1    2    0    0 -0.32880004662E+02  0.14364429652E+03 -0.63835446453E+03  0.66695945091E+03  0.12499483246E+03 0.  0.
          2    1    1    2  501    0 -0.82914569012E+01 -0.30521237508E+02 -0.25324016832E+03  0.25520751762E+03  0.00000000000E+00 0. -1.
          1    1    1    2  502    0  0.41171461563E+02 -0.11312305901E+03 -0.36576193195E+02  0.12581626936E+03  0.00000000000E+00 0. -1.
         22    1    3    3    0    0 -0.59475567372E+02  0.71998082448E+02 -0.50232664846E+03  0.51093358545E+03  0.00000000000E+00 0.  1.
         22    1    3    3    0    0  0.26595562710E+02  0.71646214072E+02 -0.13602781608E+03  0.15602586546E+03  0.00000000000E+00 0.  1.
</event>
<event>
 7    1  0.5676357E-006  0.2000589E+03  0.7818608E-02  0.1229131E+00
          2   -1    0    0  502    0  0.00000000000E+00  0.00000000000E+00  0.10620150404E+04  0.10620150404E+04  0.00000000000E+00 0. -1.
          1   -1    0    0  501    0 -0.00000000000E+00 -0.00000000000E+00 -0.68936358003E+03  0.68936358003E+03  0.00000000000E+00 0. -1.
         25    2    1    2    0    0  0.25319848789E+03 -0.61583558333E+02 -0.16434232420E+03  0.33246903910E+03  0.12500101403E+03 0.  0.
          2    1    1    2  501    0 -0.77563762153E+02 -0.29607846154E+02 -0.42690619383E+03  0.43490419644E+03  0.00000000000E+00 0. -1.
          1    1    1    2  502    0 -0.17563472573E+03  0.91191404487E+02  0.96389997835E+03  0.98400538485E+03  0.00000000000E+00 0. -1.
         22    1    3    3    0    0  0.93116779195E+02 -0.40896193355E+02 -0.13400863138E+03  0.16823063480E+03  0.00000000000E+00 0.  1.
         22    1    3    3    0    0  0.16008170869E+03 -0.20687364978E+02 -0.30333692815E+02  0.16423840430E+03  0.00000000000E+00 0.  1.
</event>
<event>
 7    1  0.5676357E-006  0.7327648E+02  0.7818608E-02  0.1446370E+00
          2   -1    0    0  502    0  0.00000000000E+00  0.00000000000E+00  0.12064588674E+04  0.12064588674E+04  0.00000000000E+00 0. -1.
          1   -1    0    0  501    0 -0.00000000000E+00 -0.00000000000E+00 -0.55676777859E+02  0.55676777859E+02  0.00000000000E+00 0. -1.
         25    2    1    2    0    0 -0.31958952196E+02  0.29915296936E+02  0.25738500230E+03  0.28946212024E+03  0.12499992011E+03 0.  0.
          2    1    1    2  501    0  0.59987150391E+02 -0.48910403844E+02 -0.12267128563E+01  0.77409241313E+02  0.00000000000E+00 0. -1.
          1    1    1    2  502    0 -0.28028198194E+02  0.18995106908E+02  0.89462380006E+03  0.89526428367E+03  0.00000000000E+00 0. -1.
         22    1    3    3    0    0 -0.25351306242E+02  0.78479288867E+02  0.14414265823E+03  0.16606864072E+03  0.00000000000E+00 0.  1.
         22    1    3    3    0    0 -0.66076459538E+01 -0.48563991931E+02  0.11324234407E+03  0.12339347952E+03  0.00000000000E+00 0.  1.
</event>
<event>
 7    1  0.5676357E-006  0.9445565E+02  0.7818608E-02  0.1413943E+00
          2   -1    0    0  502    0  0.00000000000E+00  0.00000000000E+00  0.67294855178E+03  0.67294855178E+03  0.00000000000E+00 0. -1.
          1   -1    0    0  501    0 -0.00000000000E+00 -0.00000000000E+00 -0.14122148795E+03  0.14122148795E+03  0.00000000000E+00 0. -1.
         25    2    1    2    0    0 -0.30476422140E+02 -0.11445437492E+03  0.27390543139E+03  0.32353977886E+03  0.12500074766E+03 0.  0.
          2    1    1    2  501    0 -0.65354766674E+01  0.32943133072E+02 -0.10847389880E+03  0.11355416854E+03  0.00000000000E+00 0. -1.
          1    1    1    2  502    0  0.37011898808E+02  0.81511241844E+02  0.36629553124E+03  0.37707609233E+03  0.00000000000E+00 0. -1.
         22    1    3    3    0    0 -0.45158817052E+02 -0.17425871619E+02  0.18464487360E+03  0.19088402003E+03  0.00000000000E+00 0. -1.
         22    1    3    3    0    0  0.14682394912E+02 -0.97028503297E+02  0.89260557797E+02  0.13265575883E+03  0.00000000000E+00 0. -1.
</event>
<event>
 7    1  0.5676357E-006  0.1516439E+03  0.7818608E-02  0.1285656E+00
          2   -1    0    0  502    0  0.00000000000E+00  0.00000000000E+00  0.18005437824E+04  0.18005437824E+04  0.00000000000E+00 0. -1.
          1   -1    0    0  501    0 -0.00000000000E+00 -0.00000000000E+00 -0.42617246413E+03  0.42617246413E+03  0.00000000000E+00 0. -1.
         25    2    1    2    0    0  0.20894001480E+03  0.65489181853E+01 -0.22534621713E+03  0.33182117948E+03  0.12500223783E+03 0.  0.
          2    1    1    2  501    0 -0.59987384819E+02  0.18175259426E+02 -0.13750807494E+03  0.15112014116E+03  0.00000000000E+00 0. -1.
          1    1    1    2  502    0 -0.14895262998E+03 -0.24724177612E+02  0.17372256104E+04  0.17437749259E+04  0.00000000000E+00 0. -1.
         22    1    3    3    0    0  0.63267329514E+02  0.54869676793E+02 -0.11729461117E+03  0.14412308013E+03  0.00000000000E+00 0.  1.
         22    1    3    3    0    0  0.14567268529E+03 -0.48320758608E+02 -0.10805160595E+03  0.18769809935E+03  0.00000000000E+00 0.  1.
</event>
<event>
 7    1  0.5676357E-006  0.4983703E+02  0.7818608E-02  0.1454174E+00
          2   -1    0    0  502    0  0.00000000000E+00  0.00000000000E+00  0.80016197801E+03  0.80016197801E+03  0.00000000000E+00 0. -1.
          1   -1    0    0  501    0 -0.00000000000E+00 -0.00000000000E+00 -0.34885653008E+03  0.34885653008E+03  0.00000000000E+00 0. -1.
         25    2    1    2    0    0 -0.74485990435E+02 -0.36265706168E+02 -0.33798550507E+02  0.15372580217E+03  0.12500366403E+03 0.  0.
          2    1    1    2  501    0  0.46745957976E+02 -0.49013147870E+01 -0.25208741947E+03  0.25643181263E+03  0.00000000000E+00 0. -1.
          1    1    1    2  502    0  0.27740032460E+02  0.41167020955E+02  0.73719141790E+03  0.73886089330E+03  0.00000000000E+00 0. -1.
         22    1    3    3    0    0 -0.31052061669E+02 -0.76463022408E+02 -0.44230168804E+02  0.93632965147E+02  0.00000000000E+00 0.  1.
         22    1    3    3    0    0 -0.43433928766E+02  0.40197316241E+02  0.10431618297E+02  0.60092837022E+02  0.00000000000E+00 0.  1.
</event>
<event>
 7    1  0.5676357E-006  0.7921928E+02  0.7818608E-02  0.1357753E+00
          2   -1    0    0  502    0  0.00000000000E+00  0.00000000000E+00  0.16863866248E+04  0.16863866248E+04  0.00000000000E+00 0. -1.
          1   -1    0    0  501    0 -0.00000000000E+00 -0.00000000000E+00 -0.48573777548E+03  0.48573777548E+03  0.00000000000E+00 0. -1.
         25    2    1    2    0    0 -0.19315648023E+02 -0.63330708232E+02  0.15063715592E+04  0.15129983937E+04  0.12499996904E+03 0.  0.
          2    1    1    2  501    0  0.73193205018E+02  0.30516508041E+02 -0.47338890521E+03  0.47998495612E+03  0.00000000000E+00 0. -1.
          1    1    1    2  502    0 -0.53877556995E+02  0.32814200192E+02  0.16766619530E+03  0.17914105037E+03  0.00000000000E+00 0. -1.
         22    1    3    3    0    0 -0.58621935184E+02 -0.18495164989E+02  0.37064624547E+03  0.37570898538E+03  0.00000000000E+00 0. -1.
         22    1    3    3    0    0  0.39306287160E+02 -0.44835543244E+02  0.11357253137E+04  0.11372894084E+04  0.00000000000E+00 0. -1.
</event>
<event>
 7    1  0.5676357E-006  0.5826981E+02  0.7818608E-02  0.1424200E+00
          2   -1    0    0  502    0  0.00000000000E+00  0.00000000000E+00  0.38603503806E+03  0.38603503806E+03  0.00000000000E+00 0. -1.
          1   -1    0    0  501    0 -0.00000000000E+00 -0.00000000000E+00 -0.61424489086E+03  0.61424489086E+03  0.00000000000E+00 0. -1.
         25    2    1    2    0    0  0.36726416204E+02 -0.10127369089E+03 -0.18339749822E+03  0.24670700030E+03  0.12499804611E+03 0.  0.
          2    1    1    2  501    0 -0.20922147993E+02  0.45749581673E+02 -0.39523658230E+03  0.39842529599E+03  0.00000000000E+00 0. -1.
          1    1    1    2  502    0 -0.15804268210E+02  0.55524109216E+02  0.35042422771E+03  0.35514763263E+03  0.00000000000E+00 0. -1.
         22    1    3    3    0    0 -0.34992599715E+02 -0.50093054651E+02 -0.26165830604E+02  0.66471398739E+02  0.00000000000E+00 0.  1.
         22    1    3    3    0    0  0.71719015919E+02 -0.51180636238E+02 -0.15723166761E+03  0.18023560156E+03  0.00000000000E+00 0.  1.
</event>
<event>
 7    1  0.5676357E-006  0.5812234E+02  0.7818608E-02  0.1447751E+00
          2   -1    0    0  502    0  0.00000000000E+00  0.00000000000E+00  0.81185287018E+03  0.81185287018E+03  0.00000000000E+00 0. -1.
          1   -1    0    0  501    0 -0.00000000000E+00 -0.00000000000E+00 -0.56058541779E+02  0.56058541779E+02  0.00000000000E+00 0. -1.
         25    2    1    2    0    0 -0.64672028502E+02  0.39389628217E+02  0.26271464951E+03  0.30062996821E+03  0.12500150656E+03 0.  0.
          2    1    1    2  501    0  0.40269787886E+02  0.12790233044E+02 -0.22925432164E+02  0.48071002877E+02  0.00000000000E+00 0. -1.
          1    1    1    2  502    0  0.24402240616E+02 -0.52179861261E+02  0.51600511106E+03  0.51921044087E+03  0.00000000000E+00 0. -1.
         22    1    3    3    0    0 -0.11604233042E+02  0.63826900237E+02  0.21687350686E+03  0.22636839310E+03  0.00000000000E+00 0.  1.
         22    1    3    3    0    0 -0.53067795460E+02 -0.24437272020E+02  0.45841142647E+02  0.74261575111E+02  0.00000000000E+00 0.  1.
</event>
<event>
 7    1  0.5676357E-006  0.1380284E+03  0.7818608E-02  0.1430492E+00
          2   -1    0    0  502    0  0.00000000000E+00  0.00000000000E+00  0.82046861899E+03  0.82046861899E+03  0.00000000000E+00 0. -1.
          1   -1    0    0  501    0 -0.00000000000E+00 -0.00000000000E+00 -0.62884539970E+03  0.62884539970E+03  0.00000000000E+00 0. -1.
         25    2    1    2    0    0 -0.11500186016E+02  0.15652809991E+03 -0.16411358922E+03  0.25921179632E+03  0.12499673932E+03 0.  0.
          2    1    1    2  501    0 -0.37586694655E+01 -0.19892649468E+02 -0.41081762024E+03  0.41131613414E+03  0.00000000000E+00 0. -1.
          1    1    1    2  502    0  0.15258855481E+02 -0.13663545045E+03  0.76655442876E+03  0.77878608824E+03  0.00000000000E+00 0. -1.
         22    1    3    3    0    0  0.38513951422E+02  0.46350691335E+02 -0.11258410247E+03  0.12769843840E+03  0.00000000000E+00 0.  1.
         22    1    3    3    0    0 -0.50014137437E+02  0.11017740858E+03 -0.51529486748E+02  0.13151335791E+03  0.00000000000E+00 0.  1.
</event>
<event>
 7    1  0.5676357E-006  0.8695498E+02  0.7818608E-02  0.1336991E+00
          2   -1    0    0  502    0  0.00000000000E+00  0.00000000000E+00  0.18735740098E+04  0.18735740098E+04  0.00000000000E+00 0. -1.
          1   -1    0    0  501    0 -0.00000000000E+00 -0.00000000000E+00 -0.13001297031E+04  0.13001297031E+04  0.00000000000E+00 0. -1.
         25    2    1    2    0    0 -0.11165954351E+03 -0.89060807860E+02  0.10880024034E+04  0.11044354314E+04  0.12501484371E+03 0.  0.
          2    1    1    2  501    0  0.49250699994E+02  0.47836939283E+02 -0.12891984487E+04  0.12910254235E+04  0.00000000000E+00 0. -1.
          1    1    1    2  502    0  0.62408843519E+02  0.41223868577E+02  0.77464035197E+03  0.77824285798E+03  0.00000000000E+00 0. -1.
         22    1    3    3    0    0 -0.39113727916E+02  0.89053259132E+01  0.60353595475E+03  0.60486761958E+03  0.00000000000E+00 0. -1.
         22    1    3    3    0    0 -0.72545815598E+02 -0.97966133773E+02  0.48446644862E+03  0.49956781178E+03  0.00000000000E+00 0. -1.
</event>
<event>
 7    1  0.5676357E-006  0.7278780E+02  0.7818608E-02  0.1486837E+00
          2   -1    0    0  502    0  0.00000000000E+00  0.00000000000E+00  0.56188266888E+03  0.56188266888E+03  0.00000000000E+00 0. -1.
          1   -1    0    0  501    0 -0.00000000000E+00 -0.00000000000E+00 -0.44401532527E+03  0.44401532527E+03  0.00000000000E+00 0. -1.
         25    2    1    2    0    0 -0.52450472032E+02  0.41382350902E+02 -0.68842382434E+02  0.15756061387E+03  0.12499008937E+03 0.  0.
          2    1    1    2  501    0  0.70027136596E+02 -0.22946241523E+02 -0.32639020088E+03  0.33460557839E+03  0.00000000000E+00 0. -1.
          1    1    1    2  502    0 -0.17576664564E+02 -0.18436109379E+02  0.51309992692E+03  0.51373180189E+03  0.00000000000E+00 0. -1.
         22    1    3    3    0    0 -0.61183399806E+02 -0.21962372276E+02 -0.67342777584E+02  0.93599166131E+02  0.00000000000E+00 0.  1.
         22    1    3    3    0    0  0.87329277741E+01  0.63344723178E+02 -0.14996048505E+01  0.63961447737E+02  0.00000000000E+00 0.  1.
</event>
<event>
 7    1  0.5676357E-006  0.9612581E+02  0.7818608E-02  0.1306607E+00
          2   -1    0    0  502    0  0.00000000000E+00  0.00000000000E+00  0.78461214624E+03  0.78461214624E+03  0.00000000000E+00 0. -1.
          1   -1    0    0  501    0 -0.00000000000E+00 -0.00000000000E+00 -0.37464705275E+03  0.37464705275E+03  0.00000000000E+00 0. -1.
         25    2    1    2    0    0  0.46936394758E+02 -0.16672586471E+02  0.95729973925E+02  0.16513947038E+03  0.12500326586E+03 0.  0.
          2    1    1    2  501    0  0.42231743903E+02  0.69609030461E+02 -0.33086646334E+03  0.34073678093E+03  0.00000000000E+00 0. -1.
          1    1    1    2  502    0 -0.89168138661E+02 -0.52936443990E+02  0.64510158291E+03  0.65338294769E+03  0.00000000000E+00 0. -1.
         22    1    3    3    0    0  0.57529756094E+02  0.32154290662E+00  0.12035585658E+03  0.13339905711E+03  0.00000000000E+00 0.  1.
         22    1    3    3    0    0 -0.10593361335E+02 -0.16994129377E+02 -0.24625882653E+02  0.31740413263E+02  0.00000000000E+00 0.  1.
</event>
<event>
 7    1  0.5676357E-006  0.1067042E+03  0.7818608E-02  0.1462447E+00
          2   -1    0    0  502    0  0.00000000000E+00  0.00000000000E+00  0.45234142154E+03  0.45234142154E+03  0.00000000000E+00 0. -1.
          1   -1    0    0  501    0 -0.00000000000E+00 -0.00000000000E+00 -0.10139527997E+04  0.10139527997E+04  0.00000000000E+00 0. -1.
         25    2    1    2    0    0  0.76097093197E+02  0.10061664594E+03 -0.57088783520E+03  0.59787304847E+03  0.12499913873E+03 0.  0.
          2    1    1    2  501    0 -0.72867372667E+01 -0.19342343246E+02 -0.42285591015E+03  0.42336077231E+03  0.00000000000E+00 0. -1.
          1    1    1    2  502    0 -0.68810355930E+02 -0.81274302692E+02  0.43213236714E+03  0.44506040050E+03  0.00000000000E+00 0. -1.
         22    1    3    3    0    0  0.33828347536E+02  0.52705776719E+02 -0.74220209500E+02  0.97112797791E+02  0.00000000000E+00 0.  1.
         22    1    3    3    0    0  0.42268745660E+02  0.47910869219E+02 -0.49666762570E+03  0.50076025068E+03  0.00000000000E+00 0.  1.
</event>
<event>
 7    1  0.5676357E-006  0.7693287E+02  0.7818608E-02  0.1442354E+00
          2   -1    0    0  502    0  0.00000000000E+00  0.00000000000E+00  0.90664263097E+03  0.90664263097E+03  0.00000000000E+00 0. -1.
          1   -1    0    0  501    0 -0.00000000000E+00 -0.00000000000E+00 -0.18630827698E+04  0.18630827698E+04  0.00000000000E+00 0. -1.
         25    2    1    2    0    0  0.11081779932E+02 -0.10444223351E+03 -0.11432658640E+03  0.19931622127E+03  0.12500160687E+03 0.  0.
          2    1    1    2  501    0 -0.17754314639E+02  0.28084111457E+02 -0.17043994627E+04  0.17047232800E+04  0.00000000000E+00 0. -1.
          1    1    1    2  502    0  0.66725347074E+01  0.76358122054E+02  0.86228591025E+03  0.86568589947E+03  0.00000000000E+00 0. -1.
         22    1    3    3    0    0  0.52074171764E+02 -0.59366928449E+02 -0.11364075160E+03  0.13838486905E+03  0.00000000000E+00 0.  1.
         22    1    3    3    0    0 -0.40992391832E+02 -0.45075305062E+02 -0.68583479805E+00  0.60931352224E+02  0.00000000000E+00 0.  1.
</event>
<event>
 7    1  0.6786526E-006  0.6333760E+02  0.7818608E-02  0.1441342E+00
          2   -1    0    0  502    0  0.00000000000E+00  0.00000000000E+00  0.11318085855E+04  0.11318085855E+04  0.00000000000E+00 0. -1.
          1   -1    0    0  501    0 -0.00000000000E+00 -0.00000000000E+00 -0.54388408922E+03  0.54388408922E+03  0.00000000000E+00 0. -1.
         25    2    1    2    0    0  0.48160376007E+02 -0.45076706112E+02 -0.21696993091E+03  0.25894530976E+03  0.12500156509E+03 0.  0.
          2    1    1    2  501    0 -0.36810659847E+02 -0.17275586195E+02 -0.30366617938E+03  0.30637659678E+03  0.00000000000E+00 0. -1.
          1    1    1    2  502    0 -0.11349716161E+02  0.62352292307E+02  0.11085606066E+04  0.11103707682E+04  0.00000000000E+00 0. -1.
         22    1    3    3    0    0  0.50996594187E+01 -0.30731639332E+02  0.57238619884E+01  0.31673376490E+02  0.00000000000E+00 0. -1.
         22    1    3    3    0    0  0.43060716589E+02 -0.14345066780E+02 -0.22269379290E+03  0.22727193327E+03  0.00000000000E+00 0. -1.
</event>
<event>
 7    1  0.5832908E-006  0.6302446E+02  0.7818608E-02  0.1435888E+00
          2   -1    0    0  502    0  0.00000000000E+00  0.00000000000E+00  0.34521398362E+03  0.34521398362E+03  0.00000000000E+00 0. -1.
          1   -1    0    0  501    0 -0.00000000000E+00 -0.00000000000E+00 -0.16658088287E+04  0.16658088287E+04  0.00000000000E+00 0. -1.
         25    2    1    2    0    0 -0.39721779113E+01  0.24317406893E+02 -0.17997343615E+03  0.22050634848E+03  0.12500199007E+03 0.  0.
          2    1    1    2  501    0 -0.31708393263E+02  0.28400976057E+02 -0.14621385194E+04  0.14627580414E+04  0.00000000000E+00 0. -1.
          1    1    1    2  502    0  0.35680571175E+02 -0.52718382950E+02  0.32151711057E+03  0.32775842239E+03  0.00000000000E+00 0. -1.
         22    1    3    3    0    0  0.44278953804E+02 -0.14256843631E+02 -0.13849387496E+03  0.14609735364E+03  0.00000000000E+00 0.  1.
         22    1    3    3    0    0 -0.48251131715E+02  0.38574250523E+02 -0.41479561191E+02  0.74408994832E+02  0.00000000000E+00 0.  1.
</event>
<event>
 7    1  0.5676357E-006  0.1631983E+03  0.7818608E-02  0.1251929E+00
          2   -1    0    0  502    0  0.00000000000E+00  0.00000000000E+00  0.50008111768E+03  0.50008111768E+03  0.00000000000E+00 0. -1.
          1   -1    0    0  501    0 -0.00000000000E+00 -0.00000000000E+00 -0.54529362154E+03  0.54529362154E+03  0.00000000000E+00 0. -1.
         25    2    1    2    0    0  0.91088225381E+02  0.19335704672E+03  0.23755466236E+03  0.34313706043E+03  0.12500724905E+03 0.  0.
          2    1    1    2  501    0 -0.60959684365E+01 -0.80525575893E+02 -0.46483407757E+03  0.47179683008E+03  0.00000000000E+00 0. -1.
          1    1    1    2  502    0 -0.84992256945E+02 -0.11283147083E+03  0.18206691134E+03  0.23044084871E+03  0.00000000000E+00 0. -1.
         22    1    3    3    0    0  0.68366324740E+02  0.94971045964E+02  0.20674675911E+03  0.23756615149E+03  0.00000000000E+00 0. -1.
         22    1    3    3    0    0  0.22721900641E+02  0.98386000755E+02  0.30807903252E+02  0.10557090895E+03  0.00000000000E+00 0. -1.
</event>
<event>
 7    1  0.5676357E-006  0.5782910E+02  0.7818608E-02  0.1414925E+00
          2   -1    0    0  502    0  0.00000000000E+00  0.00000000000E+00  0.29934724872E+03  0.29934724872E+03  0.00000000000E+00 0. -1.
          1   -1    0    0  501    0 -0.00000000000E+00 -0.00000000000E+00 -0.84725099495E+03  0.84725099495E+03  0.00000000000E+00 0. -1.
         25    2    1    2    0    0 -0.97429500091E+02 -0.39488029529E+02 -0.38542617770E+03  0.41860388558E+03  0.12499625034E+03 0.  0.
          2    1    1    2  501    0  0.54425516465E+02  0.12784435051E+01 -0.44061737170E+03  0.44396783612E+03  0.00000000000E+00 0. -1.
          1    1    1    2  502    0  0.43003983626E+02  0.38209586024E+02  0.27813980317E+03  0.28402652197E+03  0.00000000000E+00 0. -1.
         22    1    3    3    0    0 -0.62472230874E+02 -0.20624566294E+01 -0.35186668774E+03  0.35737543186E+03  0.00000000000E+00 0. -1.
         22    1    3    3    0    0 -0.34957269218E+02 -0.37425572900E+02 -0.33559489962E+02  0.61228453717E+02  0.00000000000E+00 0. -1.
</event>
<event>
 7    1  0.5676357E-006  0.7447386E+02  0.7818608E-02  0.1503091E+00
          2   -1    0    0  502    0  0.00000000000E+00  0.00000000000E+00  0.34002103209E+04  0.34002103209E+04  0.00000000000E+00 0. -1.
          1   -1    0    0  501    0 -0.00000000000E+00 -0.00000000000E+00 -0.55359027877E+03  0.55359027877E+03  0.00000000000E+00 0. -1.
         25    2    1    2    0    0  0.49876055187E+02 -0.45026188570E+02  0.21936458022E+03  0.26126901704E+03  0.12500280667E+03 0.  0.
          2    1    1    2  501    0 -0.11496731530E+02 -0.19046587133E+02 -0.53196419029E+03  0.53242919442E+03  0.00000000000E+00 0. -1.
          1    1    1    2  502    0 -0.38379323657E+02  0.64072775703E+02  0.31592196522E+04  0.31601023882E+04  0.00000000000E+00 0. -1.
         22    1    3    3    0    0  0.43312973538E+02  0.42416619202E+01  0.81393077172E+01  0.44274752430E+02  0.00000000000E+00 0.  1.
         22    1    3    3    0    0  0.65630816486E+01 -0.49267850490E+02  0.21122527250E+03  0.21699426461E+03  0.00000000000E+00 0.  1.
</event>
<event>
 7    1  0.5676357E-006  0.1057430E+03  0.7818608E-02  0.1374598E+00
          2   -1    0    0  502    0  0.00000000000E+00  0.00000000000E+00  0.19765493709E+04  0.19765493709E+04  0.00000000000E+00 0. -1.
          1   -1    0    0  501    0 -0.00000000000E+00 -0.00000000000E+00 -0.10279349129E+04  0.10279349129E+04  0.00000000000E+00 0. -1.
         25    2    1    2    0    0  0.11605105207E+03  0.65664035197E+02  0.14116010515E+03  0.23093479957E+03  0.12500037664E+03 0.  0.
          2    1    1    2  501    0 -0.14734916488E+02 -0.38342428626E+02 -0.98107995720E+03  0.98193947982E+03  0.00000000000E+00 0. -1.
          1    1    1    2  502    0 -0.10131613558E+03 -0.27321606572E+02  0.17885343101E+04  0.17916100044E+04  0.00000000000E+00 0. -1.
         22    1    3    3    0    0 -0.81003199204E+00  0.15786603065E+02  0.94133221231E+02  0.95451224862E+02  0.00000000000E+00 0. -1.
         22    1    3    3    0    0  0.11686108406E+03  0.49877432132E+02  0.47026883918E+02  0.13548357471E+03  0.00000000000E+00 0. -1.
</event>
<event>
 7    1  0.5676357E-006  0.4020325E+02  0.7818608E-02  0.1546347E+00
          2   -1    0    0  502    0  0.00000000000E+00  0.00000000000E+00  0.28876721313E+03  0.28876721313E+03  0.00000000000E+00 0. -1.
          1   -1    0    0  501    0 -0.00000000000E+00 -0.00000000000E+00 -0.56851787932E+02  0.56851787932E+02  0.00000000000E+00 0. -1.
         25    2    1    2    0    0  0.37364610851E+02  0.13136478190E+02  0.12772807642E+03  0.18303661239E+03  0.12497703295E+03 0.  0.
          2    1    1    2  501    0 -0.19169261654E+02  0.24255563703E+02 -0.16421124225E+02  0.35006374901E+02  0.00000000000E+00 0. -1.
          1    1    1    2  502    0 -0.18195349197E+02 -0.37392041893E+02  0.12060847301E+03  0.12757601378E+03  0.00000000000E+00 0. -1.
         22    1    3    3    0    0  0.11760320650E+02  0.61627260720E+02  0.26902247536E+02  0.68263865464E+02  0.00000000000E+00 0. -1.
         22    1    3    3    0    0  0.25604290200E+02 -0.48490782530E+02  0.10082582888E+03  0.11477274692E+03  0.00000000000E+00 0. -1.
</event>
<event>
 7    1  0.5676357E-006  0.6022990E+02  0.7818608E-02  0.1532825E+00
          2   -1    0    0  502    0  0.00000000000E+00  0.00000000000E+00  0.11555725084E+04  0.11555725084E+04  0.00000000000E+00 0. -1.
          1   -1    0    0  501    0 -0.00000000000E+00 -0.00000000000E+00 -0.84511419473E+03  0.84511419473E+03  0.00000000000E+00 0. -1.
         25    2    1    2    0    0 -0.76373667189E+02  0.31233093062E+02  0.13029584996E+03  0.19852072902E+03  0.12500011277E+03 0.  0.
          2    1    1    2  501    0  0.56275119535E+02 -0.21038925102E+02 -0.80976066022E+03  0.81198636213E+03  0.00000000000E+00 0. -1.
          1    1    1    2  502    0  0.20098547654E+02 -0.10194167960E+02  0.98992312395E+03  0.99017961199E+03  0.00000000000E+00 0. -1.
         22    1    3    3    0    0 -0.31732633852E+02  0.77928262575E+02  0.62034232047E+02  0.10453717092E+03  0.00000000000E+00 0. -1.
         22    1    3    3    0    0 -0.44641033336E+02 -0.46695169513E+02  0.68261617912E+02  0.93983558100E+02  0.00000000000E+00 0. -1.
</event>
<event>
 7    1  0.5676357E-006  0.7762981E+02  0.7818608E-02  0.1429507E+00
          2   -1    0    0  502    0  0.00000000000E+00  0.00000000000E+00  0.20643013916E+04  0.20643013916E+04  0.00000000000E+00 0. -1.
          1   -1    0    0  501    0 -0.00000000000E+00 -0.00000000000E+00 -0.23519161676E+03  0.23519161676E+03  0.00000000000E+00 0. -1.
         25    2    1    2    0    0  0.98228836664E+02 -0.10428034099E+02 -0.31627996007E+02  0.16242458255E+03  0.12499506646E+03 0.  0.
          2    1    1    2  501    0 -0.68310051500E+02  0.30922787517E+02 -0.12781434298E+03  0.14818565448E+03  0.00000000000E+00 0. -1.
          1    1    1    2  502    0 -0.29918785164E+02 -0.20494753418E+02  0.19885521139E+04  0.19888827714E+04  0.00000000000E+00 0. -1.
         22    1    3    3    0    0 -0.10515797592E+02 -0.88430253072E+00 -0.50545103908E+02  0.51634983480E+02  0.00000000000E+00 0.  1.
         22    1    3    3    0    0  0.10874463426E+03 -0.95437315685E+01  0.18917107901E+02  0.11078959907E+03  0.00000000000E+00 0.  1.
</event>
<event>
 7    1  0.5676357E-006  0.6372474E+02  0.7818608E-02  0.1415258E+00
          2   -1    0    0  502    0  0.00000000000E+00  0.00000000000E+00  0.13174259612E+04  0.13174259612E+04  0.00000000000E+00 0. -1.
          1   -1    0    0  501    0 -0.00000000000E+00 -0.00000000000E+00 -0.15142735436E+03  0.15142735436E+03  0.00000000000E+00 0. -1.
         25    2    1    2    0    0  0.62119315636E+02 -0.37678465150E+02  0.20677083998E+03  0.25230401624E+03  0.12499864092E+03 0.  0.
          2    1    1    2  501    0 -0.18821145947E+02  0.61204223187E+02 -0.12009660272E+03  0.13610064826E+03  0.00000000000E+00 0. -1.
          1    1    1    2  502    0 -0.43298169689E+02 -0.23525758037E+02  0.10793243695E+04  0.10804486510E+04  0.00000000000E+00 0. -1.
         22    1    3    3    0    0  0.15582193310E+02 -0.79556784654E+02  0.10252841111E+03  0.13070639547E+03  0.00000000000E+00 0.  1.
         22    1    3    3    0    0  0.46537122327E+02  0.41878319504E+02  0.10424242888E+03  0.12159762077E+03  0.00000000000E+00 0.  1.
</event>
<event>
 7    1  0.5676357E-006  0.7730473E+02  0.7818608E-02  0.1356581E+00
          2   -1    0    0  502    0  0.00000000000E+00  0.00000000000E+00  0.12270433118E+04  0.12270433118E+04  0.00000000000E+00 0. -1.
          1   -1    0    0  501    0 -0.00000000000E+00 -0.00000000000E+00 -0.85045704144E+02  0.85045704144E+02  0.00000000000E+00 0. -1.
         25    2    1    2    0    0  0.72391817597E+02  0.66482523116E+02  0.12568440599E+03  0.20268719994E+03  0.12500011990E+03 0.  0.
          2    1    1    2  501    0 -0.77125630833E+02 -0.13655268034E+01 -0.12823384158E+02  0.78196334799E+02  0.00000000000E+00 0. -1.
          1    1    1    2  502    0  0.47338132358E+01 -0.65116996312E+02  0.10291365859E+04  0.10312054812E+04  0.00000000000E+00 0. -1.
         22    1    3    3    0    0 -0.69665119645E+00  0.78590350201E+02  0.36241498040E+02  0.86546950540E+02  0.00000000000E+00 0.  1.
         22    1    3    3    0    0  0.73088468793E+02 -0.12107827085E+02  0.89442907954E+02  0.11614024940E+03  0.00000000000E+00 0.  1.
</event>
<event>
 7    1  0.6483360E-006  0.1388480E+03  0.7818608E-02  0.1216584E+00
          2   -1    0    0  502    0  0.00000000000E+00  0.00000000000E+00  0.25925577727E+04  0.25925577727E+04  0.00000000000E+00 0. -1.
          1   -1    0    0  501    0 -0.00000000000E+00 -0.00000000000E+00 -0.17384741338E+04  0.17384741338E+04  0.00000000000E+00 0. -1.
         25    2    1    2    0    0 -0.13092302927E+02  0.86638160000E+02 -0.23223161654E+03  0.27791051309E+03  0.12500060160E+03 0.  0.
          2    1    1    2  501    0 -0.12354204612E+03 -0.57764097280E+02 -0.14783648050E+04  0.14846419854E+04  0.00000000000E+00 0. -1.
          1    1    1    2  502    0  0.13663434904E+03 -0.28874062720E+02  0.25646800604E+04  0.25684794080E+04  0.00000000000E+00 0. -1.
         22    1    3    3    0    0  0.39507806090E+02 -0.78100939210E+01 -0.36716300408E+02  0.54497257039E+02  0.00000000000E+00 0.  1.
         22    1    3    3    0    0 -0.52600109017E+02  0.94448253920E+02 -0.19551531614E+03  0.22341325606E+03  0.00000000000E+00 0.  1.
</event>
<event>
 7    1  0.5676357E-006  0.1763398E+03  0.7818608E-02  0.1213518E+00
          2   -1    0    0  502    0  0.00000000000E+00  0.00000000000E+00  0.21363941135E+04  0.21363941135E+04  0.00000000000E+00 0. -1.
          1   -1    0    0  501    0 -0.00000000000E+00 -0.00000000000E+00 -0.13134476100E+03  0.13134476100E+03  0.00000000000E+00 0. -1.
         25    2    1    2    0    0  0.12552942584E+03  0.11001359497E+02  0.20934371071E+03  0.27446018955E+03  0.12499975908E+03 0.  0.
          2    1    1    2  501    0 -0.18712080479E+03  0.81254709090E+02  0.10121412809E+02  0.20425221255E+03  0.00000000000E+00 0. -1.
          1    1    1    2  502    0  0.61591378946E+02 -0.92256068587E+02  0.17855842289E+04  0.17890264724E+04  0.00000000000E+00 0. -1.
         22    1    3    3    0    0  0.91955167114E+02  0.46859037327E+02  0.64957649548E+02  0.12194678500E+03  0.00000000000E+00 0. -1.
         22    1    3    3    0    0  0.33574258730E+02 -0.35857677830E+02  0.14438606116E+03  0.15251340454E+03  0.00000000000E+00 0. -1.
</event>
<event>
 7    1  0.5676357E-006  0.6415449E+02  0.7818608E-02  0.1497899E+00
          2   -1    0    0  502    0  0.00000000000E+00  0.00000000000E+00  0.14672346814E+04  0.14672346814E+04  0.00000000000E+00 0. -1.
          1   -1    0    0  501    0 -0.00000000000E+00 -0.00000000000E+00 -0.54826046622E+03  0.54826046622E+03  0.00000000000E+00 0. -1.
         25    2    1    2    0    0  0.78171444149E+02 -0.44358035652E+02  0.11331358144E+04  0.11435469105E+04  0.12499741072E+03 0.  0.
          2    1    1    2  501    0 -0.58518487062E+02  0.26191249585E+02 -0.54061314339E+03  0.54440147473E+03  0.00000000000E+00 0. -1.
          1    1    1    2  502    0 -0.19652957087E+02  0.18166786067E+02  0.32645154422E+03  0.32754676241E+03  0.00000000000E+00 0. -1.
         22    1    3    3    0    0  0.90741678867E+02 -0.14445021539E+02  0.43213726614E+03  0.44179783580E+03  0.00000000000E+00 0. -1.
         22    1    3    3    0    0 -0.12570234718E+02 -0.29913014113E+02  0.70099854825E+03  0.70174907471E+03  0.00000000000E+00 0. -1.
</event>
<event>
 7    1  0.5676357E-006  0.7801371E+02  0.7818608E-02  0.1347960E+00
          2   -1    0    0  502    0  0.00000000000E+00  0.00000000000E+00  0.25189871770E+03  0.25189871770E+03  0.00000000000E+00 0. -1.
          1   -1    0    0  501    0 -0.00000000000E+00 -0.00000000000E+00 -0.49900473761E+03  0.49900473761E+03  0.00000000000E+00 0. -1.
         25    2    1    2    0    0 -0.28044156288E+02  0.51995042696E+02  0.11451110417E+03  0.17950839927E+03  0.12498205177E+03 0.  0.
          2    1    1    2  501    0 -0.39590080558E+02 -0.68486537883E+02 -0.45112139961E+03  0.45800469161E+03  0.00000000000E+00 0. -1.
          1    1    1    2  502    0  0.67634236845E+02  0.16491495186E+02  0.89504275529E+02  0.11339036443E+03  0.00000000000E+00 0. -1.
         22    1    3    3    0    0  0.46679179695E+02  0.11050495599E+02  0.19214244625E+02  0.51674427588E+02  0.00000000000E+00 0. -1.
         22    1    3    3    0    0 -0.74723335983E+02  0.40944547097E+02  0.95296859542E+02  0.12783397168E+03  0.00000000000E+00 0. -1.
</event>
<event>
 7    1  0.5676357E-006  0.7925833E+02  0.7818608E-02  0.1371039E+00
          2   -1    0    0  502    0  0.00000000000E+00  0.00000000000E+00  0.12312005776E+03  0.12312005776E+03  0.00000000000E+00 0. -1.
          1   -1    0    0  501    0 -0.00000000000E+00 -0.00000000000E+00 -0.63865299034E+03  0.63865299034E+03  0.00000000000E+00 0. -1.
         25    2    1    2    0    0 -0.94664117651E+02  0.86834852269E+02 -0.23985600790E+03  0.29942638230E+03  0.12499466850E+03 0.  0.
          2    1    1    2  501    0  0.47719291790E+02 -0.55514898085E+02 -0.35640697040E+03  0.36384744505E+03  0.00000000000E+00 0. -1.
          1    1    1    2  502    0  0.46944825861E+02 -0.31319954184E+02  0.80730045728E+02  0.98499220751E+02  0.00000000000E+00 0. -1.
         22    1    3    3    0    0 -0.67285847982E+02 -0.12014770581E+02 -0.53853124261E+02  0.87016659574E+02  0.00000000000E+00 0. -1.
         22    1    3    3    0    0 -0.27378269669E+02  0.98849622850E+02 -0.18600288364E+03  0.21240972273E+03  0.00000000000E+00 0. -1.
</event>
<event>
 7    1  0.5676357E-006  0.1273013E+03  0.7818608E-02  0.1343866E+00
          2   -1    0    0  502    0  0.00000000000E+00  0.00000000000E+00  0.53667141693E+03  0.53667141693E+03  0.00000000000E+00 0. -1.
          1   -1    0    0  501    0 -0.00000000000E+00 -0.00000000000E+00 -0.25100792637E+03  0.25100792637E+03  0.00000000000E+00 0. -1.
         25    2    1    2    0    0  0.13552403665E+03  0.27037034800E+02  0.14628799584E+03  0.23690511252E+03  0.12500435533E+03 0.  0.
          2    1    1    2  501    0 -0.12582497849E+03  0.16073849078E+02 -0.18449981389E+03  0.22389835900E+03  0.00000000000E+00 0. -1.
          1    1    1    2  502    0 -0.96990581573E+01 -0.43110883878E+02  0.32387530859E+03  0.32687587178E+03  0.00000000000E+00 0. -1.
         22    1    3    3    0    0  0.48969863795E+02  0.36411769977E+02 -0.61760336543E+01  0.61335209665E+02  0.00000000000E+00 0.  1.
         22    1    3    3    0    0  0.86554172855E+02 -0.93747351777E+01  0.15246402950E+03  0.17556990286E+03  0.00000000000E+00 0.  1.
</event>
<event>
 7    1  0.5676357E-006  0.3167100E+02  0.7818608E-02  0.1655437E+00
          2   -1    0    0  502    0  0.00000000000E+00  0.00000000000E+00  0.68143769718E+03  0.68143769718E+03  0.00000000000E+00 0. -1.
          1   -1    0    0  501    0 -0.00000000000E+00 -0.00000000000E+00 -0.65671731875E+02  0.65671731875E+02  0.00000000000E+00 0. -1.
         25    2    1    2    0    0  0.48873818436E+02 -0.40879371831E+01  0.87455933878E+02  0.16024561089E+03  0.12499901632E+03 0.  0.
          2    1    1    2  501    0 -0.29181839925E+02  0.92510429276E+01 -0.21033915636E+02  0.37142794505E+02  0.00000000000E+00 0. -1.
          1    1    1    2  502    0 -0.19691978511E+02 -0.51631057445E+01  0.54934394707E+03  0.54972102366E+03  0.00000000000E+00 0. -1.
         22    1    3    3    0    0  0.31186944401E+02  0.13732721498E+02 -0.26744066831E+02  0.43318105354E+02  0.00000000000E+00 0.  1.
         22    1    3    3    0    0  0.17686874035E+02 -0.17820658681E+02  0.11420000071E+03  0.11692750554E+03  0.00000000000E+00 0.  1.
</event>
<event>
 7    1  0.5676357E-006  0.1142911E+03  0.7818608E-02  0.1443898E+00
          2   -1    0    0  502    0  0.00000000000E+00  0.00000000000E+00  0.17886622743E+04  0.17886622743E+04  0.00000000000E+00 0. -1.
          1   -1    0    0  501    0 -0.00000000000E+00 -0.00000000000E+00 -0.11337067428E+03  0.11337067428E+03  0.00000000000E+00 0. -1.
         25    2    1    2    0    0  0.83374229297E+02 -0.70693921340E+02  0.30299147444E+03  0.34550925534E+03  0.12499567721E+03 0.  0.
          2    1    1    2  501    0 -0.11349938888E+02 -0.18974019843E+02 -0.88491349316E+02  0.91211586137E+02  0.00000000000E+00 0. -1.
          1    1    1    2  502    0 -0.72024290409E+02  0.89667941183E+02  0.14607914749E+04  0.14653121071E+04  0.00000000000E+00 0. -1.
         22    1    3    3    0    0 -0.13550280092E+02 -0.67675034609E+02  0.12139206672E+03  0.13964080443E+03  0.00000000000E+00 0.  1.
         22    1    3    3    0    0  0.96924509390E+02 -0.30188867310E+01  0.18159940772E+03  0.20586845091E+03  0.00000000000E+00 0.  1.
</event>
<event>
 7    1  0.5676357E-006  0.9100939E+02  0.7818608E-02  0.1388766E+00
          2   -1    0    0  502    0  0.00000000000E+00  0.00000000000E+00  0.80018924265E+02  0.80018924265E+02  0.00000000000E+00 0. -1.
          1   -1    0    0  501    0 -0.00000000000E+00 -0.00000000000E+00 -0.15847805345E+04  0.15847805345E+04  0.00000000000E+00 0. -1.
         25    2    1    2    0    0  0.46979967489E+02  0.59495523876E+02 -0.22049563485E+03  0.26455679321E+03  0.12500054856E+03 0.  0.
          2    1    1    2  501    0 -0.18267018063E+02 -0.90870737378E+02 -0.13326236198E+04  0.13358431371E+04  0.00000000000E+00 0. -1.
          1    1    1    2  502    0 -0.28712949426E+02  0.31375213502E+02  0.48357644442E+02  0.64399528438E+02  0.00000000000E+00 0. -1.
         22    1    3    3    0    0  0.78589628164E+02  0.76941462462E+02 -0.16162114935E+03  0.19549351452E+03  0.00000000000E+00 0. -1.
         22    1    3    3    0    0 -0.31609660675E+02 -0.17445938586E+02 -0.58874485499E+02  0.69063278694E+02  0.00000000000E+00 0. -1.
</event>
<event>
 7    1  0.5676357E-006  0.5039131E+02  0.7818608E-02  0.1444936E+00
          2   -1    0    0  502    0  0.00000000000E+00  0.00000000000E+00  0.80161736142E+03  0.80161736142E+03  0.00000000000E+00 0. -1.
          1   -1    0    0  501    0 -0.00000000000E+00 -0.00000000000E+00 -0.13470282456E+04  0.13470282456E+04  0.00000000000E+00 0. -1.
         25    2    1    2    0    0  0.56083857165E+01  0.10169274557E+02  0.18827010611E+03  0.22628658110E+03  0.12500046318E+03 0.  0.
          2    1    1    2  501    0  0.47427144775E+02 -0.15061630201E+02 -0.13263592911E+04  0.13272924154E+04  0.00000000000E+00 0. -1.
          1    1    1    2  502    0 -0.53035530492E+02  0.48923556436E+01  0.59267830086E+03  0.59506661051E+03  0.00000000000E+00 0. -1.
         22    1    3    3    0    0 -0.47125258673E+02  0.37737195602E+02  0.61164263026E+02  0.85941567407E+02  0.00000000000E+00 0. -1.
         22    1    3    3    0    0  0.52733644389E+02 -0.27567921045E+02  0.12710584309E+03  0.14034501369E+03  0.00000000000E+00 0. -1.
</event>
<event>
 7    1  0.5676357E-006  0.5689857E+02  0.7818608E-02  0.1429568E+00
          2   -1    0    0  502    0  0.00000000000E+00  0.00000000000E+00  0.81064316335E+03  0.81064316335E+03  0.00000000000E+00 0. -1.
          1   -1    0    0  501    0 -0.00000000000E+00 -0.00000000000E+00 -0.38379473279E+03  0.38379473279E+03  0.00000000000E+00 0. -1.
         25    2    1    2    0    0  0.22575110210E+02  0.39940572166E+02  0.90757726472E+02  0.16114039498E+03  0.12499750827E+03 0.  0.
          2    1    1    2  501    0 -0.57287570723E+02 -0.47140724587E+01 -0.34533161520E+03  0.35008286546E+03  0.00000000000E+00 0. -1.
          1    1    1    2  502    0  0.34712460513E+02 -0.35226499707E+02  0.68142231929E+03  0.68321463569E+03  0.00000000000E+00 0. -1.
         22    1    3    3    0    0 -0.37221697474E+01  0.23942875143E+02 -0.28826918645E+02  0.37657762232E+02  0.00000000000E+00 0. -1.
         22    1    3    3    0    0  0.26297279957E+02  0.15997697023E+02  0.11958464512E+03  0.12348263275E+03  0.00000000000E+00 0. -1.
</event>
<event>
 7    1  0.5676357E-006  0.1129661E+03  0.7818608E-02  0.1357043E+00
          2   -1    0    0  502    0  0.00000000000E+00  0.00000000000E+00  0.15846408642E+04  0.15846408642E+04  0.00000000000E+00 0. -1.
          1   -1    0    0  501    0 -0.00000000000E+00 -0.00000000000E+00 -0.26138158115E+04  0.26138158115E+04  0.00000000000E+00 0. -1.
         25    2    1    2    0    0  0.80387262210E+02 -0.11464837018E+03 -0.12323382841E+03  0.22454138782E+03  0.12500359063E+03 0.  0.
          2    1    1    2  501    0 -0.87392279630E+02  0.70698719602E+02 -0.24383102846E+04  0.24408999905E+04  0.00000000000E+00 0. -1.
          1    1    1    2  502    0  0.70050174199E+01  0.43949650576E+02  0.15323691657E+04  0.15330152974E+04  0.00000000000E+00 0. -1.
         22    1    3    3    0    0  0.54083042589E+02 -0.10464989419E+03 -0.14652977831E+03  0.18800944599E+03  0.00000000000E+00 0.  1.
         22    1    3    3    0    0  0.26304219622E+02 -0.99984759922E+01  0.23295949903E+02  0.36531941831E+02  0.00000000000E+00 0.  1.
</event>
<event>
 7    1  0.5676357E-006  0.6570820E+02  0.7818608E-02  0.1395491E+00
          2   -1    0    0  502    0  0.00000000000E+00  0.00000000000E+00  0.90022302827E+03  0.90022302827E+03  0.00000000000E+00 0. -1.
          1   -1    0    0  501    0 -0.00000000000E+00 -0.00000000000E+00 -0.10269490234E+04  0.10269490234E+04  0.00000000000E+00 0. -1.
         25    2    1    2    0    0 -0.37389143681E+02 -0.62098807846E+02  0.14861963991E+03  0.20728361876E+03  0.12499796494E+03 0.  0.
          2    1    1    2  501    0  0.64454251617E+02  0.13281765363E+02 -0.99545054633E+03  0.99762344902E+03  0.00000000000E+00 0. -1.
          1    1    1    2  502    0 -0.27065107937E+02  0.48817042483E+02  0.72010491128E+03  0.72226498389E+03  0.00000000000E+00 0. -1.
         22    1    3    3    0    0 -0.26144423534E+01  0.29868532806E+02  0.85101641981E+02  0.90228897969E+02  0.00000000000E+00 0. -1.
         22    1    3    3    0    0 -0.34774701327E+02 -0.91967340652E+02  0.63517997933E+02  0.11705472080E+03  0.00000000000E+00 0. -1.
</event>
<event>
 7    1  0.5676357E-006  0.1455528E+03  0.7818608E-02  0.1394539E+00
          2   -1    0    0  502    0  0.00000000000E+00  0.00000000000E+00  0.12511834343E+04  0.12511834343E+04  0.00000000000E+00 0. -1.
          1   -1    0    0  501    0 -0.00000000000E+00 -0.00000000000E+00 -0.13884736151E+04  0.13884736151E+04  0.00000000000E+00 0. -1.
         25    2    1    2    0    0 -0.12346221693E+03  0.15089380441E+02 -0.54401078703E+02  0.18453930253E+03  0.12499867360E+03 0.  0.
          2    1    1    2  501    0  0.14381480377E+03 -0.30269692038E+02 -0.12646114982E+04  0.12731226152E+04  0.00000000000E+00 0. -1.
          1    1    1    2  502    0 -0.20352586842E+02  0.15180311597E+02  0.11817223961E+04  0.11819951316E+04  0.00000000000E+00 0. -1.
         22    1    3    3    0    0 -0.55900922940E+02 -0.32194348991E+02  0.25827980624E+02  0.69487220952E+02  0.00000000000E+00 0. -1.
         22    1    3    3    0    0 -0.67561293990E+02  0.47283729432E+02 -0.80229059326E+02  0.11505208158E+03  0.00000000000E+00 0. -1.
</event>
<event>
 7    1  0.5676357E-006  0.2986569E+02  0.7818608E-02  0.1644303E+00
          2   -1    0    0  502    0  0.00000000000E+00  0.00000000000E+00  0.66937395116E+03  0.66937395116E+03  0.00000000000E+00 0. -1.
          1   -1    0    0  501    0 -0.00000000000E+00 -0.00000000000E+00 -0.87435097064E+02  0.87435097064E+02  0.00000000000E+00 0. -1.
         25    2    1    2    0    0  0.17098598162E+02 -0.38022789255E+02  0.60460476499E+02  0.14498311400E+03  0.12500615810E+03 0.  0.
          2    1    1    2  501    0 -0.24685359851E+02  0.16321537996E+02 -0.40066606979E+02  0.49810567034E+02  0.00000000000E+00 0. -1.
          1    1    1    2  502    0  0.75867616889E+01  0.21701251259E+02  0.56154498457E+03  0.56201536719E+03  0.00000000000E+00 0. -1.
         22    1    3    3    0    0  0.38079322621E+02 -0.68273464144E+02  0.48940302491E+01  0.78327851047E+02  0.00000000000E+00 0. -1.
         22    1    3    3    0    0 -0.20980724460E+02  0.30250674889E+02  0.55566446250E+02  0.66655262950E+02  0.00000000000E+00 0. -1.
</event>
<event>
 7    1  0.5676357E-006  0.4663778E+02  0.7818608E-02  0.1541800E+00
          2   -1    0    0  502    0  0.00000000000E+00  0.00000000000E+00  0.76825709837E+03  0.76825709837E+03  0.00000000000E+00 0. -1.
          1   -1    0    0  501    0 -0.00000000000E+00 -0.00000000000E+00 -0.14700504246E+04  0.14700504246E+04  0.00000000000E+00 0. -1.
         25    2    1    2    0    0 -0.42825982202E+02  0.92071673220E+01 -0.26369304018E+03  0.29508926264E+03  0.12499926723E+03 0.  0.
          2    1    1    2  501    0  0.31945414163E+02 -0.34405046971E+02 -0.11899459546E+04  0.11908717780E+04  0.00000000000E+00 0. -1.
          1    1    1    2  502    0  0.10880568040E+02  0.25197879649E+02  0.75184566864E+03  0.75234648225E+03  0.00000000000E+00 0. -1.
         22    1    3    3    0    0 -0.96154966370E+00 -0.50754590864E+02 -0.59593694634E+02  0.78283852177E+02  0.00000000000E+00 0.  1.
         22    1    3    3    0    0 -0.41864432539E+02  0.59961758187E+02 -0.20409934554E+03  0.21680541047E+03  0.00000000000E+00 0.  1.
</event>
<event>
 7    1  0.5676357E-006  0.7500068E+02  0.7818608E-02  0.1453238E+00
          2   -1    0    0  502    0  0.00000000000E+00  0.00000000000E+00  0.26939776316E+03  0.26939776316E+03  0.00000000000E+00 0. -1.
          1   -1    0    0  501    0 -0.00000000000E+00 -0.00000000000E+00 -0.68543048108E+03  0.68543048108E+03  0.00000000000E+00 0. -1.
         25    2    1    2    0    0 -0.63535582084E+02  0.78892358049E+02  0.25573010024E+02  0.16290137088E+03  0.12498841324E+03 0.  0.
          2    1    1    2  501    0  0.26560672531E+02 -0.16836283232E+02 -0.60889564881E+03  0.60970717635E+03  0.00000000000E+00 0. -1.
          1    1    1    2  502    0  0.36974909553E+02 -0.62056074817E+02  0.16728992086E+03  0.18221969701E+03  0.00000000000E+00 0. -1.
         22    1    3    3    0    0 -0.48796516471E+01 -0.20360804166E+02  0.41533261768E+02  0.46512204630E+02  0.00000000000E+00 0. -1.
         22    1    3    3    0    0 -0.58655930437E+02  0.99253162215E+02 -0.15960251744E+02  0.11638916625E+03  0.00000000000E+00 0. -1.
</event>
<event>
 7    1  0.5676357E-006  0.1066165E+03  0.7818608E-02  0.1455555E+00
          2   -1    0    0  502    0  0.00000000000E+00  0.00000000000E+00  0.79778007105E+03  0.79778007105E+03  0.00000000000E+00 0. -1.
          1   -1    0    0  501    0 -0.00000000000E+00 -0.00000000000E+00 -0.16723951623E+03  0.16723951623E+03  0.00000000000E+00 0. -1.
         25    2    1    2    0    0  0.91289038933E+02 -0.41234785954E+01  0.46405087643E+03  0.48920191963E+03  0.12499844219E+03 0.  0.
          2    1    1    2  501    0 -0.10520786776E+03  0.20836510131E+02 -0.13563263774E+03  0.17291346973E+03  0.00000000000E+00 0. -1.
          1    1    1    2  502    0  0.13918828825E+02 -0.16713031535E+02  0.30212231612E+03  0.30290419792E+03  0.00000000000E+00 0. -1.
         22    1    3    3    0    0  0.11639325319E+03  0.20128401883E+02  0.32378518956E+03  0.34465836843E+03  0.00000000000E+00 0. -1.
         22    1    3    3    0    0 -0.25104214260E+02 -0.24251880479E+02  0.14026568687E+03  0.14454355120E+03  0.00000000000E+00 0. -1.
</event>
<event>
 7    1  0.5676357E-006  0.3658246E+02  0.7818608E-02  0.1589786E+00
          2   -1    0    0  502    0  0.00000000000E+00  0.00000000000E+00  0.23174776009E+04  0.23174776009E+04  0.00000000000E+00 0. -1.
          1   -1    0    0  501    0 -0.00000000000E+00 -0.00000000000E+00 -0.74206288090E+03  0.74206288090E+03  0.00000000000E+00 0. -1.
         25    2    1    2    0    0 -0.60187412737E+02  0.14043294464E+02  0.47570379317E+03  0.49571998906E+03  0.12499787976E+03 0.  0.
          2    1    1    2  501    0  0.34362410061E+02 -0.12481886984E+02 -0.73150690193E+03  0.73241990709E+03  0.00000000000E+00 0. -1.
          1    1    1    2  502    0  0.25825002676E+02 -0.15614074804E+01  0.18312178287E+04  0.18314005856E+04  0.00000000000E+00 0. -1.
         22    1    3    3    0    0 -0.79686805926E+02 -0.32606653227E+02  0.34489348006E+03  0.35547811952E+03  0.00000000000E+00 0. -1.
         22    1    3    3    0    0  0.19499393189E+02  0.46649947691E+02  0.13081031311E+03  0.14024186954E+03  0.00000000000E+00 0. -1.
</event>
<event>
 7    1  0.5676357E-006  0.1012288E+03  0.7818608E-02  0.1284767E+00
          2   -1    0    0  502    0  0.00000000000E+00  0.00000000000E+00  0.15716078999E+04  0.15716078999E+04  0.00000000000E+00 0. -1.
          1   -1    0    0  501    0 -0.00000000000E+00 -0.00000000000E+00 -0.37911719929E+02  0.37911719929E+02  0.00000000000E+00 0. -1.
         25    2    1    2    0    0 -0.48207804697E+02  0.93317855131E+02  0.38059393177E+03  0.41413653804E+03  0.12500046688E+03 0.  0.
          2    1    1    2  501    0  0.10998411740E+03 -0.21557556418E+02  0.14708490568E+03  0.18491945219E+03  0.00000000000E+00 0. -1.
          1    1    1    2  502    0 -0.61776312706E+02 -0.71760298714E+02  0.10060173425E+04  0.10104636296E+04  0.00000000000E+00 0. -1.
         22    1    3    3    0    0 -0.33830618985E+02  0.10997557455E+03  0.18890097280E+03  0.22118479899E+03  0.00000000000E+00 0. -1.
         22    1    3    3    0    0 -0.14377185712E+02 -0.16657719419E+02  0.19169295896E+03  0.19295173905E+03  0.00000000000E+00 0. -1.
</event>
<event>
 7    1  0.5676357E-006  0.1828992E+03  0.7818608E-02  0.1165918E+00
          2   -1    0    0  502    0  0.00000000000E+00  0.00000000000E+00  0.14352492570E+04  0.14352492570E+04  0.00000000000E+00 0. -1.
          1   -1    0    0  501    0 -0.00000000000E+00 -0.00000000000E+00 -0.10474911477E+04  0.10474911477E+04  0.00000000000E+00 0. -1.
         25    2    1    2    0    0  0.26448002048E+02 -0.85694665047E+01 -0.53385157672E+01  0.12816162374E+03  0.12499587785E+03 0.  0.
          2    1    1    2  501    0 -0.20926080168E+03  0.29471873187E+01 -0.96336851289E+03  0.98583855710E+03  0.00000000000E+00 0. -1.
          1    1    1    2  502    0  0.18281279963E+03  0.56222791861E+01  0.13564651380E+04  0.13687402238E+04  0.00000000000E+00 0. -1.
         22    1    3    3    0    0 -0.43326757294E+02  0.24217799950E+02  0.68623692000E+01  0.50107902003E+02  0.00000000000E+00 0. -1.
         22    1    3    3    0    0  0.69774759343E+02 -0.32787266455E+02 -0.12200884967E+02  0.78053721737E+02  0.00000000000E+00 0. -1.
</event>
<event>
 7    1  0.5676357E-006  0.2189879E+03  0.7818608E-02  0.1140266E+00
          2   -1    0    0  502    0  0.00000000000E+00  0.00000000000E+00  0.59700926563E+03  0.59700926563E+03  0.00000000000E+00 0. -1.
          1   -1    0    0  501    0 -0.00000000000E+00 -0.00000000000E+00 -0.60264148596E+03  0.60264148596E+03  0.00000000000E+00 0. -1.
         25    2    1    2    0    0 -0.30751801059E+02  0.12470924910E+03 -0.11434972761E+03  0.21259592379E+03  0.12499238588E+03 0.  0.
          2    1    1    2  501    0 -0.10518628393E+03 -0.29639654152E+03 -0.35497049063E+03  0.47425637936E+03  0.00000000000E+00 0. -1.
          1    1    1    2  502    0  0.13593808499E+03  0.17168729242E+03  0.46368799789E+03  0.51279844844E+03  0.00000000000E+00 0. -1.
         22    1    3    3    0    0 -0.29298586464E+02  0.14511843412E+03 -0.70015460610E+02  0.16376792059E+03  0.00000000000E+00 0. -1.
         22    1    3    3    0    0 -0.14532145947E+01 -0.20409185023E+02 -0.44334266996E+02  0.48828003195E+02  0.00000000000E+00 0. -1.
</event>
<event>
 7    1  0.5676357E-006  0.1959815E+03  0.7818608E-02  0.1334477E+00
          2   -1    0    0  502    0  0.00000000000E+00  0.00000000000E+00  0.84916120431E+02  0.84916120431E+02  0.00000000000E+00 0. -1.
          1   -1    0    0  501    0 -0.00000000000E+00 -0.00000000000E+00 -0.28250862692E+04  0.28250862692E+04  0.00000000000E+00 0. -1.
         25    2    1    2    0    0  0.15187756940E+03  0.15776494886E+03 -0.81475663747E+03  0.85288418590E+03  0.12500592414E+03 0.  0.
          2    1    1    2  501    0 -0.14041100991E+03 -0.12881502648E+03 -0.19827430851E+04  0.19918781851E+04  0.00000000000E+00 0. -1.
          1    1    1    2  502    0 -0.11466559485E+02 -0.28949922383E+02  0.57329573833E+02  0.65240018611E+02  0.00000000000E+00 0. -1.
         22    1    3    3    0    0  0.65188819971E+02  0.13510329812E+03 -0.37114022495E+03  0.40030931789E+03  0.00000000000E+00 0. -1.
         22    1    3    3    0    0  0.86688749425E+02  0.22661650737E+02 -0.44361641252E+03  0.45257486800E+03  0.00000000000E+00 0. -1.
</event>
<event>
 7    1  0.5676357E-006  0.4802858E+02  0.7818608E-02  0.1527643E+00
          2   -1    0    0  502    0  0.00000000000E+00  0.00000000000E+00  0.14204545098E+04  0.14204545098E+04  0.00000000000E+00 0. -1.
          1   -1    0    0  501    0 -0.00000000000E+00 -0.00000000000E+00 -0.33026541590E+02  0.33026541590E+02  0.00000000000E+00 0. -1.
         25    2    1    2    0    0  0.20776072435E+02  0.46726187697E+02  0.96587313831E+03  0.97526941028E+03  0.12499808600E+03 0.  0.
          2    1    1    2  501    0  0.20771914800E+02 -0.20584310101E+02 -0.19036785225E+02  0.34893917214E+02  0.00000000000E+00 0. -1.
          1    1    1    2  502    0 -0.41547987235E+02 -0.26141877596E+02  0.44059161508E+03  0.44331772386E+03  0.00000000000E+00 0. -1.
         22    1    3    3    0    0  0.36135636264E+02  0.58706468786E+02  0.94172143843E+03  0.94424123046E+03  0.00000000000E+00 0. -1.
         22    1    3    3    0    0 -0.15359563828E+02 -0.11980281089E+02  0.24151699878E+02  0.31028179820E+02  0.00000000000E+00 0. -1.
</event>
<event>
 7    1  0.5676357E-006  0.8076193E+02  0.7818608E-02  0.1350347E+00
          2   -1    0    0  502    0  0.00000000000E+00  0.00000000000E+00  0.38572309562E+03  0.38572309562E+03  0.00000000000E+00 0. -1.
          1   -1    0    0  501    0 -0.00000000000E+00 -0.00000000000E+00 -0.16423156753E+03  0.16423156753E+03  0.00000000000E+00 0. -1.
         25    2    1    2    0    0 -0.15666960439E+02  0.78490120539E+02  0.16319371347E+03  0.22060093409E+03  0.12500572520E+03 0.  0.
          2    1    1    2  501    0  0.70790716217E+02 -0.42395719656E+02 -0.11637888161E+03  0.14266312289E+03  0.00000000000E+00 0. -1.
          1    1    1    2  502    0 -0.55123755778E+02 -0.36094400882E+02  0.17467669623E+03  0.18669060616E+03  0.00000000000E+00 0. -1.
         22    1    3    3    0    0  0.32682277184E+02  0.61977997087E+02  0.15330998048E+03  0.16856260997E+03  0.00000000000E+00 0.  1.
         22    1    3    3    0    0 -0.48349237623E+02  0.16512123452E+02  0.98837329937E+01  0.52038324122E+02  0.00000000000E+00 0.  1.
</event>
<event>
 7    1  0.5676357E-006  0.8095581E+02  0.7818608E-02  0.1391541E+00
          2   -1    0    0  502    0  0.00000000000E+00  0.00000000000E+00  0.15571198946E+04  0.15571198946E+04  0.00000000000E+00 0. -1.
          1   -1    0    0  501    0 -0.00000000000E+00 -0.00000000000E+00 -0.35309096484E+02  0.35309096484E+02  0.00000000000E+00 0. -1.
         25    2    1    2    0    0 -0.23974858241E+02  0.76925303464E+02  0.53014186924E+03  0.55060677204E+03  0.12500047905E+03 0.  0.
          2    1    1    2  501    0  0.46670554660E+02  0.28595206024E+01  0.68283585041E-01  0.46758124353E+02  0.00000000000E+00 0. -1.
          1    1    1    2  502    0 -0.22695696419E+02 -0.79784824066E+02  0.99160064526E+03  0.99506409465E+03  0.00000000000E+00 0. -1.
         22    1    3    3    0    0 -0.75473499834E+02  0.48268771379E+02  0.30581434100E+03  0.31866680817E+03  0.00000000000E+00 0.  1.
         22    1    3    3    0    0  0.51498641593E+02  0.28656532085E+02  0.22432752824E+03  0.23193996388E+03  0.00000000000E+00 0.  1.
</event>
<event>
 7    1  0.5676357E-006  0.5551685E+02  0.7818608E-02  0.1470618E+00
          2   -1    0    0  502    0  0.00000000000E+00  0.00000000000E+00  0.78264165890E+03  0.78264165890E+03  0.00000000000E+00 0. -1.
          1   -1    0    0  501    0 -0.00000000000E+00 -0.00000000000E+00 -0.92773079635E+02  0.92773079635E+02  0.00000000000E+00 0. -1.
         25    2    1    2    0    0  0.83845513751E+02  0.30796925801E+02  0.12570088439E+03  0.19850463140E+03  0.12499942214E+03 0.  0.
          2    1    1    2  501    0 -0.51651649994E+02 -0.11648780389E+02 -0.43232085379E+02  0.68356420605E+02  0.00000000000E+00 0. -1.
          1    1    1    2  502    0 -0.32193863757E+02 -0.19148145412E+02  0.60739978026E+03  0.60855368653E+03  0.00000000000E+00 0. -1.
         22    1    3    3    0    0  0.40477446012E+02 -0.21813248701E+02 -0.96212968481E+01  0.46976704946E+02  0.00000000000E+00 0.  1.
         22    1    3    3    0    0  0.43368067739E+02  0.52610174502E+02  0.13532218124E+03  0.15152792646E+03  0.00000000000E+00 0.  1.
</event>
<event>
 7    1  0.5676357E-006  0.9895150E+02  0.7818608E-02  0.1392766E+00
          2   -1    0    0  502    0  0.00000000000E+00  0.00000000000E+00  0.22360379821E+03  0.22360379821E+03  0.00000000000E+00 0. -1.
          1   -1    0    0  501    0 -0.00000000000E+00 -0.00000000000E+00 -0.15964759216E+03  0.15964759216E+03  0.00000000000E+00 0. -1.
         25    2    1    2    0    0  0.27518920550E+02 -0.71663991726E+02 -0.44637171416E+02  0.15332702208E+03  0.12499471961E+03 0.  0.
          2    1    1    2  501    0  0.36788410120E+02 -0.90317905607E+01 -0.36019927309E+02  0.52272320813E+02  0.00000000000E+00 0. -1.
          1    1    1    2  502    0 -0.64307330670E+02  0.80695782286E+02  0.14461330477E+03  0.17765204748E+03  0.00000000000E+00 0. -1.
         22    1    3    3    0    0  0.64663021434E+02 -0.79996291275E+02 -0.50868328771E+02  0.11475321273E+03  0.00000000000E+00 0. -1.
         22    1    3    3    0    0 -0.37144100884E+02  0.83322995498E+01  0.62311573547E+01  0.38573809356E+02  0.00000000000E+00 0. -1.
</event>
<event>
 7    1  0.5676357E-006  0.6000062E+02  0.7818608E-02  0.1505721E+00
          2   -1    0    0  502    0  0.00000000000E+00  0.00000000000E+00  0.57982007753E+03  0.57982007753E+03  0.00000000000E+00 0. -1.
          1   -1    0    0  501    0 -0.00000000000E+00 -0.00000000000E+00 -0.39960343630E+03  0.39960343630E+03  0.00000000000E+00 0. -1.
         25    2    1    2    0    0  0.51994394594E+01  0.47563454398E+02  0.63387009003E+02  0.14807287964E+03  0.12497339081E+03 0.  0.
          2    1    1    2  501    0 -0.25295202140E+02  0.97859801841E+01 -0.35479348152E+03  0.35582864864E+03  0.00000000000E+00 0. -1.
          1    1    1    2  502    0  0.20095762681E+02 -0.57349434582E+02  0.47162311375E+03  0.47552198556E+03  0.00000000000E+00 0. -1.
         22    1    3    3    0    0 -0.46932708632E+02 -0.15172573258E+02  0.39166971236E+02  0.62983630847E+02  0.00000000000E+00 0.  1.
         22    1    3    3    0    0  0.52132148092E+02  0.62736027656E+02  0.24220037768E+02  0.85089248793E+02  0.00000000000E+00 0.  1.
</event>
<event>
 7    1  0.5676357E-006  0.1577819E+03  0.7818608E-02  0.1372015E+00
          2   -1    0    0  502    0  0.00000000000E+00  0.00000000000E+00  0.33274364191E+03  0.33274364191E+03  0.00000000000E+00 0. -1.
          1   -1    0    0  501    0 -0.00000000000E+00 -0.00000000000E+00 -0.30965658086E+04  0.30965658086E+04  0.00000000000E+00 0. -1.
         25    2    1    2    0    0  0.10478264520E+03 -0.79246358433E+02 -0.19939883620E+03  0.26952759684E+03  0.12500336604E+03 0.  0.
          2    1    1    2  501    0 -0.12617191878E+03  0.97501934335E+02 -0.28592120516E+04  0.28636549262E+04  0.00000000000E+00 0. -1.
          1    1    1    2  502    0  0.21389273580E+02 -0.18255575901E+02  0.29478872112E+03  0.29612692747E+03  0.00000000000E+00 0. -1.
         22    1    3    3    0    0 -0.24364266134E+02 -0.15013175851E+02 -0.70494520702E+02  0.76082129060E+02  0.00000000000E+00 0. -1.
         22    1    3    3    0    0  0.12914691134E+03 -0.64233182582E+02 -0.12890431550E+03  0.19344546778E+03  0.00000000000E+00 0. -1.
</event>
<event>
 7    1  0.5676357E-006  0.8176329E+02  0.7818608E-02  0.1335739E+00
          2   -1    0    0  502    0  0.00000000000E+00  0.00000000000E+00  0.95032481211E+02  0.95032481211E+02  0.00000000000E+00 0. -1.
          1   -1    0    0  501    0 -0.00000000000E+00 -0.00000000000E+00 -0.12129391179E+04  0.12129391179E+04  0.00000000000E+00 0. -1.
         25    2    1    2    0    0 -0.23818698232E+02 -0.40386514567E+01 -0.43441151958E+03  0.45268203797E+03  0.12499607222E+03 0.  0.
          2    1    1    2  501    0  0.37333178407E+02  0.84677315766E+02 -0.74640825885E+03  0.75212319662E+03  0.00000000000E+00 0. -1.
          1    1    1    2  502    0 -0.13514480175E+02 -0.80638664309E+02  0.62913141764E+02  0.10316636449E+03  0.00000000000E+00 0. -1.
         22    1    3    3    0    0  0.45311107612E+02 -0.75347844258E+01 -0.27617216838E+03  0.27996595514E+03  0.00000000000E+00 0.  1.
         22    1    3    3    0    0 -0.69129805845E+02  0.34961329690E+01 -0.15823935119E+03  0.17271608283E+03  0.00000000000E+00 0.  1.
</event>
<event>
 7    1  0.5676357E-006  0.8027116E+02  0.7818608E-02  0.1460643E+00
          2   -1    0    0  502    0  0.00000000000E+00  0.00000000000E+00  0.68682146167E+03  0.68682146167E+03  0.00000000000E+00 0. -1.
          1   -1    0    0  501    0 -0.00000000000E+00 -0.00000000000E+00 -0.18052387588E+04  0.18052387588E+04  0.00000000000E+00 0. -1.
         25    2    1    2    0    0 -0.61193006800E+02  0.78580684932E+02  0.35528501700E+03  0.38959011324E+03  0.12503401499E+03 0.  0.
          2    1    1    2  501    0  0.33989373383E+02 -0.72674950026E+02 -0.17865679382E+04  0.17883685089E+04  0.00000000000E+00 0. -1.
          1    1    1    2  502    0  0.27203633416E+02 -0.59057349059E+01  0.31286562404E+03  0.31410159834E+03  0.00000000000E+00 0. -1.
         22    1    3    3    0    0 -0.14249636073E+02  0.10382763564E+03  0.20703123806E+03  0.23204560669E+03  0.00000000000E+00 0.  1.
         22    1    3    3    0    0 -0.46943370727E+02 -0.25246950706E+02  0.14825377894E+03  0.15754450655E+03  0.00000000000E+00 0.  1.
</event>
<event>
 7    1  0.6233420E-006  0.1156662E+03  0.7818608E-02  0.1300010E+00
          2   -1    0    0  502    0  0.00000000000E+00  0.00000000000E+00  0.82290250379E+03  0.82290250379E+03  0.00000000000E+00 0. -1.
          1   -1    0    0  501    0 -0.00000000000E+00 -0.00000000000E+00 -0.12677379351E+04  0.12677379351E+04  0.00000000000E+00 0. -1.
         25    2    1    2    0    0  0.21779829761E+02  0.15197951048E+03 -0.59511878386E+03  0.62718728040E+03  0.12500154079E+03 0.  0.
          2    1    1    2  501    0  0.31221144906E+02 -0.10341900789E+03 -0.65052053812E+03  0.65942946673E+03  0.00000000000E+00 0. -1.
          1    1    1    2  502    0 -0.53000974667E+02 -0.48560502589E+02  0.80080389063E+03  0.80402369180E+03  0.00000000000E+00 0. -1.
         22    1    3    3    0    0 -0.52378812454E+02  0.66143039901E+02 -0.26707520463E+03  0.28008499897E+03  0.00000000000E+00 0. -1.
         22    1    3    3    0    0  0.74158642215E+02  0.85836470576E+02 -0.32804357923E+03  0.34710228143E+03  0.00000000000E+00 0. -1.
</event>
<event>
 7    1  0.5676357E-006  0.6301200E+02  0.7818608E-02  0.1408513E+00
          2   -1    0    0  502    0  0.00000000000E+00  0.00000000000E+00  0.11332719888E+04  0.11332719888E+04  0.00000000000E+00 0. -1.
          1   -1    0    0  501    0 -0.00000000000E+00 -0.00000000000E+00 -0.38802860562E+03  0.38802860562E+03  0.00000000000E+00 0. -1.
         25    2    1    2    0    0 -0.45125933866E+02  0.13521745196E+02 -0.57849825803E+02  0.14555083778E+03  0.12497702402E+03 0.  0.
          2    1    1    2  501    0  0.24609181608E+02  0.46397006963E+02 -0.28298962418E+03  0.28782185717E+03  0.00000000000E+00 0. -1.
          1    1    1    2  502    0  0.20516752258E+02 -0.59918752159E+02  0.10860828331E+04  0.10879278995E+04  0.00000000000E+00 0. -1.
         22    1    3    3    0    0 -0.29794049651E+02  0.60095658548E+02 -0.67959922706E+02  0.95486777436E+02  0.00000000000E+00 0. -1.
         22    1    3    3    0    0 -0.15331884215E+02 -0.46573913352E+02  0.10110096904E+02  0.50064060342E+02  0.00000000000E+00 0. -1.
</event>
<event>
 7    1  0.5676357E-006  0.2480957E+03  0.7818608E-02  0.1267771E+00
          2   -1    0    0  502    0  0.00000000000E+00  0.00000000000E+00  0.19890277132E+04  0.19890277132E+04  0.00000000000E+00 0. -1.
          1   -1    0    0  501    0 -0.00000000000E+00 -0.00000000000E+00 -0.16437870492E+04  0.16437870492E+04  0.00000000000E+00 0. -1.
         25    2    1    2    0    0  0.44043385885E+02  0.25000685400E+03  0.13511754778E+04  0.13804820024E+04  0.12494855022E+03 0.  0.
          2    1    1    2  501    0  0.13769543327E+01 -0.24808015549E+03 -0.16188425251E+04  0.16377413656E+04  0.00000000000E+00 0. -1.
          1    1    1    2  502    0 -0.45420340218E+02 -0.19266985063E+01  0.61290771130E+03  0.61459139438E+03  0.00000000000E+00 0. -1.
         22    1    3    3    0    0  0.77423841798E+02  0.88820526029E+02  0.60477667040E+03  0.61614800023E+03  0.00000000000E+00 0.  1.
         22    1    3    3    0    0 -0.33380455913E+02  0.16118632797E+03  0.74639880741E+03  0.76433400216E+03  0.00000000000E+00 0.  1.
</event>
<event>
 7    1  0.5676357E-006  0.5857000E+02  0.7818608E-02  0.1422935E+00
          2   -1    0    0  502    0  0.00000000000E+00  0.00000000000E+00  0.14095989889E+04  0.14095989889E+04  0.00000000000E+00 0. -1.
          1   -1    0    0  501    0 -0.00000000000E+00 -0.00000000000E+00 -0.36897604657E+03  0.36897604657E+03  0.00000000000E+00 0. -1.
         25    2    1    2    0    0 -0.67212029041E+02 -0.81397462872E-01  0.10969048821E+03  0.17937314972E+03  0.12500104065E+03 0.  0.
          2    1    1    2  501    0  0.40264860714E+02  0.42832963198E+02 -0.33103935035E+03  0.33621863902E+03  0.00000000000E+00 0. -1.
          1    1    1    2  502    0  0.26947168327E+02 -0.42751565735E+02  0.12619718044E+04  0.12629832467E+04  0.00000000000E+00 0. -1.
         22    1    3    3    0    0 -0.51602483745E+02 -0.56400996440E+02  0.33792064245E+02  0.83581052483E+02  0.00000000000E+00 0.  1.
         22    1    3    3    0    0 -0.15609545296E+02  0.56319598978E+02  0.75898423963E+02  0.95792097239E+02  0.00000000000E+00 0.  1.
</event>
<event>
 7    1  0.5676357E-006  0.6826280E+02  0.7818608E-02  0.1398337E+00
          2   -1    0    0  502    0  0.00000000000E+00  0.00000000000E+00  0.58764192118E+03  0.58764192118E+03  0.00000000000E+00 0. -1.
          1   -1    0    0  501    0 -0.00000000000E+00 -0.00000000000E+00 -0.37839166480E+03  0.37839166480E+03  0.00000000000E+00 0. -1.
         25    2    1    2    0    0  0.67875791646E+02 -0.24522958474E+02 -0.10728850955E+02  0.14473377506E+03  0.12499703523E+03 0.  0.
          2    1    1    2  501    0 -0.50149699679E+01  0.52286087369E+02 -0.29607108750E+03  0.30069431939E+03  0.00000000000E+00 0. -1.
          1    1    1    2  502    0 -0.62860821678E+02 -0.27763128895E+02  0.51605019483E+03  0.52060549153E+03  0.00000000000E+00 0. -1.
         22    1    3    3    0    0 -0.35917685987E+02 -0.42636959356E+01 -0.14367671555E+02  0.38919008924E+02  0.00000000000E+00 0.  1.
         22    1    3    3    0    0  0.10379347763E+03 -0.20259262539E+02  0.36388205998E+01  0.10581476614E+03  0.00000000000E+00 0.  1.
</event>
<event>
 7    1  0.5676357E-006  0.6415367E+02  0.7818608E-02  0.1474640E+00
          2   -1    0    0  502    0  0.00000000000E+00  0.00000000000E+00  0.34699097573E+04  0.34699097573E+04  0.00000000000E+00 0. -1.
          1   -1    0    0  501    0 -0.00000000000E+00 -0.00000000000E+00 -0.15641584448E+03  0.15641584448E+03  0.00000000000E+00 0. -1.
         25    2    1    2    0    0  0.60346344830E+02  0.39100109944E+02  0.14188032938E+04  0.14261132132E+04  0.12500244207E+03 0.  0.
          2    1    1    2  501    0 -0.33120919325E+02 -0.54939775603E+02 -0.14589898767E+03  0.15937970022E+03  0.00000000000E+00 0. -1.
          1    1    1    2  502    0 -0.27225425505E+02  0.15839665659E+02  0.20405896068E+04  0.20408326884E+04  0.00000000000E+00 0. -1.
         22    1    3    3    0    0 -0.20095088407E+02 -0.31074054045E+02  0.31788304483E+03  0.32002974800E+03  0.00000000000E+00 0.  1.
         22    1    3    3    0    0  0.80441433237E+02  0.70174163989E+02  0.11009202489E+04  0.11060834652E+04  0.00000000000E+00 0.  1.
</event>
<event>
 7    1  0.5676357E-006  0.5773830E+02  0.7818608E-02  0.1538246E+00
          2   -1    0    0  502    0  0.00000000000E+00  0.00000000000E+00  0.17078052059E+04  0.17078052059E+04  0.00000000000E+00 0. -1.
          1   -1    0    0  501    0 -0.00000000000E+00 -0.00000000000E+00 -0.21524973268E+04  0.21524973268E+04  0.00000000000E+00 0. -1.
         25    2    1    2    0    0 -0.16804578630E+02  0.65909753144E+02  0.32577454634E+02  0.14598809479E+03  0.12499897538E+03 0.  0.
          2    1    1    2  501    0  0.31318404644E+02 -0.48470572919E+02 -0.20953152058E+04  0.20961097421E+04  0.00000000000E+00 0. -1.
          1    1    1    2  502    0 -0.14513826014E+02 -0.17439180225E+02  0.16180456303E+04  0.16182046959E+04  0.00000000000E+00 0. -1.
         22    1    3    3    0    0  0.27268841045E+02 -0.15928800073E+02 -0.21730220604E+02  0.38334303844E+02  0.00000000000E+00 0.  1.
         22    1    3    3    0    0 -0.44073419674E+02  0.81838553217E+02  0.54307675238E+02  0.10765379094E+03  0.00000000000E+00 0.  1.
</event>
<event>
 7    1  0.5676357E-006  0.2906770E+03  0.7818608E-02  0.1149575E+00
          2   -1    0    0  502    0  0.00000000000E+00  0.00000000000E+00  0.57776421513E+03  0.57776421513E+03  0.00000000000E+00 0. -1.
          1   -1    0    0  501    0 -0.00000000000E+00 -0.00000000000E+00 -0.79684311951E+03  0.79684311951E+03  0.00000000000E+00 0. -1.
         25    2    1    2    0    0 -0.32104709238E+03  0.20645508250E+03 -0.36544233572E+03  0.54301806708E+03  0.12500233527E+03 0.  0.
          2    1    1    2  501    0  0.48245111675E+02 -0.12916084161E+03 -0.28429867590E+03  0.31596811694E+03  0.00000000000E+00 0. -1.
          1    1    1    2  502    0  0.27280198070E+03 -0.77294240888E+02  0.43066210724E+03  0.51562115062E+03  0.00000000000E+00 0. -1.
         22    1    3    3    0    0 -0.28876327950E+03  0.18473800552E+03 -0.25886904584E+03  0.42956436673E+03  0.00000000000E+00 0. -1.
         22    1    3    3    0    0 -0.32283812880E+02  0.21717076977E+02 -0.10657328988E+03  0.11345370035E+03  0.00000000000E+00 0. -1.
</event>
<event>
 7    1  0.5676357E-006  0.9530345E+02  0.7818608E-02  0.1392280E+00
          2   -1    0    0  502    0  0.00000000000E+00  0.00000000000E+00  0.60586365724E+03  0.60586365724E+03  0.00000000000E+00 0. -1.
          1   -1    0    0  501    0 -0.00000000000E+00 -0.00000000000E+00 -0.32311275091E+03  0.32311275091E+03  0.00000000000E+00 0. -1.
         25    2    1    2    0    0 -0.54510656220E+02 -0.36983556986E+02  0.16988951381E+03  0.22095729240E+03  0.12498193083E+03 0.  0.
          2    1    1    2  501    0  0.92736198774E+02  0.27093190055E+02 -0.28874345613E+03  0.30447795810E+03  0.00000000000E+00 0. -1.
          1    1    1    2  502    0 -0.38225542554E+02  0.98903669310E+01  0.40160484865E+03  0.40354115765E+03  0.00000000000E+00 0. -1.
         22    1    3    3    0    0 -0.61464957359E+02 -0.93322513005E+01  0.18021173606E+03  0.19063394690E+03  0.00000000000E+00 0.  1.
         22    1    3    3    0    0  0.69543011392E+01 -0.27651305686E+02 -0.10322222244E+02  0.30323345503E+02  0.00000000000E+00 0.  1.
</event>
<event>
 7    1  0.5676357E-006  0.1386187E+03  0.7818608E-02  0.1332836E+00
          2   -1    0    0  502    0  0.00000000000E+00  0.00000000000E+00  0.78418384150E+02  0.78418384150E+02  0.00000000000E+00 0. -1.
          1   -1    0    0  501    0 -0.00000000000E+00 -0.00000000000E+00 -0.20519292421E+04  0.20519292421E+04  0.00000000000E+00 0. -1.
         25    2    1    2    0    0 -0.17166312532E+03  0.38066162656E+02 -0.14717004740E+04  0.14874296320E+04  0.12500945425E+03 0.  0.
          2    1    1    2  501    0  0.43467693994E+02  0.10251352430E+02 -0.50392779243E+03  0.50590290633E+03  0.00000000000E+00 0. -1.
          1    1    1    2  502    0  0.12819543132E+03 -0.48317515086E+02  0.21174085636E+01  0.13701508784E+03  0.00000000000E+00 0. -1.
         22    1    3    3    0    0 -0.15283245108E+03  0.10315132322E+02 -0.13990654983E+04  0.14074261716E+04  0.00000000000E+00 0.  1.
         22    1    3    3    0    0 -0.18830674240E+02  0.27751030334E+02 -0.72634975741E+02  0.80003460412E+02  0.00000000000E+00 0.  1.
</event>
<event>
 7    1  0.5676357E-006  0.6344661E+02  0.7818608E-02  0.1403650E+00
          2   -1    0    0  502    0  0.00000000000E+00  0.00000000000E+00  0.23418624347E+04  0.23418624347E+04  0.00000000000E+00 0. -1.
          1   -1    0    0  501    0 -0.00000000000E+00 -0.00000000000E+00 -0.56284526086E+03  0.56284526086E+03  0.00000000000E+00 0. -1.
         25    2    1    2    0    0 -0.88720934889E+02  0.28221019455E+02  0.19226966273E+03  0.24750827733E+03  0.12499957566E+03 0.  0.
          2    1    1    2  501    0  0.60675100687E+02  0.18145227982E+02 -0.53300510797E+03  0.53675428481E+03  0.00000000000E+00 0. -1.
          1    1    1    2  502    0  0.28045834202E+02 -0.46366247436E+02  0.21197526191E+04  0.21204451334E+04  0.00000000000E+00 0. -1.
         22    1    3    3    0    0 -0.15648664308E+02 -0.28434838320E+02  0.13477330864E+03  0.13862635192E+03  0.00000000000E+00 0. -1.
         22    1    3    3    0    0 -0.73072270582E+02  0.56655857775E+02  0.57496354089E+02  0.10888192541E+03  0.00000000000E+00 0. -1.
</event>
<event>
 7    1  0.5676357E-006  0.6870790E+02  0.7818608E-02  0.1393766E+00
          2   -1    0    0  502    0  0.00000000000E+00  0.00000000000E+00  0.73568910495E+02  0.73568910495E+02  0.00000000000E+00 0. -1.
          1   -1    0    0  501    0 -0.00000000000E+00 -0.00000000000E+00 -0.81209031504E+03  0.81209031504E+03  0.00000000000E+00 0. -1.
         25    2    1    2    0    0 -0.22872723265E+02 -0.85820773020E+02 -0.10388210024E+03  0.18521412742E+03  0.12499766277E+03 0.  0.
          2    1    1    2  501    0 -0.26351189111E+02  0.63324753394E+02 -0.64215262542E+03  0.64580523681E+03  0.00000000000E+00 0. -1.
          1    1    1    2  502    0  0.49223912376E+02  0.22496019626E+02  0.75133211097E+01  0.54639861298E+02  0.00000000000E+00 0. -1.
         22    1    3    3    0    0  0.33267923925E+02 -0.63520973969E+02 -0.83559109671E+01  0.72190651364E+02  0.00000000000E+00 0.  1.
         22    1    3    3    0    0 -0.56140647190E+02 -0.22299799051E+02 -0.95526189268E+02  0.11302347606E+03  0.00000000000E+00 0.  1.
</event>
<event>
 7    1  0.5676357E-006  0.1399269E+03  0.7818608E-02  0.1322279E+00
          2   -1    0    0  502    0  0.00000000000E+00  0.00000000000E+00  0.17482294694E+04  0.17482294694E+04  0.00000000000E+00 0. -1.
          1   -1    0    0  501    0 -0.00000000000E+00 -0.00000000000E+00 -0.75006506681E+03  0.75006506681E+03  0.00000000000E+00 0. -1.
         25    2    1    2    0    0  0.10912091319E+03  0.88992856086E+02  0.95531221791E+03  0.97369103323E+03  0.12500276950E+03 0.  0.
          2    1    1    2  501    0 -0.35388957077E+02  0.33259683693E+02 -0.73356441423E+03  0.73517027597E+03  0.00000000000E+00 0. -1.
          1    1    1    2  502    0 -0.73731956116E+02 -0.12225253978E+03  0.77641659889E+03  0.78943322699E+03  0.00000000000E+00 0. -1.
         22    1    3    3    0    0  0.67170295589E+02  0.77095174345E+01  0.68486019277E+03  0.68818948619E+03  0.00000000000E+00 0.  1.
         22    1    3    3    0    0  0.41950617605E+02  0.81283338651E+02  0.27045202514E+03  0.28550154704E+03  0.00000000000E+00 0.  1.
</event>
<event>
 7    1  0.5676357E-006  0.9295198E+02  0.7818608E-02  0.1476253E+00
          2   -1    0    0  502    0  0.00000000000E+00  0.00000000000E+00  0.19135532572E+03  0.19135532572E+03  0.00000000000E+00 0. -1.
          1   -1    0    0  501    0 -0.00000000000E+00 -0.00000000000E+00 -0.16179940204E+04  0.16179940204E+04  0.00000000000E+00 0. -1.
         25    2    1    2    0    0  0.70224752327E+02 -0.19090279479E+02 -0.25763876188E+03  0.29546380944E+03  0.12500070580E+03 0.  0.
          2    1    1    2  501    0  0.21462040313E+02 -0.11242619927E+01 -0.13285696443E+04  0.13287434602E+04  0.00000000000E+00 0. -1.
          1    1    1    2  502    0 -0.91686792640E+02  0.20214541472E+02  0.15956971157E+03  0.18514207648E+03  0.00000000000E+00 0. -1.
         22    1    3    3    0    0  0.73993920060E+02 -0.25242846465E+02 -0.27003265449E+03  0.28112263515E+03  0.00000000000E+00 0. -1.
         22    1    3    3    0    0 -0.37691677332E+01  0.61525669859E+01  0.12393892606E+02  0.14341174284E+02  0.00000000000E+00 0. -1.
</event>
<event>
 7    1  0.5676357E-006  0.6855604E+02  0.7818608E-02  0.1402581E+00
          2   -1    0    0  502    0  0.00000000000E+00  0.00000000000E+00  0.47873197447E+03  0.47873197447E+03  0.00000000000E+00 0. -1.
          1   -1    0    0  501    0 -0.00000000000E+00 -0.00000000000E+00 -0.28030476070E+04  0.28030476070E+04  0.00000000000E+00 0. -1.
         25    2    1    2    0    0 -0.81185276163E+02  0.71396137596E+02 -0.87529463728E+03  0.89075593359E+03  0.12496789046E+03 0.  0.
          2    1    1    2  501    0  0.61140506199E+02 -0.24963734363E+02 -0.19180947831E+04  0.19192313427E+04  0.00000000000E+00 0. -1.
          1    1    1    2  502    0  0.20044769964E+02 -0.46432403234E+02  0.46907378784E+03  0.47179230527E+03  0.00000000000E+00 0. -1.
         22    1    3    3    0    0 -0.65248264644E+02  0.71803406975E+02 -0.30120793944E+03  0.31644792316E+03  0.00000000000E+00 0.  1.
         22    1    3    3    0    0 -0.15937011519E+02 -0.40726937900E+00 -0.57408669784E+03  0.57430801043E+03  0.00000000000E+00 0.  1.
</event>
<event>
 7    1  0.5676357E-006  0.6480662E+02  0.7818608E-02  0.1457624E+00
          2   -1    0    0  502    0  0.00000000000E+00  0.00000000000E+00  0.30504612489E+02  0.30504612489E+02  0.00000000000E+00 0. -1.
          1   -1    0    0  501    0 -0.00000000000E+00 -0.00000000000E+00 -0.11635651826E+04  0.11635651826E+04  0.00000000000E+00 0. -1.
         25    2    1    2    0    0  0.16630545337E+02 -0.44795291755E+02 -0.19989669128E+03  0.24054784300E+03  0.12498553669E+03 0.  0.
          2    1    1    2  501    0 -0.51706891413E+02  0.41347047618E+02 -0.90752727804E+03  0.90993897672E+03  0.00000000000E+00 0. -1.
          1    1    1    2  502    0  0.35076346076E+02  0.34482441374E+01 -0.25636600765E+02  0.43582975351E+02  0.00000000000E+00 0. -1.
         22    1    3    3    0    0  0.59334245042E+02 -0.28235337159E+02 -0.46603936693E+02  0.80558760010E+02  0.00000000000E+00 0. -1.
         22    1    3    3    0    0 -0.42703699705E+02 -0.16559954597E+02 -0.15329275459E+03  0.15998908299E+03  0.00000000000E+00 0. -1.
</event>
<event>
 7    1  0.5676357E-006  0.5020355E+03  0.7818608E-02  0.1124297E+00
          2   -1    0    0  502    0  0.00000000000E+00  0.00000000000E+00  0.99786423858E+03  0.99786423858E+03  0.00000000000E+00 0. -1.
          1   -1    0    0  501    0 -0.00000000000E+00 -0.00000000000E+00 -0.22022444806E+04  0.22022444806E+04  0.00000000000E+00 0. -1.
         25    2    1    2    0    0 -0.50125587945E+03 -0.30346492086E+03 -0.58814715228E+03  0.83957761450E+03  0.12500033262E+03 0.  0.
          2    1    1    2  501    0  0.53635592149E+02  0.94284250737E+02 -0.14161644708E+04  0.14203126786E+04  0.00000000000E+00 0. -1.
          1    1    1    2  502    0  0.44762028730E+03  0.20918067012E+03  0.79993138105E+03  0.94021842608E+03  0.00000000000E+00 0. -1.
         22    1    3    3    0    0 -0.11713686067E+03 -0.95534430621E+02 -0.85476119360E+02  0.17364918239E+03  0.00000000000E+00 0.  1.
         22    1    3    3    0    0 -0.38411901877E+03 -0.20793049024E+03 -0.50267103292E+03  0.66592843211E+03  0.00000000000E+00 0.  1.
</event>
<event>
 7    1  0.5676357E-006  0.5355552E+02  0.7818608E-02  0.1496991E+00
          2   -1    0    0  502    0  0.00000000000E+00  0.00000000000E+00  0.86251428075E+03  0.86251428075E+03  0.00000000000E+00 0. -1.
          1   -1    0    0  501    0 -0.00000000000E+00 -0.00000000000E+00 -0.30237420652E+03  0.30237420652E+03  0.00000000000E+00 0. -1.
         25    2    1    2    0    0 -0.57236462833E+02 -0.11604564527E+02  0.53004916159E+03  0.54771129005E+03  0.12499945980E+03 0.  0.
          2    1    1    2  501    0  0.49789345263E+02 -0.19785345608E+02 -0.29028160866E+03  0.29518443578E+03  0.00000000000E+00 0. -1.
          1    1    1    2  502    0  0.74471175703E+01  0.31389910135E+02  0.32037252129E+03  0.32199276144E+03  0.00000000000E+00 0. -1.
         22    1    3    3    0    0 -0.71822993906E+00  0.25492841268E+02  0.17992675296E+02  0.31211170668E+02  0.00000000000E+00 0. -1.
         22    1    3    3    0    0 -0.56518232894E+02 -0.37097405795E+02  0.51205648630E+03  0.51650011939E+03  0.00000000000E+00 0. -1.
</event>
<event>
 7    1  0.5676357E-006  0.3806102E+02  0.7818608E-02  0.1611916E+00
          2   -1    0    0  502    0  0.00000000000E+00  0.00000000000E+00  0.13817626047E+04  0.13817626047E+04  0.00000000000E+00 0. -1.
          1   -1    0    0  501    0 -0.00000000000E+00 -0.00000000000E+00 -0.28857183200E+02  0.28857183200E+02  0.00000000000E+00 0. -1.
         25    2    1    2    0    0  0.20954056042E+02  0.53756596390E+02  0.25633540449E+03  0.29097047055E+03  0.12500852378E+03 0.  0.
          2    1    1    2  501    0 -0.10159996569E+01 -0.21746496954E+02 -0.65144991620E+00  0.21779962628E+02  0.00000000000E+00 0. -1.
          1    1    1    2  502    0 -0.19938056385E+02 -0.32010099435E+02  0.10972214670E+04  0.10978693548E+04  0.00000000000E+00 0. -1.
         22    1    3    3    0    0 -0.83062818883E-01 -0.34311923442E+02  0.24731861734E+02  0.42296335238E+02  0.00000000000E+00 0. -1.
         22    1    3    3    0    0  0.21037118861E+02  0.88068519832E+02  0.23160354276E+03  0.24867413531E+03  0.00000000000E+00 0. -1.
</event>
<event>
 7    1  0.8334220E-006  0.3355135E+02  0.7818608E-02  0.1565207E+00
          2   -1    0    0  502    0  0.00000000000E+00  0.00000000000E+00  0.11498571955E+04  0.11498571955E+04  0.00000000000E+00 0. -1.
          1   -1    0    0  501    0 -0.00000000000E+00 -0.00000000000E+00 -0.14636517637E+04  0.14636517637E+04  0.00000000000E+00 0. -1.
         25    2    1    2    0    0 -0.46401958403E+02 -0.10548275869E+02 -0.32550554948E+03  0.35191509667E+03  0.12500385856E+03 0.  0.
          2    1    1    2  501    0  0.28791935800E+02 -0.17181663770E+02 -0.11244541704E+04  0.11249539397E+04  0.00000000000E+00 0. -1.
          1    1    1    2  502    0  0.17610022604E+02  0.27729939639E+02  0.11361651517E+04  0.11366399229E+04  0.00000000000E+00 0. -1.
         22    1    3    3    0    0 -0.30001558053E+02 -0.33527187191E+02 -0.32000593063E+03  0.32315315472E+03  0.00000000000E+00 0. -1.
         22    1    3    3    0    0 -0.16400400351E+02  0.22978911322E+02 -0.54996188469E+01  0.28761941949E+02  0.00000000000E+00 0. -1.
</event>
<event>
 7    1  0.5676357E-006  0.1932656E+03  0.7818608E-02  0.1275954E+00
          2   -1    0    0  502    0  0.00000000000E+00  0.00000000000E+00  0.20778093736E+03  0.20778093736E+03  0.00000000000E+00 0. -1.
          1   -1    0    0  501    0 -0.00000000000E+00 -0.00000000000E+00 -0.13582110029E+04  0.13582110029E+04  0.00000000000E+00 0. -1.
         25    2    1    2    0    0  0.11913525579E+03  0.10192188365E+03 -0.10440442878E+03  0.22606713526E+03  0.12499914143E+03 0.  0.
          2    1    1    2  501    0  0.46966174000E+02  0.26510379319E+02 -0.11169916560E+04  0.11182928871E+04  0.00000000000E+00 0. -1.
          1    1    1    2  502    0 -0.16610142979E+03 -0.12843226297E+03  0.70966019257E+02  0.22163191791E+03  0.00000000000E+00 0. -1.
         22    1    3    3    0    0 -0.16184869844E+02 -0.67579922848E+01 -0.34993224374E+02  0.39142639457E+02  0.00000000000E+00 0. -1.
         22    1    3    3    0    0  0.13532012563E+03  0.10867987593E+03 -0.69411204408E+02  0.18692449580E+03  0.00000000000E+00 0. -1.
</event>
<event>
 7    1  0.5676357E-006  0.1547628E+03  0.7818608E-02  0.1233414E+00
          2   -1    0    0  502    0  0.00000000000E+00  0.00000000000E+00  0.13317319083E+04  0.13317319083E+04  0.00000000000E+00 0. -1.
          1   -1    0    0  501    0 -0.00000000000E+00 -0.00000000000E+00 -0.20034620800E+03  0.20034620800E+03  0.00000000000E+00 0. -1.
         25    2    1    2    0    0  0.16146038881E+03  0.89795990695E+02  0.92090813214E+03  0.94753892528E+03  0.12500179992E+03 0.  0.
          2    1    1    2  501    0 -0.97011111351E+02  0.33673437637E+02 -0.15922772205E+03  0.18946905710E+03  0.00000000000E+00 0. -1.
          1    1    1    2  502    0 -0.64449277462E+02 -0.12346942833E+03  0.36970529020E+03  0.39507013390E+03  0.00000000000E+00 0. -1.
         22    1    3    3    0    0  0.12128113889E+03  0.21768775207E+02  0.34720886173E+03  0.36842500986E+03  0.00000000000E+00 0. -1.
         22    1    3    3    0    0  0.40179249928E+02  0.68027215487E+02  0.57369927041E+03  0.57911391542E+03  0.00000000000E+00 0. -1.
</event>
<event>
 7    1  0.5676357E-006  0.2353700E+03  0.7818608E-02  0.1191957E+00
          2   -1    0    0  502    0  0.00000000000E+00  0.00000000000E+00  0.33710113156E+03  0.33710113156E+03  0.00000000000E+00 0. -1.
          1   -1    0    0  501    0 -0.00000000000E+00 -0.00000000000E+00 -0.86453103151E+03  0.86453103151E+03  0.00000000000E+00 0. -1.
         25    2    1    2    0    0 -0.14981058399E+03  0.30461680570E+02  0.82828743968E+02  0.21413824094E+03  0.12499384124E+03 0.  0.
          2    1    1    2  501    0  0.22291414276E+03 -0.10572115801E+03 -0.76316497371E+03  0.80205265126E+03  0.00000000000E+00 0. -1.
          1    1    1    2  502    0 -0.73103558767E+02  0.75259477439E+02  0.15290632980E+03  0.18544127087E+03  0.00000000000E+00 0. -1.
         22    1    3    3    0    0  0.19168903743E+02 -0.59979238744E+00 -0.68078056939E+01  0.20350745441E+02  0.00000000000E+00 0.  1.
         22    1    3    3    0    0 -0.16897948773E+03  0.31061472957E+02  0.89636549662E+02  0.19378749550E+03  0.00000000000E+00 0.  1.
</event>
<event>
 7    1  0.5676357E-006  0.4727981E+02  0.7818608E-02  0.1543913E+00
          2   -1    0    0  502    0  0.00000000000E+00  0.00000000000E+00  0.70199986307E+03  0.70199986307E+03  0.00000000000E+00 0. -1.
          1   -1    0    0  501    0 -0.00000000000E+00 -0.00000000000E+00 -0.38374604472E+02  0.38374604472E+02  0.00000000000E+00 0. -1.
         25    2    1    2    0    0 -0.36210044437E+01  0.52921944571E+02  0.11284817301E+03  0.17655899405E+03  0.12499809734E+03 0.  0.
          2    1    1    2  501    0 -0.22902696767E+02 -0.13735052956E+02  0.27250064639E+02  0.38154308037E+02  0.00000000000E+00 0. -1.
          1    1    1    2  502    0  0.26523701211E+02 -0.39186891615E+02  0.52352702095E+03  0.52566116546E+03  0.00000000000E+00 0. -1.
         22    1    3    3    0    0  0.18734400485E+02  0.89967494378E+02  0.84420977685E+02  0.12478793724E+03  0.00000000000E+00 0. -1.
         22    1    3    3    0    0 -0.22355404928E+02 -0.37045549807E+02  0.28427195323E+02  0.51771056817E+02  0.00000000000E+00 0. -1.
</event>
<event>
 7    1  0.5676357E-006  0.9654189E+02  0.7818608E-02  0.1344718E+00
          2   -1    0    0  502    0  0.00000000000E+00  0.00000000000E+00  0.59759518477E+03  0.59759518477E+03  0.00000000000E+00 0. -1.
          1   -1    0    0  501    0 -0.00000000000E+00 -0.00000000000E+00 -0.49037461503E+03  0.49037461503E+03  0.00000000000E+00 0. -1.
         25    2    1    2    0    0  0.32296399284E+02  0.23213438589E+02  0.35615413594E+03  0.37954202139E+03  0.12499782525E+03 0.  0.
          2    1    1    2  501    0 -0.73284772308E+02 -0.64025542249E+02 -0.46997472880E+03  0.47994392758E+03  0.00000000000E+00 0. -1.
          1    1    1    2  502    0  0.40988373024E+02  0.40812103660E+02  0.22104116260E+03  0.22848385083E+03  0.00000000000E+00 0. -1.
         22    1    3    3    0    0  0.71477973280E+02  0.69088708529E+01  0.30367685951E+03  0.31205202797E+03  0.00000000000E+00 0. -1.
         22    1    3    3    0    0 -0.39181573996E+02  0.16304567736E+02  0.52477276428E+02  0.67489993415E+02  0.00000000000E+00 0. -1.
</event>
<event>
 7    1  0.5676357E-006  0.7935946E+02  0.7818608E-02  0.1456270E+00
          2   -1    0    0  502    0  0.00000000000E+00  0.00000000000E+00  0.19951631596E+03  0.19951631596E+03  0.00000000000E+00 0. -1.
          1   -1    0    0  501    0 -0.00000000000E+00 -0.00000000000E+00 -0.15318820541E+03  0.15318820541E+03  0.00000000000E+00 0. -1.
         25    2    1    2    0    0  0.48030600866E+02 -0.34818016867E+02  0.47309794120E+01  0.13843517722E+03  0.12499073249E+03 0.  0.
          2    1    1    2  501    0  0.29014751824E+02  0.17574459130E+01 -0.69356842528E+02  0.75201835383E+02  0.00000000000E+00 0. -1.
          1    1    1    2  502    0 -0.77045352691E+02  0.33060570954E+02  0.11095397366E+03  0.13906750876E+03  0.00000000000E+00 0. -1.
         22    1    3    3    0    0 -0.29815379041E+02  0.22962633012E+02 -0.13129049924E+02  0.39857386945E+02  0.00000000000E+00 0.  1.
         22    1    3    3    0    0  0.77845979908E+02 -0.57780649879E+02  0.17860029336E+02  0.98577790278E+02  0.00000000000E+00 0.  1.
</event>
<event>
 7    1  0.5676357E-006  0.2816059E+03  0.7818608E-02  0.1171377E+00
          2   -1    0    0  502    0  0.00000000000E+00  0.00000000000E+00  0.18101200995E+04  0.18101200995E+04  0.00000000000E+00 0. -1.
          1   -1    0    0  501    0 -0.00000000000E+00 -0.00000000000E+00 -0.51666853053E+03  0.51666853053E+03  0.00000000000E+00 0. -1.
         25    2    1    2    0    0 -0.19069152315E+03  0.22252294035E+03 -0.19953743802E+03  0.37592721127E+03  0.12500545195E+03 0.  0.
          2    1    1    2  501    0  0.89285696243E+02 -0.26627943950E+03 -0.14022985118E+03  0.31391254613E+03  0.00000000000E+00 0. -1.
          1    1    1    2  502    0  0.10140582691E+03  0.43756499152E+02  0.16332188582E+04  0.16369488727E+04  0.00000000000E+00 0. -1.
         22    1    3    3    0    0 -0.17547541638E+03  0.23856713926E+03 -0.18989638292E+03  0.35180468720E+03  0.00000000000E+00 0.  1.
         22    1    3    3    0    0 -0.15216106771E+02 -0.16044198912E+02 -0.96410550938E+01  0.24122524066E+02  0.00000000000E+00 0.  1.
</event>
<event>
 7    1  0.5676357E-006  0.1403625E+03  0.7818608E-02  0.1298009E+00
          2   -1    0    0  502    0  0.00000000000E+00  0.00000000000E+00  0.14506473277E+04  0.14506473277E+04  0.00000000000E+00 0. -1.
          1   -1    0    0  501    0 -0.00000000000E+00 -0.00000000000E+00 -0.17920109422E+03  0.17920109422E+03  0.00000000000E+00 0. -1.
         25    2    1    2    0    0  0.10747472391E+03 -0.10484470740E+03  0.21451964658E+03  0.29014928198E+03  0.12499879247E+03 0.  0.
          2    1    1    2  501    0 -0.52749544840E+02  0.13026306932E+03 -0.10548558271E+03  0.17572191061E+03  0.00000000000E+00 0. -1.
          1    1    1    2  502    0 -0.54725179065E+02 -0.25418361919E+02  0.11624121696E+04  0.11639772294E+04  0.00000000000E+00 0. -1.
         22    1    3    3    0    0  0.94730990972E+02 -0.30653628417E+02  0.54971861725E+02  0.11373438867E+03  0.00000000000E+00 0.  1.
         22    1    3    3    0    0  0.12743732933E+02 -0.74191078980E+02  0.15954778485E+03  0.17641489331E+03  0.00000000000E+00 0.  1.
</event>
<event>
 7    1  0.5676357E-006  0.5079188E+02  0.7818608E-02  0.1517768E+00
          2   -1    0    0  502    0  0.00000000000E+00  0.00000000000E+00  0.50081522847E+03  0.50081522847E+03  0.00000000000E+00 0. -1.
          1   -1    0    0  501    0 -0.00000000000E+00 -0.00000000000E+00 -0.11461774733E+04  0.11461774733E+04  0.00000000000E+00 0. -1.
         25    2    1    2    0    0  0.41075705590E+02 -0.46772128147E+02 -0.45828495450E+03  0.47908796625E+03  0.12500133730E+03 0.  0.
          2    1    1    2  501    0 -0.47079255542E+02  0.17855580161E+02 -0.67610937822E+03  0.67798168807E+03  0.00000000000E+00 0. -1.
          1    1    1    2  502    0  0.60035499519E+01  0.28916547986E+02  0.48903208793E+03  0.48992304741E+03  0.00000000000E+00 0. -1.
         22    1    3    3    0    0  0.26215004276E+02 -0.11428155935E+01 -0.97493150479E+01  0.27992527942E+02  0.00000000000E+00 0. -1.
         22    1    3    3    0    0  0.14860701315E+02 -0.45629312553E+02 -0.44853563945E+03  0.45109543831E+03  0.00000000000E+00 0. -1.
</event>
<event>
 7    1  0.5676357E-006  0.1293000E+03  0.7818608E-02  0.1244697E+00
          2   -1    0    0  502    0  0.00000000000E+00  0.00000000000E+00  0.10617236739E+04  0.10617236739E+04  0.00000000000E+00 0. -1.
          1   -1    0    0  501    0 -0.00000000000E+00 -0.00000000000E+00 -0.90348330425E+03  0.90348330425E+03  0.00000000000E+00 0. -1.
         25    2    1    2    0    0  0.26826694104E+02  0.22344773941E+02  0.59382732996E+02  0.14272355298E+03  0.12499897263E+03 0.  0.
          2    1    1    2  501    0  0.41838981367E+02  0.10128410222E+03 -0.85308450056E+03  0.86009425927E+03  0.00000000000E+00 0. -1.
          1    1    1    2  502    0 -0.68665675471E+02 -0.12362887616E+03  0.95194213721E+03  0.96238916588E+03  0.00000000000E+00 0. -1.
         22    1    3    3    0    0  0.97635213648E+01  0.65929395017E+02  0.67905633886E+02  0.95148234824E+02  0.00000000000E+00 0. -1.
         22    1    3    3    0    0  0.17063172739E+02 -0.43584621076E+02 -0.85229008901E+01  0.47575318158E+02  0.00000000000E+00 0. -1.
</event>
<event>
 7    1  0.5676357E-006  0.7651624E+02  0.7818608E-02  0.1365530E+00
          2   -1    0    0  502    0  0.00000000000E+00  0.00000000000E+00  0.15582926401E+04  0.15582926401E+04  0.00000000000E+00 0. -1.
          1   -1    0    0  501    0 -0.00000000000E+00 -0.00000000000E+00 -0.32022658424E+03  0.32022658424E+03  0.00000000000E+00 0. -1.
         25    2    1    2    0    0 -0.24042974496E+02 -0.10401258014E+03  0.41931977487E+03  0.45038974045E+03  0.12500065302E+03 0.  0.
          2    1    1    2  501    0 -0.31163746671E+02  0.52660087172E+02 -0.30033803978E+03  0.30650807824E+03  0.00000000000E+00 0. -1.
          1    1    1    2  502    0  0.55206721167E+02  0.51352492969E+02  0.11190843208E+04  0.11216214056E+04  0.00000000000E+00 0. -1.
         22    1    3    3    0    0 -0.18176001230E+02 -0.51207187169E+01 -0.64919518207E+00  0.18894714480E+02  0.00000000000E+00 0.  1.
         22    1    3    3    0    0 -0.58669732656E+01 -0.98891861424E+02  0.41996897005E+03  0.43149502597E+03  0.00000000000E+00 0.  1.
</event>
<event>
 7    1  0.5676357E-006  0.1418871E+03  0.7818608E-02  0.1351811E+00
          2   -1    0    0  502    0  0.00000000000E+00  0.00000000000E+00  0.22482707729E+04  0.22482707729E+04  0.00000000000E+00 0. -1.
          1   -1    0    0  501    0 -0.00000000000E+00 -0.00000000000E+00 -0.87749375716E+02  0.87749375716E+02  0.00000000000E+00 0. -1.
         25    2    1    2    0    0  0.61694702704E+02  0.10718595185E+03  0.99494488755E+03  0.10103642679E+04  0.12500224000E+03 0.  0.
          2    1    1    2  501    0 -0.98591949168E+02 -0.10394566680E+03 -0.15406883986E+02  0.14409179769E+03  0.00000000000E+00 0. -1.
          1    1    1    2  502    0  0.36897246465E+02 -0.32402850505E+01  0.11809833936E+04  0.11815640830E+04  0.00000000000E+00 0. -1.
         22    1    3    3    0    0  0.57212294157E+02 -0.59614821269E+01  0.23002101844E+03  0.23710431206E+03  0.00000000000E+00 0.  1.
         22    1    3    3    0    0  0.44824085466E+01  0.11314743398E+03  0.76492386911E+03  0.77325995586E+03  0.00000000000E+00 0.  1.
</event>
<event>
 7    1  0.5676357E-006  0.5975138E+02  0.7818608E-02  0.1429832E+00
          2   -1    0    0  502    0  0.00000000000E+00  0.00000000000E+00  0.55972279202E+03  0.55972279202E+03  0.00000000000E+00 0. -1.
          1   -1    0    0  501    0 -0.00000000000E+00 -0.00000000000E+00 -0.93478798415E+03  0.93478798415E+03  0.00000000000E+00 0. -1.
         25    2    1    2    0    0 -0.23959501401E+02  0.98897904455E+02  0.16614588488E+03  0.23148323312E+03  0.12500071576E+03 0.  0.
          2    1    1    2  501    0  0.21085307770E+02 -0.42005200605E+02 -0.89925394277E+03  0.90048136053E+03  0.00000000000E+00 0. -1.
          1    1    1    2  502    0  0.28741936311E+01 -0.56892703850E+02  0.35804286576E+03  0.36254618252E+03  0.00000000000E+00 0. -1.
         22    1    3    3    0    0  0.14790187443E+02  0.83500054190E+02  0.31388982554E+02  0.90422767709E+02  0.00000000000E+00 0. -1.
         22    1    3    3    0    0 -0.38749688845E+02  0.15397850265E+02  0.13475690233E+03  0.14106046541E+03  0.00000000000E+00 0. -1.
</event>
<event>
 7    1  0.5676357E-006  0.5622096E+02  0.7818608E-02  0.1459994E+00
          2   -1    0    0  502    0  0.00000000000E+00  0.00000000000E+00  0.90332134791E+03  0.90332134791E+03  0.00000000000E+00 0. -1.
          1   -1    0    0  501    0 -0.00000000000E+00 -0.00000000000E+00 -0.13066034747E+04  0.13066034747E+04  0.00000000000E+00 0. -1.
         25    2    1    2    0    0 -0.28783147435E+02 -0.53305421657E+02  0.43582991389E+02  0.14558778222E+03  0.12500555043E+03 0.  0.
          2    1    1    2  501    0 -0.23543144557E+02  0.32255206653E+02 -0.12542995592E+04  0.12549350829E+04  0.00000000000E+00 0. -1.
          1    1    1    2  502    0  0.52326291993E+02  0.21050215004E+02  0.80743444099E+03  0.80940195755E+03  0.00000000000E+00 0. -1.
         22    1    3    3    0    0 -0.26873438382E+02  0.18417414397E+02  0.63289454599E+02  0.71182426953E+02  0.00000000000E+00 0. -1.
         22    1    3    3    0    0 -0.19097090535E+01 -0.71722836054E+02 -0.19706463210E+02  0.74405355268E+02  0.00000000000E+00 0. -1.
</event>
<event>
 7    1  0.5676357E-006  0.7885096E+02  0.7818608E-02  0.1412471E+00
          2   -1    0    0  502    0  0.00000000000E+00  0.00000000000E+00  0.16417618481E+04  0.16417618481E+04  0.00000000000E+00 0. -1.
          1   -1    0    0  501    0 -0.00000000000E+00 -0.00000000000E+00 -0.19193213805E+03  0.19193213805E+03  0.00000000000E+00 0. -1.
         25    2    1    2    0    0 -0.75920236460E+02 -0.26093118870E+01  0.25634203459E+03  0.29513304084E+03  0.12498632839E+03 0.  0.
          2    1    1    2  501    0  0.57867867496E+01  0.40280825853E+02 -0.16895886720E+03  0.17379047913E+03  0.00000000000E+00 0. -1.
          1    1    1    2  502    0  0.70133449710E+02 -0.37671513966E+02  0.13624465426E+04  0.13647704662E+04  0.00000000000E+00 0. -1.
         22    1    3    3    0    0  0.18504987944E+02  0.15468955738E+02  0.31763590807E+01  0.24327195223E+02  0.00000000000E+00 0. -1.
         22    1    3    3    0    0 -0.94425224404E+02 -0.18078267624E+02  0.25316567551E+03  0.27080584561E+03  0.00000000000E+00 0. -1.
</event>
<event>
 7    1  0.5676357E-006  0.1313190E+03  0.7818608E-02  0.1339307E+00
          2   -1    0    0  502    0  0.00000000000E+00  0.00000000000E+00  0.75529059056E+02  0.75529059056E+02  0.00000000000E+00 0. -1.
          1   -1    0    0  501    0 -0.00000000000E+00 -0.00000000000E+00 -0.62565033022E+03  0.62565033022E+03  0.00000000000E+00 0. -1.
         25    2    1    2    0    0 -0.84203660176E+02  0.56805624995E+02 -0.26613129588E+03  0.31107625775E+03  0.12500174427E+03 0.  0.
          2    1    1    2  501    0 -0.19330561183E+02  0.40146373312E+02 -0.23629201632E+03  0.24045648019E+03  0.00000000000E+00 0. -1.
          1    1    1    2  502    0  0.10353422136E+03 -0.96951998307E+02 -0.47697958962E+02  0.14964665134E+03  0.00000000000E+00 0. -1.
         22    1    3    3    0    0 -0.81979975603E+02 -0.11704650102E+02 -0.19711721161E+03  0.21380577716E+03  0.00000000000E+00 0. -1.
         22    1    3    3    0    0 -0.22236845724E+01  0.68510275096E+02 -0.69014084274E+02  0.97270480594E+02  0.00000000000E+00 0. -1.
</event>
<event>
 7    1  0.5676357E-006  0.1302010E+03  0.7818608E-02  0.1329680E+00
          2   -1    0    0  502    0  0.00000000000E+00  0.00000000000E+00  0.81200702290E+03  0.81200702290E+03  0.00000000000E+00 0. -1.
          1   -1    0    0  501    0 -0.00000000000E+00 -0.00000000000E+00 -0.94370041000E+03  0.94370041000E+03  0.00000000000E+00 0. -1.
         25    2    1    2    0    0 -0.28267357947E+02  0.90105829950E+02 -0.20580257553E+03  0.25865444672E+03  0.12501727320E+03 0.  0.
          2    1    1    2  501    0  0.62476446657E+02 -0.12502501730E+03 -0.70383318242E+03  0.71757627470E+03  0.00000000000E+00 0. -1.
          1    1    1    2  502    0 -0.34209088710E+02  0.34919187352E+02  0.77794237084E+03  0.77947671148E+03  0.00000000000E+00 0. -1.
         22    1    3    3    0    0 -0.26567528201E+02  0.11746665663E+03 -0.12611089520E+03  0.17437949094E+03  0.00000000000E+00 0. -1.
         22    1    3    3    0    0 -0.16998297457E+01 -0.27360826679E+02 -0.79691680330E+02  0.84274955779E+02  0.00000000000E+00 0. -1.
</event>
<event>
 7    1  0.5676357E-006  0.1132790E+03  0.7818608E-02  0.1294164E+00
          2   -1    0    0  502    0  0.00000000000E+00  0.00000000000E+00  0.12997122094E+04  0.12997122094E+04  0.00000000000E+00 0. -1.
          1   -1    0    0  501    0 -0.00000000000E+00 -0.00000000000E+00 -0.14905132785E+04  0.14905132785E+04  0.00000000000E+00 0. -1.
         25    2    1    2    0    0  0.11738854695E+03  0.57347495276E+02 -0.17754052023E+03  0.25340689478E+03  0.12500244729E+03 0.  0.
          2    1    1    2  501    0 -0.57844566865E+01 -0.77265216467E+02 -0.12713112932E+04  0.12736701998E+04  0.00000000000E+00 0. -1.
          1    1    1    2  502    0 -0.11160409027E+03  0.19917721190E+02  0.12580507443E+04  0.12631483934E+04  0.00000000000E+00 0. -1.
         22    1    3    3    0    0  0.92968878188E+02  0.29747061249E+02 -0.31169257261E+02  0.10246766594E+03  0.00000000000E+00 0. -1.
         22    1    3    3    0    0  0.24419668766E+02  0.27600434028E+02 -0.14637126297E+03  0.15093922884E+03  0.00000000000E+00 0. -1.
</event>
<event>
 7    1  0.5676357E-006  0.1524615E+03  0.7818608E-02  0.1231018E+00
          2   -1    0    0  502    0  0.00000000000E+00  0.00000000000E+00  0.49541157202E+03  0.49541157202E+03  0.00000000000E+00 0. -1.
          1   -1    0    0  501    0 -0.00000000000E+00 -0.00000000000E+00 -0.91291899941E+03  0.91291899941E+03  0.00000000000E+00 0. -1.
         25    2    1    2    0    0 -0.21648861364E+03 -0.63208022600E+01 -0.22556550599E+02  0.25107490407E+03  0.12499014803E+03 0.  0.
          2    1    1    2  501    0  0.86117880576E+02 -0.63233510780E+02 -0.75789306159E+03  0.76538660757E+03  0.00000000000E+00 0. -1.
          1    1    1    2  502    0  0.13037073306E+03  0.69554313040E+02  0.36294218481E+03  0.39186905978E+03  0.00000000000E+00 0. -1.
         22    1    3    3    0    0 -0.99275805467E+02  0.53124378093E+02  0.16893874348E+02  0.11385643631E+03  0.00000000000E+00 0. -1.
         22    1    3    3    0    0 -0.11721280817E+03 -0.59445180353E+02 -0.39450424948E+02  0.13721846776E+03  0.00000000000E+00 0. -1.
</event>
<event>
 7    1  0.5676357E-006  0.5326739E+02  0.7818608E-02  0.1519864E+00
          2   -1    0    0  502    0  0.00000000000E+00  0.00000000000E+00  0.11432293739E+03  0.11432293739E+03  0.00000000000E+00 0. -1.
          1   -1    0    0  501    0 -0.00000000000E+00 -0.00000000000E+00 -0.16620466910E+04  0.16620466910E+04  0.00000000000E+00 0. -1.
         25    2    1    2    0    0  0.11306986787E+02 -0.36760519371E+02 -0.68164743621E+03  0.69407871668E+03  0.12499141537E+03 0.  0.
          2    1    1    2  501    0 -0.38906182914E+02  0.39817691198E+02 -0.97159049454E+03  0.97318406722E+03  0.00000000000E+00 0. -1.
          1    1    1    2  502    0  0.27599196127E+02 -0.30571718276E+01  0.10551417717E+03  0.10910684447E+03  0.00000000000E+00 0. -1.
         22    1    3    3    0    0  0.78434041587E+01  0.42755302826E+02 -0.36510009938E+03  0.36767868782E+03  0.00000000000E+00 0. -1.
         22    1    3    3    0    0  0.34635826284E+01 -0.79515822196E+02 -0.31654733684E+03  0.32640002886E+03  0.00000000000E+00 0. -1.
</event>
<event>
 7    1  0.5676357E-006  0.8657488E+02  0.7818608E-02  0.1325020E+00
          2   -1    0    0  502    0  0.00000000000E+00  0.00000000000E+00  0.91740037423E+03  0.91740037423E+03  0.00000000000E+00 0. -1.
          1   -1    0    0  501    0 -0.00000000000E+00 -0.00000000000E+00 -0.12511397864E+03  0.12511397864E+03  0.00000000000E+00 0. -1.
         25    2    1    2    0    0  0.16450658639E+02  0.23148346938E+02  0.95673115632E+02  0.15995218867E+03  0.12499954988E+03 0.  0.
          2    1    1    2  501    0  0.75414689481E+02 -0.13455127826E+02 -0.73953681110E+02  0.10647799211E+03  0.00000000000E+00 0. -1.
          1    1    1    2  502    0 -0.91865348120E+02 -0.96932191118E+01  0.77056696107E+03  0.77608417209E+03  0.00000000000E+00 0. -1.
         22    1    3    3    0    0 -0.50562002905E+02  0.80859842934E+01  0.13696150436E+02  0.53004564111E+02  0.00000000000E+00 0. -1.
         22    1    3    3    0    0  0.67012661544E+02  0.15062362644E+02  0.81976965196E+02  0.10694762456E+03  0.00000000000E+00 0. -1.
</event>
<event>
 7    1  0.5676357E-006  0.1283146E+03  0.7818608E-02  0.1272251E+00
          2   -1    0    0  502    0  0.00000000000E+00  0.00000000000E+00  0.18443212586E+03  0.18443212586E+03  0.00000000000E+00 0. -1.
          1   -1    0    0  501    0 -0.00000000000E+00 -0.00000000000E+00 -0.26220858142E+04  0.26220858142E+04  0.00000000000E+00 0. -1.
         25    2    1    2    0    0  0.12607401260E+03  0.79316064369E+02 -0.98709531084E+03  0.10060654980E+04  0.12499975515E+03 0.  0.
          2    1    1    2  501    0 -0.51088160303E+02 -0.11755304767E+03 -0.16126888904E+04  0.16177744517E+04  0.00000000000E+00 0. -1.
          1    1    1    2  502    0 -0.74985852293E+02  0.38236983303E+02  0.16213051298E+03  0.18267799039E+03  0.00000000000E+00 0. -1.
         22    1    3    3    0    0  0.38469673085E+02 -0.63062447553E+01 -0.57058483967E+03  0.57191497946E+03  0.00000000000E+00 0.  1.
         22    1    3    3    0    0  0.87604339511E+02  0.85622309124E+02 -0.41651047117E+03  0.43415051850E+03  0.00000000000E+00 0.  1.
</event>
<event>
 7    1  0.5676357E-006  0.1895024E+03  0.7818608E-02  0.1286273E+00
          2   -1    0    0  502    0  0.00000000000E+00  0.00000000000E+00  0.12044599256E+04  0.12044599256E+04  0.00000000000E+00 0. -1.
          1   -1    0    0  501    0 -0.00000000000E+00 -0.00000000000E+00 -0.17074233486E+04  0.17074233486E+04  0.00000000000E+00 0. -1.
         25    2    1    2    0    0 -0.73529912469E+02 -0.12123280370E+03 -0.12812080077E+03  0.22834613910E+03  0.12499191547E+03 0.  0.
          2    1    1    2  501    0 -0.24329776863E+02 -0.43529203563E+02 -0.15208251879E+04  0.15216425276E+04  0.00000000000E+00 0. -1.
          1    1    1    2  502    0  0.97859689331E+02  0.16476200726E+03  0.11459825657E+04  0.11618946074E+04  0.00000000000E+00 0. -1.
         22    1    3    3    0    0 -0.57858959315E+02 -0.13285734759E+03 -0.58890427177E+02  0.15641872137E+03  0.00000000000E+00 0. -1.
         22    1    3    3    0    0 -0.15670953153E+02  0.11624543894E+02 -0.69230373592E+02  0.71927417729E+02  0.00000000000E+00 0. -1.
</event>
<event>
 7    1  0.5676357E-006  0.9977225E+02  0.7818608E-02  0.1362295E+00
          2   -1    0    0  502    0  0.00000000000E+00  0.00000000000E+00  0.22534160713E+04  0.22534160713E+04  0.00000000000E+00 0. -1.
          1   -1    0    0  501    0 -0.00000000000E+00 -0.00000000000E+00 -0.65051627882E+02  0.65051627882E+02  0.00000000000E+00 0. -1.
         25    2    1    2    0    0 -0.75753024965E+02 -0.11782206101E+03  0.50169553962E+03  0.53567055512E+03  0.12499588109E+03 0.  0.
          2    1    1    2  501    0  0.37399164263E+02  0.88607721316E+02  0.74090871601E+00  0.96179908037E+02  0.00000000000E+00 0. -1.
          1    1    1    2  502    0  0.38353860702E+02  0.29214339696E+02  0.16859279951E+04  0.16866172360E+04  0.00000000000E+00 0. -1.
         22    1    3    3    0    0 -0.29238563261E+02 -0.91149523937E+02  0.45376366488E+03  0.46375057182E+03  0.00000000000E+00 0.  1.
         22    1    3    3    0    0 -0.46514461704E+02 -0.26672537074E+02  0.47931874744E+02  0.71919983301E+02  0.00000000000E+00 0.  1.
</event>
<event>
 7    1  0.5676357E-006  0.1508514E+03  0.7818608E-02  0.1275598E+00
          2   -1    0    0  502    0  0.00000000000E+00  0.00000000000E+00  0.72952303697E+02  0.72952303697E+02  0.00000000000E+00 0. -1.
          1   -1    0    0  501    0 -0.00000000000E+00 -0.00000000000E+00 -0.15574842768E+04  0.15574842768E+04  0.00000000000E+00 0. -1.
         25    2    1    2    0    0  0.89545867810E+02  0.69464517644E+02 -0.19860774890E+03  0.26060212640E+03  0.12499859482E+03 0.  0.
          2    1    1    2  501    0 -0.15260660833E+03 -0.40651448763E+02 -0.12907119414E+04  0.13003378918E+04  0.00000000000E+00 0. -1.
          1    1    1    2  502    0  0.63060740516E+02 -0.28813068881E+02  0.47877172090E+01  0.69496562281E+02  0.00000000000E+00 0. -1.
         22    1    3    3    0    0  0.85942947629E+02  0.83108781394E+02 -0.21054350760E+03  0.24211945065E+03  0.00000000000E+00 0. -1.
         22    1    3    3    0    0  0.36029201811E+01 -0.13644263751E+02  0.11935758698E+02  0.18482675748E+02  0.00000000000E+00 0. -1.
</event>
<event>
 7    1  0.5676357E-006  0.7762133E+02  0.7818608E-02  0.1411853E+00
          2   -1    0    0  502    0  0.00000000000E+00  0.00000000000E+00  0.37450962706E+03  0.37450962706E+03  0.00000000000E+00 0. -1.
          1   -1    0    0  501    0 -0.00000000000E+00 -0.00000000000E+00 -0.18396629145E+03  0.18396629145E+03  0.00000000000E+00 0. -1.
         25    2    1    2    0    0 -0.81619196069E+02 -0.66817642663E+02 -0.65385018318E+01  0.16369009586E+03  0.12500161974E+03 0.  0.
          2    1    1    2  501    0  0.41493602652E+02  0.19233544350E+01 -0.89260762183E+02  0.98452536884E+02  0.00000000000E+00 0. -1.
          1    1    1    2  502    0  0.40125593417E+02  0.64894288228E+02  0.28634259963E+03  0.29633328576E+03  0.00000000000E+00 0. -1.
         22    1    3    3    0    0 -0.16207942271E+01  0.24943695899E+02  0.27620040880E+02  0.37251598586E+02  0.00000000000E+00 0. -1.
         22    1    3    3    0    0 -0.79998401842E+02 -0.91761338562E+02 -0.34158542712E+02  0.12643849727E+03  0.00000000000E+00 0. -1.
</event>
<event>
 7    1  0.5676357E-006  0.7078130E+02  0.7818608E-02  0.1384866E+00
          2   -1    0    0  502    0  0.00000000000E+00  0.00000000000E+00  0.11569458981E+04  0.11569458981E+04  0.00000000000E+00 0. -1.
          1   -1    0    0  501    0 -0.00000000000E+00 -0.00000000000E+00 -0.72881694556E+02  0.72881694556E+02  0.00000000000E+00 0. -1.
         25    2    1    2    0    0 -0.89981806039E+02 -0.71369095638E+02  0.28181575246E+03  0.32899066610E+03  0.12499786725E+03 0.  0.
          2    1    1    2  501    0  0.24573886494E+02  0.50802909990E+02 -0.31259707324E+02  0.64513416146E+02  0.00000000000E+00 0. -1.
          1    1    1    2  502    0  0.65407919545E+02  0.20566185648E+02  0.83350815840E+03  0.83632351040E+03  0.00000000000E+00 0. -1.
         22    1    3    3    0    0 -0.54186771928E+02  0.27580923293E+02  0.13790194994E+03  0.15071118531E+03  0.00000000000E+00 0. -1.
         22    1    3    3    0    0 -0.35795034111E+02 -0.98950018931E+02  0.14391380252E+03  0.17827948079E+03  0.00000000000E+00 0. -1.
</event>
<event>
 7    1  0.5676357E-006  0.7377850E+02  0.7818608E-02  0.1478480E+00
          2   -1    0    0  502    0  0.00000000000E+00  0.00000000000E+00  0.39787686040E+03  0.39787686040E+03  0.00000000000E+00 0. -1.
          1   -1    0    0  501    0 -0.00000000000E+00 -0.00000000000E+00 -0.36029980821E+03  0.36029980821E+03  0.00000000000E+00 0. -1.
         25    2    1    2    0    0 -0.36750443775E+02 -0.84166674886E+02  0.58452553107E+02  0.16576001391E+03  0.12500022787E+03 0.  0.
          2    1    1    2  501    0  0.43939964097E+02  0.58502324837E+02 -0.30164163778E+03  0.31038833757E+03  0.00000000000E+00 0. -1.
          1    1    1    2  502    0 -0.71895203223E+01  0.25664350049E+02  0.28076613685E+03  0.28202831714E+03  0.00000000000E+00 0. -1.
         22    1    3    3    0    0  0.44234132250E+02 -0.12219713641E+02  0.93989957597E+01  0.46843579909E+02  0.00000000000E+00 0.  1.
         22    1    3    3    0    0 -0.80984576025E+02 -0.71946961245E+02  0.49053557347E+02  0.11891643400E+03  0.00000000000E+00 0.  1.
</event>
<event>
 7    1  0.5676357E-006  0.5191126E+02  0.7818608E-02  0.1448653E+00
          2   -1    0    0  502    0  0.00000000000E+00  0.00000000000E+00  0.50899878881E+03  0.50899878881E+03  0.00000000000E+00 0. -1.
          1   -1    0    0  501    0 -0.00000000000E+00 -0.00000000000E+00 -0.42365848086E+03  0.42365848086E+03  0.00000000000E+00 0. -1.
         25    2    1    2    0    0  0.10606636133E+02  0.47166796713E+02 -0.14632710807E+03  0.19842883519E+03  0.12500069055E+03 0.  0.
          2    1    1    2  501    0  0.35958457203E+02 -0.40836822632E+02 -0.24717117173E+03  0.25308940093E+03  0.00000000000E+00 0. -1.
          1    1    1    2  502    0 -0.46565093336E+02 -0.63299740809E+01  0.47883858775E+03  0.48113903356E+03  0.00000000000E+00 0. -1.
         22    1    3    3    0    0 -0.57369709056E+02  0.20687949596E+02 -0.63085893392E+02  0.87744542399E+02  0.00000000000E+00 0. -1.
         22    1    3    3    0    0  0.67976345189E+02  0.26478847117E+02 -0.83241214682E+02  0.11068429280E+03  0.00000000000E+00 0. -1.
</event>
<event>
 7    1  0.5676357E-006  0.2532101E+03  0.7818608E-02  0.1204166E+00
          2   -1    0    0  502    0  0.00000000000E+00  0.00000000000E+00  0.25510129918E+04  0.25510129918E+04  0.00000000000E+00 0. -1.
          1   -1    0    0  501    0 -0.00000000000E+00 -0.00000000000E+00 -0.15891351381E+03  0.15891351381E+03  0.00000000000E+00 0. -1.
         25    2    1    2    0    0 -0.13716319968E+03  0.13675193187E+03  0.53405319650E+03  0.58168006438E+03  0.12499618550E+03 0.  0.
          2    1    1    2  501    0  0.22124930783E+03 -0.15155433755E+03 -0.60629757700E-01  0.26817900202E+03  0.00000000000E+00 0. -1.
          1    1    1    2  502    0 -0.84086108153E+02  0.14802405681E+02  0.18581069112E+04  0.18600674392E+04  0.00000000000E+00 0. -1.
         22    1    3    3    0    0 -0.10322592388E+03  0.10072857726E+03  0.50296188195E+03  0.52323273248E+03  0.00000000000E+00 0. -1.
         22    1    3    3    0    0 -0.33937275805E+02  0.36023354611E+02  0.31091314547E+02  0.58447331904E+02  0.00000000000E+00 0. -1.
</event>
<event>
 7    1  0.5676357E-006  0.7420391E+02  0.7818608E-02  0.1481090E+00
          2   -1    0    0  502    0  0.00000000000E+00  0.00000000000E+00  0.62047145051E+03  0.62047145051E+03  0.00000000000E+00 0. -1.
          1   -1    0    0  501    0 -0.00000000000E+00 -0.00000000000E+00 -0.78511514899E+03  0.78511514899E+03  0.00000000000E+00 0. -1.
         25    2    1    2    0    0  0.61265103585E+02 -0.77885929263E+02 -0.54774673146E+02  0.16865774766E+03  0.12500216051E+03 0.  0.
          2    1    1    2  501    0 -0.47754584328E+02  0.55653821624E+02 -0.67110019494E+03  0.67509504504E+03  0.00000000000E+00 0. -1.
          1    1    1    2  502    0 -0.13510519258E+02  0.22232107639E+02  0.56123116960E+03  0.56183380681E+03  0.00000000000E+00 0. -1.
         22    1    3    3    0    0 -0.38832723555E+02 -0.17649673584E+02 -0.16227764658E+02  0.45638051472E+02  0.00000000000E+00 0.  1.
         22    1    3    3    0    0  0.10009782714E+03 -0.60236255679E+02 -0.38546908489E+02  0.12301969619E+03  0.00000000000E+00 0.  1.
</event>
<event>
 7    1  0.5676357E-006  0.1439173E+03  0.7818608E-02  0.1307530E+00
          2   -1    0    0  502    0  0.00000000000E+00  0.00000000000E+00  0.12492068040E+04  0.12492068040E+04  0.00000000000E+00 0. -1.
          1   -1    0    0  501    0 -0.00000000000E+00 -0.00000000000E+00 -0.43383178820E+03  0.43383178820E+03  0.00000000000E+00 0. -1.
         25    2    1    2    0    0 -0.20263181465E+02 -0.18846237697E+03 -0.44152452576E+02  0.23130858539E+03  0.12500223418E+03 0.  0.
          2    1    1    2  501    0 -0.17475134617E+02  0.51015954338E+02 -0.28920450459E+03  0.29418914562E+03  0.00000000000E+00 0. -1.
          1    1    1    2  502    0  0.37738316082E+02  0.13744642264E+03  0.11487319729E+04  0.11575408612E+04  0.00000000000E+00 0. -1.
         22    1    3    3    0    0  0.89213881527E+00 -0.15383759643E+03 -0.83284236576E+02  0.17493732035E+03  0.00000000000E+00 0.  1.
         22    1    3    3    0    0 -0.21155320280E+02 -0.34624780541E+02  0.39131784000E+02  0.56371265044E+02  0.00000000000E+00 0.  1.
</event>
<event>
 7    1  0.5676357E-006  0.9048213E+02  0.7818608E-02  0.1378538E+00
          2   -1    0    0  502    0  0.00000000000E+00  0.00000000000E+00  0.63772321622E+03  0.63772321622E+03  0.00000000000E+00 0. -1.
          1   -1    0    0  501    0 -0.00000000000E+00 -0.00000000000E+00 -0.20415558423E+03  0.20415558423E+03  0.00000000000E+00 0. -1.
         25    2    1    2    0    0  0.10869556027E+03  0.64998755611E+02  0.17072338365E+03  0.24659901346E+03  0.12500014665E+03 0.  0.
          2    1    1    2  501    0 -0.26304626048E+02 -0.38318641330E+02 -0.15847589172E+03  0.16515102143E+03  0.00000000000E+00 0. -1.
          1    1    1    2  502    0 -0.82390934219E+02 -0.26680114280E+02  0.42132014006E+03  0.43012876555E+03  0.00000000000E+00 0. -1.
         22    1    3    3    0    0  0.10906092467E+03  0.89607404996E+02  0.10355611214E+03  0.17506467571E+03  0.00000000000E+00 0. -1.
         22    1    3    3    0    0 -0.36536440144E+00 -0.24608649385E+02  0.67167271506E+02  0.71534337750E+02  0.00000000000E+00 0. -1.
</event>
<event>
 7    1  0.5676357E-006  0.7122829E+02  0.7818608E-02  0.1435233E+00
          2   -1    0    0  502    0  0.00000000000E+00  0.00000000000E+00  0.21497478988E+03  0.21497478988E+03  0.00000000000E+00 0. -1.
          1   -1    0    0  501    0 -0.00000000000E+00 -0.00000000000E+00 -0.79053372001E+03  0.79053372001E+03  0.00000000000E+00 0. -1.
         25    2    1    2    0    0 -0.37349627350E+02 -0.87641650485E+02 -0.50995289226E+03  0.53362270926E+03  0.12500075981E+03 0.  0.
          2    1    1    2  501    0  0.80434912673E+01  0.63686254628E+02 -0.26308955080E+03  0.27080758579E+03  0.00000000000E+00 0. -1.
          1    1    1    2  502    0  0.29306136082E+02  0.23955395857E+02  0.19748351294E+03  0.20107821484E+03  0.00000000000E+00 0. -1.
         22    1    3    3    0    0 -0.28297089391E+02 -0.40131771121E+02 -0.46418191917E+02  0.67571686838E+02  0.00000000000E+00 0.  1.
         22    1    3    3    0    0 -0.90525379584E+01 -0.47509879364E+02 -0.46353470034E+03  0.46605102243E+03  0.00000000000E+00 0.  1.
</event>
<event>
 7    1  0.5676357E-006  0.4374414E+02  0.7818608E-02  0.1486668E+00
          2   -1    0    0  502    0  0.00000000000E+00  0.00000000000E+00  0.41936143483E+03  0.41936143483E+03  0.00000000000E+00 0. -1.
          1   -1    0    0  501    0 -0.00000000000E+00 -0.00000000000E+00 -0.17671614642E+04  0.17671614642E+04  0.00000000000E+00 0. -1.
         25    2    1    2    0    0 -0.17735897665E+02 -0.49378832691E+02 -0.15715874073E+03  0.20755989215E+03  0.12501763020E+03 0.  0.
          2    1    1    2  501    0  0.40686402662E+02  0.12053654323E+02 -0.15832992868E+04  0.15838678308E+04  0.00000000000E+00 0. -1.
          1    1    1    2  502    0 -0.22950504997E+02  0.37325178368E+02  0.39265799815E+03  0.39509517604E+03  0.00000000000E+00 0. -1.
         22    1    3    3    0    0  0.95687644793E+00  0.25007873850E+02 -0.11954028540E+03  0.12213185170E+03  0.00000000000E+00 0.  1.
         22    1    3    3    0    0 -0.18692774113E+02 -0.74386706541E+02 -0.37618455329E+02  0.85428040452E+02  0.00000000000E+00 0.  1.
</event>
<event>
 7    1  0.5676357E-006  0.9800729E+02  0.7818608E-02  0.1393287E+00
          2   -1    0    0  502    0  0.00000000000E+00  0.00000000000E+00  0.25079674243E+04  0.25079674243E+04  0.00000000000E+00 0. -1.
          1   -1    0    0  501    0 -0.00000000000E+00 -0.00000000000E+00 -0.79736524235E+02  0.79736524235E+02  0.00000000000E+00 0. -1.
         25    2    1    2    0    0  0.48184135742E+02 -0.54576836790E+02  0.11089243529E+04  0.11183204170E+04  0.12500796999E+03 0.  0.
          2    1    1    2  501    0  0.32499885309E+02 -0.19858239104E+02 -0.67893518650E+02  0.77846785933E+02  0.00000000000E+00 0. -1.
          1    1    1    2  502    0 -0.80684021051E+02  0.74435075894E+02  0.13872000658E+04  0.13915367456E+04  0.00000000000E+00 0. -1.
         22    1    3    3    0    0  0.43365796874E+02  0.34001903273E+02  0.48517774128E+03  0.48829720704E+03  0.00000000000E+00 0. -1.
         22    1    3    3    0    0  0.48183388682E+01 -0.88578740063E+02  0.62374661166E+03  0.63002321000E+03  0.00000000000E+00 0. -1.
</event>
<event>
 7    1  0.5676357E-006  0.6185023E+02  0.7818608E-02  0.1435965E+00
          2   -1    0    0  502    0  0.00000000000E+00  0.00000000000E+00  0.14093262245E+04  0.14093262245E+04  0.00000000000E+00 0. -1.
          1   -1    0    0  501    0 -0.00000000000E+00 -0.00000000000E+00 -0.75948154289E+03  0.75948154289E+03  0.00000000000E+00 0. -1.
         25    2    1    2    0    0 -0.31198421816E+02 -0.43369125320E+02  0.11043208482E+03  0.17514112950E+03  0.12499978932E+03 0.  0.
          2    1    1    2  501    0  0.60926996017E+02  0.11817065592E+02 -0.72543069806E+03  0.72808065458E+03  0.00000000000E+00 0. -1.
          1    1    1    2  502    0 -0.29728574201E+02  0.31552059728E+02  0.12648432949E+04  0.12655859833E+04  0.00000000000E+00 0. -1.
         22    1    3    3    0    0 -0.31712587904E+02 -0.51980362282E+02  0.13554184492E+03  0.14859084097E+03  0.00000000000E+00 0.  1.
         22    1    3    3    0    0  0.51416608848E+00  0.86112369623E+01 -0.25109760103E+02  0.26550288533E+02  0.00000000000E+00 0.  1.
</event>
<event>
 7    1  0.5676357E-006  0.2059680E+03  0.7818608E-02  0.1171580E+00
          2   -1    0    0  502    0  0.00000000000E+00  0.00000000000E+00  0.98781836366E+03  0.98781836366E+03  0.00000000000E+00 0. -1.
          1   -1    0    0  501    0 -0.00000000000E+00 -0.00000000000E+00 -0.18279480563E+04  0.18279480563E+04  0.00000000000E+00 0. -1.
         25    2    1    2    0    0 -0.15758292853E+03  0.41285705033E+02 -0.36424433795E+03  0.41813229211E+03  0.12499514858E+03 0.  0.
          2    1    1    2  501    0  0.20928428545E+03  0.10021765113E+03 -0.14213882954E+04  0.14402042133E+04  0.00000000000E+00 0. -1.
          1    1    1    2  502    0 -0.51701356923E+02 -0.14150335617E+03  0.94550294078E+03  0.95742991448E+03  0.00000000000E+00 0. -1.
         22    1    3    3    0    0 -0.51166299175E+02  0.16219551258E+02 -0.26530824663E+03  0.27068344934E+03  0.00000000000E+00 0. -1.
         22    1    3    3    0    0 -0.10641662935E+03  0.25066153775E+02 -0.98936091321E+02  0.14744884277E+03  0.00000000000E+00 0. -1.
</event>
<event>
 7    1  0.5676357E-006  0.5496193E+02  0.7818608E-02  0.1522319E+00
          2   -1    0    0  502    0  0.00000000000E+00  0.00000000000E+00  0.36182361608E+03  0.36182361608E+03  0.00000000000E+00 0. -1.
          1   -1    0    0  501    0 -0.00000000000E+00 -0.00000000000E+00 -0.58300372025E+03  0.58300372025E+03  0.00000000000E+00 0. -1.
         25    2    1    2    0    0 -0.18888833550E+02  0.29777036127E+02  0.23859534036E+02  0.13202503060E+03  0.12497148245E+03 0.  0.
          2    1    1    2  501    0  0.95477668846E+01 -0.54548679612E+02 -0.52684934344E+03  0.52975178054E+03  0.00000000000E+00 0. -1.
          1    1    1    2  502    0  0.93410666653E+01  0.24771643485E+02  0.28180970523E+03  0.28305052519E+03  0.00000000000E+00 0. -1.
         22    1    3    3    0    0 -0.52481248491E+02  0.22441680060E+02  0.59535616482E+02  0.82476663833E+02  0.00000000000E+00 0. -1.
         22    1    3    3    0    0  0.33592414941E+02  0.73353560665E+01 -0.35676082446E+02  0.49548366763E+02  0.00000000000E+00 0. -1.
</event>
<event>
 7    1  0.5676357E-006  0.6901818E+02  0.7818608E-02  0.1413688E+00
          2   -1    0    0  502    0  0.00000000000E+00  0.00000000000E+00  0.62428250785E+03  0.62428250785E+03  0.00000000000E+00 0. -1.
          1   -1    0    0  501    0 -0.00000000000E+00 -0.00000000000E+00 -0.27331928014E+03  0.27331928014E+03  0.00000000000E+00 0. -1.
         25    2    1    2    0    0  0.25238066134E+02  0.45187061730E+01 -0.35356592017E+01  0.12765319425E+03  0.12500183370E+03 0.  0.
          2    1    1    2  501    0  0.45115330056E+02 -0.92527569740E+01 -0.20292353909E+03  0.20808404368E+03  0.00000000000E+00 0. -1.
          1    1    1    2  502    0 -0.70353396189E+02  0.47340508010E+01  0.55742242600E+03  0.56186455005E+03  0.00000000000E+00 0. -1.
         22    1    3    3    0    0  0.40106473910E+00 -0.59191773112E+02 -0.30329047740E+01  0.59270780056E+02  0.00000000000E+00 0. -1.
         22    1    3    3    0    0  0.24837001395E+02  0.63710479285E+02 -0.50275442768E+00  0.68382414194E+02  0.00000000000E+00 0. -1.
</event>
<event>
 7    1  0.5676357E-006  0.8729187E+02  0.7818608E-02  0.1410428E+00
          2   -1    0    0  502    0  0.00000000000E+00  0.00000000000E+00  0.78024109751E+03  0.78024109751E+03  0.00000000000E+00 0. -1.
          1   -1    0    0  501    0 -0.00000000000E+00 -0.00000000000E+00 -0.71574720670E+03  0.71574720670E+03  0.00000000000E+00 0. -1.
         25    2    1    2    0    0 -0.86123953657E+02 -0.28239283678E+02 -0.23866297595E+03  0.28426012455E+03  0.12501603811E+03 0.  0.
          2    1    1    2  501    0  0.65083141253E+02  0.59096996773E+02 -0.44956533287E+03  0.45807996990E+03  0.00000000000E+00 0. -1.
          1    1    1    2  502    0  0.21040812404E+02 -0.30857713095E+02  0.75272219964E+03  0.75364820976E+03  0.00000000000E+00 0. -1.
         22    1    3    3    0    0 -0.68675524608E+02  0.41827618994E+02 -0.14718713891E+03  0.16771979982E+03  0.00000000000E+00 0. -1.
         22    1    3    3    0    0 -0.17448429049E+02 -0.70066902672E+02 -0.91475837045E+02  0.11654032474E+03  0.00000000000E+00 0. -1.
</event>
<event>
 7    1  0.5676357E-006  0.7670861E+02  0.7818608E-02  0.1395543E+00
          2   -1    0    0  502    0  0.00000000000E+00  0.00000000000E+00  0.90458287847E+03  0.90458287847E+03  0.00000000000E+00 0. -1.
          1   -1    0    0  501    0 -0.00000000000E+00 -0.00000000000E+00 -0.21253410744E+03  0.21253410744E+03  0.00000000000E+00 0. -1.
         25    2    1    2    0    0  0.35242847201E+02  0.23404792227E+01  0.10416513400E+03  0.16649947445E+03  0.12499665487E+03 0.  0.
          2    1    1    2  501    0 -0.76448387002E+02  0.21873386715E+02 -0.17186433054E+03  0.18936776134E+03  0.00000000000E+00 0. -1.
          1    1    1    2  502    0  0.41205539801E+02 -0.24213865938E+02  0.75974796758E+03  0.76124975012E+03  0.00000000000E+00 0. -1.
         22    1    3    3    0    0  0.38589758561E+01  0.19937322838E+02  0.12383796750E+03  0.12549195485E+03  0.00000000000E+00 0.  1.
         22    1    3    3    0    0  0.31383871345E+02 -0.17596843616E+02 -0.19672833503E+02  0.41007519602E+02  0.00000000000E+00 0.  1.
</event>
<event>
 7    1  0.5676357E-006  0.4482045E+02  0.7818608E-02  0.1524137E+00
          2   -1    0    0  502    0  0.00000000000E+00  0.00000000000E+00  0.16660927375E+03  0.16660927375E+03  0.00000000000E+00 0. -1.
          1   -1    0    0  501    0 -0.00000000000E+00 -0.00000000000E+00 -0.53613911631E+03  0.53613911631E+03  0.00000000000E+00 0. -1.
         25    2    1    2    0    0 -0.30374314879E+02  0.31826169326E+02 -0.72801575839E+02  0.15119973479E+03  0.12500314515E+03 0.  0.
          2    1    1    2  501    0  0.29139066548E+02  0.13404106244E+02 -0.41948970920E+03  0.42071412074E+03  0.00000000000E+00 0. -1.
          1    1    1    2  502    0  0.12352483313E+01 -0.45230275570E+02  0.12276144249E+03  0.13083453454E+03  0.00000000000E+00 0. -1.
         22    1    3    3    0    0 -0.61305445947E+02  0.65917794817E+01  0.69164560664E+01  0.62045520580E+02  0.00000000000E+00 0.  1.
         22    1    3    3    0    0  0.30931131068E+02  0.25234389844E+02 -0.79718031905E+02  0.89154214206E+02  0.00000000000E+00 0.  1.
</event>
<event>
 7    1  0.6559684E-006  0.8904991E+02  0.7818608E-02  0.1307418E+00
          2   -1    0    0  502    0  0.00000000000E+00  0.00000000000E+00  0.12553217091E+04  0.12553217091E+04  0.00000000000E+00 0. -1.
          1   -1    0    0  501    0 -0.00000000000E+00 -0.00000000000E+00 -0.45672629177E+03  0.45672629177E+03  0.00000000000E+00 0. -1.
         25    2    1    2    0    0  0.71360797118E+02 -0.22635691870E+01 -0.93110277832E+02  0.17144194386E+03  0.12500131666E+03 0.  0.
          2    1    1    2  501    0 -0.52967849160E+02 -0.83016033596E+02 -0.31536741915E+03  0.33038441843E+03  0.00000000000E+00 0. -1.
          1    1    1    2  502    0 -0.18392947958E+02  0.85279602783E+02  0.12070731143E+04  0.12102216386E+04  0.00000000000E+00 0. -1.
         22    1    3    3    0    0 -0.20549241763E+02  0.10555691654E+02 -0.72892007009E+02  0.76465277408E+02  0.00000000000E+00 0.  1.
         22    1    3    3    0    0  0.91910038881E+02 -0.12819260841E+02 -0.20218270823E+02  0.94976666454E+02  0.00000000000E+00 0.  1.
</event>
<event>
 7    1  0.5676357E-006  0.2256576E+03  0.7818608E-02  0.1368521E+00
          2   -1    0    0  502    0  0.00000000000E+00  0.00000000000E+00  0.19573328265E+04  0.19573328265E+04  0.00000000000E+00 0. -1.
          1   -1    0    0  501    0 -0.00000000000E+00 -0.00000000000E+00 -0.66531293578E+03  0.66531293578E+03  0.00000000000E+00 0. -1.
         25    2    1    2    0    0  0.22305180743E+03 -0.80863437820E+02  0.10174805865E+04  0.10522275999E+04  0.12500069429E+03 0.  0.
          2    1    1    2  501    0 -0.21687265070E+03  0.61590870609E+02 -0.62821148955E+03  0.66744052736E+03  0.00000000000E+00 0. -1.
          1    1    1    2  502    0 -0.61791567301E+01  0.19272567211E+02  0.90275079375E+03  0.90297763507E+03  0.00000000000E+00 0. -1.
         22    1    3    3    0    0  0.13017281131E+03 -0.71006258660E+02  0.37938577664E+03  0.40733329976E+03  0.00000000000E+00 0. -1.
         22    1    3    3    0    0  0.92878996114E+02 -0.98571791602E+01  0.63809480989E+03  0.64489430010E+03  0.00000000000E+00 0. -1.
</event>
<event>
 7    1  0.5676357E-006  0.5773785E+02  0.7818608E-02  0.1532273E+00
          2   -1    0    0  502    0  0.00000000000E+00  0.00000000000E+00  0.17760006111E+04  0.17760006111E+04  0.00000000000E+00 0. -1.
          1   -1    0    0  501    0 -0.00000000000E+00 -0.00000000000E+00 -0.29167924050E+03  0.29167924050E+03  0.00000000000E+00 0. -1.
         25    2    1    2    0    0  0.41420398219E+02 -0.69579238223E+02  0.12183134958E+04  0.12273833116E+04  0.12500039861E+03 0.  0.
          2    1    1    2  501    0 -0.32191284478E+02  0.47864959071E+02 -0.28399193871E+03  0.28979088039E+03  0.00000000000E+00 0. -1.
          1    1    1    2  502    0 -0.92291137407E+01  0.21714279152E+02  0.54999981349E+03  0.55050565964E+03  0.00000000000E+00 0. -1.
         22    1    3    3    0    0  0.25626036798E+02 -0.84209649544E+02  0.11812165011E+04  0.11844916130E+04  0.00000000000E+00 0. -1.
         22    1    3    3    0    0  0.15794361421E+02  0.14630411322E+02  0.37096994752E+02  0.42891698588E+02  0.00000000000E+00 0. -1.
</event>
<event>
 7    1  0.5676357E-006  0.1449643E+03  0.7818608E-02  0.1273391E+00
          2   -1    0    0  502    0  0.00000000000E+00  0.00000000000E+00  0.69856489515E+03  0.69856489515E+03  0.00000000000E+00 0. -1.
          1   -1    0    0  501    0 -0.00000000000E+00 -0.00000000000E+00 -0.18324803976E+04  0.18324803976E+04  0.00000000000E+00 0. -1.
         25    2    1    2    0    0  0.83217290749E+02  0.10825118088E+03 -0.10316010551E+03  0.21191896383E+03  0.12499681684E+03 0.  0.
          2    1    1    2  501    0 -0.19449011020E+02 -0.14518472500E+03 -0.16696161351E+04  0.16760295066E+04  0.00000000000E+00 0. -1.
          1    1    1    2  502    0 -0.63768279729E+02  0.36933544124E+02  0.63886073814E+03  0.64309682235E+03  0.00000000000E+00 0. -1.
         22    1    3    3    0    0 -0.38949288140E+01 -0.24350764869E+02 -0.44400777593E+01  0.25056825631E+02  0.00000000000E+00 0.  1.
         22    1    3    3    0    0  0.87112219563E+02  0.13260194575E+03 -0.98720027747E+02  0.18686213820E+03  0.00000000000E+00 0.  1.
</event>
<event>
 7    1  0.5676357E-006  0.6729300E+02  0.7818608E-02  0.1419885E+00
          2   -1    0    0  502    0  0.00000000000E+00  0.00000000000E+00  0.86719990274E+03  0.86719990274E+03  0.00000000000E+00 0. -1.
          1   -1    0    0  501    0 -0.00000000000E+00 -0.00000000000E+00 -0.49081817342E+03  0.49081817342E+03  0.00000000000E+00 0. -1.
         25    2    1    2    0    0  0.76264870399E+02 -0.42603362696E+02 -0.19113760923E+03  0.24451994807E+03  0.12500016949E+03 0.  0.
          2    1    1    2  501    0 -0.33481826107E+02  0.56639980601E+02 -0.26841012970E+03  0.27635686676E+03  0.00000000000E+00 0. -1.
          1    1    1    2  502    0 -0.42783044293E+02 -0.14036617905E+02  0.83592946825E+03  0.83714126132E+03  0.00000000000E+00 0. -1.
         22    1    3    3    0    0  0.42856830483E+02  0.20260993438E+02 -0.80559916829E+01  0.48084454621E+02  0.00000000000E+00 0.  1.
         22    1    3    3    0    0  0.33408039916E+02 -0.62864356134E+02 -0.18308161755E+03  0.19643549345E+03  0.00000000000E+00 0.  1.
</event>
<event>
 7    1  0.5676357E-006  0.2684379E+02  0.7818608E-02  0.1648543E+00
          2   -1    0    0  502    0  0.00000000000E+00  0.00000000000E+00  0.71538502865E+03  0.71538502865E+03  0.00000000000E+00 0. -1.
          1   -1    0    0  501    0 -0.00000000000E+00 -0.00000000000E+00 -0.29036595301E+02  0.29036595301E+02  0.00000000000E+00 0. -1.
         25    2    1    2    0    0  0.31291427828E+01  0.48942888329E+01  0.15889889883E+03  0.20225743069E+03  0.12500185047E+03 0.  0.
          2    1    1    2  501    0 -0.18545109856E+02 -0.24536481712E+02  0.26515594586E+02  0.40608334004E+02  0.00000000000E+00 0. -1.
          1    1    1    2  502    0  0.15415967074E+02  0.19642192879E+02  0.50093393993E+03  0.50155585926E+03  0.00000000000E+00 0. -1.
         22    1    3    3    0    0 -0.55177418034E+02 -0.23834868461E+02  0.78602383208E+02  0.98949396468E+02  0.00000000000E+00 0. -1.
         22    1    3    3    0    0  0.58306560817E+02  0.28729157293E+02  0.80296515626E+02  0.10330803422E+03  0.00000000000E+00 0. -1.
</event>
<event>
 7    1  0.5676357E-006  0.5456713E+02  0.7818608E-02  0.1519695E+00
          2   -1    0    0  502    0  0.00000000000E+00  0.00000000000E+00  0.28485387345E+04  0.28485387345E+04  0.00000000000E+00 0. -1.
          1   -1    0    0  501    0 -0.00000000000E+00 -0.00000000000E+00 -0.92288952901E+02  0.92288952901E+02  0.00000000000E+00 0. -1.
         25    2    1    2    0    0  0.52018398031E+02 -0.58773785999E+02  0.19177155932E+04  0.19233860728E+04  0.12498246697E+03 0.  0.
          2    1    1    2  501    0 -0.43270578443E+02  0.33085189550E+02 -0.80943006894E+02  0.97564046100E+02  0.00000000000E+00 0. -1.
          1    1    1    2  502    0 -0.87478195883E+01  0.25688596449E+02  0.91947719530E+03  0.91987756849E+03  0.00000000000E+00 0. -1.
         22    1    3    3    0    0  0.23784360264E+02 -0.82853710482E+02  0.72701675782E+03  0.73210914438E+03  0.00000000000E+00 0. -1.
         22    1    3    3    0    0  0.28234037767E+02  0.24079924484E+02  0.11906988354E+04  0.11912769284E+04  0.00000000000E+00 0. -1.
</event>
<event>
 7    1  0.5676357E-006  0.1096885E+03  0.7818608E-02  0.1335463E+00
          2   -1    0    0  502    0  0.00000000000E+00  0.00000000000E+00  0.24212721393E+04  0.24212721393E+04  0.00000000000E+00 0. -1.
          1   -1    0    0  501    0 -0.00000000000E+00 -0.00000000000E+00 -0.45626050657E+03  0.45626050657E+03  0.00000000000E+00 0. -1.
         25    2    1    2    0    0 -0.55288684433E+02 -0.25444704335E+02  0.10463064583E+01  0.13903506052E+03  0.12500152676E+03 0.  0.
          2    1    1    2  501    0  0.10812466621E+03  0.41281400381E+02 -0.37828696659E+03  0.39559591321E+03  0.00000000000E+00 0. -1.
          1    1    1    2  502    0 -0.52835981774E+02 -0.15836696046E+02  0.23422522929E+04  0.23429016722E+04  0.00000000000E+00 0. -1.
         22    1    3    3    0    0 -0.58647533824E+02  0.35740617702E+02  0.25216815280E+02  0.73162919229E+02  0.00000000000E+00 0.  1.
         22    1    3    3    0    0  0.33588493903E+01 -0.61185322037E+02 -0.24170508822E+02  0.65872141294E+02  0.00000000000E+00 0.  1.
</event>
<event>
 7    1  0.5676357E-006  0.5523161E+02  0.7818608E-02  0.1544387E+00
          2   -1    0    0  502    0  0.00000000000E+00  0.00000000000E+00  0.84223852029E+03  0.84223852029E+03  0.00000000000E+00 0. -1.
          1   -1    0    0  501    0 -0.00000000000E+00 -0.00000000000E+00 -0.18727747562E+03  0.18727747562E+03  0.00000000000E+00 0. -1.
         25    2    1    2    0    0 -0.39946053308E+02 -0.12446052205E+02  0.35887994504E+03  0.38233293509E+03  0.12503226348E+03 0.  0.
          2    1    1    2  501    0  0.42944998854E+02  0.35038498427E+02 -0.17089138129E+03  0.17965476197E+03  0.00000000000E+00 0. -1.
          1    1    1    2  502    0 -0.29989455467E+01 -0.22592446222E+02  0.46697248092E+03  0.46752829886E+03  0.00000000000E+00 0. -1.
         22    1    3    3    0    0 -0.52484011058E+02 -0.51960607785E+02  0.30785494497E+03  0.31658986611E+03  0.00000000000E+00 0. -1.
         22    1    3    3    0    0  0.12537957750E+02  0.39514555580E+02  0.51025000065E+02  0.65743068979E+02  0.00000000000E+00 0. -1.
</event>
<event>
 7    1  0.5676357E-006  0.9013762E+02  0.7818608E-02  0.1422321E+00
          2   -1    0    0  502    0  0.00000000000E+00  0.00000000000E+00  0.58528244910E+03  0.58528244910E+03  0.00000000000E+00 0. -1.
          1   -1    0    0  501    0 -0.00000000000E+00 -0.00000000000E+00 -0.77128546952E+03  0.77128546952E+03  0.00000000000E+00 0. -1.
         25    2    1    2    0    0  0.68962172234E+02 -0.98125265547E+02  0.25549524319E+02  0.17510743431E+03  0.12500194567E+03 0.  0.
          2    1    1    2  501    0 -0.59640833141E+02  0.66477202980E+02 -0.69307678034E+03  0.69880732033E+03  0.00000000000E+00 0. -1.
          1    1    1    2  502    0 -0.93213390931E+01  0.31648062566E+02  0.48152423560E+03  0.48265316398E+03  0.00000000000E+00 0. -1.
         22    1    3    3    0    0  0.62965503413E+02  0.94865949650E+01 -0.25454952367E+01  0.63726993104E+02  0.00000000000E+00 0.  1.
         22    1    3    3    0    0  0.59966688209E+01 -0.10761186051E+03  0.28095019556E+02  0.11138044121E+03  0.00000000000E+00 0.  1.
</event>
<event>
 7    1  0.5676357E-006  0.7016221E+02  0.7818608E-02  0.1416669E+00
          2   -1    0    0  502    0  0.00000000000E+00  0.00000000000E+00  0.37678652368E+03  0.37678652368E+03  0.00000000000E+00 0. -1.
          1   -1    0    0  501    0 -0.00000000000E+00 -0.00000000000E+00 -0.52863473204E+03  0.52863473204E+03  0.00000000000E+00 0. -1.
         25    2    1    2    0    0 -0.78124640702E+02 -0.76946188430E+02  0.68313109057E+01  0.16642027701E+03  0.12499946557E+03 0.  0.
          2    1    1    2  501    0  0.38936133665E+02  0.21065662421E+02 -0.44370987175E+03  0.44591281090E+03  0.00000000000E+00 0. -1.
          1    1    1    2  502    0  0.39188507037E+02  0.55880526009E+02  0.28503035249E+03  0.29308816781E+03  0.00000000000E+00 0. -1.
         22    1    3    3    0    0  0.14591550420E+01 -0.41860781418E+02  0.53317051793E+02  0.67802375816E+02  0.00000000000E+00 0. -1.
         22    1    3    3    0    0 -0.79583795744E+02 -0.35085407012E+02 -0.46485740887E+02  0.98617901195E+02  0.00000000000E+00 0. -1.
</event>
<event>
 7    1  0.5676357E-006  0.1179472E+03  0.7818608E-02  0.1253666E+00
          2   -1    0    0  502    0  0.00000000000E+00  0.00000000000E+00  0.32014187234E+04  0.32014187234E+04  0.00000000000E+00 0. -1.
          1   -1    0    0  501    0 -0.00000000000E+00 -0.00000000000E+00 -0.41574033255E+02  0.41574033255E+02  0.00000000000E+00 0. -1.
         25    2    1    2    0    0  0.45767054010E+01  0.20673353740E+02  0.33103474956E+03  0.35448024090E+03  0.12499560787E+03 0.  0.
          2    1    1    2  501    0  0.73826888582E+01  0.10957730051E+03  0.78265473936E+02  0.13485982831E+03  0.00000000000E+00 0. -1.
          1    1    1    2  502    0 -0.11959394259E+02 -0.13025065425E+03  0.27505444666E+04  0.27536526874E+04  0.00000000000E+00 0. -1.
         22    1    3    3    0    0 -0.51702309788E+02 -0.21793723956E+02  0.15571914295E+03  0.16551902224E+03  0.00000000000E+00 0.  1.
         22    1    3    3    0    0  0.56279015189E+02  0.42467077696E+02  0.17531560660E+03  0.18896121866E+03  0.00000000000E+00 0.  1.
</event>
<event>
 7    1  0.5676357E-006  0.1631793E+03  0.7818608E-02  0.1342005E+00
          2   -1    0    0  502    0  0.00000000000E+00  0.00000000000E+00  0.16637327082E+04  0.16637327082E+04  0.00000000000E+00 0. -1.
          1   -1    0    0  501    0 -0.00000000000E+00 -0.00000000000E+00 -0.39896696830E+03  0.39896696830E+03  0.00000000000E+00 0. -1.
         25    2    1    2    0    0 -0.12747486076E+03  0.62154137059E+02 -0.76279789667E+01  0.18920000975E+03  0.12500192298E+03 0.  0.
          2    1    1    2  501    0  0.16094768919E+03 -0.51824132494E+02 -0.27655817823E+03  0.32415170107E+03  0.00000000000E+00 0. -1.
          1    1    1    2  502    0 -0.33472828433E+02 -0.10330004565E+02  0.15489518971E+04  0.15493479656E+04  0.00000000000E+00 0. -1.
         22    1    3    3    0    0 -0.49225635378E+02  0.75515640425E+02  0.37789790907E+02  0.97743764118E+02  0.00000000000E+00 0.  1.
         22    1    3    3    0    0 -0.78249225382E+02 -0.13361503366E+02 -0.45417769874E+02  0.91456245634E+02  0.00000000000E+00 0.  1.
</event>
<event>
 7    1  0.5676357E-006  0.1061073E+03  0.7818608E-02  0.1318909E+00
          2   -1    0    0  502    0  0.00000000000E+00  0.00000000000E+00  0.34467969568E+04  0.34467969568E+04  0.00000000000E+00 0. -1.
          1   -1    0    0  501    0 -0.00000000000E+00 -0.00000000000E+00 -0.16699638260E+02  0.16699638260E+02  0.00000000000E+00 0. -1.
         25    2    1    2    0    0 -0.33675903540E+02 -0.47470952763E+02  0.13631129190E+04  0.13700690366E+04  0.12499910955E+03 0.  0.
          2    1    1    2  501    0  0.26820418308E+02  0.11311414185E+03  0.25507614771E+03  0.28031765027E+03  0.00000000000E+00 0. -1.
          1    1    1    2  502    0  0.68554852320E+01 -0.65643189091E+02  0.18119082519E+04  0.18131099082E+04  0.00000000000E+00 0. -1.
         22    1    3    3    0    0  0.47647648766E+02 -0.11987293522E+02  0.47335933750E+03  0.47590235977E+03  0.00000000000E+00 0.  1.
         22    1    3    3    0    0 -0.81323552306E+02 -0.35483659241E+02  0.88975358149E+03  0.89416667686E+03  0.00000000000E+00 0.  1.
</event>
<event>
 7    1  0.5676357E-006  0.4776391E+02  0.7818608E-02  0.1461470E+00
          2   -1    0    0  502    0  0.00000000000E+00  0.00000000000E+00  0.50365941955E+03  0.50365941955E+03  0.00000000000E+00 0. -1.
          1   -1    0    0  501    0 -0.00000000000E+00 -0.00000000000E+00 -0.16495396792E+03  0.16495396792E+03  0.00000000000E+00 0. -1.
         25    2    1    2    0    0  0.48117950653E+02 -0.12224719561E+02 -0.17831091073E+02  0.13567569643E+03  0.12500066340E+03 0.  0.
          2    1    1    2  501    0 -0.32484184738E+02 -0.33276675315E+02 -0.80658125662E+02  0.93103665951E+02  0.00000000000E+00 0. -1.
          1    1    1    2  502    0 -0.15633765915E+02  0.45501394876E+02  0.43719466837E+03  0.43983402508E+03  0.00000000000E+00 0. -1.
         22    1    3    3    0    0  0.81473303137E+02 -0.32883877666E+02 -0.32658149483E+02  0.93732615786E+02  0.00000000000E+00 0.  1.
         22    1    3    3    0    0 -0.33355352485E+02  0.20659158105E+02  0.14827058410E+02  0.41943080646E+02  0.00000000000E+00 0.  1.
</event>
<event>
 7    1  0.5676357E-006  0.3204008E+02  0.7818608E-02  0.1595469E+00
          2   -1    0    0  502    0  0.00000000000E+00  0.00000000000E+00  0.68188182388E+03  0.68188182388E+03  0.00000000000E+00 0. -1.
          1   -1    0    0  501    0 -0.00000000000E+00 -0.00000000000E+00 -0.64425141715E+03  0.64425141715E+03  0.00000000000E+00 0. -1.
         25    2    1    2    0    0  0.40936611760E+02 -0.40567373772E+02  0.16618640600E+03  0.21581038597E+03  0.12503872663E+03 0.  0.
          2    1    1    2  501    0 -0.28253888712E+02  0.15002559667E+02 -0.61861101438E+03  0.61943760471E+03  0.00000000000E+00 0. -1.
          1    1    1    2  502    0 -0.12682723048E+02  0.25564814104E+02  0.49005501510E+03  0.49088525035E+03  0.00000000000E+00 0. -1.
         22    1    3    3    0    0 -0.11895905429E+02  0.31359496959E+02  0.84675814223E+01  0.34592348151E+02  0.00000000000E+00 0.  1.
         22    1    3    3    0    0  0.52832517189E+02 -0.71926870730E+02  0.15771882458E+03  0.18121803782E+03  0.00000000000E+00 0.  1.
</event>
<event>
 7    1  0.5676357E-006  0.8188445E+02  0.7818608E-02  0.1352211E+00
          2   -1    0    0  502    0  0.00000000000E+00  0.00000000000E+00  0.73116963703E+03  0.73116963703E+03  0.00000000000E+00 0. -1.
          1   -1    0    0  501    0 -0.00000000000E+00 -0.00000000000E+00 -0.31773912487E+02  0.31773912487E+02  0.00000000000E+00 0. -1.
         25    2    1    2    0    0  0.64583972743E+02 -0.50668836626E+02  0.38721976790E+03  0.41509602985E+03  0.12500857893E+03 0.  0.
          2    1    1    2  501    0 -0.12947716335E+02  0.88416909451E+02  0.17517185007E+03  0.19664783318E+03  0.00000000000E+00 0. -1.
          1    1    1    2  502    0 -0.51636256407E+02 -0.37748072825E+02  0.13700410657E+03  0.15119968649E+03  0.00000000000E+00 0. -1.
         22    1    3    3    0    0  0.38564854779E+02  0.36052148527E+01  0.32928428499E+03  0.33155449920E+03  0.00000000000E+00 0. -1.
         22    1    3    3    0    0  0.26019117964E+02 -0.54274051479E+02  0.57935482909E+02  0.83541530650E+02  0.00000000000E+00 0. -1.
</event>
<event>
 7    1  0.5676357E-006  0.1816709E+03  0.7818608E-02  0.1217366E+00
          2   -1    0    0  502    0  0.00000000000E+00  0.00000000000E+00  0.13755806142E+04  0.13755806142E+04  0.00000000000E+00 0. -1.
          1   -1    0    0  501    0 -0.00000000000E+00 -0.00000000000E+00 -0.16921656785E+04  0.16921656785E+04  0.00000000000E+00 0. -1.
         25    2    1    2    0    0 -0.15521444778E+03 -0.17676520290E+02  0.22614675741E+03  0.30194320008E+03  0.12499342390E+03 0.  0.
          2    1    1    2  501    0  0.16142181697E+03 -0.85512486209E+02 -0.16468026456E+04  0.16569032385E+04  0.00000000000E+00 0. -1.
          1    1    1    2  502    0 -0.62073691958E+01  0.10318900650E+03  0.11040708238E+04  0.11088998542E+04  0.00000000000E+00 0. -1.
         22    1    3    3    0    0 -0.61720156799E+02  0.26316520762E+02  0.17340508569E+03  0.18593348478E+03  0.00000000000E+00 0. -1.
         22    1    3    3    0    0 -0.93494290980E+02 -0.43993041052E+02  0.52741671718E+02  0.11600971529E+03  0.00000000000E+00 0. -1.
</event>
<event>
 7    1  0.5676357E-006  0.1306731E+03  0.7818608E-02  0.1340177E+00
          2   -1    0    0  502    0  0.00000000000E+00  0.00000000000E+00  0.29415872257E+03  0.29415872257E+03  0.00000000000E+00 0. -1.
          1   -1    0    0  501    0 -0.00000000000E+00 -0.00000000000E+00 -0.21615707402E+04  0.21615707402E+04  0.00000000000E+00 0. -1.
         25    2    1    2    0    0 -0.15117693463E+03  0.73375665164E+02 -0.11621561021E+03  0.23951887903E+03  0.12499908621E+03 0.  0.
          2    1    1    2  501    0  0.44190115741E+02 -0.47204242093E+01 -0.19660580834E+04  0.19665603057E+04  0.00000000000E+00 0. -1.
          1    1    1    2  502    0  0.10698681889E+03 -0.68655240955E+02  0.21486167596E+03  0.24965027804E+03  0.00000000000E+00 0. -1.
         22    1    3    3    0    0 -0.63682139345E+02  0.98797864240E+02 -0.75650026906E+02  0.13978325873E+03  0.00000000000E+00 0. -1.
         22    1    3    3    0    0 -0.87494795288E+02 -0.25422199076E+02 -0.40565583300E+02  0.99735620301E+02  0.00000000000E+00 0. -1.
</event>
<event>
 7    1  0.5676357E-006  0.5133969E+02  0.7818608E-02  0.1540933E+00
          2   -1    0    0  502    0  0.00000000000E+00  0.00000000000E+00  0.30037106779E+04  0.30037106779E+04  0.00000000000E+00 0. -1.
          1   -1    0    0  501    0 -0.00000000000E+00 -0.00000000000E+00 -0.15774155417E+03  0.15774155417E+03  0.00000000000E+00 0. -1.
         25    2    1    2    0    0  0.31835506005E+02  0.52330821453E+02  0.10434410770E+04  0.10526849147E+04  0.12499693668E+03 0.  0.
          2    1    1    2  501    0  0.98786769382E+01 -0.23045817021E+02 -0.15175867208E+03  0.15381609959E+03  0.00000000000E+00 0. -1.
          1    1    1    2  502    0 -0.41714182943E+02 -0.29285004432E+02  0.19542867188E+04  0.19549512178E+04  0.00000000000E+00 0. -1.
         22    1    3    3    0    0  0.16141754033E+02  0.54498743879E+02  0.10309355125E+04  0.10325011866E+04  0.00000000000E+00 0. -1.
         22    1    3    3    0    0  0.15693751972E+02 -0.21679224263E+01  0.12505564481E+02  0.20183728139E+02  0.00000000000E+00 0. -1.
</event>
<event>
 7    1  0.5676357E-006  0.9754962E+02  0.7818608E-02  0.1424460E+00
          2   -1    0    0  502    0  0.00000000000E+00  0.00000000000E+00  0.30028937768E+02  0.30028937768E+02  0.00000000000E+00 0. -1.
          1   -1    0    0  501    0 -0.00000000000E+00 -0.00000000000E+00 -0.17497514640E+04  0.17497514640E+04  0.00000000000E+00 0. -1.
         25    2    1    2    0    0  0.99846280689E+02 -0.45878487475E+02 -0.32198067663E+03  0.36245243012E+03  0.12500437031E+03 0.  0.
          2    1    1    2  501    0 -0.10759172770E+02  0.27994080283E+02 -0.11924380936E+04  0.11928151724E+04  0.00000000000E+00 0. -1.
          1    1    1    2  502    0 -0.89087107919E+02  0.17884407192E+02 -0.20530375602E+03  0.22451279931E+03  0.00000000000E+00 0. -1.
         22    1    3    3    0    0  0.47101570119E+02 -0.51873624688E+01 -0.17097835752E+02  0.50376607910E+02  0.00000000000E+00 0.  1.
         22    1    3    3    0    0  0.52744710570E+02 -0.40691125007E+02 -0.30488284088E+03  0.31207582222E+03  0.00000000000E+00 0.  1.
</event>
<event>
 7    1  0.5676357E-006  0.2148128E+03  0.7818608E-02  0.1288134E+00
          2   -1    0    0  502    0  0.00000000000E+00  0.00000000000E+00  0.81263985514E+03  0.81263985514E+03  0.00000000000E+00 0. -1.
          1   -1    0    0  501    0 -0.00000000000E+00 -0.00000000000E+00 -0.21376545218E+04  0.21376545218E+04  0.00000000000E+00 0. -1.
         25    2    1    2    0    0 -0.15218450888E+03 -0.10090363682E+03 -0.27193873893E+03  0.35059586459E+03  0.12500045548E+03 0.  0.
          2    1    1    2  501    0 -0.10443996987E+02 -0.41947641559E+02 -0.18109768703E+04  0.18114927288E+04  0.00000000000E+00 0. -1.
          1    1    1    2  502    0  0.16262850587E+03  0.14285127838E+03  0.75790094251E+03  0.78820578361E+03  0.00000000000E+00 0. -1.
         22    1    3    3    0    0 -0.11469315910E+03 -0.27048451764E+01 -0.16183271836E+03  0.19837254261E+03  0.00000000000E+00 0. -1.
         22    1    3    3    0    0 -0.37491349784E+02 -0.98198791641E+02 -0.11010602058E+03  0.15222332198E+03  0.00000000000E+00 0. -1.
</event>
<event>
 7    1  0.5676357E-006  0.7844146E+02  0.7818608E-02  0.1458113E+00
          2   -1    0    0  502    0  0.00000000000E+00  0.00000000000E+00  0.18392574897E+04  0.18392574897E+04  0.00000000000E+00 0. -1.
          1   -1    0    0  501    0 -0.00000000000E+00 -0.00000000000E+00 -0.18400038856E+03  0.18400038856E+03  0.00000000000E+00 0. -1.
         25    2    1    2    0    0 -0.10426485898E+03  0.19149095779E+02  0.28119512944E+03  0.32547434654E+03  0.12500000300E+03 0.  0.
          2    1    1    2  501    0  0.75250022468E+02 -0.18960854662E+02 -0.15241365411E+03  0.17103216612E+03  0.00000000000E+00 0. -1.
          1    1    1    2  502    0  0.29014836511E+02 -0.18824111733E+00  0.15264756258E+04  0.15267513656E+04  0.00000000000E+00 0. -1.
         22    1    3    3    0    0 -0.39596240980E+02 -0.42559214756E+02  0.18608279054E+03  0.19495115797E+03  0.00000000000E+00 0.  1.
         22    1    3    3    0    0 -0.64668617998E+02  0.61708310535E+02  0.95112338900E+02  0.13052318857E+03  0.00000000000E+00 0.  1.
</event>
<event>
 7    1  0.5676357E-006  0.4650614E+02  0.7818608E-02  0.1472568E+00
          2   -1    0    0  502    0  0.00000000000E+00  0.00000000000E+00  0.15086393633E+04  0.15086393633E+04  0.00000000000E+00 0. -1.
          1   -1    0    0  501    0 -0.00000000000E+00 -0.00000000000E+00 -0.33397768582E+03  0.33397768582E+03  0.00000000000E+00 0. -1.
         25    2    1    2    0    0 -0.34546165361E+02  0.48970258563E+01 -0.10919647726E+03  0.16959906564E+03  0.12499021568E+03 0.  0.
          2    1    1    2  501    0  0.18352538463E+02 -0.45912619024E+02 -0.19110396716E+03  0.19739683513E+03  0.00000000000E+00 0. -1.
          1    1    1    2  502    0  0.16193626898E+02  0.41015593168E+02  0.14749621219E+04  0.14756211483E+04  0.00000000000E+00 0. -1.
         22    1    3    3    0    0 -0.66277937962E+02  0.10122425758E+02 -0.11847283348E+03  0.13612876565E+03  0.00000000000E+00 0.  1.
         22    1    3    3    0    0  0.31731772601E+02 -0.52253999020E+01  0.92763562256E+01  0.33470299989E+02  0.00000000000E+00 0.  1.
</event>
<event>
 7    1  0.5676357E-006  0.7211899E+02  0.7818608E-02  0.1392717E+00
          2   -1    0    0  502    0  0.00000000000E+00  0.00000000000E+00  0.17591387294E+04  0.17591387294E+04  0.00000000000E+00 0. -1.
          1   -1    0    0  501    0 -0.00000000000E+00 -0.00000000000E+00 -0.12739985408E+02  0.12739985408E+02  0.00000000000E+00 0. -1.
         25    2    1    2    0    0 -0.41422225238E+02  0.22686389252E+02  0.59019366939E+03  0.60513243792E+03  0.12500490804E+03 0.  0.
          2    1    1    2  501    0 -0.36888972943E+02 -0.36642854526E+02  0.18150099895E+03  0.18880176835E+03  0.00000000000E+00 0. -1.
          1    1    1    2  502    0  0.78311198181E+02  0.13956465274E+02  0.97470407564E+03  0.97794450852E+03  0.00000000000E+00 0. -1.
         22    1    3    3    0    0 -0.46965995098E+02 -0.12139022792E+02  0.78868156104E+02  0.92592368028E+02  0.00000000000E+00 0. -1.
         22    1    3    3    0    0  0.55437698600E+01  0.34825412043E+02  0.51132551329E+03  0.51254006989E+03  0.00000000000E+00 0. -1.
</event>
<event>
 7    1  0.5676357E-006  0.1119660E+03  0.7818608E-02  0.1394840E+00
          2   -1    0    0  502    0  0.00000000000E+00  0.00000000000E+00  0.15919756629E+04  0.15919756629E+04  0.00000000000E+00 0. -1.
          1   -1    0    0  501    0 -0.00000000000E+00 -0.00000000000E+00 -0.12647837912E+04  0.12647837912E+04  0.00000000000E+00 0. -1.
         25    2    1    2    0    0 -0.13634277414E+03  0.42156046644E+02  0.15851063555E+03  0.24721826006E+03  0.12499904878E+03 0.  0.
          2    1    1    2  501    0  0.10341608726E+03 -0.41910526352E+02 -0.12176834685E+04  0.12227855122E+04  0.00000000000E+00 0. -1.
          1    1    1    2  502    0  0.32926686880E+02 -0.24552029216E+00  0.13863647047E+04  0.13867556819E+04  0.00000000000E+00 0. -1.
         22    1    3    3    0    0  0.84493569948E+01 -0.27602462933E+02  0.27454587729E+02  0.39837695477E+02  0.00000000000E+00 0. -1.
         22    1    3    3    0    0 -0.14479213114E+03  0.69758509577E+02  0.13105604782E+03  0.20738056458E+03  0.00000000000E+00 0. -1.
</event>
<event>
 7    1  0.5676357E-006  0.1985931E+03  0.7818608E-02  0.1333858E+00
          2   -1    0    0  502    0  0.00000000000E+00  0.00000000000E+00  0.26663618842E+04  0.26663618842E+04  0.00000000000E+00 0. -1.
          1   -1    0    0  501    0 -0.00000000000E+00 -0.00000000000E+00 -0.42909274383E+03  0.42909274383E+03  0.00000000000E+00 0. -1.
         25    2    1    2    0    0 -0.91215096087E+02 -0.16393115008E+03  0.24854205870E+03  0.33554784091E+03  0.12500233149E+03 0.  0.
          2    1    1    2  501    0 -0.30423205737E+02  0.53816134015E+01 -0.38075827022E+03  0.38200967730E+03  0.00000000000E+00 0. -1.
          1    1    1    2  502    0  0.12163830182E+03  0.15854953668E+03  0.23694853519E+04  0.23778971098E+04  0.00000000000E+00 0. -1.
         22    1    3    3    0    0 -0.73027029795E+01 -0.80224132459E+02  0.28197830650E+02  0.85348453724E+02  0.00000000000E+00 0. -1.
         22    1    3    3    0    0 -0.83912393107E+02 -0.83707017620E+02  0.22034422805E+03  0.25019938719E+03  0.00000000000E+00 0. -1.
</event>
<event>
 7    1  0.5676357E-006  0.9360289E+02  0.7818608E-02  0.1410928E+00
          2   -1    0    0  502    0  0.00000000000E+00  0.00000000000E+00  0.15924433357E+04  0.15924433357E+04  0.00000000000E+00 0. -1.
          1   -1    0    0  501    0 -0.00000000000E+00 -0.00000000000E+00 -0.65147062442E+03  0.65147062442E+03  0.00000000000E+00 0. -1.
         25    2    1    2    0    0  0.52936885413E+02 -0.10400338315E+03  0.26792100483E+03  0.31784588678E+03  0.12500130149E+03 0.  0.
          2    1    1    2  501    0 -0.31653795809E+02  0.14204934892E+02 -0.62438759048E+03  0.62535078644E+03  0.00000000000E+00 0. -1.
          1    1    1    2  502    0 -0.21283089604E+02  0.89798448255E+02  0.12974392969E+04  0.13007172869E+04  0.00000000000E+00 0. -1.
         22    1    3    3    0    0  0.64267041155E+02 -0.12339060543E+03  0.25836565411E+03  0.29344216689E+03  0.00000000000E+00 0.  1.
         22    1    3    3    0    0 -0.11330155741E+02  0.19387222284E+02  0.95553507139E+01  0.24403719886E+02  0.00000000000E+00 0.  1.
</event>
<event>
 7    1  0.5676357E-006  0.1326657E+03  0.7818608E-02  0.1316656E+00
          2   -1    0    0  502    0  0.00000000000E+00  0.00000000000E+00  0.26212512981E+03  0.26212512981E+03  0.00000000000E+00 0. -1.
          1   -1    0    0  501    0 -0.00000000000E+00 -0.00000000000E+00 -0.20996728127E+04  0.20996728127E+04  0.00000000000E+00 0. -1.
         25    2    1    2    0    0  0.48451953802E+02  0.10956204708E+03  0.97024683338E+02  0.19846883036E+03  0.12499861384E+03 0.  0.
          2    1    1    2  501    0  0.53841553515E+02 -0.15709352541E+01 -0.20000728392E+04  0.20007980265E+04  0.00000000000E+00 0. -1.
          1    1    1    2  502    0 -0.10229350732E+03 -0.10799111182E+03  0.65500472915E+02  0.16253108572E+03  0.00000000000E+00 0. -1.
         22    1    3    3    0    0 -0.24164629836E+02  0.75158535195E+02  0.87018009602E+02  0.11749412216E+03  0.00000000000E+00 0. -1.
         22    1    3    3    0    0  0.72616583639E+02  0.34403511881E+02  0.10006673736E+02  0.80974708202E+02  0.00000000000E+00 0. -1.
</event>
<event>
 7    1  0.5676357E-006  0.7020629E+02  0.7818608E-02  0.1389596E+00
          2   -1    0    0  502    0  0.00000000000E+00  0.00000000000E+00  0.29933467257E+03  0.29933467257E+03  0.00000000000E+00 0. -1.
          1   -1    0    0  501    0 -0.00000000000E+00 -0.00000000000E+00 -0.35653168301E+03  0.35653168301E+03  0.00000000000E+00 0. -1.
         25    2    1    2    0    0 -0.91759167652E+02 -0.83516060498E+02  0.19848904574E+03  0.26536291646E+03  0.12499959577E+03 0.  0.
          2    1    1    2  501    0  0.51109787808E+02  0.46815537352E+02 -0.30743790968E+03  0.31515388822E+03  0.00000000000E+00 0. -1.
          1    1    1    2  502    0  0.40649379844E+02  0.36700523147E+02  0.51751853506E+02  0.75349550910E+02  0.00000000000E+00 0. -1.
         22    1    3    3    0    0  0.18169712647E+02 -0.51152939400E+02  0.31269725029E+02  0.62646287762E+02  0.00000000000E+00 0.  1.
         22    1    3    3    0    0 -0.10992888030E+03 -0.32363121098E+02  0.16721932071E+03  0.20271662869E+03  0.00000000000E+00 0.  1.
</event>
<event>
 7    1  0.5676357E-006  0.1505881E+03  0.7818608E-02  0.1208322E+00
          2   -1    0    0  502    0  0.00000000000E+00  0.00000000000E+00  0.25955680585E+03  0.25955680585E+03  0.00000000000E+00 0. -1.
          1   -1    0    0  501    0 -0.00000000000E+00 -0.00000000000E+00 -0.18275436974E+04  0.18275436974E+04  0.00000000000E+00 0. -1.
         25    2    1    2    0    0 -0.21975029288E+02 -0.48257693643E+01 -0.17694277334E+02  0.12823371441E+03  0.12499843239E+03 0.  0.
          2    1    1    2  501    0  0.14346951338E+03  0.68767799167E+02 -0.17274364300E+04  0.17347475699E+04  0.00000000000E+00 0. -1.
          1    1    1    2  502    0 -0.12149448410E+03 -0.63942029803E+02  0.17714381578E+03  0.22411921897E+03  0.00000000000E+00 0. -1.
         22    1    3    3    0    0 -0.39520067079E+02 -0.22933553986E+02  0.42855040518E+02  0.62644537656E+02  0.00000000000E+00 0. -1.
         22    1    3    3    0    0  0.17545037791E+02  0.18107784622E+02 -0.60549317851E+02  0.65589176754E+02  0.00000000000E+00 0. -1.
</event>
<event>
 7    1  0.5676357E-006  0.1234950E+03  0.7818608E-02  0.1256678E+00
          2   -1    0    0  502    0  0.00000000000E+00  0.00000000000E+00  0.64174223173E+03  0.64174223173E+03  0.00000000000E+00 0. -1.
          1   -1    0    0  501    0 -0.00000000000E+00 -0.00000000000E+00 -0.19403742478E+03  0.19403742478E+03  0.00000000000E+00 0. -1.
         25    2    1    2    0    0  0.18840003987E+03  0.86004647406E+02  0.15963935870E+03  0.28983052615E+03  0.12500253853E+03 0.  0.
          2    1    1    2  501    0 -0.10093539658E+03 -0.13300368468E+02 -0.99309417856E+02  0.14222241230E+03  0.00000000000E+00 0. -1.
          1    1    1    2  502    0 -0.87464643285E+02 -0.72704278938E+02  0.38737486609E+03  0.40372671807E+03  0.00000000000E+00 0. -1.
         22    1    3    3    0    0  0.49542376336E+02  0.90093255432E+02  0.73263229064E+02  0.12624873251E+03  0.00000000000E+00 0.  1.
         22    1    3    3    0    0  0.13885766353E+03 -0.40886080260E+01  0.86376129640E+02  0.16358179364E+03  0.00000000000E+00 0.  1.
</event>
<event>
 7    1  0.5676357E-006  0.1311207E+03  0.7818608E-02  0.1385090E+00
          2   -1    0    0  502    0  0.00000000000E+00  0.00000000000E+00  0.38080363421E+03  0.38080363421E+03  0.00000000000E+00 0. -1.
          1   -1    0    0  501    0 -0.00000000000E+00 -0.00000000000E+00 -0.35541123880E+03  0.35541123880E+03  0.00000000000E+00 0. -1.
         25    2    1    2    0    0  0.10290509625E+03 -0.58259255585E+02 -0.59909143702E+02  0.18220574066E+03  0.12500490685E+03 0.  0.
          2    1    1    2  501    0  0.23951850798E+02  0.18735381679E+02 -0.21945224330E+03  0.22154907531E+03  0.00000000000E+00 0. -1.
          1    1    1    2  502    0 -0.12685694705E+03  0.39523873906E+02  0.30475378242E+03  0.33246005703E+03  0.00000000000E+00 0. -1.
         22    1    3    3    0    0  0.10572980190E+03 -0.90166998220E+02 -0.56457585790E+02  0.14998779141E+03  0.00000000000E+00 0. -1.
         22    1    3    3    0    0 -0.28247056554E+01  0.31907742635E+02 -0.34515579119E+01  0.32217949254E+02  0.00000000000E+00 0. -1.
</event>
<event>
 7    1  0.5676357E-006  0.1386146E+03  0.7818608E-02  0.1324391E+00
          2   -1    0    0  502    0  0.00000000000E+00  0.00000000000E+00  0.64991005902E+03  0.64991005902E+03  0.00000000000E+00 0. -1.
          1   -1    0    0  501    0 -0.00000000000E+00 -0.00000000000E+00 -0.10846695114E+04  0.10846695114E+04  0.00000000000E+00 0. -1.
         25    2    1    2    0    0  0.99741420942E+01 -0.15739502382E+03 -0.90698991918E+02  0.22073735974E+03  0.12500399120E+03 0.  0.
          2    1    1    2  501    0 -0.48623913727E+02  0.12874043614E+03 -0.92285098130E+03  0.93305536737E+03  0.00000000000E+00 0. -1.
          1    1    1    2  502    0  0.38649771633E+02  0.28654587685E+02  0.57879052088E+03  0.58078684326E+03  0.00000000000E+00 0. -1.
         22    1    3    3    0    0  0.20817981417E+01 -0.62492252326E+01 -0.67259650476E+02  0.67581412250E+02  0.00000000000E+00 0.  1.
         22    1    3    3    0    0  0.78923439525E+01 -0.15114579859E+03 -0.23439341443E+02  0.15315594749E+03  0.00000000000E+00 0.  1.
</event>
<event>
 7    1  0.5676357E-006  0.7288156E+02  0.7818608E-02  0.1400783E+00
          2   -1    0    0  502    0  0.00000000000E+00  0.00000000000E+00  0.35582252908E+03  0.35582252908E+03  0.00000000000E+00 0. -1.
          1   -1    0    0  501    0 -0.00000000000E+00 -0.00000000000E+00 -0.25466864937E+03  0.25466864937E+03  0.00000000000E+00 0. -1.
         25    2    1    2    0    0  0.10908091430E+03  0.17291013946E+02  0.46398715666E+02  0.17313254624E+03  0.12499765087E+03 0.  0.
          2    1    1    2  501    0 -0.63181717345E+02 -0.32178016890E+02 -0.18221579985E+03  0.19552481145E+03  0.00000000000E+00 0. -1.
          1    1    1    2  502    0 -0.45899196957E+02  0.14887002943E+02  0.23697096389E+03  0.24183382077E+03  0.00000000000E+00 0. -1.
         22    1    3    3    0    0  0.83776102756E+02  0.12417837258E+02  0.89308138915E+02  0.12307957488E+03  0.00000000000E+00 0. -1.
         22    1    3    3    0    0  0.25304811545E+02  0.48731766887E+01 -0.42909423250E+02  0.50052971360E+02  0.00000000000E+00 0. -1.
</event>
<event>
 7    1  0.5676357E-006  0.8021949E+02  0.7818608E-02  0.1332606E+00
          2   -1    0    0  502    0  0.00000000000E+00  0.00000000000E+00  0.26196600715E+03  0.26196600715E+03  0.00000000000E+00 0. -1.
          1   -1    0    0  501    0 -0.00000000000E+00 -0.00000000000E+00 -0.21628763310E+03  0.21628763310E+03  0.00000000000E+00 0. -1.
         25    2    1    2    0    0  0.13490148577E+02  0.20107557541E+00 -0.16312233292E+01  0.12573982327E+03  0.12500327086E+03 0.  0.
          2    1    1    2  501    0 -0.87780428082E+02 -0.30468554976E+02 -0.12890246521E+03  0.15890117033E+03  0.00000000000E+00 0. -1.
          1    1    1    2  502    0  0.74290279505E+02  0.30267479400E+02  0.17621206259E+03  0.19361264665E+03  0.00000000000E+00 0. -1.
         22    1    3    3    0    0  0.43665740261E+02  0.50573604500E+02  0.26146545299E+01  0.66867202446E+02  0.00000000000E+00 0.  1.
         22    1    3    3    0    0 -0.30175591684E+02 -0.50372528925E+02 -0.42458778591E+01  0.58872620823E+02  0.00000000000E+00 0.  1.
</event>
<event>
 7    1  0.5676357E-006  0.7625042E+02  0.7818608E-02  0.1396155E+00
          2   -1    0    0  502    0  0.00000000000E+00  0.00000000000E+00  0.17222208955E+04  0.17222208955E+04  0.00000000000E+00 0. -1.
          1   -1    0    0  501    0 -0.00000000000E+00 -0.00000000000E+00 -0.67517753828E+03  0.67517753828E+03  0.00000000000E+00 0. -1.
         25    2    1    2    0    0 -0.15995117177E+02 -0.25296986450E+02  0.75035711725E+02  0.14882998938E+03  0.12499690559E+03 0.  0.
          2    1    1    2  501    0 -0.17227625925E+02 -0.44637676497E+02 -0.63645122466E+03  0.63824718928E+03  0.00000000000E+00 0. -1.
          1    1    1    2  502    0  0.33222743103E+02  0.69934662948E+02  0.16084588701E+04  0.16103212551E+04  0.00000000000E+00 0. -1.
         22    1    3    3    0    0  0.49881114974E+02  0.14018910595E+02  0.30187876149E+02  0.59966351830E+02  0.00000000000E+00 0.  1.
         22    1    3    3    0    0 -0.65876232152E+02 -0.39315897045E+02  0.44847835576E+02  0.88863637551E+02  0.00000000000E+00 0.  1.
</event>
<event>
 7    1  0.5676357E-006  0.7485543E+02  0.7818608E-02  0.1415315E+00
          2   -1    0    0  502    0  0.00000000000E+00  0.00000000000E+00  0.10854954944E+04  0.10854954944E+04  0.00000000000E+00 0. -1.
          1   -1    0    0  501    0 -0.00000000000E+00 -0.00000000000E+00 -0.66814137892E+03  0.66814137892E+03  0.00000000000E+00 0. -1.
         25    2    1    2    0    0 -0.61668989171E+02  0.72292467358E+02  0.58147340972E+03  0.60230013896E+03  0.12499946448E+03 0.  0.
          2    1    1    2  501    0  0.41768040797E+02 -0.36926482480E+01 -0.65446954869E+03  0.65581140204E+03  0.00000000000E+00 0. -1.
          1    1    1    2  502    0  0.19900948374E+02 -0.68599819111E+02  0.49035025442E+03  0.49552533228E+03  0.00000000000E+00 0. -1.
         22    1    3    3    0    0 -0.96464205321E+02  0.46200155113E+02  0.32450237098E+03  0.34167467862E+03  0.00000000000E+00 0. -1.
         22    1    3    3    0    0  0.34795216150E+02  0.26092312246E+02  0.25697103874E+03  0.26062546034E+03  0.00000000000E+00 0. -1.
</event>
<event>
 7    1  0.5676357E-006  0.2798209E+03  0.7818608E-02  0.1296370E+00
          2   -1    0    0  502    0  0.00000000000E+00  0.00000000000E+00  0.30888660918E+04  0.30888660918E+04  0.00000000000E+00 0. -1.
          1   -1    0    0  501    0 -0.00000000000E+00 -0.00000000000E+00 -0.35957098437E+03  0.35957098437E+03  0.00000000000E+00 0. -1.
         25    2    1    2    0    0  0.77930512178E+02 -0.25603619664E+03  0.14836517353E+04  0.15127708743E+04  0.12500219076E+03 0.  0.
          2    1    1    2  501    0 -0.10856520238E+03  0.25846010852E+03 -0.28788609466E+03  0.40182886203E+03  0.00000000000E+00 0. -1.
          1    1    1    2  502    0  0.30634690206E+02 -0.24239118787E+01  0.15335294668E+04  0.15338373399E+04  0.00000000000E+00 0. -1.
         22    1    3    3    0    0  0.10812076171E+03 -0.16011659917E+03  0.89797835253E+03  0.91852737904E+03  0.00000000000E+00 0. -1.
         22    1    3    3    0    0 -0.30190249530E+02 -0.95919597470E+02  0.58567338274E+03  0.59424349521E+03  0.00000000000E+00 0. -1.
</event>
<event>
 7    1  0.5676357E-006  0.1365771E+03  0.7818608E-02  0.1337742E+00
          2   -1    0    0  502    0  0.00000000000E+00  0.00000000000E+00  0.10726262182E+04  0.10726262182E+04  0.00000000000E+00 0. -1.
          1   -1    0    0  501    0 -0.00000000000E+00 -0.00000000000E+00 -0.29345439228E+04  0.29345439228E+04  0.00000000000E+00 0. -1.
         25    2    1    2    0    0 -0.66206354638E+02 -0.16631491062E+03  0.51342383952E+03  0.55791782161E+03  0.12499730314E+03 0.  0.
          2    1    1    2  501    0  0.57408831639E+02  0.12378683416E+03 -0.29098174062E+04  0.29130149831E+04  0.00000000000E+00 0. -1.
          1    1    1    2  502    0  0.87975229984E+01  0.42528076461E+02  0.53447586213E+03  0.53623733635E+03  0.00000000000E+00 0. -1.
         22    1    3    3    0    0 -0.58597143287E+02 -0.20301109776E+02  0.23968839694E+03  0.24758087141E+03  0.00000000000E+00 0. -1.
         22    1    3    3    0    0 -0.76092113509E+01 -0.14601380085E+03  0.27373544258E+03  0.31033695020E+03  0.00000000000E+00 0. -1.
</event>
<event>
 7    1  0.5676357E-006  0.1529761E+03  0.7818608E-02  0.1244507E+00
          2   -1    0    0  502    0  0.00000000000E+00  0.00000000000E+00  0.83742584860E+03  0.83742584860E+03  0.00000000000E+00 0. -1.
          1   -1    0    0  501    0 -0.00000000000E+00 -0.00000000000E+00 -0.11337419023E+04  0.11337419023E+04  0.00000000000E+00 0. -1.
         25    2    1    2    0    0 -0.13837826222E+03 -0.87293128300E+00 -0.25488004685E+03  0.31581344755E+03  0.12499995964E+03 0.  0.
          2    1    1    2  501    0  0.13226444683E+03  0.93473851406E+02 -0.83794684161E+03  0.85345542013E+03  0.00000000000E+00 0. -1.
          1    1    1    2  502    0  0.61138153928E+01 -0.92600920123E+02  0.79651083472E+03  0.80189888326E+03  0.00000000000E+00 0. -1.
         22    1    3    3    0    0 -0.83207676100E+02 -0.47773307375E+02 -0.20931788467E+03  0.23026025081E+03  0.00000000000E+00 0. -1.
         22    1    3    3    0    0 -0.55170586121E+02  0.46900376092E+02 -0.45562162173E+02  0.85553196740E+02  0.00000000000E+00 0. -1.
</event>
<event>
 7    1  0.5676357E-006  0.4158675E+02  0.7818608E-02  0.1529150E+00
          2   -1    0    0  502    0  0.00000000000E+00  0.00000000000E+00  0.35410892333E+03  0.35410892333E+03  0.00000000000E+00 0. -1.
          1   -1    0    0  501    0 -0.00000000000E+00 -0.00000000000E+00 -0.89408444985E+03  0.89408444985E+03  0.00000000000E+00 0. -1.
         25    2    1    2    0    0 -0.25529261272E+02  0.29867986804E+02 -0.37367077118E+02  0.13625426057E+03  0.12500034102E+03 0.  0.
          2    1    1    2  501    0 -0.16307330100E+02 -0.29192791627E+02 -0.80548863000E+03  0.80618241184E+03  0.00000000000E+00 0. -1.
          1    1    1    2  502    0  0.41836591372E+02 -0.67519517715E+00  0.30288018060E+03  0.30575670077E+03  0.00000000000E+00 0. -1.
         22    1    3    3    0    0 -0.32964234152E+02  0.25849966096E+02  0.40299989952E+02  0.58128742207E+02  0.00000000000E+00 0.  1.
         22    1    3    3    0    0  0.74349728802E+01  0.40180207079E+01 -0.77667067070E+02  0.78125518362E+02  0.00000000000E+00 0.  1.
</event>
<event>
 7    1  0.5676357E-006  0.1028490E+03  0.7818608E-02  0.1439752E+00
          2   -1    0    0  502    0  0.00000000000E+00  0.00000000000E+00  0.23452084022E+04  0.23452084022E+04  0.00000000000E+00 0. -1.
          1   -1    0    0  501    0 -0.00000000000E+00 -0.00000000000E+00 -0.97753587775E+02  0.97753587775E+02  0.00000000000E+00 0. -1.
         25    2    1    2    0    0  0.83539437182E+02  0.29794176934E+02  0.14282643707E+03  0.20949755306E+03  0.12499321209E+03 0.  0.
          2    1    1    2  501    0  0.42114403837E+01  0.24987991783E+02 -0.60642401025E+02  0.65723943624E+02  0.00000000000E+00 0. -1.
          1    1    1    2  502    0 -0.87750877565E+02 -0.54782168717E+02  0.21652707784E+04  0.21677404933E+04  0.00000000000E+00 0. -1.
         22    1    3    3    0    0  0.71895971527E+02  0.10242719303E+02  0.83397187403E+01  0.73099212918E+02  0.00000000000E+00 0. -1.
         22    1    3    3    0    0  0.11643465655E+02  0.19551457631E+02  0.13448671832E+03  0.13639834014E+03  0.00000000000E+00 0. -1.
</event>
<event>
 7    1  0.5676357E-006  0.1223843E+03  0.7818608E-02  0.1297577E+00
          2   -1    0    0  502    0  0.00000000000E+00  0.00000000000E+00  0.65100831949E+03  0.65100831949E+03  0.00000000000E+00 0. -1.
          1   -1    0    0  501    0 -0.00000000000E+00 -0.00000000000E+00 -0.44453571666E+03  0.44453571666E+03  0.00000000000E+00 0. -1.
         25    2    1    2    0    0 -0.18498522352E+02 -0.11859238531E+03  0.82246409712E+01  0.17349271758E+03  0.12500291656E+03 0.  0.
          2    1    1    2  501    0 -0.50824967510E+02  0.11391336166E+03 -0.34889060993E+03  0.37051867562E+03  0.00000000000E+00 0. -1.
          1    1    1    2  502    0  0.69323489862E+02  0.46790236552E+01  0.54713857179E+03  0.55153264296E+03  0.00000000000E+00 0. -1.
         22    1    3    3    0    0 -0.71563735780E+02 -0.57303864112E+02  0.11251112921E+02  0.92367140601E+02  0.00000000000E+00 0. -1.
         22    1    3    3    0    0  0.53065213428E+02 -0.61288521199E+02 -0.30264719498E+01  0.81125576974E+02  0.00000000000E+00 0. -1.
</event>
<event>
 7    1  0.5676357E-006  0.6881911E+02  0.7818608E-02  0.1421375E+00
          2   -1    0    0  502    0  0.00000000000E+00  0.00000000000E+00  0.30829530386E+02  0.30829530386E+02  0.00000000000E+00 0. -1.
          1   -1    0    0  501    0 -0.00000000000E+00 -0.00000000000E+00 -0.35385701426E+04  0.35385701426E+04  0.00000000000E+00 0. -1.
         25    2    1    2    0    0  0.82879327325E+02  0.32640313935E+02 -0.30971791913E+03  0.34566615202E+03  0.12500210490E+03 0.  0.
          2    1    1    2  501    0 -0.44157915921E+02 -0.52520939643E+02 -0.31725681481E+04  0.31733101054E+04  0.00000000000E+00 0. -1.
          1    1    1    2  502    0 -0.38721411404E+02  0.19880625708E+02 -0.25454545016E+02  0.50423415609E+02  0.00000000000E+00 0. -1.
         22    1    3    3    0    0  0.78922350025E+01  0.23309420810E+02  0.22170155651E+01  0.24708938258E+02  0.00000000000E+00 0. -1.
         22    1    3    3    0    0  0.74987092322E+02  0.93308931253E+01 -0.31193493469E+03  0.32095721376E+03  0.00000000000E+00 0. -1.
</event>
<event>
 7    1  0.5676357E-006  0.7030206E+02  0.7818608E-02  0.1435972E+00
          2   -1    0    0  502    0  0.00000000000E+00  0.00000000000E+00  0.95109429369E+03  0.95109429369E+03  0.00000000000E+00 0. -1.
          1   -1    0    0  501    0 -0.00000000000E+00 -0.00000000000E+00 -0.24985135239E+03  0.24985135239E+03  0.00000000000E+00 0. -1.
         25    2    1    2    0    0 -0.35702396692E+02 -0.57228596780E+01 -0.15820997516E+01  0.13012859689E+03  0.12499414561E+03 0.  0.
          2    1    1    2  501    0  0.73391402711E+02  0.11553290876E+02 -0.17606572681E+03  0.19109923255E+03  0.00000000000E+00 0. -1.
          1    1    1    2  502    0 -0.37689006019E+02 -0.58304311981E+01  0.87889076786E+03  0.87971781665E+03  0.00000000000E+00 0. -1.
         22    1    3    3    0    0 -0.63277469269E+02 -0.24944688827E+02  0.38229844561E+02  0.78024333594E+02  0.00000000000E+00 0. -1.
         22    1    3    3    0    0  0.27575072577E+02  0.19221829149E+02 -0.39811944312E+02  0.52104263294E+02  0.00000000000E+00 0. -1.
</event>
<event>
 7    1  0.5676357E-006  0.1064052E+03  0.7818608E-02  0.1348706E+00
          2   -1    0    0  502    0  0.00000000000E+00  0.00000000000E+00  0.12834579073E+04  0.12834579073E+04  0.00000000000E+00 0. -1.
          1   -1    0    0  501    0 -0.00000000000E+00 -0.00000000000E+00 -0.12575493091E+03  0.12575493091E+03  0.00000000000E+00 0. -1.
         25    2    1    2    0    0  0.32125065722E+02  0.54244401167E+02  0.20861773147E+03  0.25123855629E+03  0.12499991750E+03 0.  0.
          2    1    1    2  501    0 -0.70800855084E+02 -0.87050861105E+02 -0.73496569061E+02  0.13413559991E+03  0.00000000000E+00 0. -1.
          1    1    1    2  502    0  0.38675789362E+02  0.32806459938E+02  0.10225818140E+04  0.10238386820E+04  0.00000000000E+00 0. -1.
         22    1    3    3    0    0  0.22253186135E+02 -0.21269213352E+02  0.15518172080E+03  0.15820540509E+03  0.00000000000E+00 0. -1.
         22    1    3    3    0    0  0.98718795873E+01  0.75513614520E+02  0.53436010674E+02  0.93033151194E+02  0.00000000000E+00 0. -1.
</event>
<event>
 7    1  0.5676357E-006  0.1784752E+03  0.7818608E-02  0.1314481E+00
          2   -1    0    0  502    0  0.00000000000E+00  0.00000000000E+00  0.10422935243E+04  0.10422935243E+04  0.00000000000E+00 0. -1.
          1   -1    0    0  501    0 -0.00000000000E+00 -0.00000000000E+00 -0.13349629502E+04  0.13349629502E+04  0.00000000000E+00 0. -1.
         25    2    1    2    0    0 -0.20750893999E+03  0.10898392650E+02 -0.57252282129E+03  0.62176098894E+03  0.12500244529E+03 0.  0.
          2    1    1    2  501    0  0.16713289981E+03 -0.48258018974E+01 -0.72792962574E+03  0.74688569044E+03  0.00000000000E+00 0. -1.
          1    1    1    2  502    0  0.40376040177E+02 -0.60725907522E+01  0.10077830212E+04  0.10086097951E+04  0.00000000000E+00 0. -1.
         22    1    3    3    0    0 -0.46473311938E+02 -0.22042461987E+02 -0.29309108544E+03  0.29757019880E+03  0.00000000000E+00 0. -1.
         22    1    3    3    0    0 -0.16103562805E+03  0.32940854637E+02 -0.27943173586E+03  0.32419079014E+03  0.00000000000E+00 0. -1.
</event>
<event>
 7    1  0.5676357E-006  0.9208750E+02  0.7818608E-02  0.1373814E+00
          2   -1    0    0  502    0  0.00000000000E+00  0.00000000000E+00  0.18165959424E+04  0.18165959424E+04  0.00000000000E+00 0. -1.
          1   -1    0    0  501    0 -0.00000000000E+00 -0.00000000000E+00 -0.71803387837E+03  0.71803387837E+03  0.00000000000E+00 0. -1.
         25    2    1    2    0    0 -0.16674167589E+02 -0.84538568240E+02  0.12328884154E+04  0.12422008728E+04  0.12499746548E+03 0.  0.
          2    1    1    2  501    0  0.61416837081E+02  0.68673364593E+02 -0.70942095725E+03  0.71537832890E+03  0.00000000000E+00 0. -1.
          1    1    1    2  502    0 -0.44742669492E+02  0.15865203646E+02  0.57509460590E+03  0.57705061900E+03  0.00000000000E+00 0. -1.
         22    1    3    3    0    0 -0.41093750133E+02 -0.63304318963E+02  0.32156821348E+03  0.33030629576E+03  0.00000000000E+00 0.  1.
         22    1    3    3    0    0  0.24419582544E+02 -0.21234249276E+02  0.91132020188E+03  0.91189457708E+03  0.00000000000E+00 0.  1.
</event>
<event>
 7    1  0.8084010E-006  0.4287151E+02  0.7818608E-02  0.1493284E+00
          2   -1    0    0  502    0  0.00000000000E+00  0.00000000000E+00  0.84378908258E+03  0.84378908258E+03  0.00000000000E+00 0. -1.
          1   -1    0    0  501    0 -0.00000000000E+00 -0.00000000000E+00 -0.15110307768E+04  0.15110307768E+04  0.00000000000E+00 0. -1.
         25    2    1    2    0    0 -0.31248432913E+02 -0.43157812794E+02 -0.86717661765E+03  0.87775813284E+03  0.12499996883E+03 0.  0.
          2    1    1    2  501    0 -0.10094200356E+02  0.42500445793E+02 -0.63730555497E+03  0.63880086973E+03  0.00000000000E+00 0. -1.
          1    1    1    2  502    0  0.41342633269E+02  0.65736700101E+00  0.83724047838E+03  0.83826085683E+03  0.00000000000E+00 0. -1.
         22    1    3    3    0    0 -0.24737449442E+02 -0.17203048674E+02 -0.39653437105E+02  0.49802423263E+02  0.00000000000E+00 0.  1.
         22    1    3    3    0    0 -0.65109834715E+01 -0.25954764120E+02 -0.82752318054E+03  0.82795570958E+03  0.00000000000E+00 0.  1.
</event>
<event>
 7    1  0.5676357E-006  0.1994962E+03  0.7818608E-02  0.1185940E+00
          2   -1    0    0  502    0  0.00000000000E+00  0.00000000000E+00  0.19586080042E+03  0.19586080042E+03  0.00000000000E+00 0. -1.
          1   -1    0    0  501    0 -0.00000000000E+00 -0.00000000000E+00 -0.17183058856E+04  0.17183058856E+04  0.00000000000E+00 0. -1.
         25    2    1    2    0    0  0.19420154767E+02  0.92873567779E+02 -0.28337952726E+02  0.15947733274E+03  0.12500935200E+03 0.  0.
          2    1    1    2  501    0  0.19098945007E+03 -0.57634661517E+02 -0.15259943965E+04  0.15389794093E+04  0.00000000000E+00 0. -1.
          1    1    1    2  502    0 -0.21040960484E+03 -0.35238906262E+02  0.31887264014E+02  0.21570994397E+03  0.00000000000E+00 0. -1.
         22    1    3    3    0    0  0.52986964159E+02 -0.23959412699E+01 -0.24416917220E+02  0.58391307160E+02  0.00000000000E+00 0. -1.
         22    1    3    3    0    0 -0.33566809392E+02  0.95269509049E+02 -0.39210355062E+01  0.10108602558E+03  0.00000000000E+00 0. -1.
</event>
<event>
 7    1  0.5676357E-006  0.1674595E+03  0.7818608E-02  0.1194688E+00
          2   -1    0    0  502    0  0.00000000000E+00  0.00000000000E+00  0.15667823015E+04  0.15667823015E+04  0.00000000000E+00 0. -1.
          1   -1    0    0  501    0 -0.00000000000E+00 -0.00000000000E+00 -0.13209959589E+04  0.13209959589E+04  0.00000000000E+00 0. -1.
         25    2    1    2    0    0  0.37186647070E+02  0.34193127874E+02  0.17167138071E+03  0.21828481340E+03  0.12500072036E+03 0.  0.
          2    1    1    2  501    0  0.10944924238E+03 -0.12674208461E+03 -0.12867625224E+04  0.12976133791E+04  0.00000000000E+00 0. -1.
          1    1    1    2  502    0 -0.14663588945E+03  0.92548956737E+02  0.13608774842E+04  0.13718800678E+04  0.00000000000E+00 0. -1.
         22    1    3    3    0    0  0.32857228986E+02  0.99457916062E+01 -0.93622653651E+01  0.35583258424E+02  0.00000000000E+00 0. -1.
         22    1    3    3    0    0  0.43294180847E+01  0.24247336267E+02  0.18103364608E+03  0.18270155497E+03  0.00000000000E+00 0. -1.
</event>
<event>
 7    1  0.5676357E-006  0.4904775E+02  0.7818608E-02  0.1550976E+00
          2   -1    0    0  502    0  0.00000000000E+00  0.00000000000E+00  0.64164507339E+02  0.64164507339E+02  0.00000000000E+00 0. -1.
          1   -1    0    0  501    0 -0.00000000000E+00 -0.00000000000E+00 -0.62348852169E+03  0.62348852169E+03  0.00000000000E+00 0. -1.
         25    2    1    2    0    0 -0.33145809352E+02 -0.10761255690E+02 -0.52913269828E+03  0.54481237605E+03  0.12499865364E+03 0.  0.
          2    1    1    2  501    0 -0.14340225290E+01 -0.24555495019E+02 -0.73261760746E+02  0.77280750150E+02  0.00000000000E+00 0. -1.
          1    1    1    2  502    0  0.34579831881E+02  0.35316750709E+02  0.43070444677E+02  0.65559902823E+02  0.00000000000E+00 0. -1.
         22    1    3    3    0    0  0.13201197563E+02 -0.55859403138E+02 -0.34291904643E+03  0.34768954103E+03  0.00000000000E+00 0. -1.
         22    1    3    3    0    0 -0.46347006915E+02  0.45098147448E+02 -0.18621365185E+03  0.19712283503E+03  0.00000000000E+00 0. -1.
</event>
<event>
 7    1  0.5676357E-006  0.4200822E+02  0.7818608E-02  0.1531999E+00
          2   -1    0    0  502    0  0.00000000000E+00  0.00000000000E+00  0.21899876567E+02  0.21899876567E+02  0.00000000000E+00 0. -1.
          1   -1    0    0  501    0 -0.00000000000E+00 -0.00000000000E+00 -0.14330022175E+04  0.14330022175E+04  0.00000000000E+00 0. -1.
         25    2    1    2    0    0 -0.23622607626E+02 -0.20176542480E+02 -0.48305036751E+03  0.49992528821E+03  0.12499006276E+03 0.  0.
          2    1    1    2  501    0  0.77186189359E+00  0.43269279701E+02 -0.92063747928E+03  0.92165405364E+03  0.00000000000E+00 0. -1.
          1    1    1    2  502    0  0.22850745733E+02 -0.23092737222E+02 -0.74144941709E+01  0.33322752238E+02  0.00000000000E+00 0. -1.
         22    1    3    3    0    0 -0.46309166086E+02  0.31605289272E+02 -0.11941812072E+03  0.13192467824E+03  0.00000000000E+00 0.  1.
         22    1    3    3    0    0  0.22686558460E+02 -0.51781831752E+02 -0.36363224679E+03  0.36800060997E+03  0.00000000000E+00 0.  1.
</event>
<event>
 7    1  0.5676357E-006  0.8403375E+02  0.7818608E-02  0.1495380E+00
          2   -1    0    0  502    0  0.00000000000E+00  0.00000000000E+00  0.25385654554E+03  0.25385654554E+03  0.00000000000E+00 0. -1.
          1   -1    0    0  501    0 -0.00000000000E+00 -0.00000000000E+00 -0.14432319934E+04  0.14432319934E+04  0.00000000000E+00 0. -1.
         25    2    1    2    0    0 -0.53682604985E+02  0.50871196939E+02 -0.38167003989E+03  0.40837781741E+03  0.12502288451E+03 0.  0.
          2    1    1    2  501    0  0.73330480466E+02 -0.44074032704E+02 -0.10460089065E+04  0.10495020306E+04  0.00000000000E+00 0. -1.
          1    1    1    2  502    0 -0.19647875482E+02 -0.67971642348E+01  0.23830349848E+03  0.23920869098E+03  0.00000000000E+00 0. -1.
         22    1    3    3    0    0 -0.42771596814E+02  0.54436583911E+02 -0.77212665320E+02  0.10370413130E+03  0.00000000000E+00 0. -1.
         22    1    3    3    0    0 -0.10911008171E+02 -0.35653869717E+01 -0.30445737457E+03  0.30467368612E+03  0.00000000000E+00 0. -1.
</event>
<event>
 7    1  0.5676357E-006  0.6605458E+02  0.7818608E-02  0.1375360E+00
          2   -1    0    0  502    0  0.00000000000E+00  0.00000000000E+00  0.83063132553E+03  0.83063132553E+03  0.00000000000E+00 0. -1.
          1   -1    0    0  501    0 -0.00000000000E+00 -0.00000000000E+00 -0.13935999445E+04  0.13935999445E+04  0.00000000000E+00 0. -1.
         25    2    1    2    0    0 -0.35068875519E+02 -0.10031828765E+02  0.24934283095E+02  0.13257974158E+03  0.12500082314E+03 0.  0.
          2    1    1    2  501    0  0.31177103159E+02 -0.57429048104E+02 -0.13374596591E+04  0.13390550575E+04  0.00000000000E+00 0. -1.
          1    1    1    2  502    0  0.38917723599E+01  0.67460876869E+02  0.74955675712E+03  0.75259647086E+03  0.00000000000E+00 0. -1.
         22    1    3    3    0    0  0.26816486371E+02 -0.40042964801E+02 -0.18063498264E+02  0.51467008276E+02  0.00000000000E+00 0.  1.
         22    1    3    3    0    0 -0.61885361890E+02  0.30011136036E+02  0.42997781359E+02  0.81112733305E+02  0.00000000000E+00 0.  1.
</event>
<event>
 7    1  0.5676357E-006  0.8328433E+02  0.7818608E-02  0.1403571E+00
          2   -1    0    0  502    0  0.00000000000E+00  0.00000000000E+00  0.19272183785E+03  0.19272183785E+03  0.00000000000E+00 0. -1.
          1   -1    0    0  501    0 -0.00000000000E+00 -0.00000000000E+00 -0.45936156644E+03  0.45936156644E+03  0.00000000000E+00 0. -1.
         25    2    1    2    0    0  0.36747239434E+02 -0.88861957221E+02  0.91565948652E+01  0.15797650655E+03  0.12500370533E+03 0.  0.
          2    1    1    2  501    0 -0.61517986791E+02  0.55806114480E+02 -0.37634630769E+03  0.38540281321E+03  0.00000000000E+00 0. -1.
          1    1    1    2  502    0  0.24770747357E+02  0.33055842741E+02  0.10054998424E+03  0.10870408453E+03  0.00000000000E+00 0. -1.
         22    1    3    3    0    0  0.68823933152E+02 -0.64947821898E+01  0.78519602696E+01  0.69574199602E+02  0.00000000000E+00 0.  1.
         22    1    3    3    0    0 -0.32076693718E+02 -0.82367175031E+02  0.13046345956E+01  0.88402306949E+02  0.00000000000E+00 0.  1.
</event>
<event>
 7    1  0.5676357E-006  0.4496734E+02  0.7818608E-02  0.1479285E+00
          2   -1    0    0  502    0  0.00000000000E+00  0.00000000000E+00  0.80085718460E+02  0.80085718460E+02  0.00000000000E+00 0. -1.
          1   -1    0    0  501    0 -0.00000000000E+00 -0.00000000000E+00 -0.11556227874E+04  0.11556227874E+04  0.00000000000E+00 0. -1.
         25    2    1    2    0    0  0.11466562144E+02  0.29511590160E+02 -0.58274730974E+03  0.59684622755E+03  0.12501430450E+03 0.  0.
          2    1    1    2  501    0 -0.47604107624E+02 -0.27508039123E+01 -0.55778960672E+03  0.55982404678E+03  0.00000000000E+00 0. -1.
          1    1    1    2  502    0  0.36137545480E+02 -0.26760786248E+02  0.64999847493E+02  0.79038231559E+02  0.00000000000E+00 0. -1.
         22    1    3    3    0    0  0.13999580734E+02 -0.28301258807E+02 -0.39703791051E+02  0.50728103992E+02  0.00000000000E+00 0. -1.
         22    1    3    3    0    0 -0.25330185898E+01  0.57812848967E+02 -0.54304351869E+03  0.54611812356E+03  0.00000000000E+00 0. -1.
</event>
<event>
 7    1  0.5676357E-006  0.5054189E+02  0.7818608E-02  0.1556438E+00
          2   -1    0    0  502    0  0.00000000000E+00  0.00000000000E+00  0.63762419728E+03  0.63762419728E+03  0.00000000000E+00 0. -1.
          1   -1    0    0  501    0 -0.00000000000E+00 -0.00000000000E+00 -0.12683932002E+04  0.12683932002E+04  0.00000000000E+00 0. -1.
         25    2    1    2    0    0 -0.53532756120E+02 -0.38529693498E+02  0.28947307971E+03  0.32213321735E+03  0.12499941033E+03 0.  0.
          2    1    1    2  501    0  0.30545132432E+02  0.40241379509E+02 -0.12511523818E+04  0.12521719755E+04  0.00000000000E+00 0. -1.
          1    1    1    2  502    0  0.22987623687E+02 -0.17116860112E+01  0.33091029909E+03  0.33171220471E+03  0.00000000000E+00 0. -1.
         22    1    3    3    0    0 -0.52151595342E+02 -0.60992568537E+02  0.86791320968E+02  0.11820581927E+03  0.00000000000E+00 0. -1.
         22    1    3    3    0    0 -0.13811607776E+01  0.22462875039E+02  0.20268175874E+03  0.20392739808E+03  0.00000000000E+00 0. -1.
</event>
<event>
 7    1  0.5676357E-006  0.1037662E+03  0.7818608E-02  0.1315485E+00
          2   -1    0    0  502    0  0.00000000000E+00  0.00000000000E+00  0.11844912025E+04  0.11844912025E+04  0.00000000000E+00 0. -1.
          1   -1    0    0  501    0 -0.00000000000E+00 -0.00000000000E+00 -0.19774573220E+03  0.19774573220E+03  0.00000000000E+00 0. -1.
         25    2    1    2    0    0  0.34641503527E+02  0.10672914366E+02 -0.11574871115E+03  0.17417469685E+03  0.12500046409E+03 0.  0.
          2    1    1    2  501    0  0.69582916808E+02  0.12950520042E+01 -0.26303599506E+02  0.74399857649E+02  0.00000000000E+00 0. -1.
          1    1    1    2  502    0 -0.10422442034E+03 -0.11967966370E+02  0.11287977810E+04  0.11336623802E+04  0.00000000000E+00 0. -1.
         22    1    3    3    0    0  0.39444342619E+02  0.47552173343E+02 -0.12172532204E+03  0.13650684738E+03  0.00000000000E+00 0.  1.
         22    1    3    3    0    0 -0.48028390922E+01 -0.36879258978E+02  0.59766108984E+01  0.37667849473E+02  0.00000000000E+00 0.  1.
</event>
<event>
 7    1  0.5676357E-006  0.1112577E+03  0.7818608E-02  0.1285659E+00
          2   -1    0    0  502    0  0.00000000000E+00  0.00000000000E+00  0.21476647987E+03  0.21476647987E+03  0.00000000000E+00 0. -1.
          1   -1    0    0  501    0 -0.00000000000E+00 -0.00000000000E+00 -0.18197824406E+04  0.18197824406E+04  0.00000000000E+00 0. -1.
         25    2    1    2    0    0  0.12454667315E+02  0.28956973559E+02  0.34408771445E+02  0.13342599814E+03  0.12499963349E+03 0.  0.
          2    1    1    2  501    0 -0.78064970863E+02  0.79272477572E+02 -0.17374681011E+04  0.17410266131E+04  0.00000000000E+00 0. -1.
          1    1    1    2  502    0  0.65610303548E+02 -0.10822945113E+03  0.98043368923E+02  0.16009630918E+03  0.00000000000E+00 0. -1.
         22    1    3    3    0    0  0.57381163267E+02 -0.14691271597E+01 -0.15763070160E+02  0.59525041902E+02  0.00000000000E+00 0. -1.
         22    1    3    3    0    0 -0.44926495952E+02  0.30426100719E+02  0.50171841605E+02  0.73900956242E+02  0.00000000000E+00 0. -1.
</event>
<event>
 7    1  0.5676357E-006  0.2385785E+03  0.7818608E-02  0.1194680E+00
          2   -1    0    0  502    0  0.00000000000E+00  0.00000000000E+00  0.67882228345E+03  0.67882228345E+03  0.00000000000E+00 0. -1.
          1   -1    0    0  501    0 -0.00000000000E+00 -0.00000000000E+00 -0.28201970490E+03  0.28201970490E+03  0.00000000000E+00 0. -1.
         25    2    1    2    0    0 -0.18622556021E+03 -0.60221557878E+02 -0.11669605683E+03  0.25990212702E+03  0.12499820255E+03 0.  0.
          2    1    1    2  501    0 -0.59501376642E+02  0.80941152176E+02 -0.29389661304E+02  0.10466917469E+03  0.00000000000E+00 0. -1.
          1    1    1    2  502    0  0.24572693685E+03 -0.20719594299E+02  0.54288829669E+03  0.59627068665E+03  0.00000000000E+00 0. -1.
         22    1    3    3    0    0 -0.21769593847E+02 -0.14623092514E+02 -0.81546317095E+02  0.85659511338E+02  0.00000000000E+00 0.  1.
         22    1    3    3    0    0 -0.16445596636E+03 -0.45598465363E+02 -0.35149739738E+02  0.17424261568E+03  0.00000000000E+00 0.  1.
</event>
<event>
 7    1  0.5676357E-006  0.7396645E+02  0.7818608E-02  0.1352862E+00
          2   -1    0    0  502    0  0.00000000000E+00  0.00000000000E+00  0.18769282366E+04  0.18769282366E+04  0.00000000000E+00 0. -1.
          1   -1    0    0  501    0 -0.00000000000E+00 -0.00000000000E+00 -0.20734678445E+03  0.20734678445E+03  0.00000000000E+00 0. -1.
         25    2    1    2    0    0  0.91595166650E+02 -0.21601393533E+02 -0.77807506894E+02  0.17474206531E+03  0.12499794600E+03 0.  0.
          2    1    1    2  501    0 -0.36289240403E+02  0.65192313969E+02 -0.63074650079E+02  0.97700349294E+02  0.00000000000E+00 0. -1.
          1    1    1    2  502    0 -0.55305926247E+02 -0.43590920436E+02  0.18104636091E+04  0.18118326065E+04  0.00000000000E+00 0. -1.
         22    1    3    3    0    0  0.62403283693E+02  0.42152637892E+02 -0.78858213048E+01  0.75717903263E+02  0.00000000000E+00 0.  1.
         22    1    3    3    0    0  0.29191882956E+02 -0.63754031424E+02 -0.69921685590E+02  0.99024162047E+02  0.00000000000E+00 0.  1.
</event>
<event>
 7    1  0.5676357E-006  0.1699801E+03  0.7818608E-02  0.1241741E+00
          2   -1    0    0  502    0  0.00000000000E+00  0.00000000000E+00  0.34858914742E+04  0.34858914742E+04  0.00000000000E+00 0. -1.
          1   -1    0    0  501    0 -0.00000000000E+00 -0.00000000000E+00 -0.33142044835E+03  0.33142044835E+03  0.00000000000E+00 0. -1.
         25    2    1    2    0    0 -0.74460114944E+02 -0.24188347933E+03  0.89052565453E+03  0.93419100732E+03  0.12499988194E+03 0.  0.
          2    1    1    2  501    0  0.57913835797E+02  0.15760653445E+03 -0.28604427050E+03  0.33168532793E+03  0.00000000000E+00 0. -1.
          1    1    1    2  502    0  0.16546279147E+02  0.84276944884E+02  0.25499896418E+04  0.25514355873E+04  0.00000000000E+00 0. -1.
         22    1    3    3    0    0 -0.27175252804E+02 -0.70073669960E+02  0.10765158576E+03  0.13129233604E+03  0.00000000000E+00 0.  1.
         22    1    3    3    0    0 -0.47284862140E+02 -0.17180980937E+03  0.78287406877E+03  0.80289867128E+03  0.00000000000E+00 0.  1.
</event>
<event>
 7    1  0.5676357E-006  0.4890827E+02  0.7818608E-02  0.1493882E+00
          2   -1    0    0  502    0  0.00000000000E+00  0.00000000000E+00  0.15665328959E+04  0.15665328959E+04  0.00000000000E+00 0. -1.
          1   -1    0    0  501    0 -0.00000000000E+00 -0.00000000000E+00 -0.41400190024E+03  0.41400190024E+03  0.00000000000E+00 0. -1.
         25    2    1    2    0    0  0.44994010701E+02  0.58526348892E+02 -0.52230352699E+02  0.15427414883E+03  0.12499083463E+03 0.  0.
          2    1    1    2  501    0 -0.16297385247E+01 -0.36057534504E+02 -0.30930645256E+03  0.31140533624E+03  0.00000000000E+00 0. -1.
          1    1    1    2  502    0 -0.43364272177E+02 -0.22468814388E+02  0.15140678009E+04  0.15148553111E+04  0.00000000000E+00 0. -1.
         22    1    3    3    0    0  0.11853767477E+02 -0.37917924035E+02 -0.30299479944E+02  0.49963379103E+02  0.00000000000E+00 0.  1.
         22    1    3    3    0    0  0.33140243225E+02  0.96444272926E+02 -0.21930872754E+02  0.10431076973E+03  0.00000000000E+00 0.  1.
</event>
<event>
 7    1  0.5676357E-006  0.8765933E+02  0.7818608E-02  0.1452394E+00
          2   -1    0    0  502    0  0.00000000000E+00  0.00000000000E+00  0.34123868136E+04  0.34123868136E+04  0.00000000000E+00 0. -1.
          1   -1    0    0  501    0 -0.00000000000E+00 -0.00000000000E+00 -0.14158581184E+03  0.14158581184E+03  0.00000000000E+00 0. -1.
         25    2    1    2    0    0  0.99948593447E+02 -0.30090749417E+02  0.42166751404E+03  0.45202143359E+03  0.12499883797E+03 0.  0.
          2    1    1    2  501    0 -0.13128279087E+02  0.23677327686E+02 -0.12431483426E+03  0.12722871364E+03  0.00000000000E+00 0. -1.
          1    1    1    2  502    0 -0.86820314360E+02  0.64134217312E+01  0.29734483219E+04  0.29747224782E+04  0.00000000000E+00 0. -1.
         22    1    3    3    0    0 -0.15946547031E+02  0.12151890251E+02  0.17585628894E+03  0.17699546650E+03  0.00000000000E+00 0.  1.
         22    1    3    3    0    0  0.11589514048E+03 -0.42242639668E+02  0.24581122509E+03  0.27502596709E+03  0.00000000000E+00 0.  1.
</event>
<event>
 7    1  0.5676357E-006  0.8999794E+02  0.7818608E-02  0.1375126E+00
          2   -1    0    0  502    0  0.00000000000E+00  0.00000000000E+00  0.12496719713E+03  0.12496719713E+03  0.00000000000E+00 0. -1.
          1   -1    0    0  501    0 -0.00000000000E+00 -0.00000000000E+00 -0.70632192347E+03  0.70632192347E+03  0.00000000000E+00 0. -1.
         25    2    1    2    0    0  0.47646866757E+01  0.98520328339E+02 -0.46514785650E+02  0.16588332878E+03  0.12499878458E+03 0.  0.
          2    1    1    2  501    0 -0.47540324545E+02 -0.76625604414E+02 -0.58734706152E+03  0.59422902688E+03  0.00000000000E+00 0. -1.
          1    1    1    2  502    0  0.42775637869E+02 -0.21894723925E+02  0.52507120828E+02  0.71176764948E+02  0.00000000000E+00 0. -1.
         22    1    3    3    0    0  0.53440929163E+02  0.70920288717E+02  0.61863559607E+01  0.89016241561E+02  0.00000000000E+00 0. -1.
         22    1    3    3    0    0 -0.48676242487E+02  0.27600039622E+02 -0.52701141611E+02  0.76867087215E+02  0.00000000000E+00 0. -1.
</event>
<event>
 7    1  0.5676357E-006  0.4152595E+02  0.7818608E-02  0.1505681E+00
          2   -1    0    0  502    0  0.00000000000E+00  0.00000000000E+00  0.87713788326E+03  0.87713788326E+03  0.00000000000E+00 0. -1.
          1   -1    0    0  501    0 -0.00000000000E+00 -0.00000000000E+00 -0.99723599728E+02  0.99723599728E+02  0.00000000000E+00 0. -1.
         25    2    1    2    0    0  0.63115692976E+02  0.32371873214E+02  0.10063807678E+03  0.17543076775E+03  0.12496560687E+03 0.  0.
          2    1    1    2  501    0 -0.40447351903E+02 -0.39149338589E+00 -0.55184412318E+02  0.68421202166E+02  0.00000000000E+00 0. -1.
          1    1    1    2  502    0 -0.22668341073E+02 -0.31980379828E+02  0.73196061907E+03  0.73300951307E+03  0.00000000000E+00 0. -1.
         22    1    3    3    0    0 -0.26326184181E+01  0.23226391415E+02  0.10627050263E+03  0.10881091704E+03  0.00000000000E+00 0.  1.
         22    1    3    3    0    0  0.65748311394E+02  0.91454817986E+01 -0.56324258462E+01  0.66619850716E+02  0.00000000000E+00 0.  1.
</event>
<event>
 7    1  0.5676357E-006  0.1090830E+03  0.7818608E-02  0.1432988E+00
          2   -1    0    0  502    0  0.00000000000E+00  0.00000000000E+00  0.92451822733E+03  0.92451822733E+03  0.00000000000E+00 0. -1.
          1   -1    0    0  501    0 -0.00000000000E+00 -0.00000000000E+00 -0.28759967124E+03  0.28759967124E+03  0.00000000000E+00 0. -1.
         25    2    1    2    0    0 -0.93958742570E+02  0.39394602324E+02 -0.10791959225E+03  0.19403859034E+03  0.12499662457E+03 0.  0.
          2    1    1    2  501    0  0.93793458552E+02 -0.64531532205E+02 -0.11268626472E+03  0.16018653431E+03  0.00000000000E+00 0. -1.
          1    1    1    2  502    0  0.16528401805E+00  0.25136929881E+02  0.85752441306E+03  0.85789277392E+03  0.00000000000E+00 0. -1.
         22    1    3    3    0    0  0.19164965435E+02  0.46835585358E+01  0.13958647707E+02  0.24167653309E+02  0.00000000000E+00 0. -1.
         22    1    3    3    0    0 -0.11312370800E+03  0.34711043788E+02 -0.12187823995E+03  0.16987093703E+03  0.00000000000E+00 0. -1.
</event>
<event>
 7    1  0.5676357E-006  0.9392962E+02  0.7818608E-02  0.1316751E+00
          2   -1    0    0  502    0  0.00000000000E+00  0.00000000000E+00  0.33805705599E+03  0.33805705599E+03  0.00000000000E+00 0. -1.
          1   -1    0    0  501    0 -0.00000000000E+00 -0.00000000000E+00 -0.23135164317E+03  0.23135164317E+03  0.00000000000E+00 0. -1.
         25    2    1    2    0    0 -0.42274144029E+02  0.13051046457E+02 -0.58307958695E+02  0.14485056780E+03  0.12499774349E+03 0.  0.
          2    1    1    2  501    0  0.13550292007E+02 -0.10248098791E+03 -0.99734326043E+02  0.14364156462E+03  0.00000000000E+00 0. -1.
          1    1    1    2  502    0  0.28723852021E+02  0.89429941451E+02  0.26474769756E+03  0.28091656673E+03  0.00000000000E+00 0. -1.
         22    1    3    3    0    0 -0.81147853610E+02  0.55321542601E+01 -0.93292150776E+01  0.81869488396E+02  0.00000000000E+00 0. -1.
         22    1    3    3    0    0  0.38873709581E+02  0.75188921972E+01 -0.48978743617E+02  0.62981079403E+02  0.00000000000E+00 0. -1.
</event>
<event>
 7    1  0.5676357E-006  0.9619039E+02  0.7818608E-02  0.1434114E+00
          2   -1    0    0  502    0  0.00000000000E+00  0.00000000000E+00  0.11071369606E+03  0.11071369606E+03  0.00000000000E+00 0. -1.
          1   -1    0    0  501    0 -0.00000000000E+00 -0.00000000000E+00 -0.36402981312E+03  0.36402981312E+03  0.00000000000E+00 0. -1.
         25    2    1    2    0    0 -0.98872710085E+02 -0.32045448261E+02 -0.15084173923E+02  0.16326317411E+03  0.12499843265E+03 0.  0.
          2    1    1    2  501    0  0.95606570565E+02  0.39690119425E+01 -0.25919193362E+03  0.27629120117E+03  0.00000000000E+00 0. -1.
          1    1    1    2  502    0  0.32661395206E+01  0.28076436319E+02  0.20959990480E+02  0.35189133900E+02  0.00000000000E+00 0. -1.
         22    1    3    3    0    0  0.29541742987E+02  0.20170522698E+01 -0.49558315793E+01  0.30022380738E+02  0.00000000000E+00 0.  1.
         22    1    3    3    0    0 -0.12841445307E+03 -0.34062500531E+02 -0.10128342344E+02  0.13324079337E+03  0.00000000000E+00 0.  1.
</event>
<event>
 7    1  0.5676357E-006  0.1334904E+03  0.7818608E-02  0.1332856E+00
          2   -1    0    0  502    0  0.00000000000E+00  0.00000000000E+00  0.22133158873E+03  0.22133158873E+03  0.00000000000E+00 0. -1.
          1   -1    0    0  501    0 -0.00000000000E+00 -0.00000000000E+00 -0.22996747121E+04  0.22996747121E+04  0.00000000000E+00 0. -1.
         25    2    1    2    0    0 -0.19836876084E+02 -0.16153389922E+03 -0.41998205238E+03  0.46743774999E+03  0.12500569406E+03 0.  0.
          2    1    1    2  501    0  0.35198987601E+02  0.30182764672E+02 -0.18335123423E+04  0.18340985463E+04  0.00000000000E+00 0. -1.
          1    1    1    2  502    0 -0.15362111518E+02  0.13135113455E+03  0.17515127138E+03  0.21947000452E+03  0.00000000000E+00 0. -1.
         22    1    3    3    0    0 -0.67628746093E+02 -0.13202610216E+03 -0.28664945204E+03  0.32275756738E+03  0.00000000000E+00 0. -1.
         22    1    3    3    0    0  0.47791870010E+02 -0.29507797060E+02 -0.13333260034E+03  0.14468018261E+03  0.00000000000E+00 0. -1.
</event>
<event>
 7    1  0.5676357E-006  0.5709357E+02  0.7818608E-02  0.1437125E+00
          2   -1    0    0  502    0  0.00000000000E+00  0.00000000000E+00  0.11619431129E+04  0.11619431129E+04  0.00000000000E+00 0. -1.
          1   -1    0    0  501    0 -0.00000000000E+00 -0.00000000000E+00 -0.14468504945E+03  0.14468504945E+03  0.00000000000E+00 0. -1.
         25    2    1    2    0    0  0.76539324489E+01 -0.13581437024E+02  0.36854799860E+03  0.38947989302E+03  0.12499568667E+03 0.  0.
          2    1    1    2  501    0  0.28968428462E+02 -0.36445352671E+02 -0.12891070427E+03  0.13705985282E+03  0.00000000000E+00 0. -1.
          1    1    1    2  502    0 -0.36622360911E+02  0.50026789695E+02  0.77762076911E+03  0.78008841650E+03  0.00000000000E+00 0. -1.
         22    1    3    3    0    0  0.16192557587E+02  0.54749344279E+02  0.16484376750E+03  0.17445101692E+03  0.00000000000E+00 0.  1.
         22    1    3    3    0    0 -0.85386251386E+01 -0.68330781303E+02  0.20370423110E+03  0.21502887611E+03  0.00000000000E+00 0.  1.
</event>
<event>
 7    1  0.5676357E-006  0.7636698E+02  0.7818608E-02  0.1458040E+00
          2   -1    0    0  502    0  0.00000000000E+00  0.00000000000E+00  0.90236105434E+02  0.90236105434E+02  0.00000000000E+00 0. -1.
          1   -1    0    0  501    0 -0.00000000000E+00 -0.00000000000E+00 -0.67326949747E+03  0.67326949747E+03  0.00000000000E+00 0. -1.
         25    2    1    2    0    0  0.13177623880E+02  0.92000975849E+02 -0.69684745338E+02  0.17064070737E+03  0.12499783179E+03 0.  0.
          2    1    1    2  501    0  0.11224119044E+02 -0.74861458340E+02 -0.54450287001E+03  0.54973956947E+03  0.00000000000E+00 0. -1.
          1    1    1    2  502    0 -0.24401742924E+02 -0.17139517508E+02  0.31154223309E+02  0.43125326064E+02  0.00000000000E+00 0. -1.
         22    1    3    3    0    0  0.41665644546E+02  0.10765458336E+03 -0.29862587618E+02  0.11923635936E+03  0.00000000000E+00 0.  1.
         22    1    3    3    0    0 -0.28488020666E+02 -0.15653607508E+02 -0.39822157720E+02  0.51404348016E+02  0.00000000000E+00 0.  1.
</event>
<event>
 7    1  0.5676357E-006  0.1404916E+03  0.7818608E-02  0.1273633E+00
          2   -1    0    0  502    0  0.00000000000E+00  0.00000000000E+00  0.48150494114E+03  0.48150494114E+03  0.00000000000E+00 0. -1.
          1   -1    0    0  501    0 -0.00000000000E+00 -0.00000000000E+00 -0.12858361438E+04  0.12858361438E+04  0.00000000000E+00 0. -1.
         25    2    1    2    0    0  0.11555951130E+03 -0.11294251795E+02 -0.26292870104E+03  0.31343347976E+03  0.12500993411E+03 0.  0.
          2    1    1    2  501    0 -0.12080362054E+03  0.86973935491E+02 -0.98889237833E+03  0.10000330575E+04  0.00000000000E+00 0. -1.
          1    1    1    2  502    0  0.52441092374E+01 -0.75679683696E+02  0.44748987675E+03  0.45387454764E+03  0.00000000000E+00 0. -1.
         22    1    3    3    0    0  0.91249451997E+02 -0.64574926890E+02 -0.16416404624E+03  0.19861071912E+03  0.00000000000E+00 0. -1.
         22    1    3    3    0    0  0.24310059306E+02  0.53280675095E+02 -0.98764654804E+02  0.11482276064E+03  0.00000000000E+00 0. -1.
</event>
<event>
 7    1  0.5676357E-006  0.2445718E+03  0.7818608E-02  0.1263162E+00
          2   -1    0    0  502    0  0.00000000000E+00  0.00000000000E+00  0.37341215076E+03  0.37341215076E+03  0.00000000000E+00 0. -1.
          1   -1    0    0  501    0 -0.00000000000E+00 -0.00000000000E+00 -0.19228857264E+04  0.19228857264E+04  0.00000000000E+00 0. -1.
         25    2    1    2    0    0  0.22698005594E+03  0.12225348167E+03 -0.91090817647E+02  0.30064680041E+03  0.12500040786E+03 0.  0.
          2    1    1    2  501    0 -0.23221549615E+03 -0.74304986570E+02 -0.17161637274E+04  0.17333964368E+04  0.00000000000E+00 0. -1.
          1    1    1    2  502    0  0.52354402145E+01 -0.47948495104E+02  0.25778096940E+03  0.26225464000E+03  0.00000000000E+00 0. -1.
         22    1    3    3    0    0  0.19571240064E+03  0.49538952037E+02 -0.91117556874E+02  0.22149460649E+03  0.00000000000E+00 0. -1.
         22    1    3    3    0    0  0.31267655294E+02  0.72714529637E+02  0.26739226665E-01  0.79152193923E+02  0.00000000000E+00 0. -1.
</event>
<event>
 7    1  0.5676357E-006  0.6676125E+02  0.7818608E-02  0.1442738E+00
          2   -1    0    0  502    0  0.00000000000E+00  0.00000000000E+00  0.13081508120E+04  0.13081508120E+04  0.00000000000E+00 0. -1.
          1   -1    0    0  501    0 -0.00000000000E+00 -0.00000000000E+00 -0.45195917022E+02  0.45195917022E+02  0.00000000000E+00 0. -1.
         25    2    1    2    0    0  0.53247230801E+01 -0.30635553922E+02  0.54268268803E+03  0.55776053609E+03  0.12500170357E+03 0.  0.
          2    1    1    2  501    0 -0.20073066536E+02  0.65850240550E+02 -0.52672643215E+01  0.69042930515E+02  0.00000000000E+00 0. -1.
          1    1    1    2  502    0  0.14748343455E+02 -0.35214686628E+02  0.72553947128E+03  0.72654326242E+03  0.00000000000E+00 0. -1.
         22    1    3    3    0    0  0.50230368422E+02  0.25316196373E+02  0.27006809027E+03  0.27586368571E+03  0.00000000000E+00 0. -1.
         22    1    3    3    0    0 -0.44905645342E+02 -0.55951750296E+02  0.27261459776E+03  0.28189685038E+03  0.00000000000E+00 0. -1.
</event>
<event>
 7    1  0.5676357E-006  0.1024299E+03  0.7818608E-02  0.1397354E+00
          2   -1    0    0  502    0  0.00000000000E+00  0.00000000000E+00  0.18622561640E+04  0.18622561640E+04  0.00000000000E+00 0. -1.
          1   -1    0    0  501    0 -0.00000000000E+00 -0.00000000000E+00 -0.10279742033E+03  0.10279742033E+03  0.00000000000E+00 0. -1.
         25    2    1    2    0    0  0.10032687464E+03 -0.19409391820E+01  0.81707339521E+03  0.83264804296E+03  0.12499832507E+03 0.  0.
          2    1    1    2  501    0 -0.11245057701E+01  0.35261836979E+02 -0.88993378053E+02  0.95731306257E+02  0.00000000000E+00 0. -1.
          1    1    1    2  502    0 -0.99202368870E+02 -0.33320897797E+02  0.10313787266E+04  0.10366742352E+04  0.00000000000E+00 0. -1.
         22    1    3    3    0    0  0.97689776469E+02  0.26959942055E+02  0.34225098170E+03  0.35693958225E+03  0.00000000000E+00 0. -1.
         22    1    3    3    0    0  0.26370981715E+01 -0.28900881237E+02  0.47482241351E+03  0.47570846071E+03  0.00000000000E+00 0. -1.
</event>
<event>
 7    1  0.5676357E-006  0.7409217E+02  0.7818608E-02  0.1348883E+00
          2   -1    0    0  502    0  0.00000000000E+00  0.00000000000E+00  0.38700350434E+03  0.38700350434E+03  0.00000000000E+00 0. -1.
          1   -1    0    0  501    0 -0.00000000000E+00 -0.00000000000E+00 -0.10966334918E+03  0.10966334918E+03  0.00000000000E+00 0. -1.
         25    2    1    2    0    0 -0.54763065803E+02  0.26945159929E+02  0.29392627634E+03  0.32518360300E+03  0.12500673868E+03 0.  0.
          2    1    1    2  501    0  0.62346183244E+02  0.45382648910E+02 -0.49524217408E+02  0.91647583148E+02  0.00000000000E+00 0. -1.
          1    1    1    2  502    0 -0.75831174408E+01 -0.72327808839E+02  0.32938096226E+02  0.79835667371E+02  0.00000000000E+00 0. -1.
         22    1    3    3    0    0 -0.83093347709E+02  0.25426133043E+02  0.11561794390E+03  0.14463229800E+03  0.00000000000E+00 0. -1.
         22    1    3    3    0    0  0.28330281906E+02  0.15190268863E+01  0.17830833244E+03  0.18055130499E+03  0.00000000000E+00 0. -1.
</event>
<event>
 7    1  0.5676357E-006  0.4942013E+02  0.7818608E-02  0.1534292E+00
          2   -1    0    0  502    0  0.00000000000E+00  0.00000000000E+00  0.12840137647E+04  0.12840137647E+04  0.00000000000E+00 0. -1.
          1   -1    0    0  501    0 -0.00000000000E+00 -0.00000000000E+00 -0.94234034772E+03  0.94234034772E+03  0.00000000000E+00 0. -1.
         25    2    1    2    0    0  0.53890836933E+01 -0.22046935156E+02  0.28160730763E+02  0.13012739163E+03  0.12500000689E+03 0.  0.
          2    1    1    2  501    0  0.11174351403E+02 -0.24801051883E+02 -0.89063695966E+03  0.89105227244E+03  0.00000000000E+00 0. -1.
          1    1    1    2  502    0 -0.16563435096E+02  0.46847987039E+02  0.12041496458E+04  0.12051744483E+04  0.00000000000E+00 0. -1.
         22    1    3    3    0    0  0.10457849622E+02  0.14908252808E+02 -0.44703509401E+02  0.48270346728E+02  0.00000000000E+00 0. -1.
         22    1    3    3    0    0 -0.50687659285E+01 -0.36955187964E+02  0.72864240164E+02  0.81857044903E+02  0.00000000000E+00 0. -1.
</event>
<event>
 7    1  0.5676357E-006  0.5671361E+02  0.7818608E-02  0.1473435E+00
          2   -1    0    0  502    0  0.00000000000E+00  0.00000000000E+00  0.25968163281E+04  0.25968163281E+04  0.00000000000E+00 0. -1.
          1   -1    0    0  501    0 -0.00000000000E+00 -0.00000000000E+00 -0.79297411336E+03  0.79297411336E+03  0.00000000000E+00 0. -1.
         25    2    1    2    0    0  0.14884992847E+02 -0.41106813052E+02  0.10546885153E+03  0.16929191040E+03  0.12499895676E+03 0.  0.
          2    1    1    2  501    0  0.18772159322E+02  0.53703449224E+02 -0.75986792891E+03  0.76199456941E+03  0.00000000000E+00 0. -1.
          1    1    1    2  502    0 -0.33657152169E+02 -0.12596636173E+02  0.24582412921E+04  0.24585039616E+04  0.00000000000E+00 0. -1.
         22    1    3    3    0    0  0.58468986255E+02  0.15962348404E+02  0.47429513673E+02  0.76960884139E+02  0.00000000000E+00 0. -1.
         22    1    3    3    0    0 -0.43583993408E+02 -0.57069161456E+02  0.58039337856E+02  0.92331026256E+02  0.00000000000E+00 0. -1.
</event>
<event>
 7    1  0.5676357E-006  0.7960040E+02  0.7818608E-02  0.1383432E+00
          2   -1    0    0  502    0  0.00000000000E+00  0.00000000000E+00  0.27222877220E+03  0.27222877220E+03  0.00000000000E+00 0. -1.
          1   -1    0    0  501    0 -0.00000000000E+00 -0.00000000000E+00 -0.69478287628E+03  0.69478287628E+03  0.00000000000E+00 0. -1.
         25    2    1    2    0    0 -0.65268256598E+02  0.96717601314E+02 -0.34631145245E+03  0.38622698190E+03  0.12500167890E+03 0.  0.
          2    1    1    2  501    0  0.22651730182E+02 -0.69126847735E+02 -0.32185865718E+03  0.32997669184E+03  0.00000000000E+00 0. -1.
          1    1    1    2  502    0  0.42616526415E+02 -0.27590753579E+02  0.24561600555E+03  0.25080797473E+03  0.00000000000E+00 0. -1.
         22    1    3    3    0    0  0.34045267015E+02  0.49188676167E+02 -0.14321467049E+03  0.15520646865E+03  0.00000000000E+00 0.  1.
         22    1    3    3    0    0 -0.99313523612E+02  0.47528925148E+02 -0.20309678197E+03  0.23102051325E+03  0.00000000000E+00 0.  1.
</event>
<event>
 7    1  0.5676357E-006  0.5746686E+02  0.7818608E-02  0.1459276E+00
          2   -1    0    0  502    0  0.00000000000E+00  0.00000000000E+00  0.26100812844E+03  0.26100812844E+03  0.00000000000E+00 0. -1.
          1   -1    0    0  501    0 -0.00000000000E+00 -0.00000000000E+00 -0.57322322908E+03  0.57322322908E+03  0.00000000000E+00 0. -1.
         25    2    1    2    0    0  0.25264978346E+02 -0.42060796304E+02 -0.23191771200E+03  0.26798888578E+03  0.12499915218E+03 0.  0.
          2    1    1    2  501    0 -0.57274118000E+02  0.19307541398E+02 -0.31882504162E+03  0.32450348675E+03  0.00000000000E+00 0. -1.
          1    1    1    2  502    0  0.32009139654E+02  0.22753254906E+02  0.23852765298E+03  0.24173898499E+03  0.00000000000E+00 0. -1.
         22    1    3    3    0    0  0.66622276385E+02 -0.30406867025E+02 -0.20400317806E+03  0.21674962960E+03  0.00000000000E+00 0.  1.
         22    1    3    3    0    0 -0.41357298038E+02 -0.11653929279E+02 -0.27914533933E+02  0.51239256175E+02  0.00000000000E+00 0.  1.
</event>
<event>
 7    1  0.5676357E-006  0.1535213E+03  0.7818608E-02  0.1238409E+00
          2   -1    0    0  502    0  0.00000000000E+00  0.00000000000E+00  0.15183137963E+04  0.15183137963E+04  0.00000000000E+00 0. -1.
          1   -1    0    0  501    0 -0.00000000000E+00 -0.00000000000E+00 -0.27279919852E+03  0.27279919852E+03  0.00000000000E+00 0. -1.
         25    2    1    2    0    0 -0.11346109285E+03 -0.19856812905E+03  0.74784971282E+02  0.27115008246E+03  0.12500741505E+03 0.  0.
          2    1    1    2  501    0  0.84819482047E+00  0.98362163757E+02 -0.15614909045E+03  0.18454910767E+03  0.00000000000E+00 0. -1.
          1    1    1    2  502    0  0.11261289803E+03  0.10020596530E+03  0.13268787170E+04  0.13354138047E+04  0.00000000000E+00 0. -1.
         22    1    3    3    0    0 -0.11997894733E+03 -0.10044161650E+03  0.17776798149E+02  0.15747850863E+03  0.00000000000E+00 0.  1.
         22    1    3    3    0    0  0.65178544721E+01 -0.98126512553E+02  0.57008173133E+02  0.11367157383E+03  0.00000000000E+00 0.  1.
</event>
<event>
 7    1  0.5676357E-006  0.3146269E+02  0.7818608E-02  0.1646728E+00
          2   -1    0    0  502    0  0.00000000000E+00  0.00000000000E+00  0.15766921890E+04  0.15766921890E+04  0.00000000000E+00 0. -1.
          1   -1    0    0  501    0 -0.00000000000E+00 -0.00000000000E+00 -0.29527559070E+03  0.29527559070E+03  0.00000000000E+00 0. -1.
         25    2    1    2    0    0 -0.40722421688E+02 -0.20344953107E+02  0.77421224007E+03  0.78555903406E+03  0.12500468221E+03 0.  0.
          2    1    1    2  501    0  0.21213659060E+02 -0.36411967614E+01 -0.28890177775E+03  0.28970245914E+03  0.00000000000E+00 0. -1.
          1    1    1    2  502    0  0.19508762628E+02  0.23986149869E+02  0.79610613598E+03  0.79670628650E+03  0.00000000000E+00 0. -1.
         22    1    3    3    0    0  0.34761030413E+02 -0.13602131654E+02  0.48989632301E+03  0.49131634872E+03  0.00000000000E+00 0.  1.
         22    1    3    3    0    0 -0.75483452101E+02 -0.67428214535E+01  0.28431591707E+03  0.29424268535E+03  0.00000000000E+00 0.  1.
</event>
<event>
 7    1  0.5676357E-006  0.5126723E+02  0.7818608E-02  0.1458951E+00
          2   -1    0    0  502    0  0.00000000000E+00  0.00000000000E+00  0.25576346058E+04  0.25576346058E+04  0.00000000000E+00 0. -1.
          1   -1    0    0  501    0 -0.00000000000E+00 -0.00000000000E+00 -0.34354270647E+02  0.34354270647E+02  0.00000000000E+00 0. -1.
         25    2    1    2    0    0 -0.99372246246E+01  0.21318774338E+02  0.13552977914E+04  0.13612529388E+04  0.12499688592E+03 0.  0.
          2    1    1    2  501    0 -0.28161485493E+02 -0.43579078427E+02 -0.92263298482E+01  0.52700384289E+02  0.00000000000E+00 0. -1.
          1    1    1    2  502    0  0.38098710118E+02  0.22260304089E+02  0.11772088736E+04  0.11780355533E+04  0.00000000000E+00 0. -1.
         22    1    3    3    0    0 -0.44959525084E+02 -0.34676572987E+02  0.45363857589E+03  0.45717806284E+03  0.00000000000E+00 0.  1.
         22    1    3    3    0    0  0.35022300459E+02  0.55995347325E+02  0.90165921551E+03  0.90407487597E+03  0.00000000000E+00 0.  1.
</event>
<event>
 7    1  0.5676357E-006  0.5242873E+02  0.7818608E-02  0.1441374E+00
          2   -1    0    0  502    0  0.00000000000E+00  0.00000000000E+00  0.17130545337E+04  0.17130545337E+04  0.00000000000E+00 0. -1.
          1   -1    0    0  501    0 -0.00000000000E+00 -0.00000000000E+00 -0.36334754302E+02  0.36334754302E+02  0.00000000000E+00 0. -1.
         25    2    1    2    0    0 -0.85395654543E+02  0.48813554357E+02  0.89303266102E+03  0.90708923624E+03  0.12501347103E+03 0.  0.
          2    1    1    2  501    0  0.48673048420E+02 -0.16203527249E+02 -0.54936316302E+01  0.51592634419E+02  0.00000000000E+00 0. -1.
          1    1    1    2  502    0  0.36722606123E+02 -0.32610027108E+02  0.78918075005E+03  0.79070741739E+03  0.00000000000E+00 0. -1.
         22    1    3    3    0    0 -0.40195059614E+02  0.48501104021E+02  0.15009123266E+03  0.16277400907E+03  0.00000000000E+00 0. -1.
         22    1    3    3    0    0 -0.45200594929E+02  0.31245033577E+00  0.74294142836E+03  0.74431522716E+03  0.00000000000E+00 0. -1.
</event>
<event>
 7    1  0.5676357E-006  0.2367381E+02  0.7818608E-02  0.1685328E+00
          2   -1    0    0  502    0  0.00000000000E+00  0.00000000000E+00  0.90009603057E+03  0.90009603057E+03  0.00000000000E+00 0. -1.
          1   -1    0    0  501    0 -0.00000000000E+00 -0.00000000000E+00 -0.16322376248E+03  0.16322376248E+03  0.00000000000E+00 0. -1.
         25    2    1    2    0    0 -0.17893145157E+02  0.17071106258E+02  0.25313736164E+02  0.12990940977E+03  0.12499632873E+03 0.  0.
          2    1    1    2  501    0  0.22244938473E+02  0.62330554823E+01 -0.10955018327E+03  0.11195950573E+03  0.00000000000E+00 0. -1.
          1    1    1    2  502    0 -0.43517933167E+01 -0.23304161740E+02  0.82110871519E+03  0.82145087755E+03  0.00000000000E+00 0. -1.
         22    1    3    3    0    0 -0.32915726893E+01 -0.30978148704E+02  0.60869181525E+02  0.68377901455E+02  0.00000000000E+00 0.  1.
         22    1    3    3    0    0 -0.14601572467E+02  0.48049254962E+02 -0.35555445361E+02  0.61531508317E+02  0.00000000000E+00 0.  1.
</event>
<event>
 7    1  0.5676357E-006  0.2570626E+03  0.7818608E-02  0.1163244E+00
          2   -1    0    0  502    0  0.00000000000E+00  0.00000000000E+00  0.16343627207E+04  0.16343627207E+04  0.00000000000E+00 0. -1.
          1   -1    0    0  501    0 -0.00000000000E+00 -0.00000000000E+00 -0.11634354167E+04  0.11634354167E+04  0.00000000000E+00 0. -1.
         25    2    1    2    0    0  0.19731725776E+03  0.86153744046E+02 -0.22423403416E+03  0.33505541162E+03  0.12499863581E+03 0.  0.
          2    1    1    2  501    0 -0.17834256337E+03 -0.21763154877E+03 -0.85848941425E+03  0.90342328690E+03  0.00000000000E+00 0. -1.
          1    1    1    2  502    0 -0.18974694394E+02  0.13147780473E+03  0.15536507524E+04  0.15593194389E+04  0.00000000000E+00 0. -1.
         22    1    3    3    0    0  0.10000096990E+03  0.10269802406E+03 -0.93110485296E+02  0.17092875884E+03  0.00000000000E+00 0. -1.
         22    1    3    3    0    0  0.97316287861E+02 -0.16544280015E+02 -0.13112354887E+03  0.16412665278E+03  0.00000000000E+00 0. -1.
</event>
<event>
 7    1  0.5676357E-006  0.1074582E+03  0.7818608E-02  0.1460231E+00
          2   -1    0    0  502    0  0.00000000000E+00  0.00000000000E+00  0.35332399327E+03  0.35332399327E+03  0.00000000000E+00 0. -1.
          1   -1    0    0  501    0 -0.00000000000E+00 -0.00000000000E+00 -0.30302306653E+04  0.30302306653E+04  0.00000000000E+00 0. -1.
         25    2    1    2    0    0 -0.11745140689E+02  0.86680387075E+02  0.20695299312E+02  0.15396352261E+03  0.12500013220E+03 0.  0.
          2    1    1    2  501    0  0.20099367803E+02 -0.10579098538E+03 -0.29622078789E+04  0.29641645088E+04  0.00000000000E+00 0. -1.
          1    1    1    2  502    0 -0.83542271140E+01  0.19110598309E+02  0.26460590759E+03  0.26542662717E+03  0.00000000000E+00 0. -1.
         22    1    3    3    0    0  0.52698778142E+02  0.34619615132E+02  0.31383608486E+02  0.70431596966E+02  0.00000000000E+00 0.  1.
         22    1    3    3    0    0 -0.64443918831E+02  0.52060771942E+02 -0.10688309174E+02  0.83531925649E+02  0.00000000000E+00 0.  1.
</event>
<event>
 7    1  0.5676357E-006  0.2096106E+03  0.7818608E-02  0.1337998E+00
          2   -1    0    0  502    0  0.00000000000E+00  0.00000000000E+00  0.27646639178E+03  0.27646639178E+03  0.00000000000E+00 0. -1.
          1   -1    0    0  501    0 -0.00000000000E+00 -0.00000000000E+00 -0.12120132864E+04  0.12120132864E+04  0.00000000000E+00 0. -1.
         25    2    1    2    0    0  0.14568190940E+03  0.16184334266E+03 -0.40318541135E+02  0.25429906575E+03  0.12500377511E+03 0.  0.
          2    1    1    2  501    0 -0.11920461314E+03 -0.17164715778E+03 -0.10531860594E+04  0.10737194057E+04  0.00000000000E+00 0. -1.
          1    1    1    2  502    0 -0.26477296256E+02  0.98038151248E+01  0.15795770589E+03  0.16046120671E+03  0.00000000000E+00 0. -1.
         22    1    3    3    0    0  0.39404874400E+00  0.43542287127E+02 -0.50477766676E+02  0.66664015566E+02  0.00000000000E+00 0.  1.
         22    1    3    3    0    0  0.14528786065E+03  0.11830105553E+03  0.10159225542E+02  0.18763505018E+03  0.00000000000E+00 0.  1.
</event>
<event>
 7    1  0.5676357E-006  0.4054724E+02  0.7818608E-02  0.1568352E+00
          2   -1    0    0  502    0  0.00000000000E+00  0.00000000000E+00  0.35023522368E+03  0.35023522368E+03  0.00000000000E+00 0. -1.
          1   -1    0    0  501    0 -0.00000000000E+00 -0.00000000000E+00 -0.25619264590E+03  0.25619264590E+03  0.00000000000E+00 0. -1.
         25    2    1    2    0    0 -0.17010995384E+02 -0.18966834972E+02 -0.36986862725E+02  0.13282487826E+03  0.12500122191E+03 0.  0.
          2    1    1    2  501    0  0.28249358553E+01  0.41527092050E+02 -0.16815709931E+03  0.17323189569E+03  0.00000000000E+00 0. -1.
          1    1    1    2  502    0  0.14186059529E+02 -0.22560257078E+02  0.29918653981E+03  0.30037109562E+03  0.00000000000E+00 0. -1.
         22    1    3    3    0    0 -0.24068198404E+02  0.29915745484E+02  0.30612254138E+02  0.49105397928E+02  0.00000000000E+00 0. -1.
         22    1    3    3    0    0  0.70572030199E+01 -0.48882580457E+02 -0.67599116863E+02  0.83719480333E+02  0.00000000000E+00 0. -1.
</event>
<event>
 7    1  0.5676357E-006  0.3413858E+03  0.7818608E-02  0.1226501E+00
          2   -1    0    0  502    0  0.00000000000E+00  0.00000000000E+00  0.19262877159E+03  0.19262877159E+03  0.00000000000E+00 0. -1.
          1   -1    0    0  501    0 -0.00000000000E+00 -0.00000000000E+00 -0.12069070491E+04  0.12069070491E+04  0.00000000000E+00 0. -1.
         25    2    1    2    0    0 -0.28759862104E+03 -0.14404597842E+03 -0.27437070023E+03  0.44087020120E+03  0.12500016976E+03 0.  0.
          2    1    1    2  501    0 -0.47324910292E+02  0.16125660367E+02 -0.55129625047E+03  0.55355870496E+03  0.00000000000E+00 0. -1.
          1    1    1    2  502    0  0.33492353133E+03  0.12792031805E+03 -0.18861132684E+03  0.40510691456E+03  0.00000000000E+00 0. -1.
         22    1    3    3    0    0 -0.23634617961E+03 -0.14659279907E+03 -0.27273322189E+03  0.38952840164E+03  0.00000000000E+00 0. -1.
         22    1    3    3    0    0 -0.51252441424E+02  0.25468206516E+01 -0.16374783401E+01  0.51341799566E+02  0.00000000000E+00 0. -1.
</event>
<event>
 7    1  0.5676357E-006  0.6408876E+02  0.7818608E-02  0.1435456E+00
          2   -1    0    0  502    0  0.00000000000E+00  0.00000000000E+00  0.55642358951E+03  0.55642358951E+03  0.00000000000E+00 0. -1.
          1   -1    0    0  501    0 -0.00000000000E+00 -0.00000000000E+00 -0.64339146773E+02  0.64339146773E+02  0.00000000000E+00 0. -1.
         25    2    1    2    0    0 -0.74623186933E+02 -0.41348481672E+02  0.14392001842E+03  0.20885175858E+03  0.12501107309E+03 0.  0.
          2    1    1    2  501    0  0.61728060014E+02  0.13797488149E+01  0.52679695258E+00  0.61745725479E+02  0.00000000000E+00 0. -1.
          1    1    1    2  502    0  0.12895126919E+02  0.39968732857E+02  0.34763762736E+03  0.35016525222E+03  0.00000000000E+00 0. -1.
         22    1    3    3    0    0 -0.10020428075E+03  0.11742820241E+01  0.10964910023E+03  0.14854360303E+03  0.00000000000E+00 0. -1.
         22    1    3    3    0    0  0.25581093814E+02 -0.42522763696E+02  0.34270918186E+02  0.60308155554E+02  0.00000000000E+00 0. -1.
</event>
<event>
 7    1  0.5676357E-006  0.8026634E+02  0.7818608E-02  0.1328803E+00
          2   -1    0    0  502    0  0.00000000000E+00  0.00000000000E+00  0.77390640057E+03  0.77390640057E+03  0.00000000000E+00 0. -1.
          1   -1    0    0  501    0 -0.00000000000E+00 -0.00000000000E+00 -0.65889155967E+02  0.65889155967E+02  0.00000000000E+00 0. -1.
         25    2    1    2    0    0  0.81171708814E+02  0.39936320434E+02  0.15815675804E+03  0.22095437520E+03  0.12499407908E+03 0.  0.
          2    1    1    2  501    0 -0.15039600099E+02 -0.84792509092E+02  0.27494768973E+02  0.90398680798E+02  0.00000000000E+00 0. -1.
          1    1    1    2  502    0 -0.66132108715E+02  0.44856188658E+02  0.52236571759E+03  0.52844250054E+03  0.00000000000E+00 0. -1.
         22    1    3    3    0    0  0.56736583277E+02  0.65725369820E+02  0.36447965124E+02  0.94166439253E+02  0.00000000000E+00 0.  1.
         22    1    3    3    0    0  0.24435125537E+02 -0.25789049386E+02  0.12170879292E+03  0.12678793595E+03  0.00000000000E+00 0.  1.
</event>
<event>
 7    1  0.5676357E-006  0.4609437E+02  0.7818608E-02  0.1578600E+00
          2   -1    0    0  502    0  0.00000000000E+00  0.00000000000E+00  0.30209274595E+04  0.30209274595E+04  0.00000000000E+00 0. -1.
          1   -1    0    0  501    0 -0.00000000000E+00 -0.00000000000E+00 -0.34322933228E+03  0.34322933228E+03  0.00000000000E+00 0. -1.
         25    2    1    2    0    0  0.77902930087E+01 -0.61329780900E+02  0.26242389016E+04  0.26279414898E+04  0.12499852178E+03 0.  0.
          2    1    1    2  501    0 -0.18590209600E+02  0.42170785547E+02 -0.33951371562E+03  0.34262739841E+03  0.00000000000E+00 0. -1.
          1    1    1    2  502    0  0.10799916591E+02  0.19158995353E+02  0.39297294124E+03  0.39358790359E+03  0.00000000000E+00 0. -1.
         22    1    3    3    0    0 -0.55083906691E+02 -0.47585633967E+02  0.11528948870E+04  0.11551905686E+04  0.00000000000E+00 0. -1.
         22    1    3    3    0    0  0.62874199700E+02 -0.13744146933E+02  0.14713440145E+04  0.14727509211E+04  0.00000000000E+00 0. -1.
</event>
<event>
 7    1  0.5676357E-006  0.1048316E+03  0.7818608E-02  0.1317632E+00
          2   -1    0    0  502    0  0.00000000000E+00  0.00000000000E+00  0.94898511863E+02  0.94898511863E+02  0.00000000000E+00 0. -1.
          1   -1    0    0  501    0 -0.00000000000E+00 -0.00000000000E+00 -0.10792926713E+04  0.10792926713E+04  0.00000000000E+00 0. -1.
         25    2    1    2    0    0 -0.77411077645E+02  0.27154068127E+02 -0.36154456814E+03  0.39123856337E+03  0.12499328124E+03 0.  0.
          2    1    1    2  501    0  0.11221399298E+03  0.30765635919E+02 -0.68278603266E+03  0.69262924496E+03  0.00000000000E+00 0. -1.
          1    1    1    2  502    0 -0.34802915331E+02 -0.57919704046E+02  0.59936441386E+02  0.90323374817E+02  0.00000000000E+00 0. -1.
         22    1    3    3    0    0  0.75544740473E+01  0.56692045155E+02 -0.10798796103E+03  0.12219843611E+03  0.00000000000E+00 0.  1.
         22    1    3    3    0    0 -0.84965551692E+02 -0.29537977029E+02 -0.25355660712E+03  0.26904012726E+03  0.00000000000E+00 0.  1.
</event>
<event>
 7    1  0.5676357E-006  0.1006223E+03  0.7818608E-02  0.1396158E+00
          2   -1    0    0  502    0  0.00000000000E+00  0.00000000000E+00  0.28872280648E+03  0.28872280648E+03  0.00000000000E+00 0. -1.
          1   -1    0    0  501    0 -0.00000000000E+00 -0.00000000000E+00 -0.40390504919E+03  0.40390504919E+03  0.00000000000E+00 0. -1.
         25    2    1    2    0    0 -0.58627058566E+01 -0.67543065506E+02 -0.61722056361E+02  0.15502052722E+03  0.12500125840E+03 0.  0.
          2    1    1    2  501    0 -0.49264589584E+01 -0.35920396101E+02 -0.28314878931E+03  0.28546064832E+03  0.00000000000E+00 0. -1.
          1    1    1    2  502    0  0.10789164815E+02  0.10346346161E+03  0.22968860296E+03  0.25214668012E+03  0.00000000000E+00 0. -1.
         22    1    3    3    0    0 -0.38105404524E+02 -0.68572884441E+02  0.73439949915E+01  0.78792109992E+02  0.00000000000E+00 0.  1.
         22    1    3    3    0    0  0.32242698668E+02  0.10298189344E+01 -0.69066051352E+02  0.76228417233E+02  0.00000000000E+00 0.  1.
</event>
<event>
 7    1  0.5676357E-006  0.1892750E+03  0.7818608E-02  0.1247700E+00
          2   -1    0    0  502    0  0.00000000000E+00  0.00000000000E+00  0.11281696526E+04  0.11281696526E+04  0.00000000000E+00 0. -1.
          1   -1    0    0  501    0 -0.00000000000E+00 -0.00000000000E+00 -0.91095272211E+03  0.91095272211E+03  0.00000000000E+00 0. -1.
         25    2    1    2    0    0  0.85470706636E+02 -0.14294215512E+03 -0.45597760086E+03  0.50127697331E+03  0.12500132034E+03 0.  0.
          2    1    1    2  501    0 -0.62846509335E+02  0.21196455239E+03 -0.40275569886E+03  0.45944619725E+03  0.00000000000E+00 0. -1.
          1    1    1    2  502    0 -0.22624197301E+02 -0.69022397270E+02  0.10759502302E+04  0.10783992042E+04  0.00000000000E+00 0. -1.
         22    1    3    3    0    0  0.83491562099E+02 -0.59120029965E+02 -0.13415572376E+03  0.16871211309E+03  0.00000000000E+00 0. -1.
         22    1    3    3    0    0  0.19791445367E+01 -0.83822125151E+02 -0.32182187710E+03  0.33256486023E+03  0.00000000000E+00 0. -1.
</event>
<event>
 7    1  0.5676357E-006  0.3864187E+02  0.7818608E-02  0.1562892E+00
          2   -1    0    0  502    0  0.00000000000E+00  0.00000000000E+00  0.10698941526E+04  0.10698941526E+04  0.00000000000E+00 0. -1.
          1   -1    0    0  501    0 -0.00000000000E+00 -0.00000000000E+00 -0.74812380920E+03  0.74812380920E+03  0.00000000000E+00 0. -1.
         25    2    1    2    0    0  0.43471765071E+02 -0.77006690399E+01 -0.14722918866E+03  0.19811878289E+03  0.12500209390E+03 0.  0.
          2    1    1    2  501    0 -0.24785979110E+02  0.29801112660E+02 -0.57459625582E+03  0.57590216901E+03  0.00000000000E+00 0. -1.
          1    1    1    2  502    0 -0.18685785962E+02 -0.22100443620E+02  0.10435957878E+04  0.10439970099E+04  0.00000000000E+00 0. -1.
         22    1    3    3    0    0  0.81181914631E+02 -0.21451864605E+02 -0.12926471165E+03  0.15414295779E+03  0.00000000000E+00 0. -1.
         22    1    3    3    0    0 -0.37710149560E+02  0.13751195565E+02 -0.17964477012E+02  0.43975825104E+02  0.00000000000E+00 0. -1.
</event>
<event>
 7    1  0.5676357E-006  0.7353153E+02  0.7818608E-02  0.1422431E+00
          2   -1    0    0  502    0  0.00000000000E+00  0.00000000000E+00  0.20319351656E+04  0.20319351656E+04  0.00000000000E+00 0. -1.
          1   -1    0    0  501    0 -0.00000000000E+00 -0.00000000000E+00 -0.20043821571E+03  0.20043821571E+03  0.00000000000E+00 0. -1.
         25    2    1    2    0    0  0.46498917091E+02  0.66803695272E+01  0.22254379490E+03  0.25953422739E+03  0.12500199163E+03 0.  0.
          2    1    1    2  501    0 -0.59485533614E+02 -0.44945534775E+02 -0.17406658628E+03  0.18936157547E+03  0.00000000000E+00 0. -1.
          1    1    1    2  502    0  0.12986616523E+02  0.38265165248E+02  0.17830197412E+04  0.17834775784E+04  0.00000000000E+00 0. -1.
         22    1    3    3    0    0  0.28466078747E+02  0.56739363338E+02  0.55838526347E+02  0.84543562829E+02  0.00000000000E+00 0.  1.
         22    1    3    3    0    0  0.18032838344E+02 -0.50058993811E+02  0.16670526855E+03  0.17499066456E+03  0.00000000000E+00 0.  1.
</event>
<event>
 7    1  0.5676357E-006  0.1110077E+03  0.7818608E-02  0.1296921E+00
          2   -1    0    0  502    0  0.00000000000E+00  0.00000000000E+00  0.78060520455E+03  0.78060520455E+03  0.00000000000E+00 0. -1.
          1   -1    0    0  501    0 -0.00000000000E+00 -0.00000000000E+00 -0.25054297157E+03  0.25054297157E+03  0.00000000000E+00 0. -1.
         25    2    1    2    0    0  0.66481915290E+02  0.64483637808E+02 -0.33070732166E+02  0.15904937013E+03  0.12500017683E+03 0.  0.
          2    1    1    2  501    0 -0.12401046995E+03 -0.13199548532E+02 -0.12681375181E+03  0.17786104798E+03  0.00000000000E+00 0. -1.
          1    1    1    2  502    0  0.57528554663E+02 -0.51284089275E+02  0.68994671696E+03  0.69423775802E+03  0.00000000000E+00 0. -1.
         22    1    3    3    0    0  0.22256393989E+02  0.59490358445E+00 -0.69682960420E+02  0.73153372831E+02  0.00000000000E+00 0. -1.
         22    1    3    3    0    0  0.44225521301E+02  0.63888734223E+02  0.36612228254E+02  0.85895997303E+02  0.00000000000E+00 0. -1.
</event>
<event>
 7    1  0.5676357E-006  0.1125656E+03  0.7818608E-02  0.1380970E+00
          2   -1    0    0  502    0  0.00000000000E+00  0.00000000000E+00  0.46137360006E+03  0.46137360006E+03  0.00000000000E+00 0. -1.
          1   -1    0    0  501    0 -0.00000000000E+00 -0.00000000000E+00 -0.88800543781E+02  0.88800543781E+02  0.00000000000E+00 0. -1.
         25    2    1    2    0    0  0.42003708992E+02 -0.87267724125E+02  0.23997658885E+03  0.28738796112E+03  0.12499243881E+03 0.  0.
          2    1    1    2  501    0  0.32946481663E+02 -0.16000482046E+02 -0.35993536768E+02  0.51351930526E+02  0.00000000000E+00 0. -1.
          1    1    1    2  502    0 -0.74950190655E+02  0.10326820617E+03  0.16859000420E+03  0.21143425220E+03  0.00000000000E+00 0. -1.
         22    1    3    3    0    0  0.10432304002E+02 -0.69185334135E+02  0.33217628931E+02  0.77452271096E+02  0.00000000000E+00 0.  1.
         22    1    3    3    0    0  0.31571404989E+02 -0.18082389990E+02  0.20675895992E+03  0.20993569003E+03  0.00000000000E+00 0.  1.
</event>
<event>
 7    1  0.5676357E-006  0.1033034E+03  0.7818608E-02  0.1294226E+00
          2   -1    0    0  502    0  0.00000000000E+00  0.00000000000E+00  0.11075644233E+04  0.11075644233E+04  0.00000000000E+00 0. -1.
          1   -1    0    0  501    0 -0.00000000000E+00 -0.00000000000E+00 -0.16023907938E+03  0.16023907938E+03  0.00000000000E+00 0. -1.
         25    2    1    2    0    0  0.48206043406E+02 -0.15999931624E+03  0.11911292176E+03  0.24028270915E+03  0.12499715345E+03 0.  0.
          2    1    1    2  501    0  0.17257014418E+02  0.83142606964E+02 -0.78239593883E+02  0.11546398439E+03  0.00000000000E+00 0. -1.
          1    1    1    2  502    0 -0.65463057824E+02  0.76856709272E+02  0.90645201607E+03  0.91205680916E+03  0.00000000000E+00 0. -1.
         22    1    3    3    0    0  0.89533065350E+02 -0.12850067311E+03  0.86145803441E+02  0.17874476840E+03  0.00000000000E+00 0. -1.
         22    1    3    3    0    0 -0.41327021944E+02 -0.31498643132E+02  0.32967118319E+02  0.61537940753E+02  0.00000000000E+00 0. -1.
</event>
<event>
 7    1  0.5676357E-006  0.4164553E+02  0.7818608E-02  0.1544615E+00
          2   -1    0    0  502    0  0.00000000000E+00  0.00000000000E+00  0.14157952661E+04  0.14157952661E+04  0.00000000000E+00 0. -1.
          1   -1    0    0  501    0 -0.00000000000E+00 -0.00000000000E+00 -0.19802315938E+04  0.19802315938E+04  0.00000000000E+00 0. -1.
         25    2    1    2    0    0 -0.69733737067E+02  0.10430504218E+01 -0.13832220072E+03  0.19905063026E+03  0.12499696059E+03 0.  0.
          2    1    1    2  501    0  0.40765431734E+02  0.74269751726E+01 -0.18111438070E+04  0.18116177494E+04  0.00000000000E+00 0. -1.
          1    1    1    2  502    0  0.28968305333E+02 -0.84700255943E+01  0.13850296800E+04  0.13853584802E+04  0.00000000000E+00 0. -1.
         22    1    3    3    0    0 -0.17603486642E+02 -0.60192282812E+02 -0.59921753778E+02  0.86738746982E+02  0.00000000000E+00 0.  1.
         22    1    3    3    0    0 -0.52130250424E+02  0.61235333234E+02 -0.78400446943E+02  0.11231188328E+03  0.00000000000E+00 0.  1.
</event>
<event>
 7    1  0.1189823E-005  0.1117516E+03  0.7818608E-02  0.1304061E+00
          2   -1    0    0  502    0  0.00000000000E+00  0.00000000000E+00  0.19971092371E+04  0.19971092371E+04  0.00000000000E+00 0. -1.
          1   -1    0    0  501    0 -0.00000000000E+00 -0.00000000000E+00 -0.15311374776E+04  0.15311374776E+04  0.00000000000E+00 0. -1.
         25    2    1    2    0    0  0.13082077830E+02  0.47614497383E+02 -0.37316602399E+03  0.39663450900E+03  0.12501108410E+03 0.  0.
          2    1    1    2  501    0  0.62528128026E+02  0.35052520793E+02 -0.11435336495E+04  0.11457781869E+04  0.00000000000E+00 0. -1.
          1    1    1    2  502    0 -0.75610205855E+02 -0.82667018176E+02  0.19826714330E+04  0.19858340188E+04  0.00000000000E+00 0. -1.
         22    1    3    3    0    0  0.55037328788E+02 -0.16373047197E+02 -0.14371172083E+03  0.15475866030E+03  0.00000000000E+00 0.  1.
         22    1    3    3    0    0 -0.41955250958E+02  0.63987544580E+02 -0.22945430316E+03  0.24187584870E+03  0.00000000000E+00 0.  1.
</event>
<event>
 7    1  0.5676357E-006  0.9223810E+02  0.7818608E-02  0.1403492E+00
          2   -1    0    0  502    0  0.00000000000E+00  0.00000000000E+00  0.97773959633E+03  0.97773959633E+03  0.00000000000E+00 0. -1.
          1   -1    0    0  501    0 -0.00000000000E+00 -0.00000000000E+00 -0.31428038026E+03  0.31428038026E+03  0.00000000000E+00 0. -1.
         25    2    1    2    0    0  0.26527342899E+02  0.49466019259E+02 -0.12986117732E+03  0.18878340228E+03  0.12499864247E+03 0.  0.
          2    1    1    2  501    0  0.89925817672E+01  0.36220952320E+02 -0.15040376024E+03  0.15496488314E+03  0.00000000000E+00 0. -1.
          1    1    1    2  502    0 -0.35519924667E+02 -0.85686971579E+02  0.94372415362E+03  0.94827169117E+03  0.00000000000E+00 0. -1.
         22    1    3    3    0    0 -0.18691567590E+01 -0.37026540768E+02 -0.10239934477E+02  0.38461860671E+02  0.00000000000E+00 0. -1.
         22    1    3    3    0    0  0.28396499658E+02  0.86492560026E+02 -0.11962124284E+03  0.15032154161E+03  0.00000000000E+00 0. -1.
</event>
<event>
 7    1  0.5676357E-006  0.1312997E+03  0.7818608E-02  0.1426666E+00
          2   -1    0    0  502    0  0.00000000000E+00  0.00000000000E+00  0.12462936671E+04  0.12462936671E+04  0.00000000000E+00 0. -1.
          1   -1    0    0  501    0 -0.00000000000E+00 -0.00000000000E+00 -0.75857911036E+02  0.75857911036E+02  0.00000000000E+00 0. -1.
         25    2    1    2    0    0  0.10197288917E+03  0.57088730315E+02  0.53221405662E+03  0.55904779790E+03  0.12500018005E+03 0.  0.
          2    1    1    2  501    0  0.18164926485E+02  0.12250262165E+02 -0.53394335625E+02  0.57714716963E+02  0.00000000000E+00 0. -1.
          1    1    1    2  502    0 -0.12013781565E+03 -0.69338992479E+02  0.69161603503E+03  0.70538906324E+03  0.00000000000E+00 0. -1.
         22    1    3    3    0    0 -0.28355276675E+02  0.26372932917E+01  0.11899825438E+03  0.12235833268E+03  0.00000000000E+00 0. -1.
         22    1    3    3    0    0  0.13032816584E+03  0.54451437023E+02  0.41321580224E+03  0.43668946521E+03  0.00000000000E+00 0. -1.
</event>
<event>
 7    1  0.5676357E-006  0.1051604E+03  0.7818608E-02  0.1410139E+00
          2   -1    0    0  502    0  0.00000000000E+00  0.00000000000E+00  0.15139806050E+04  0.15139806050E+04  0.00000000000E+00 0. -1.
          1   -1    0    0  501    0 -0.00000000000E+00 -0.00000000000E+00 -0.25741258698E+02  0.25741258698E+02  0.00000000000E+00 0. -1.
         25    2    1    2    0    0 -0.82219588815E+02  0.28077428334E+02  0.58917245820E+03  0.60852062559E+03  0.12499905400E+03 0.  0.
          2    1    1    2  501    0  0.11056202060E+03 -0.15341480651E+02  0.18228047217E+03  0.21374164770E+03  0.00000000000E+00 0. -1.
          1    1    1    2  502    0 -0.28342431781E+02 -0.12735947683E+02  0.71678641592E+03  0.71745959040E+03  0.00000000000E+00 0. -1.
         22    1    3    3    0    0 -0.10283388368E+03  0.53308761627E+02  0.39497427547E+03  0.41160819961E+03  0.00000000000E+00 0. -1.
         22    1    3    3    0    0  0.20614294861E+02 -0.25231333292E+02  0.19419818273E+03  0.19691242599E+03  0.00000000000E+00 0. -1.
</event>
<event>
 7    1  0.5676357E-006  0.1229342E+03  0.7818608E-02  0.1355641E+00
          2   -1    0    0  502    0  0.00000000000E+00  0.00000000000E+00  0.45607118633E+03  0.45607118633E+03  0.00000000000E+00 0. -1.
          1   -1    0    0  501    0 -0.00000000000E+00 -0.00000000000E+00 -0.12376839862E+04  0.12376839862E+04  0.00000000000E+00 0. -1.
         25    2    1    2    0    0 -0.85361390164E+02  0.33576342064E+02  0.94406856922E+02  0.18152836101E+03  0.12500381411E+03 0.  0.
          2    1    1    2  501    0 -0.40040756656E+02  0.10454260658E+02 -0.11798620453E+04  0.11805875655E+04  0.00000000000E+00 0. -1.
          1    1    1    2  502    0  0.12540214682E+03 -0.44030602722E+02  0.30384238856E+03  0.33163924600E+03  0.00000000000E+00 0. -1.
         22    1    3    3    0    0 -0.17994485074E+02  0.18577703401E+02 -0.29785410489E+02  0.39447474377E+02  0.00000000000E+00 0. -1.
         22    1    3    3    0    0 -0.67366905090E+02  0.14998638663E+02  0.12419226741E+03  0.14208088664E+03  0.00000000000E+00 0. -1.
</event>
<event>
 7    1  0.5676357E-006  0.2387059E+03  0.7818608E-02  0.1268460E+00
          2   -1    0    0  502    0  0.00000000000E+00  0.00000000000E+00  0.25663654691E+04  0.25663654691E+04  0.00000000000E+00 0. -1.
          1   -1    0    0  501    0 -0.00000000000E+00 -0.00000000000E+00 -0.17580210753E+04  0.17580210753E+04  0.00000000000E+00 0. -1.
         25    2    1    2    0    0 -0.21824417225E+03 -0.65328099123E+01  0.10037407407E+04  0.10347917483E+04  0.12500116595E+03 0.  0.
          2    1    1    2  501    0  0.23603215571E+03 -0.36900586368E+02 -0.17339476514E+04  0.17503277663E+04  0.00000000000E+00 0. -1.
          1    1    1    2  502    0 -0.17787983463E+02  0.43433396281E+02  0.15385513045E+04  0.15392670297E+04  0.00000000000E+00 0. -1.
         22    1    3    3    0    0 -0.20962808254E+03  0.28038250706E+01  0.99972063244E+03  0.10214661704E+04  0.00000000000E+00 0.  1.
         22    1    3    3    0    0 -0.86160897127E+01 -0.93366349829E+01  0.40201082455E+01  0.13325577850E+02  0.00000000000E+00 0.  1.
</event>
<event>
 7    1  0.5676357E-006  0.2692638E+03  0.7818608E-02  0.1179769E+00
          2   -1    0    0  502    0  0.00000000000E+00  0.00000000000E+00  0.55812598089E+03  0.55812598089E+03  0.00000000000E+00 0. -1.
          1   -1    0    0  501    0 -0.00000000000E+00 -0.00000000000E+00 -0.11993112216E+04  0.11993112216E+04  0.00000000000E+00 0. -1.
         25    2    1    2    0    0  0.31490303073E+03  0.16094851788E+03 -0.26872238596E+03  0.46141832775E+03  0.12500723299E+03 0.  0.
          2    1    1    2  501    0 -0.10486897272E+03 -0.58537047313E+01 -0.79359652015E+03  0.80051683561E+03  0.00000000000E+00 0. -1.
          1    1    1    2  502    0 -0.21003405802E+03 -0.15509481314E+03  0.42113366543E+03  0.49550203909E+03  0.00000000000E+00 0. -1.
         22    1    3    3    0    0  0.15075108236E+03  0.27249710644E+02 -0.16672417493E+03  0.22641860804E+03  0.00000000000E+00 0.  1.
         22    1    3    3    0    0  0.16415194837E+03  0.13369880723E+03 -0.10199821103E+03  0.23499971971E+03  0.00000000000E+00 0.  1.
</event>
<event>
 7    1  0.5676357E-006  0.8175727E+02  0.7818608E-02  0.1343992E+00
          2   -1    0    0  502    0  0.00000000000E+00  0.00000000000E+00  0.32661978583E+03  0.32661978583E+03  0.00000000000E+00 0. -1.
          1   -1    0    0  501    0 -0.00000000000E+00 -0.00000000000E+00 -0.12830650312E+04  0.12830650312E+04  0.00000000000E+00 0. -1.
         25    2    1    2    0    0 -0.80911426452E+02  0.94163302911E+02 -0.18960293698E+03  0.25882287744E+03  0.12500648636E+03 0.  0.
          2    1    1    2  501    0  0.13782004892E+02 -0.79417533336E+02 -0.10532465671E+04  0.10563263792E+04  0.00000000000E+00 0. -1.
          1    1    1    2  502    0  0.67129421560E+02 -0.14745769576E+02  0.28640425868E+03  0.29453556042E+03  0.00000000000E+00 0. -1.
         22    1    3    3    0    0 -0.64377138375E+02  0.10833115130E+03 -0.19864636146E+03  0.23524547011E+03  0.00000000000E+00 0. -1.
         22    1    3    3    0    0 -0.16534288077E+02 -0.14167848393E+02  0.90434244759E+01  0.23577407333E+02  0.00000000000E+00 0. -1.
</event>
<event>
 7    1  0.5676357E-006  0.8407309E+02  0.7818608E-02  0.1351446E+00
          2   -1    0    0  502    0  0.00000000000E+00  0.00000000000E+00  0.50465565681E+03  0.50465565681E+03  0.00000000000E+00 0. -1.
          1   -1    0    0  501    0 -0.00000000000E+00 -0.00000000000E+00 -0.85274022538E+03  0.85274022538E+03  0.00000000000E+00 0. -1.
         25    2    1    2    0    0  0.13458916327E+02 -0.24797630945E+02 -0.78601212191E+02  0.15032881486E+03  0.12499814834E+03 0.  0.
          2    1    1    2  501    0  0.58547062465E+02 -0.22451599310E+02 -0.73296969950E+03  0.73564693517E+03  0.00000000000E+00 0. -1.
          1    1    1    2  502    0 -0.72005978791E+02  0.47249230255E+02  0.46348634313E+03  0.47142013216E+03  0.00000000000E+00 0. -1.
         22    1    3    3    0    0  0.69760762590E+01 -0.66838774509E+02 -0.76941523924E+01  0.67640870773E+02  0.00000000000E+00 0. -1.
         22    1    3    3    0    0  0.64828400676E+01  0.42041143564E+02 -0.70907059799E+02  0.82687944084E+02  0.00000000000E+00 0. -1.
</event>
<event>
 7    1  0.5676357E-006  0.8179277E+02  0.7818608E-02  0.1361370E+00
          2   -1    0    0  502    0  0.00000000000E+00  0.00000000000E+00  0.14208616956E+04  0.14208616956E+04  0.00000000000E+00 0. -1.
          1   -1    0    0  501    0 -0.00000000000E+00 -0.00000000000E+00 -0.33557753728E+03  0.33557753728E+03  0.00000000000E+00 0. -1.
         25    2    1    2    0    0  0.21847740759E+02 -0.12457056402E+03 -0.23254133878E+02  0.17933443229E+03  0.12499973866E+03 0.  0.
          2    1    1    2  501    0  0.13957988145E+02  0.77339892757E+02 -0.22701686875E+03  0.24023518298E+03  0.00000000000E+00 0. -1.
          1    1    1    2  502    0 -0.35805728904E+02  0.47230671265E+02  0.13355551609E+04  0.13368696176E+04  0.00000000000E+00 0. -1.
         22    1    3    3    0    0 -0.42155773206E+02 -0.77528507603E+02 -0.41980933418E+02  0.97725009472E+02  0.00000000000E+00 0. -1.
         22    1    3    3    0    0  0.64003513965E+02 -0.47042056419E+02  0.18726799540E+02  0.81609422820E+02  0.00000000000E+00 0. -1.
</event>
<event>
 7    1  0.5676357E-006  0.6567394E+02  0.7818608E-02  0.1493655E+00
          2   -1    0    0  502    0  0.00000000000E+00  0.00000000000E+00  0.29040292291E+04  0.29040292291E+04  0.00000000000E+00 0. -1.
          1   -1    0    0  501    0 -0.00000000000E+00 -0.00000000000E+00 -0.55064683414E+03  0.55064683414E+03  0.00000000000E+00 0. -1.
         25    2    1    2    0    0 -0.16528730549E+02  0.90190996417E+02  0.12227011668E+04  0.12324897788E+04  0.12500118766E+03 0.  0.
          2    1    1    2  501    0  0.61678697876E+01 -0.65342207742E+02 -0.54367066124E+03  0.54761796412E+03  0.00000000000E+00 0. -1.
          1    1    1    2  502    0  0.10360860761E+02 -0.24848788675E+02  0.16743518895E+04  0.16745683203E+04  0.00000000000E+00 0. -1.
         22    1    3    3    0    0  0.43380974901E+02  0.59512235961E+02  0.37774240845E+03  0.38485444308E+03  0.00000000000E+00 0.  1.
         22    1    3    3    0    0 -0.59909705450E+02  0.30678760455E+02  0.84495875831E+03  0.84763533574E+03  0.00000000000E+00 0.  1.
</event>
<event>
 7    1  0.5676357E-006  0.4593524E+02  0.7818608E-02  0.1510808E+00
          2   -1    0    0  502    0  0.00000000000E+00  0.00000000000E+00  0.37719467509E+03  0.37719467509E+03  0.00000000000E+00 0. -1.
          1   -1    0    0  501    0 -0.00000000000E+00 -0.00000000000E+00 -0.14751858381E+03  0.14751858381E+03  0.00000000000E+00 0. -1.
         25    2    1    2    0    0 -0.27583540612E+02 -0.26171946745E+02  0.33034533030E+02  0.13479512633E+03  0.12503048908E+03 0.  0.
          2    1    1    2  501    0  0.27421838550E+02 -0.20476930545E+02 -0.91673568949E+02  0.97853488225E+02  0.00000000000E+00 0. -1.
          1    1    1    2  502    0  0.16170206206E+00  0.46648877290E+02  0.28831512721E+03  0.29206464434E+03  0.00000000000E+00 0. -1.
         22    1    3    3    0    0 -0.25306172825E+02 -0.31667121318E+02 -0.42671179623E+02  0.58856083169E+02  0.00000000000E+00 0.  1.
         22    1    3    3    0    0 -0.22773677863E+01  0.54951745731E+01  0.75705712652E+02  0.75939043158E+02  0.00000000000E+00 0.  1.
</event>
<event>
 7    1  0.5676357E-006  0.2158961E+03  0.7818608E-02  0.1363314E+00
          2   -1    0    0  502    0  0.00000000000E+00  0.00000000000E+00  0.60151571092E+03  0.60151571092E+03  0.00000000000E+00 0. -1.
          1   -1    0    0  501    0 -0.00000000000E+00 -0.00000000000E+00 -0.18664049599E+03  0.18664049599E+03  0.00000000000E+00 0. -1.
         25    2    1    2    0    0  0.16633754812E+03 -0.15813864406E+03  0.87626371232E+02  0.27564684946E+03  0.12500717589E+03 0.  0.
          2    1    1    2  501    0 -0.39187216866E+01  0.21741316846E+02 -0.63871044623E+02  0.67583663551E+02  0.00000000000E+00 0. -1.
          1    1    1    2  502    0 -0.16241882643E+03  0.13639732721E+03  0.39111988832E+03  0.44492569389E+03  0.00000000000E+00 0. -1.
         22    1    3    3    0    0  0.77825569634E+02 -0.11080027979E+03  0.10803207603E+03  0.17321792847E+03  0.00000000000E+00 0.  1.
         22    1    3    3    0    0  0.88511978487E+02 -0.47338364265E+02 -0.20405704803E+02  0.10242892099E+03  0.00000000000E+00 0.  1.
</event>
<event>
 7    1  0.5676357E-006  0.3421328E+02  0.7818608E-02  0.1608733E+00
          2   -1    0    0  502    0  0.00000000000E+00  0.00000000000E+00  0.22835331866E+04  0.22835331866E+04  0.00000000000E+00 0. -1.
          1   -1    0    0  501    0 -0.00000000000E+00 -0.00000000000E+00 -0.50150274299E+01  0.50150274299E+01  0.00000000000E+00 0. -1.
         25    2    1    2    0    0 -0.28639077041E+02  0.10123528840E+02  0.19017858426E+04  0.19061315361E+04  0.12500143655E+03 0.  0.
          2    1    1    2  501    0 -0.90718074311E+01 -0.22952875822E+02  0.11063672368E+03  0.11335615036E+03  0.00000000000E+00 0. -1.
          1    1    1    2  502    0  0.37710884472E+02  0.12829346982E+02  0.26609559292E+03  0.26906052762E+03  0.00000000000E+00 0. -1.
         22    1    3    3    0    0  0.17713109107E+02 -0.27491952100E+02  0.15924691218E+03  0.16257041767E+03  0.00000000000E+00 0. -1.
         22    1    3    3    0    0 -0.46352186148E+02  0.37615480940E+02  0.17425389304E+04  0.17435611184E+04  0.00000000000E+00 0. -1.
</event>
<event>
 7    1  0.5676357E-006  0.1046669E+03  0.7818608E-02  0.1300209E+00
          2   -1    0    0  502    0  0.00000000000E+00  0.00000000000E+00  0.12286590878E+04  0.12286590878E+04  0.00000000000E+00 0. -1.
          1   -1    0    0  501    0 -0.00000000000E+00 -0.00000000000E+00 -0.25155760116E+04  0.25155760116E+04  0.00000000000E+00 0. -1.
         25    2    1    2    0    0  0.64056407197E+02  0.99652103233E+02  0.25860627183E+03  0.31069027477E+03  0.12496990848E+03 0.  0.
          2    1    1    2  501    0  0.15135826967E+02 -0.10362619090E+03 -0.24867649430E+04  0.24889691365E+04  0.00000000000E+00 0. -1.
          1    1    1    2  502    0 -0.79192234164E+02  0.39740876632E+01  0.94124174747E+03  0.94457568807E+03  0.00000000000E+00 0. -1.
         22    1    3    3    0    0 -0.67874723511E+01  0.62140411153E+01 -0.12378183201E+02  0.15424120955E+02  0.00000000000E+00 0. -1.
         22    1    3    3    0    0  0.70843879548E+02  0.93438062118E+02  0.27098445503E+03  0.29526615381E+03  0.00000000000E+00 0. -1.
</event>
<event>
 7    1  0.5676357E-006  0.1849660E+03  0.7818608E-02  0.1229758E+00
          2   -1    0    0  502    0  0.00000000000E+00  0.00000000000E+00  0.30946157280E+03  0.30946157280E+03  0.00000000000E+00 0. -1.
          1   -1    0    0  501    0 -0.00000000000E+00 -0.00000000000E+00 -0.19121012417E+04  0.19121012417E+04  0.00000000000E+00 0. -1.
         25    2    1    2    0    0  0.61493592820E+02 -0.85411033814E+02 -0.13695920680E+04  0.13793052500E+04  0.12499613230E+03 0.  0.
          2    1    1    2  501    0  0.49773224720E+01 -0.89077905641E+02 -0.50475353775E+03  0.51257758524E+03  0.00000000000E+00 0. -1.
          1    1    1    2  502    0 -0.66470915292E+02  0.17448893945E+03  0.27170593692E+03  0.32967997927E+03  0.00000000000E+00 0. -1.
         22    1    3    3    0    0 -0.97063648423E+01 -0.74235362263E+02 -0.39368660495E+03  0.40074211838E+03  0.00000000000E+00 0. -1.
         22    1    3    3    0    0  0.71199957662E+02 -0.11175671551E+02 -0.97590546308E+03  0.97856313157E+03  0.00000000000E+00 0. -1.
</event>
<event>
 7    1  0.5676357E-006  0.7273651E+02  0.7818608E-02  0.1413102E+00
          2   -1    0    0  502    0  0.00000000000E+00  0.00000000000E+00  0.92790007535E+03  0.92790007535E+03  0.00000000000E+00 0. -1.
          1   -1    0    0  501    0 -0.00000000000E+00 -0.00000000000E+00 -0.79882199422E+03  0.79882199422E+03  0.00000000000E+00 0. -1.
         25    2    1    2    0    0 -0.18985798308E+02 -0.39835157568E+02 -0.40609630889E+03  0.42718497209E+03  0.12500195185E+03 0.  0.
          2    1    1    2  501    0  0.51739742814E+02  0.69063817017E+02 -0.37677536413E+03  0.38653135296E+03  0.00000000000E+00 0. -1.
          1    1    1    2  502    0 -0.32753944506E+02 -0.29228659449E+02  0.91194975416E+03  0.91300574452E+03  0.00000000000E+00 0. -1.
         22    1    3    3    0    0 -0.64045640967E+02 -0.55208308975E+02 -0.24363141001E+03  0.25788769930E+03  0.00000000000E+00 0. -1.
         22    1    3    3    0    0  0.45059842659E+02  0.15373151407E+02 -0.16246489888E+03  0.16929727279E+03  0.00000000000E+00 0. -1.
</event>
<event>
 7    1  0.5676357E-006  0.8806770E+02  0.7818608E-02  0.1449896E+00
          2   -1    0    0  502    0  0.00000000000E+00  0.00000000000E+00  0.71316627569E+03  0.71316627569E+03  0.00000000000E+00 0. -1.
          1   -1    0    0  501    0 -0.00000000000E+00 -0.00000000000E+00 -0.27337948821E+03  0.27337948821E+03  0.00000000000E+00 0. -1.
         25    2    1    2    0    0  0.10583141758E+03  0.19052343455E+02  0.22170725351E+03  0.27630058387E+03  0.12499850261E+03 0.  0.
          2    1    1    2  501    0 -0.87508234198E+02  0.13833810543E+01 -0.23787552745E+03  0.25346473395E+03  0.00000000000E+00 0. -1.
          1    1    1    2  502    0 -0.18323183377E+02 -0.20435724509E+02  0.45595506143E+03  0.45678044608E+03  0.00000000000E+00 0. -1.
         22    1    3    3    0    0 -0.45316935859E+01 -0.34747271477E+02  0.20517300639E+02  0.40606264878E+02  0.00000000000E+00 0.  1.
         22    1    3    3    0    0  0.11036311116E+03  0.53799614932E+02  0.20118995287E+03  0.23569431900E+03  0.00000000000E+00 0.  1.
</event>
<event>
 7    1  0.5676357E-006  0.9036604E+02  0.7818608E-02  0.1315417E+00
          2   -1    0    0  502    0  0.00000000000E+00  0.00000000000E+00  0.57863453803E+03  0.57863453803E+03  0.00000000000E+00 0. -1.
          1   -1    0    0  501    0 -0.00000000000E+00 -0.00000000000E+00 -0.33088111553E+03  0.33088111553E+03  0.00000000000E+00 0. -1.
         25    2    1    2    0    0  0.17821471254E+02  0.20296466081E+02  0.10510993717E+03  0.16553504260E+03  0.12499680021E+03 0.  0.
          2    1    1    2  501    0  0.61820834503E+02 -0.65910594413E+02 -0.28894246565E+03  0.30274373733E+03  0.00000000000E+00 0. -1.
          1    1    1    2  502    0 -0.79642305757E+02  0.45614128332E+02  0.43158595098E+03  0.44123687363E+03  0.00000000000E+00 0. -1.
         22    1    3    3    0    0  0.40881857801E+02  0.36072246851E+02 -0.22813252729E+01  0.54568651579E+02  0.00000000000E+00 0.  1.
         22    1    3    3    0    0 -0.23060386547E+02 -0.15775780770E+02  0.10739126244E+03  0.11096639102E+03  0.00000000000E+00 0.  1.
</event>
<event>
 7    1  0.5676357E-006  0.3670937E+02  0.7818608E-02  0.1561967E+00
          2   -1    0    0  502    0  0.00000000000E+00  0.00000000000E+00  0.12868413085E+04  0.12868413085E+04  0.00000000000E+00 0. -1.
          1   -1    0    0  501    0 -0.00000000000E+00 -0.00000000000E+00 -0.38610868619E+02  0.38610868619E+02  0.00000000000E+00 0. -1.
         25    2    1    2    0    0  0.40983586410E+02 -0.45428494986E+02  0.96634491875E+03  0.97631449376E+03  0.12499634486E+03 0.  0.
          2    1    1    2  501    0 -0.32864704316E+02  0.15880308475E+02 -0.22720546595E+02  0.42994141748E+02  0.00000000000E+00 0. -1.
          1    1    1    2  502    0 -0.81188820931E+01  0.29548186511E+02  0.30460606777E+03  0.30614354165E+03  0.00000000000E+00 0. -1.
         22    1    3    3    0    0  0.39493648720E+02 -0.79860593463E+02  0.85816662349E+03  0.86277889192E+03  0.00000000000E+00 0. -1.
         22    1    3    3    0    0  0.14899376896E+01  0.34432098477E+02  0.10817829526E+03  0.11353560184E+03  0.00000000000E+00 0. -1.
</event>
<event>
 7    1  0.7360944E-006  0.1129087E+03  0.7818608E-02  0.1285747E+00
          2   -1    0    0  502    0  0.00000000000E+00  0.00000000000E+00  0.19533787303E+04  0.19533787303E+04  0.00000000000E+00 0. -1.
          1   -1    0    0  501    0 -0.00000000000E+00 -0.00000000000E+00 -0.12564551186E+04  0.12564551186E+04  0.00000000000E+00 0. -1.
         25    2    1    2    0    0 -0.75403382817E+02 -0.15811566726E+03 -0.48338936233E+03  0.52913291707E+03  0.12502053408E+03 0.  0.
          2    1    1    2  501    0  0.73429135937E+02  0.74027409788E+02 -0.74564861222E+03  0.75290354516E+03  0.00000000000E+00 0. -1.
          1    1    1    2  502    0  0.19742468796E+01  0.84088257476E+02  0.19259615862E+04  0.19277973867E+04  0.00000000000E+00 0. -1.
         22    1    3    3    0    0 -0.21291808694E+02 -0.12216192952E+03 -0.17816250792E+03  0.21706855454E+03  0.00000000000E+00 0. -1.
         22    1    3    3    0    0 -0.54111574123E+02 -0.35953737746E+02 -0.30522685441E+03  0.31206436253E+03  0.00000000000E+00 0. -1.
</event>
<event>
 7    1  0.5676357E-006  0.8980968E+02  0.7818608E-02  0.1307168E+00
          2   -1    0    0  502    0  0.00000000000E+00  0.00000000000E+00  0.46417008345E+02  0.46417008345E+02  0.00000000000E+00 0. -1.
          1   -1    0    0  501    0 -0.00000000000E+00 -0.00000000000E+00 -0.11669632931E+04  0.11669632931E+04  0.00000000000E+00 0. -1.
         25    2    1    2    0    0 -0.12063126153E+02  0.29503597507E+02 -0.64016207335E+03  0.65303029756E+03  0.12500043240E+03 0.  0.
          2    1    1    2  501    0 -0.84702684751E+02 -0.18502998965E+02 -0.45008062922E+03  0.45835518823E+03  0.00000000000E+00 0. -1.
          1    1    1    2  502    0  0.96765810904E+02 -0.11000598542E+02 -0.30303582189E+02  0.10199481566E+03  0.00000000000E+00 0. -1.
         22    1    3    3    0    0  0.14308538907E+02  0.63114766247E+02 -0.54361018219E+03  0.54744884526E+03  0.00000000000E+00 0.  1.
         22    1    3    3    0    0 -0.26371665060E+02 -0.33611168739E+02 -0.96551891159E+02  0.10558145229E+03  0.00000000000E+00 0.  1.
</event>
<event>
 7    1  0.5676357E-006  0.8453071E+02  0.7818608E-02  0.1377863E+00
          2   -1    0    0  502    0  0.00000000000E+00  0.00000000000E+00  0.63539908794E+02  0.63539908794E+02  0.00000000000E+00 0. -1.
          1   -1    0    0  501    0 -0.00000000000E+00 -0.00000000000E+00 -0.85289765819E+03  0.85289765819E+03  0.00000000000E+00 0. -1.
         25    2    1    2    0    0  0.52562385738E+00  0.48323402249E+02 -0.31101858313E+03  0.33865820475E+03  0.12498557159E+03 0.  0.
          2    1    1    2  501    0 -0.37086614890E+02  0.33573818178E+02 -0.48525378283E+03  0.48782563690E+03  0.00000000000E+00 0. -1.
          1    1    1    2  502    0  0.36560991032E+02 -0.81897220426E+02  0.69146165625E+01  0.89953725332E+02  0.00000000000E+00 0. -1.
         22    1    3    3    0    0 -0.31720590280E+02 -0.51869569688E+01 -0.13859519393E+02  0.35002666300E+02  0.00000000000E+00 0. -1.
         22    1    3    3    0    0  0.32246214137E+02  0.53510359217E+02 -0.29715906374E+03  0.30365553845E+03  0.00000000000E+00 0. -1.
</event>
<event>
 7    1  0.5676357E-006  0.1003327E+03  0.7818608E-02  0.1311692E+00
          2   -1    0    0  502    0  0.00000000000E+00  0.00000000000E+00  0.33233441312E+04  0.33233441312E+04  0.00000000000E+00 0. -1.
          1   -1    0    0  501    0 -0.00000000000E+00 -0.00000000000E+00 -0.39678946630E+03  0.39678946630E+03  0.00000000000E+00 0. -1.
         25    2    1    2    0    0  0.23543673047E+02 -0.28290338426E+02  0.21149268282E+03  0.24841353228E+03  0.12500192136E+03 0.  0.
          2    1    1    2  501    0 -0.11468739589E+02  0.10178732787E+03 -0.37093819953E+03  0.38482117922E+03  0.00000000000E+00 0. -1.
          1    1    1    2  502    0 -0.12074933459E+02 -0.73496989443E+02  0.30860001816E+04  0.30868988860E+04  0.00000000000E+00 0. -1.
         22    1    3    3    0    0  0.20151284236E+00  0.17914538846E+02 -0.10296185899E+02  0.20663561009E+02  0.00000000000E+00 0.  1.
         22    1    3    3    0    0  0.23342160205E+02 -0.46204877272E+02  0.22178886872E+03  0.22774997127E+03  0.00000000000E+00 0.  1.
</event>
<event>
 7    1  0.5676357E-006  0.1412624E+03  0.7818608E-02  0.1263493E+00
          2   -1    0    0  502    0  0.00000000000E+00  0.00000000000E+00  0.82870840043E+03  0.82870840043E+03  0.00000000000E+00 0. -1.
          1   -1    0    0  501    0 -0.00000000000E+00 -0.00000000000E+00 -0.12690751729E+04  0.12690751729E+04  0.00000000000E+00 0. -1.
         25    2    1    2    0    0 -0.47364617157E+02 -0.17141477713E+03  0.15971409477E+03  0.26974214280E+03  0.12500319500E+03 0.  0.
          2    1    1    2  501    0  0.75139018108E+02  0.35816037061E+02 -0.12048059431E+04  0.12076779460E+04  0.00000000000E+00 0. -1.
          1    1    1    2  502    0 -0.27774400951E+02  0.13559874007E+03  0.60472507586E+03  0.62036348460E+03  0.00000000000E+00 0. -1.
         22    1    3    3    0    0 -0.15666534182E+02 -0.16610636133E+03  0.82541883057E+02  0.18614490599E+03  0.00000000000E+00 0. -1.
         22    1    3    3    0    0 -0.31698082975E+02 -0.53084157979E+01  0.77172211709E+02  0.83597236812E+02  0.00000000000E+00 0. -1.
</event>
<event>
 7    1  0.5676357E-006  0.1885954E+03  0.7818608E-02  0.1274131E+00
          2   -1    0    0  502    0  0.00000000000E+00  0.00000000000E+00  0.37829194699E+04  0.37829194699E+04  0.00000000000E+00 0. -1.
          1   -1    0    0  501    0 -0.00000000000E+00 -0.00000000000E+00 -0.25951718788E+02  0.25951718788E+02  0.00000000000E+00 0. -1.
         25    2    1    2    0    0  0.22056171334E+03  0.13439127302E+02  0.11032405068E+04  0.11320744866E+04  0.12499979173E+03 0.  0.
          2    1    1    2  501    0 -0.16996059811E+03  0.11110635670E+02  0.63976563194E+03  0.66204993388E+03  0.00000000000E+00 0. -1.
          1    1    1    2  502    0 -0.50601115221E+02 -0.24549762972E+02  0.20139616124E+04  0.20147467682E+04  0.00000000000E+00 0. -1.
         22    1    3    3    0    0  0.63504930236E+02  0.46871937999E+02  0.56202706667E+03  0.56754231420E+03  0.00000000000E+00 0.  1.
         22    1    3    3    0    0  0.15705678310E+03 -0.33432810696E+02  0.54121344013E+03  0.56453217244E+03  0.00000000000E+00 0.  1.
</event>
<event>
 7    1  0.5676357E-006  0.6853706E+02  0.7818608E-02  0.1438649E+00
          2   -1    0    0  502    0  0.00000000000E+00  0.00000000000E+00  0.62119559815E+03  0.62119559815E+03  0.00000000000E+00 0. -1.
          1   -1    0    0  501    0 -0.00000000000E+00 -0.00000000000E+00 -0.18437750864E+03  0.18437750864E+03  0.00000000000E+00 0. -1.
         25    2    1    2    0    0 -0.92048956416E+02  0.19879959449E+02  0.22150008593E+03  0.27121024144E+03  0.12499793532E+03 0.  0.
          2    1    1    2  501    0  0.26479001163E+02 -0.27730189154E+02 -0.15424853184E+03  0.15894247534E+03  0.00000000000E+00 0. -1.
          1    1    1    2  502    0  0.65569955253E+02  0.78502297043E+01  0.36956653541E+03  0.37542039001E+03  0.00000000000E+00 0. -1.
         22    1    3    3    0    0 -0.50645748970E+02  0.56317331227E+02  0.49248088858E+02  0.90343831784E+02  0.00000000000E+00 0.  1.
         22    1    3    3    0    0 -0.41403207447E+02 -0.36437371778E+02  0.17225199707E+03  0.18086640966E+03  0.00000000000E+00 0.  1.
</event>
<event>
 7    1  0.5676357E-006  0.4412240E+02  0.7818608E-02  0.1503120E+00
          2   -1    0    0  502    0  0.00000000000E+00  0.00000000000E+00  0.94683990286E+03  0.94683990286E+03  0.00000000000E+00 0. -1.
          1   -1    0    0  501    0 -0.00000000000E+00 -0.00000000000E+00 -0.17936150660E+03  0.17936150660E+03  0.00000000000E+00 0. -1.
         25    2    1    2    0    0  0.64368643661E+01 -0.10944711602E+02  0.44416161771E+03  0.46157651778E+03  0.12494846613E+03 0.  0.
          2    1    1    2  501    0 -0.21101814829E+01 -0.37484288064E+02 -0.16737299935E+03  0.17153205423E+03  0.00000000000E+00 0. -1.
          1    1    1    2  502    0 -0.43266828832E+01  0.48428999666E+02  0.49068977790E+03  0.49309283744E+03  0.00000000000E+00 0. -1.
         22    1    3    3    0    0  0.26453078048E+02  0.37646821992E+02  0.35584101091E+03  0.35880339127E+03  0.00000000000E+00 0.  1.
         22    1    3    3    0    0 -0.20016213682E+02 -0.48591533594E+02  0.88320606804E+02  0.10277312651E+03  0.00000000000E+00 0.  1.
</event>
<event>
 7    1  0.5676357E-006  0.6234313E+02  0.7818608E-02  0.1491614E+00
          2   -1    0    0  502    0  0.00000000000E+00  0.00000000000E+00  0.55940379415E+02  0.55940379415E+02  0.00000000000E+00 0. -1.
          1   -1    0    0  501    0 -0.00000000000E+00 -0.00000000000E+00 -0.17495393858E+04  0.17495393858E+04  0.00000000000E+00 0. -1.
         25    2    1    2    0    0 -0.29344443515E+02 -0.18868695593E+02 -0.47974733529E+03  0.49699053952E+03  0.12499986646E+03 0.  0.
          2    1    1    2  501    0 -0.22256102003E+02 -0.18223714024E+02 -0.12395916188E+04  0.12399253281E+04  0.00000000000E+00 0. -1.
          1    1    1    2  502    0  0.51600545518E+02  0.37092409617E+02  0.25739947698E+02  0.68563897617E+02  0.00000000000E+00 0. -1.
         22    1    3    3    0    0 -0.55324633230E+02  0.35939189143E+02 -0.30384141344E+03  0.31092128405E+03  0.00000000000E+00 0. -1.
         22    1    3    3    0    0  0.25980189715E+02 -0.54807884736E+02 -0.17590592186E+03  0.18606925547E+03  0.00000000000E+00 0. -1.
</event>
<event>
 7    1  0.5676357E-006  0.3684585E+02  0.7818608E-02  0.1626328E+00
          2   -1    0    0  502    0  0.00000000000E+00  0.00000000000E+00  0.21830688528E+04  0.21830688528E+04  0.00000000000E+00 0. -1.
          1   -1    0    0  501    0 -0.00000000000E+00 -0.00000000000E+00 -0.69465701186E+02  0.69465701186E+02  0.00000000000E+00 0. -1.
         25    2    1    2    0    0 -0.38587023850E+02  0.36306534079E+02  0.39951678702E+02  0.14151029472E+03  0.12498761561E+03 0.  0.
          2    1    1    2  501    0  0.56580314067E+01 -0.19874054956E+02 -0.12761485086E+02  0.24286763502E+02  0.00000000000E+00 0. -1.
          1    1    1    2  502    0  0.32928992443E+02 -0.16432479123E+02  0.20864129580E+04  0.20867374958E+04  0.00000000000E+00 0. -1.
         22    1    3    3    0    0 -0.22656461977E+02  0.74833961127E+02 -0.72607936978E+01  0.78524875883E+02  0.00000000000E+00 0. -1.
         22    1    3    3    0    0 -0.15930561872E+02 -0.38527427048E+02  0.47212472400E+02  0.62985418842E+02  0.00000000000E+00 0. -1.
</event>
<event>
 7    1  0.5676357E-006  0.3353239E+02  0.7818608E-02  0.1574413E+00
          2   -1    0    0  502    0  0.00000000000E+00  0.00000000000E+00  0.14903097440E+04  0.14903097440E+04  0.00000000000E+00 0. -1.
          1   -1    0    0  501    0 -0.00000000000E+00 -0.00000000000E+00 -0.19035802498E+03  0.19035802498E+03  0.00000000000E+00 0. -1.
         25    2    1    2    0    0  0.22228800629E+02  0.28928165207E+02  0.33368610664E+03  0.35819312898E+03  0.12499976626E+03 0.  0.
          2    1    1    2  501    0  0.11526133680E+02 -0.28807691274E+02 -0.17650204695E+03  0.17920855842E+03  0.00000000000E+00 0. -1.
          1    1    1    2  502    0 -0.33754934309E+02 -0.12047393334E+00  0.11427676593E+04  0.11432660816E+04  0.00000000000E+00 0. -1.
         22    1    3    3    0    0 -0.43440514438E+02  0.41567202100E+02  0.11890191228E+03  0.13323879063E+03  0.00000000000E+00 0.  1.
         22    1    3    3    0    0  0.65669315067E+02 -0.12639036893E+02  0.21478419436E+03  0.22495433834E+03  0.00000000000E+00 0.  1.
</event>
<event>
 7    1  0.5676357E-006  0.1738094E+03  0.7818608E-02  0.1275904E+00
          2   -1    0    0  502    0  0.00000000000E+00  0.00000000000E+00  0.34042792276E+03  0.34042792276E+03  0.00000000000E+00 0. -1.
          1   -1    0    0  501    0 -0.00000000000E+00 -0.00000000000E+00 -0.46842975806E+03  0.46842975806E+03  0.00000000000E+00 0. -1.
         25    2    1    2    0    0 -0.32992612873E+02  0.16763119513E+03 -0.10522465241E+03  0.23640220744E+03  0.12500018450E+03 0.  0.
          2    1    1    2  501    0 -0.26416687163E+02 -0.17600905872E+03 -0.26704869123E+03  0.32092371929E+03  0.00000000000E+00 0. -1.
          1    1    1    2  502    0  0.59409300036E+02  0.83778635960E+01  0.24427150834E+03  0.25153175409E+03  0.00000000000E+00 0. -1.
         22    1    3    3    0    0 -0.38407239806E+02  0.17122183322E+03 -0.52334537465E+02  0.18311454353E+03  0.00000000000E+00 0.  1.
         22    1    3    3    0    0  0.54146269332E+01 -0.35906380911E+01 -0.52890114945E+02  0.53287663916E+02  0.00000000000E+00 0.  1.
</event>
<event>
 7    1  0.5676357E-006  0.4894992E+02  0.7818608E-02  0.1494656E+00
          2   -1    0    0  502    0  0.00000000000E+00  0.00000000000E+00  0.22117382945E+03  0.22117382945E+03  0.00000000000E+00 0. -1.
          1   -1    0    0  501    0 -0.00000000000E+00 -0.00000000000E+00 -0.59705271435E+03  0.59705271435E+03  0.00000000000E+00 0. -1.
         25    2    1    2    0    0 -0.82843074608E+02 -0.50626552517E+01  0.66356195049E+02  0.16406109449E+03  0.12499717042E+03 0.  0.
          2    1    1    2  501    0  0.47430409662E+02  0.10777178945E+02 -0.54404820416E+03  0.54621812475E+03  0.00000000000E+00 0. -1.
          1    1    1    2  502    0  0.35412664947E+02 -0.57145236934E+01  0.10181312421E+03  0.10794732457E+03  0.00000000000E+00 0. -1.
         22    1    3    3    0    0 -0.24363750093E+02 -0.28560904452E+02 -0.30592763017E+02  0.48427623633E+02  0.00000000000E+00 0. -1.
         22    1    3    3    0    0 -0.58479324515E+02  0.23498249200E+02  0.96948958066E+02  0.11563347085E+03  0.00000000000E+00 0. -1.
</event>
<event>
 7    1  0.5676357E-006  0.1048829E+03  0.7818608E-02  0.1468789E+00
          2   -1    0    0  502    0  0.00000000000E+00  0.00000000000E+00  0.15264518572E+03  0.15264518572E+03  0.00000000000E+00 0. -1.
          1   -1    0    0  501    0 -0.00000000000E+00 -0.00000000000E+00 -0.95374447037E+03  0.95374447037E+03  0.00000000000E+00 0. -1.
         25    2    1    2    0    0 -0.11489989264E+03 -0.44536481161E+02 -0.69087352505E+02  0.18863544785E+03  0.12499914570E+03 0.  0.
          2    1    1    2  501    0  0.94954558924E+02  0.42139011234E+02 -0.82048174494E+03  0.82703225954E+03  0.00000000000E+00 0. -1.
          1    1    1    2  502    0  0.19945333717E+02  0.23974699274E+01  0.88469812799E+02  0.90721948699E+02  0.00000000000E+00 0. -1.
         22    1    3    3    0    0 -0.11907554178E+03 -0.77381986859E+02 -0.50883023246E+02  0.15085104771E+03  0.00000000000E+00 0. -1.
         22    1    3    3    0    0  0.41756491381E+01  0.32845505698E+02 -0.18204329259E+02  0.37784400142E+02  0.00000000000E+00 0. -1.
</event>
<event>
 7    1  0.5676357E-006  0.8106755E+02  0.7818608E-02  0.1469983E+00
          2   -1    0    0  502    0  0.00000000000E+00  0.00000000000E+00  0.48698141177E+03  0.48698141177E+03  0.00000000000E+00 0. -1.
          1   -1    0    0  501    0 -0.00000000000E+00 -0.00000000000E+00 -0.59433672605E+03  0.59433672605E+03  0.00000000000E+00 0. -1.
         25    2    1    2    0    0  0.61915544494E+02 -0.63269817806E+02  0.14164203609E+03  0.20862453667E+03  0.12500050568E+03 0.  0.
          2    1    1    2  501    0 -0.24523949776E+02 -0.79129243920E+01 -0.55535884029E+03  0.55595636517E+03  0.00000000000E+00 0. -1.
          1    1    1    2  502    0 -0.37391594718E+02  0.71182742198E+02  0.30636148992E+03  0.31673723597E+03  0.00000000000E+00 0. -1.
         22    1    3    3    0    0 -0.56053527426E+00 -0.23548665551E+02  0.13185962232E+03  0.13394705614E+03  0.00000000000E+00 0.  1.
         22    1    3    3    0    0  0.62476079769E+02 -0.39721152255E+02  0.97824137612E+01  0.74677480533E+02  0.00000000000E+00 0.  1.
</event>
<event>
 7    1  0.5676357E-006  0.7332805E+02  0.7818608E-02  0.1379828E+00
          2   -1    0    0  502    0  0.00000000000E+00  0.00000000000E+00  0.39734023838E+02  0.39734023838E+02  0.00000000000E+00 0. -1.
          1   -1    0    0  501    0 -0.00000000000E+00 -0.00000000000E+00 -0.18711185352E+04  0.18711185352E+04  0.00000000000E+00 0. -1.
         25    2    1    2    0    0 -0.33391041135E+02 -0.11511594079E+03 -0.23709489709E+03  0.29360818560E+03  0.12500053990E+03 0.  0.
          2    1    1    2  501    0  0.41535824867E+02  0.58952988683E+02 -0.15291565749E+04  0.15308561363E+04  0.00000000000E+00 0. -1.
          1    1    1    2  502    0 -0.81447837324E+01  0.56162952108E+02 -0.65133039424E+02  0.86388237140E+02  0.00000000000E+00 0. -1.
         22    1    3    3    0    0  0.18102906363E+02 -0.13151580149E+02 -0.14544634446E+03  0.14715746123E+03  0.00000000000E+00 0.  1.
         22    1    3    3    0    0 -0.51493947498E+02 -0.10196436064E+03 -0.91648552624E+02  0.14645072437E+03  0.00000000000E+00 0.  1.
</event>
<event>
 7    1  0.5676357E-006  0.8713268E+02  0.7818608E-02  0.1364840E+00
          2   -1    0    0  502    0  0.00000000000E+00  0.00000000000E+00  0.14936344160E+04  0.14936344160E+04  0.00000000000E+00 0. -1.
          1   -1    0    0  501    0 -0.00000000000E+00 -0.00000000000E+00 -0.41693649857E+02  0.41693649857E+02  0.00000000000E+00 0. -1.
         25    2    1    2    0    0 -0.73771204402E+02 -0.80464139861E+02  0.96484157389E+03  0.97901023994E+03  0.12500047520E+03 0.  0.
          2    1    1    2  501    0  0.19862600275E+02  0.84298262675E+02  0.23718075642E+02  0.89795696400E+02  0.00000000000E+00 0. -1.
          1    1    1    2  502    0  0.53908604127E+02 -0.38341228143E+01  0.46338111662E+03  0.46652212953E+03  0.00000000000E+00 0. -1.
         22    1    3    3    0    0 -0.23364918378E+02 -0.73571318199E+02  0.84884034109E+03  0.85234299606E+03  0.00000000000E+00 0.  1.
         22    1    3    3    0    0 -0.50406286023E+02 -0.68928216624E+01  0.11600123280E+03  0.12666724388E+03  0.00000000000E+00 0.  1.
</event>
<event>
 7    1  0.5676357E-006  0.2558557E+03  0.7818608E-02  0.1342196E+00
          2   -1    0    0  502    0  0.00000000000E+00  0.00000000000E+00  0.43975435498E+03  0.43975435498E+03  0.00000000000E+00 0. -1.
          1   -1    0    0  501    0 -0.00000000000E+00 -0.00000000000E+00 -0.73623910218E+03  0.73623910218E+03  0.00000000000E+00 0. -1.
         25    2    1    2    0    0 -0.18988664521E+03 -0.17285123667E+03  0.33430704648E+02  0.28753520929E+03  0.12499758606E+03 0.  0.
          2    1    1    2  501    0  0.16437853921E+02 -0.15076575317E+02 -0.55036715402E+03  0.55081894520E+03  0.00000000000E+00 0. -1.
          1    1    1    2  502    0  0.17344879129E+03  0.18792781198E+03  0.22045170217E+03  0.33763930267E+03  0.00000000000E+00 0. -1.
         22    1    3    3    0    0 -0.11278789080E+03 -0.17398871810E+03  0.12937343783E+02  0.20775119062E+03  0.00000000000E+00 0.  1.
         22    1    3    3    0    0 -0.77098754414E+02  0.11374814365E+01  0.20493360866E+02  0.79784018674E+02  0.00000000000E+00 0.  1.
</event>
<event>
 7    1  0.5676357E-006  0.5610790E+02  0.7818608E-02  0.1448674E+00
          2   -1    0    0  502    0  0.00000000000E+00  0.00000000000E+00  0.87433700980E+03  0.87433700980E+03  0.00000000000E+00 0. -1.
          1   -1    0    0  501    0 -0.00000000000E+00 -0.00000000000E+00 -0.26895226516E+02  0.26895226516E+02  0.00000000000E+00 0. -1.
         25    2    1    2    0    0 -0.67515345639E+02  0.17607784843E+02  0.64773666192E+03  0.66336745382E+03  0.12500095843E+03 0.  0.
          2    1    1    2  501    0  0.33682748392E+02 -0.44905528820E+02  0.31994872537E+02  0.64611964268E+02  0.00000000000E+00 0. -1.
          1    1    1    2  502    0  0.33832597248E+02  0.27297743978E+02  0.16771024882E+03  0.17325281822E+03  0.00000000000E+00 0. -1.
         22    1    3    3    0    0 -0.10230056307E+03  0.33355001025E-01  0.41717122927E+03  0.42953142009E+03  0.00000000000E+00 0. -1.
         22    1    3    3    0    0  0.34785217427E+02  0.17574429842E+02  0.23056543266E+03  0.23383603373E+03  0.00000000000E+00 0. -1.
</event>
<event>
 7    1  0.5676357E-006  0.5757568E+02  0.7818608E-02  0.1437637E+00
          2   -1    0    0  502    0  0.00000000000E+00  0.00000000000E+00  0.67274537140E+03  0.67274537140E+03  0.00000000000E+00 0. -1.
          1   -1    0    0  501    0 -0.00000000000E+00 -0.00000000000E+00 -0.65139327222E+03  0.65139327222E+03  0.00000000000E+00 0. -1.
         25    2    1    2    0    0 -0.43784802567E+02 -0.71042578309E+02 -0.54031268745E+02  0.15971497725E+03  0.12500135634E+03 0.  0.
          2    1    1    2  501    0  0.43920672140E+02  0.13636067008E+02 -0.54221560781E+03  0.54416241428E+03  0.00000000000E+00 0. -1.
          1    1    1    2  502    0 -0.13586957347E+00  0.57406511301E+02  0.61759897574E+03  0.62026125209E+03  0.00000000000E+00 0. -1.
         22    1    3    3    0    0 -0.74735174981E+02 -0.66490288708E+02 -0.72358239089E+02  0.12345857457E+03  0.00000000000E+00 0. -1.
         22    1    3    3    0    0  0.30950372414E+02 -0.45522896007E+01  0.18326970344E+02  0.36256402678E+02  0.00000000000E+00 0. -1.
</event>
<event>
 7    1  0.5676357E-006  0.6739955E+02  0.7818608E-02  0.1494272E+00
          2   -1    0    0  502    0  0.00000000000E+00  0.00000000000E+00  0.18613151952E+04  0.18613151952E+04  0.00000000000E+00 0. -1.
          1   -1    0    0  501    0 -0.00000000000E+00 -0.00000000000E+00 -0.36741391707E+02  0.36741391707E+02  0.00000000000E+00 0. -1.
         25    2    1    2    0    0 -0.29690655687E+02  0.76288556562E+02  0.45992164584E+03  0.48358442569E+03  0.12499799025E+03 0.  0.
          2    1    1    2  501    0  0.56476194454E+01 -0.66078941781E+02  0.19584786754E+02  0.69151182380E+02  0.00000000000E+00 0. -1.
          1    1    1    2  502    0  0.24043036241E+02 -0.10209614780E+02  0.13450673709E+04  0.13453209788E+04  0.00000000000E+00 0. -1.
         22    1    3    3    0    0  0.42494882655E+02  0.22034466580E+02  0.25782677806E+03  0.26223268342E+03  0.00000000000E+00 0.  1.
         22    1    3    3    0    0 -0.72185538342E+02  0.54254089982E+02  0.20209486778E+03  0.22135174227E+03  0.00000000000E+00 0.  1.
</event>
<event>
 7    1  0.5676357E-006  0.7284567E+02  0.7818608E-02  0.1443621E+00
          2   -1    0    0  502    0  0.00000000000E+00  0.00000000000E+00  0.21357977073E+04  0.21357977073E+04  0.00000000000E+00 0. -1.
          1   -1    0    0  501    0 -0.00000000000E+00 -0.00000000000E+00 -0.56524458279E+03  0.56524458279E+03  0.00000000000E+00 0. -1.
         25    2    1    2    0    0 -0.71294623604E+02  0.57614375241E+02 -0.37890244356E+03  0.40937225458E+03  0.12496496107E+03 0.  0.
          2    1    1    2  501    0  0.61454474053E+02 -0.24275782664E+02 -0.16458003224E+03  0.17734867639E+03  0.00000000000E+00 0. -1.
          1    1    1    2  502    0  0.98401495514E+01 -0.33338592577E+02  0.21140356003E+04  0.21143213591E+04  0.00000000000E+00 0. -1.
         22    1    3    3    0    0 -0.31562000039E+02  0.33630450577E+02 -0.25041584456E+02  0.52480929913E+02  0.00000000000E+00 0. -1.
         22    1    3    3    0    0 -0.39732623565E+02  0.23983924664E+02 -0.35386085910E+03  0.35689132467E+03  0.00000000000E+00 0. -1.
</event>
<event>
 7    1  0.5676357E-006  0.5269326E+02  0.7818608E-02  0.1505628E+00
          2   -1    0    0  502    0  0.00000000000E+00  0.00000000000E+00  0.91714477669E+03  0.91714477669E+03  0.00000000000E+00 0. -1.
          1   -1    0    0  501    0 -0.00000000000E+00 -0.00000000000E+00 -0.41556998223E+02  0.41556998223E+02  0.00000000000E+00 0. -1.
         25    2    1    2    0    0  0.55476742559E+01  0.29189802893E+02  0.24769531716E+03  0.27903809709E+03  0.12500587268E+03 0.  0.
          2    1    1    2  501    0  0.27340397424E+02  0.14404958045E+02 -0.15073189256E+02  0.34383152588E+02  0.00000000000E+00 0. -1.
          1    1    1    2  502    0 -0.32888071680E+02 -0.43594760938E+02  0.64296565056E+03  0.64528052523E+03  0.00000000000E+00 0. -1.
         22    1    3    3    0    0  0.95561820746E+01  0.76391208581E+02  0.11732892852E+03  0.14033180264E+03  0.00000000000E+00 0. -1.
         22    1    3    3    0    0 -0.40085078188E+01 -0.47201405688E+02  0.13036638864E+03  0.13870629445E+03  0.00000000000E+00 0. -1.
</event>
<event>
 7    1  0.5676357E-006  0.8304041E+02  0.7818608E-02  0.1385710E+00
          2   -1    0    0  502    0  0.00000000000E+00  0.00000000000E+00  0.81695883202E+03  0.81695883202E+03  0.00000000000E+00 0. -1.
          1   -1    0    0  501    0 -0.00000000000E+00 -0.00000000000E+00 -0.81083636612E+02  0.81083636612E+02  0.00000000000E+00 0. -1.
         25    2    1    2    0    0  0.11706032280E+02 -0.10769248313E+03  0.25601686942E+03  0.30480654080E+03  0.12501075061E+03 0.  0.
          2    1    1    2  501    0 -0.41143701613E+02  0.70063819319E+02 -0.25859080727E+02  0.85266845937E+02  0.00000000000E+00 0. -1.
          1    1    1    2  502    0  0.29437669333E+02  0.37628663811E+02  0.50571740671E+03  0.50796908190E+03  0.00000000000E+00 0. -1.
         22    1    3    3    0    0  0.22805105299E+02 -0.12250804420E+02 -0.52650546168E+01  0.26417339699E+02  0.00000000000E+00 0. -1.
         22    1    3    3    0    0 -0.11099073019E+02 -0.95441678710E+02  0.26128192404E+03  0.27838920110E+03  0.00000000000E+00 0. -1.
</event>
<event>
 7    1  0.5676357E-006  0.1173284E+03  0.7818608E-02  0.1274285E+00
          2   -1    0    0  502    0  0.00000000000E+00  0.00000000000E+00  0.48642134121E+03  0.48642134121E+03  0.00000000000E+00 0. -1.
          1   -1    0    0  501    0 -0.00000000000E+00 -0.00000000000E+00 -0.57164816670E+03  0.57164816670E+03  0.00000000000E+00 0. -1.
         25    2    1    2    0    0 -0.13409965771E+03 -0.11223748617E+03  0.79769941290E+02  0.22927812428E+03  0.12500097295E+03 0.  0.
          2    1    1    2  501    0  0.11300516616E+03  0.24466454833E+02 -0.48381538311E+03  0.49743954399E+03  0.00000000000E+00 0. -1.
          1    1    1    2  502    0  0.21094491557E+02  0.87771031333E+02  0.31881861633E+03  0.33135183964E+03  0.00000000000E+00 0. -1.
         22    1    3    3    0    0 -0.87485341369E+02 -0.13670950154E+03  0.60453629153E+02  0.17319877033E+03  0.00000000000E+00 0.  1.
         22    1    3    3    0    0 -0.46614316344E+02  0.24472015374E+02  0.19316312137E+02  0.56079353949E+02  0.00000000000E+00 0.  1.
</event>
<event>
 7    1  0.5676357E-006  0.9881199E+02  0.7818608E-02  0.1348932E+00
          2   -1    0    0  502    0  0.00000000000E+00  0.00000000000E+00  0.38547529399E+03  0.38547529399E+03  0.00000000000E+00 0. -1.
          1   -1    0    0  501    0 -0.00000000000E+00 -0.00000000000E+00 -0.22832808551E+03  0.22832808551E+03  0.00000000000E+00 0. -1.
         25    2    1    2    0    0 -0.32644913158E+02 -0.45851918431E+02  0.17059806370E+03  0.21885356433E+03  0.12500037802E+03 0.  0.
          2    1    1    2  501    0  0.86568818103E+02  0.53807297064E+02 -0.18703663306E+03  0.21300724774E+03  0.00000000000E+00 0. -1.
          1    1    1    2  502    0 -0.53923904945E+02 -0.79553786329E+01  0.17358577784E+03  0.18194256742E+03  0.00000000000E+00 0. -1.
         22    1    3    3    0    0  0.40727614291E+02 -0.29686820568E+01  0.10121602140E+03  0.10914318406E+03  0.00000000000E+00 0. -1.
         22    1    3    3    0    0 -0.73372527450E+02 -0.42883236374E+02  0.69382042295E+02  0.10971038027E+03  0.00000000000E+00 0. -1.
</event>
<event>
 7    1  0.5676357E-006  0.8739320E+02  0.7818608E-02  0.1436465E+00
          2   -1    0    0  502    0  0.00000000000E+00  0.00000000000E+00  0.41584310117E+03  0.41584310117E+03  0.00000000000E+00 0. -1.
          1   -1    0    0  501    0 -0.00000000000E+00 -0.00000000000E+00 -0.69914479352E+03  0.69914479352E+03  0.00000000000E+00 0. -1.
         25    2    1    2    0    0 -0.49108891547E+02  0.64503746833E+02 -0.47703770710E+03  0.49976229689E+03  0.12499985122E+03 0.  0.
          2    1    1    2  501    0  0.23747172451E+02  0.19244064324E+02 -0.20486511269E+03  0.20713275118E+03  0.00000000000E+00 0. -1.
          1    1    1    2  502    0  0.25361719095E+02 -0.83747811157E+02  0.39860112745E+03  0.40809284663E+03  0.00000000000E+00 0. -1.
         22    1    3    3    0    0 -0.52234852650E+02  0.94146955339E+02 -0.43565511205E+03  0.44876219280E+03  0.00000000000E+00 0.  1.
         22    1    3    3    0    0  0.31259611038E+01 -0.29643208507E+02 -0.41382595052E+02  0.51000104084E+02  0.00000000000E+00 0.  1.
</event>
<event>
 7    1  0.5676357E-006  0.5832578E+02  0.7818608E-02  0.1452936E+00
          2   -1    0    0  502    0  0.00000000000E+00  0.00000000000E+00  0.42351144701E+03  0.42351144701E+03  0.00000000000E+00 0. -1.
          1   -1    0    0  501    0 -0.00000000000E+00 -0.00000000000E+00 -0.94864340351E+03  0.94864340351E+03  0.00000000000E+00 0. -1.
         25    2    1    2    0    0 -0.66926283442E+02  0.50156264434E+02  0.21227920176E+03  0.26015746209E+03  0.12499866921E+03 0.  0.
          2    1    1    2  501    0  0.40484582433E+02 -0.18655569197E+01 -0.92020259762E+03  0.92109462184E+03  0.00000000000E+00 0. -1.
          1    1    1    2  502    0  0.26441701010E+02 -0.48290707515E+02  0.18279143937E+03  0.19090276659E+03  0.00000000000E+00 0. -1.
         22    1    3    3    0    0 -0.81870915462E+02 -0.76161857601E+01  0.16377588194E+03  0.18325772177E+03  0.00000000000E+00 0.  1.
         22    1    3    3    0    0  0.14944632019E+02  0.57772450194E+02  0.48503319817E+02  0.76899740318E+02  0.00000000000E+00 0.  1.
</event>
<event>
 7    1  0.5676357E-006  0.3665161E+02  0.7818608E-02  0.1590308E+00
          2   -1    0    0  502    0  0.00000000000E+00  0.00000000000E+00  0.79403444992E+03  0.79403444992E+03  0.00000000000E+00 0. -1.
          1   -1    0    0  501    0 -0.00000000000E+00 -0.00000000000E+00 -0.61419722246E+03  0.61419722246E+03  0.00000000000E+00 0. -1.
         25    2    1    2    0    0 -0.30093350264E+02 -0.29621332587E+02  0.16049261099E+03  0.20776463150E+03  0.12500092338E+03 0.  0.
          2    1    1    2  501    0  0.24848687545E+02 -0.67200235816E+01 -0.58972756560E+03  0.59028909665E+03  0.00000000000E+00 0. -1.
          1    1    1    2  502    0  0.52446627193E+01  0.36341356168E+02  0.60907218208E+03  0.61017794424E+03  0.00000000000E+00 0. -1.
         22    1    3    3    0    0 -0.53608439611E+02  0.33298727443E+02  0.61381162884E+02  0.88035885887E+02  0.00000000000E+00 0.  1.
         22    1    3    3    0    0  0.23515089347E+02 -0.62920060030E+02  0.99111448102E+02  0.11972874561E+03  0.00000000000E+00 0.  1.
</event>
<event>
 7    1  0.5676357E-006  0.6511876E+02  0.7818608E-02  0.1462535E+00
          2   -1    0    0  502    0  0.00000000000E+00  0.00000000000E+00  0.24750799685E+04  0.24750799685E+04  0.00000000000E+00 0. -1.
          1   -1    0    0  501    0 -0.00000000000E+00 -0.00000000000E+00 -0.24674237407E+02  0.24674237407E+02  0.00000000000E+00 0. -1.
         25    2    1    2    0    0 -0.62793729553E+01 -0.34517438919E+02  0.43382870557E+03  0.45283893675E+03  0.12499949097E+03 0.  0.
          2    1    1    2  501    0 -0.20826106804E+02 -0.26681981131E+02  0.49881134346E+01  0.34213098623E+02  0.00000000000E+00 0. -1.
          1    1    1    2  502    0  0.27105479760E+02  0.61199420051E+02  0.20115889121E+04  0.20127021705E+04  0.00000000000E+00 0. -1.
         22    1    3    3    0    0 -0.25149339467E+02 -0.62192751813E+02  0.39868304931E+03  0.40428777060E+03  0.00000000000E+00 0.  1.
         22    1    3    3    0    0  0.18869966512E+02  0.27675312894E+02  0.35145656264E+02  0.48551166146E+02  0.00000000000E+00 0.  1.
</event>
<event>
 7    1  0.5676357E-006  0.9413085E+02  0.7818608E-02  0.1331038E+00
          2   -1    0    0  502    0  0.00000000000E+00  0.00000000000E+00  0.35247269686E+02  0.35247269686E+02  0.00000000000E+00 0. -1.
          1   -1    0    0  501    0 -0.00000000000E+00 -0.00000000000E+00 -0.12743427609E+04  0.12743427609E+04  0.00000000000E+00 0. -1.
         25    2    1    2    0    0  0.47032941012E+02  0.86593188257E+02 -0.34094756973E+03  0.37627536519E+03  0.12500970904E+03 0.  0.
          2    1    1    2  501    0  0.44906347034E+02 -0.49470494271E+02 -0.76181664203E+03  0.76474080961E+03  0.00000000000E+00 0. -1.
          1    1    1    2  502    0 -0.91939288046E+02 -0.37122693987E+02 -0.13633127944E+03  0.16857385577E+03  0.00000000000E+00 0. -1.
         22    1    3    3    0    0 -0.12741651896E+02 -0.12997575797E+02 -0.24026285212E+01  0.18359174640E+02  0.00000000000E+00 0. -1.
         22    1    3    3    0    0  0.59774592908E+02  0.99590764055E+02 -0.33854494121E+03  0.35791619055E+03  0.00000000000E+00 0. -1.
</event>
<event>
 7    1  0.5676357E-006  0.1083693E+03  0.7818608E-02  0.1371003E+00
          2   -1    0    0  502    0  0.00000000000E+00  0.00000000000E+00  0.62022248339E+03  0.62022248339E+03  0.00000000000E+00 0. -1.
          1   -1    0    0  501    0 -0.00000000000E+00 -0.00000000000E+00 -0.19603806574E+03  0.19603806574E+03  0.00000000000E+00 0. -1.
         25    2    1    2    0    0 -0.12821666718E+03 -0.64721735642E+02  0.98344276612E+02  0.21430443491E+03  0.12500550897E+03 0.  0.
          2    1    1    2  501    0  0.96846118910E+02  0.37880533193E+02 -0.11737901944E+03  0.15681817417E+03  0.00000000000E+00 0. -1.
          1    1    1    2  502    0  0.31370548271E+02  0.26841202449E+02  0.44321916048E+03  0.44513794004E+03  0.00000000000E+00 0. -1.
         22    1    3    3    0    0 -0.97906626845E+02  0.10631030995E+02  0.88654959485E+02  0.13250821952E+03  0.00000000000E+00 0. -1.
         22    1    3    3    0    0 -0.30310040337E+02 -0.75352766637E+02  0.96893171268E+01  0.81796215386E+02  0.00000000000E+00 0. -1.
</event>
<event>
 7    1  0.5676357E-006  0.8492347E+02  0.7818608E-02  0.1365486E+00
          2   -1    0    0  502    0  0.00000000000E+00  0.00000000000E+00  0.29522731507E+04  0.29522731507E+04  0.00000000000E+00 0. -1.
          1   -1    0    0  501    0 -0.00000000000E+00 -0.00000000000E+00 -0.61576710713E+03  0.61576710713E+03  0.00000000000E+00 0. -1.
         25    2    1    2    0    0  0.12992583279E+03  0.41006347841E+02  0.80060049067E+03  0.82167420743E+03  0.12500045963E+03 0.  0.
          2    1    1    2  501    0 -0.84116772884E+02 -0.10291759754E+02 -0.60190638853E+03  0.60784278589E+03  0.00000000000E+00 0. -1.
          1    1    1    2  502    0 -0.45809059910E+02 -0.30714588087E+02  0.21378119414E+04  0.21385232645E+04  0.00000000000E+00 0. -1.
         22    1    3    3    0    0 -0.76809870953E+01  0.46412157677E+02  0.21817476898E+03  0.22318896873E+03  0.00000000000E+00 0.  1.
         22    1    3    3    0    0  0.13760681989E+03 -0.54058098356E+01  0.58242572168E+03  0.59848523870E+03  0.00000000000E+00 0.  1.
</event>
<event>
 7    1  0.5676357E-006  0.6107630E+02  0.7818608E-02  0.1453541E+00
          2   -1    0    0  502    0  0.00000000000E+00  0.00000000000E+00  0.27670220282E+04  0.27670220282E+04  0.00000000000E+00 0. -1.
          1   -1    0    0  501    0 -0.00000000000E+00 -0.00000000000E+00 -0.56211578944E+03  0.56211578944E+03  0.00000000000E+00 0. -1.
         25    2    1    2    0    0  0.84679199893E+01  0.61796002592E+02  0.87082280170E+03  0.88195712555E+03  0.12500227092E+03 0.  0.
          2    1    1    2  501    0 -0.42557712019E+02 -0.43837031892E+02 -0.55467476329E+03  0.55802951288E+03  0.00000000000E+00 0. -1.
          1    1    1    2  502    0  0.34089792030E+02 -0.17958970700E+02  0.18887582004E+04  0.18891511792E+04  0.00000000000E+00 0. -1.
         22    1    3    3    0    0 -0.53823771597E+02  0.55068587259E+02  0.46933166757E+03  0.47560673026E+03  0.00000000000E+00 0.  1.
         22    1    3    3    0    0  0.62291691587E+02  0.67274153330E+01  0.40149113414E+03  0.40635039529E+03  0.00000000000E+00 0.  1.
</event>
<event>
 7    1  0.5676357E-006  0.1780825E+03  0.7818608E-02  0.1255609E+00
          2   -1    0    0  502    0  0.00000000000E+00  0.00000000000E+00  0.17531431825E+03  0.17531431825E+03  0.00000000000E+00 0. -1.
          1   -1    0    0  501    0 -0.00000000000E+00 -0.00000000000E+00 -0.10541892591E+04  0.10541892591E+04  0.00000000000E+00 0. -1.
         25    2    1    2    0    0 -0.11215110349E+03 -0.52874880883E+02 -0.17646545634E+03  0.24927715188E+03  0.12500167250E+03 0.  0.
          2    1    1    2  501    0  0.17940865365E+03  0.76695190149E+02 -0.81988413349E+03  0.84278087873E+03  0.00000000000E+00 0. -1.
          1    1    1    2  502    0 -0.67257550168E+02 -0.23820309265E+02  0.11747464894E+03  0.13744554678E+03  0.00000000000E+00 0. -1.
         22    1    3    3    0    0 -0.73985247928E+02 -0.82970724522E+02 -0.16563344732E+03  0.19948031710E+03  0.00000000000E+00 0.  1.
         22    1    3    3    0    0 -0.38165855558E+02  0.30095843639E+02 -0.10832009018E+02  0.49796834780E+02  0.00000000000E+00 0.  1.
</event>
<event>
 7    1  0.5676357E-006  0.1592984E+03  0.7818608E-02  0.1244571E+00
          2   -1    0    0  502    0  0.00000000000E+00  0.00000000000E+00  0.44778213885E+03  0.44778213885E+03  0.00000000000E+00 0. -1.
          1   -1    0    0  501    0 -0.00000000000E+00 -0.00000000000E+00 -0.10399448089E+04  0.10399448089E+04  0.00000000000E+00 0. -1.
         25    2    1    2    0    0  0.18353298687E+03 -0.12826718313E+03 -0.23176408474E+03  0.34565496983E+03  0.12500375857E+03 0.  0.
          2    1    1    2  501    0 -0.88981561709E+02  0.37833657700E+01 -0.73279986266E+03  0.73819216393E+03  0.00000000000E+00 0. -1.
          1    1    1    2  502    0 -0.94551425165E+02  0.12448381736E+03  0.37240127734E+03  0.40387981399E+03  0.00000000000E+00 0. -1.
         22    1    3    3    0    0  0.11011732263E+03 -0.11605569987E+03 -0.85149783890E+02  0.18123254651E+03  0.00000000000E+00 0. -1.
         22    1    3    3    0    0  0.73415664241E+02 -0.12211483258E+02 -0.14661430085E+03  0.16442242333E+03  0.00000000000E+00 0. -1.
</event>
<event>
 7    1  0.5676357E-006  0.8387475E+02  0.7818608E-02  0.1339328E+00
          2   -1    0    0  502    0  0.00000000000E+00  0.00000000000E+00  0.10136852352E+04  0.10136852352E+04  0.00000000000E+00 0. -1.
          1   -1    0    0  501    0 -0.00000000000E+00 -0.00000000000E+00 -0.16647413155E+04  0.16647413155E+04  0.00000000000E+00 0. -1.
         25    2    1    2    0    0 -0.48493649586E+02  0.10426295386E+03 -0.10971996454E+04  0.11102675088E+04  0.12499792687E+03 0.  0.
          2    1    1    2  501    0  0.66098665204E+02 -0.22269491308E+02 -0.55708348940E+03  0.56143296835E+03  0.00000000000E+00 0. -1.
          1    1    1    2  502    0 -0.17605015618E+02 -0.81993462555E+02  0.10032270544E+04  0.10067260736E+04  0.00000000000E+00 0. -1.
         22    1    3    3    0    0 -0.75301302968E+02  0.21566325289E+02 -0.64946443412E+03  0.65417080629E+03  0.00000000000E+00 0. -1.
         22    1    3    3    0    0  0.26807653382E+02  0.82696628574E+02 -0.44773521123E+03  0.45609670251E+03  0.00000000000E+00 0. -1.
</event>
<event>
 7    1  0.5676357E-006  0.8537502E+02  0.7818608E-02  0.1447596E+00
          2   -1    0    0  502    0  0.00000000000E+00  0.00000000000E+00  0.72570351652E+03  0.72570351652E+03  0.00000000000E+00 0. -1.
          1   -1    0    0  501    0 -0.00000000000E+00 -0.00000000000E+00 -0.42282783308E+02  0.42282783308E+02  0.00000000000E+00 0. -1.
         25    2    1    2    0    0  0.25744391849E+02  0.77115409032E+02  0.56598966468E+03  0.58530213309E+03  0.12499890579E+03 0.  0.
          2    1    1    2  501    0 -0.53064940797E+02 -0.68010653616E+02  0.31135202663E+02  0.91710074648E+02  0.00000000000E+00 0. -1.
          1    1    1    2  502    0  0.27320548948E+02 -0.91047554160E+01  0.86295865862E+02  0.90974092086E+02  0.00000000000E+00 0. -1.
         22    1    3    3    0    0  0.71129384445E+02  0.17843117721E+02  0.31640319866E+03  0.32479031745E+03  0.00000000000E+00 0.  1.
         22    1    3    3    0    0 -0.45384992596E+02  0.59272291311E+02  0.24958646602E+03  0.26051181564E+03  0.00000000000E+00 0.  1.
</event>
<event>
 7    1  0.5676357E-006  0.1440245E+03  0.7818608E-02  0.1332180E+00
          2   -1    0    0  502    0  0.00000000000E+00  0.00000000000E+00  0.28109106537E+04  0.28109106537E+04  0.00000000000E+00 0. -1.
          1   -1    0    0  501    0 -0.00000000000E+00 -0.00000000000E+00 -0.36487356362E+03  0.36487356362E+03  0.00000000000E+00 0. -1.
         25    2    1    2    0    0  0.94984512070E+02 -0.66659713508E+02  0.71215737159E+03  0.73229688001E+03  0.12500009446E+03 0.  0.
          2    1    1    2  501    0  0.11993728177E+02 -0.41534866610E+02 -0.35070382048E+03  0.35335840780E+03  0.00000000000E+00 0. -1.
          1    1    1    2  502    0 -0.10697824025E+03  0.10819458012E+03  0.20845835390E+04  0.20901289296E+04  0.00000000000E+00 0. -1.
         22    1    3    3    0    0  0.77957379626E+02 -0.10322044429E+03  0.57260092052E+03  0.58702949443E+03  0.00000000000E+00 0. -1.
         22    1    3    3    0    0  0.17027132445E+02  0.36560730779E+02  0.13955645108E+03  0.14526738557E+03  0.00000000000E+00 0. -1.
</event>
<event>
 7    1  0.5676357E-006  0.9471331E+02  0.7818608E-02  0.1359358E+00
          2   -1    0    0  502    0  0.00000000000E+00  0.00000000000E+00  0.18225352124E+04  0.18225352124E+04  0.00000000000E+00 0. -1.
          1   -1    0    0  501    0 -0.00000000000E+00 -0.00000000000E+00 -0.47310231477E+02  0.47310231477E+02  0.00000000000E+00 0. -1.
         25    2    1    2    0    0  0.29616535967E+01  0.67069891750E+02  0.16768592080E+03  0.21966305384E+03  0.12500458958E+03 0.  0.
          2    1    1    2  501    0  0.18214630410E+01 -0.11890538185E+03  0.14864798684E+03  0.19036289436E+03  0.00000000000E+00 0. -1.
          1    1    1    2  502    0 -0.47831166377E+01  0.51835490095E+02  0.14588910733E+04  0.14598194957E+04  0.00000000000E+00 0. -1.
         22    1    3    3    0    0 -0.26840445321E+00  0.74940896254E+02  0.18542094732E+03  0.19999284406E+03  0.00000000000E+00 0.  1.
         22    1    3    3    0    0  0.32300580499E+01 -0.78710045038E+01 -0.17735026520E+02  0.19670209775E+02  0.00000000000E+00 0.  1.
</event>
<event>
 7    1  0.5676357E-006  0.5665316E+02  0.7818608E-02  0.1422604E+00
          2   -1    0    0  502    0  0.00000000000E+00  0.00000000000E+00  0.29433681021E+02  0.29433681021E+02  0.00000000000E+00 0. -1.
          1   -1    0    0  501    0 -0.00000000000E+00 -0.00000000000E+00 -0.13862380275E+04  0.13862380275E+04  0.00000000000E+00 0. -1.
         25    2    1    2    0    0  0.54086952894E+02 -0.85575011262E+02 -0.65842201461E+03  0.67778556779E+03  0.12500098220E+03 0.  0.
          2    1    1    2  501    0 -0.40711774498E+02  0.32954687138E+02 -0.67780213375E+03  0.67982291261E+03  0.00000000000E+00 0. -1.
          1    1    1    2  502    0 -0.13375178395E+02  0.52620324124E+02 -0.20580198146E+02  0.58063228155E+02  0.00000000000E+00 0. -1.
         22    1    3    3    0    0  0.31992861590E+02  0.28449149104E+02 -0.22706527663E+03  0.23106608822E+03  0.00000000000E+00 0. -1.
         22    1    3    3    0    0  0.22094091304E+02 -0.11402416037E+03 -0.43135673798E+03  0.44671947956E+03  0.00000000000E+00 0. -1.
</event>
<event>
 7    1  0.5676357E-006  0.6271058E+02  0.7818608E-02  0.1459129E+00
          2   -1    0    0  502    0  0.00000000000E+00  0.00000000000E+00  0.62498911574E+03  0.62498911574E+03  0.00000000000E+00 0. -1.
          1   -1    0    0  501    0 -0.00000000000E+00 -0.00000000000E+00 -0.83804314114E+03  0.83804314114E+03  0.00000000000E+00 0. -1.
         25    2    1    2    0    0 -0.95990044388E+02  0.19270342123E+02 -0.90877954476E+01  0.15903922627E+03  0.12500181103E+03 0.  0.
          2    1    1    2  501    0  0.34835584667E+02 -0.91871279784E+01 -0.75180079155E+03  0.75266350480E+03  0.00000000000E+00 0. -1.
          1    1    1    2  502    0  0.61154459720E+02 -0.10083214144E+02  0.54783456160E+03  0.55132952582E+03  0.00000000000E+00 0. -1.
         22    1    3    3    0    0 -0.35473404307E+02 -0.42231103448E+01 -0.64471387424E+02  0.73707237572E+02  0.00000000000E+00 0.  1.
         22    1    3    3    0    0 -0.60516640081E+02  0.23493452467E+02  0.55383591976E+02  0.85331988701E+02  0.00000000000E+00 0.  1.
</event>
<event>
 7    1  0.5676357E-006  0.1159516E+03  0.7818608E-02  0.1317111E+00
          2   -1    0    0  502    0  0.00000000000E+00  0.00000000000E+00  0.66463840904E+03  0.66463840904E+03  0.00000000000E+00 0. -1.
          1   -1    0    0  501    0 -0.00000000000E+00 -0.00000000000E+00 -0.17552817404E+04  0.17552817404E+04  0.00000000000E+00 0. -1.
         25    2    1    2    0    0  0.21824026651E+02  0.59348772919E+02 -0.48738293558E+02  0.14832134569E+03  0.12500094136E+03 0.  0.
          2    1    1    2  501    0  0.49717471263E+02  0.35991553174E+02 -0.16503990670E+04  0.16515399781E+04  0.00000000000E+00 0. -1.
          1    1    1    2  502    0 -0.71541497914E+02 -0.95340326092E+02  0.60849402921E+03  0.62005882567E+03  0.00000000000E+00 0. -1.
         22    1    3    3    0    0 -0.17816406337E+02 -0.14697324732E+02 -0.59329936027E+02  0.63666922323E+02  0.00000000000E+00 0.  1.
         22    1    3    3    0    0  0.39640432988E+02  0.74046097650E+02  0.10591642469E+02  0.84654423363E+02  0.00000000000E+00 0.  1.
</event>
<event>
 7    1  0.5676357E-006  0.7728091E+02  0.7818608E-02  0.1390042E+00
          2   -1    0    0  502    0  0.00000000000E+00  0.00000000000E+00  0.46482369574E+03  0.46482369574E+03  0.00000000000E+00 0. -1.
          1   -1    0    0  501    0 -0.00000000000E+00 -0.00000000000E+00 -0.87851747349E+03  0.87851747349E+03  0.00000000000E+00 0. -1.
         25    2    1    2    0    0  0.35154941592E+02  0.24975745381E+02  0.52704868873E+02  0.14234647777E+03  0.12500023502E+03 0.  0.
          2    1    1    2  501    0 -0.25546033486E+01  0.49508355504E+02 -0.82844708398E+03  0.82992901758E+03  0.00000000000E+00 0. -1.
          1    1    1    2  502    0 -0.32600338243E+02 -0.74484100885E+02  0.36204843736E+03  0.37106567388E+03  0.00000000000E+00 0. -1.
         22    1    3    3    0    0  0.14744126207E+02 -0.50721648213E+02  0.12688781004E+02  0.54323843921E+02  0.00000000000E+00 0. -1.
         22    1    3    3    0    0  0.20410815385E+02  0.75697393594E+02  0.40016087869E+02  0.88022633850E+02  0.00000000000E+00 0. -1.
</event>
<event>
 7    1  0.5676357E-006  0.5684224E+02  0.7818608E-02  0.1471502E+00
          2   -1    0    0  502    0  0.00000000000E+00  0.00000000000E+00  0.90794045540E+03  0.90794045540E+03  0.00000000000E+00 0. -1.
          1   -1    0    0  501    0 -0.00000000000E+00 -0.00000000000E+00 -0.17227707638E+04  0.17227707638E+04  0.00000000000E+00 0. -1.
         25    2    1    2    0    0 -0.60112913386E+02 -0.21345318734E+02 -0.43733302113E+02  0.14699195911E+03  0.12499939737E+03 0.  0.
          2    1    1    2  501    0  0.33422097326E+02  0.46027571679E+02 -0.16265249021E+04  0.16275192261E+04  0.00000000000E+00 0. -1.
          1    1    1    2  502    0  0.26690816060E+02 -0.24682252945E+02  0.85542789585E+03  0.85620003403E+03  0.00000000000E+00 0. -1.
         22    1    3    3    0    0  0.15052923195E+02  0.36344311487E+02  0.63023271944E+01  0.39839914687E+02  0.00000000000E+00 0.  1.
         22    1    3    3    0    0 -0.75165836582E+02 -0.57689630221E+02 -0.50035629307E+02  0.10715204442E+03  0.00000000000E+00 0.  1.
</event>
<event>
 7    1  0.5676357E-006  0.1041850E+03  0.7818608E-02  0.1433393E+00
          2   -1    0    0  502    0  0.00000000000E+00  0.00000000000E+00  0.27663638399E+03  0.27663638399E+03  0.00000000000E+00 0. -1.
          1   -1    0    0  501    0 -0.00000000000E+00 -0.00000000000E+00 -0.48379149676E+03  0.48379149676E+03  0.00000000000E+00 0. -1.
         25    2    1    2    0    0  0.12684996369E+03  0.21690126452E+02 -0.11484643074E+03  0.21301463116E+03  0.12499662219E+03 0.  0.
          2    1    1    2  501    0 -0.25935031314E+02 -0.39822100683E+01 -0.30774136225E+03  0.30885794450E+03  0.00000000000E+00 0. -1.
          1    1    1    2  502    0 -0.10091493238E+03 -0.17707916384E+02  0.21543268022E+03  0.23855530509E+03  0.00000000000E+00 0. -1.
         22    1    3    3    0    0  0.70518855101E+02  0.73989266586E+02 -0.59177020294E+02  0.11810690168E+03  0.00000000000E+00 0. -1.
         22    1    3    3    0    0  0.56331108589E+02 -0.52299140134E+02 -0.55669410450E+02  0.94907729471E+02  0.00000000000E+00 0. -1.
</event>
<event>
 7    1  0.5676357E-006  0.1793394E+03  0.7818608E-02  0.1369114E+00
          2   -1    0    0  502    0  0.00000000000E+00  0.00000000000E+00  0.87963574773E+03  0.87963574773E+03  0.00000000000E+00 0. -1.
          1   -1    0    0  501    0 -0.00000000000E+00 -0.00000000000E+00 -0.50175130803E+03  0.50175130803E+03  0.00000000000E+00 0. -1.
         25    2    1    2    0    0 -0.44377696144E+02  0.15757675020E+03  0.32033930937E+03  0.38084357470E+03  0.12499897257E+03 0.  0.
          2    1    1    2  501    0  0.67963406034E+02 -0.16684441343E+03 -0.45396506745E+03  0.48840594317E+03  0.00000000000E+00 0. -1.
          1    1    1    2  502    0 -0.23585709890E+02  0.92676632300E+01  0.51151019778E+03  0.51213753790E+03  0.00000000000E+00 0. -1.
         22    1    3    3    0    0 -0.52854229159E+02  0.62044264513E+02  0.54020640461E+02  0.97781848493E+02  0.00000000000E+00 0.  1.
         22    1    3    3    0    0  0.84765330153E+01  0.95532485690E+02  0.26631866891E+03  0.28306172621E+03  0.00000000000E+00 0.  1.
</event>
<event>
 7    1  0.5676357E-006  0.2609272E+03  0.7818608E-02  0.1212575E+00
          2   -1    0    0  502    0  0.00000000000E+00  0.00000000000E+00  0.20664331915E+04  0.20664331915E+04  0.00000000000E+00 0. -1.
          1   -1    0    0  501    0 -0.00000000000E+00 -0.00000000000E+00 -0.31702914338E+03  0.31702914338E+03  0.00000000000E+00 0. -1.
         25    2    1    2    0    0  0.13012630964E+03 -0.15439539764E+03  0.28207518333E+03  0.36873083484E+03  0.12500089697E+03 0.  0.
          2    1    1    2  501    0  0.61466998512E+02 -0.44220809628E+02 -0.25727557499E+03  0.26818723571E+03  0.00000000000E+00 0. -1.
          1    1    1    2  502    0 -0.19159330815E+03  0.19861620727E+03  0.17246044398E+04  0.17465442644E+04  0.00000000000E+00 0. -1.
         22    1    3    3    0    0  0.12886610790E+03 -0.16046133565E+03  0.29187618842E+03  0.35713586122E+03  0.00000000000E+00 0. -1.
         22    1    3    3    0    0  0.12602017446E+01  0.60659380060E+01 -0.98010050986E+01  0.11594973621E+02  0.00000000000E+00 0. -1.
</event>
<event>
 7    1  0.5676357E-006  0.5594781E+02  0.7818608E-02  0.1541385E+00
          2   -1    0    0  502    0  0.00000000000E+00  0.00000000000E+00  0.84310159575E+03  0.84310159575E+03  0.00000000000E+00 0. -1.
          1   -1    0    0  501    0 -0.00000000000E+00 -0.00000000000E+00 -0.71658504373E+03  0.71658504373E+03  0.00000000000E+00 0. -1.
         25    2    1    2    0    0  0.14769367156E+02  0.45444683402E+02 -0.54068050894E+02  0.14433290692E+03  0.12500112174E+03 0.  0.
          2    1    1    2  501    0 -0.20482534581E+02  0.10332570334E+02 -0.61618592570E+03  0.61661283741E+03  0.00000000000E+00 0. -1.
          1    1    1    2  502    0  0.57131674254E+01 -0.55777253736E+02  0.79677052861E+03  0.79874089515E+03  0.00000000000E+00 0. -1.
         22    1    3    3    0    0  0.18643331646E+02  0.85227570361E+02 -0.15156796421E+02  0.88549652977E+02  0.00000000000E+00 0. -1.
         22    1    3    3    0    0 -0.38739644899E+01 -0.39782886960E+02 -0.38911254473E+02  0.55783253942E+02  0.00000000000E+00 0. -1.
</event>
<event>
 7    1  0.5676357E-006  0.1001975E+03  0.7818608E-02  0.1419684E+00
          2   -1    0    0  502    0  0.00000000000E+00  0.00000000000E+00  0.29059963491E+04  0.29059963491E+04  0.00000000000E+00 0. -1.
          1   -1    0    0  501    0 -0.00000000000E+00 -0.00000000000E+00 -0.24616939674E+02  0.24616939674E+02  0.00000000000E+00 0. -1.
         25    2    1    2    0    0  0.11062946392E+03 -0.38364477037E+02  0.75211488845E+03  0.77137073577E+03  0.12500118079E+03 0.  0.
          2    1    1    2  501    0 -0.12734150127E+02  0.27479841142E+02  0.27098441570E+01  0.30407951329E+02  0.00000000000E+00 0. -1.
          1    1    1    2  502    0 -0.97895313798E+02  0.10884635895E+02  0.21265546768E+04  0.21288346017E+04  0.00000000000E+00 0. -1.
         22    1    3    3    0    0 -0.10593438660E+02 -0.21378617822E+02  0.35541545460E+03  0.35621540058E+03  0.00000000000E+00 0.  1.
         22    1    3    3    0    0  0.12122290259E+03 -0.16985859216E+02  0.39669943385E+03  0.41515533520E+03  0.00000000000E+00 0.  1.
</event>
<event>
 7    1  0.5676357E-006  0.4800491E+03  0.7818608E-02  0.1170381E+00
          2   -1    0    0  502    0  0.00000000000E+00  0.00000000000E+00  0.88083973012E+03  0.88083973012E+03  0.00000000000E+00 0. -1.
          1   -1    0    0  501    0 -0.00000000000E+00 -0.00000000000E+00 -0.14058378984E+04  0.14058378984E+04  0.00000000000E+00 0. -1.
         25    2    1    2    0    0  0.27479780642E+03  0.44979900007E+03 -0.59786208595E+03  0.80678183891E+03  0.12499954764E+03 0.  0.
          2    1    1    2  501    0 -0.60312927801E+02 -0.25619901531E+02 -0.62890206556E+03  0.63230675837E+03  0.00000000000E+00 0. -1.
          1    1    1    2  502    0 -0.21448487862E+03 -0.42417909854E+03  0.70176598318E+03  0.84758903128E+03  0.00000000000E+00 0. -1.
         22    1    3    3    0    0  0.14849729207E+03  0.12955546247E+03 -0.23267634826E+03  0.30491695041E+03  0.00000000000E+00 0.  1.
         22    1    3    3    0    0  0.12630051435E+03  0.32024353761E+03 -0.36518573769E+03  0.50186488851E+03  0.00000000000E+00 0.  1.
</event>
<event>
 7    1  0.5676357E-006  0.9515051E+02  0.7818608E-02  0.1386481E+00
          2   -1    0    0  502    0  0.00000000000E+00  0.00000000000E+00  0.57164750053E+03  0.57164750053E+03  0.00000000000E+00 0. -1.
          1   -1    0    0  501    0 -0.00000000000E+00 -0.00000000000E+00 -0.30452948666E+03  0.30452948666E+03  0.00000000000E+00 0. -1.
         25    2    1    2    0    0  0.16299680131E+02 -0.59997971560E+02 -0.49048529644E+01  0.13969483195E+03  0.12500060931E+03 0.  0.
          2    1    1    2  501    0 -0.72071086567E+01  0.10042380894E+03 -0.22040591542E+03  0.24231312669E+03  0.00000000000E+00 0. -1.
          1    1    1    2  502    0 -0.90925714740E+01 -0.40425837382E+02  0.49242878225E+03  0.49416902854E+03  0.00000000000E+00 0. -1.
         22    1    3    3    0    0  0.43547493938E+02 -0.64068396188E+02 -0.46092530739E+02  0.90142470613E+02  0.00000000000E+00 0. -1.
         22    1    3    3    0    0 -0.27247813807E+02  0.40704246279E+01  0.41187677775E+02  0.49552361340E+02  0.00000000000E+00 0. -1.
</event>
<event>
 7    1  0.5676357E-006  0.4174412E+03  0.7818608E-02  0.1204683E+00
          2   -1    0    0  502    0  0.00000000000E+00  0.00000000000E+00  0.11112349033E+04  0.11112349033E+04  0.00000000000E+00 0. -1.
          1   -1    0    0  501    0 -0.00000000000E+00 -0.00000000000E+00 -0.93419429843E+03  0.93419429843E+03  0.00000000000E+00 0. -1.
         25    2    1    2    0    0  0.18724369087E+03  0.37330290754E+03  0.46199767626E+03  0.63520229895E+03  0.12499938871E+03 0.  0.
          2    1    1    2  501    0 -0.23180016612E+03 -0.34747482581E+03 -0.79475519016E+03  0.89783399573E+03  0.00000000000E+00 0. -1.
          1    1    1    2  502    0  0.44556475253E+02 -0.25828081731E+02  0.50979811878E+03  0.51239290706E+03  0.00000000000E+00 0. -1.
         22    1    3    3    0    0 -0.41501185020E+00  0.10965766648E+03  0.87765263716E+02  0.14045539352E+03  0.00000000000E+00 0. -1.
         22    1    3    3    0    0  0.18765870272E+03  0.26364524106E+03  0.37423241254E+03  0.49474690543E+03  0.00000000000E+00 0. -1.
</event>
<event>
 7    1  0.5676357E-006  0.2745036E+03  0.7818608E-02  0.1136173E+00
          2   -1    0    0  502    0  0.00000000000E+00  0.00000000000E+00  0.92059100862E+03  0.92059100862E+03  0.00000000000E+00 0. -1.
          1   -1    0    0  501    0 -0.00000000000E+00 -0.00000000000E+00 -0.80461216403E+03  0.80461216403E+03  0.00000000000E+00 0. -1.
         25    2    1    2    0    0 -0.14161264973E+03  0.21015354969E+03 -0.14845128219E+03  0.31918892867E+03  0.12500052795E+03 0.  0.
          2    1    1    2  501    0  0.15609067758E+03  0.70985056629E+02 -0.53323696837E+03  0.56012930858E+03  0.00000000000E+00 0. -1.
          1    1    1    2  502    0 -0.14478027845E+02 -0.28113860632E+03  0.79766709515E+03  0.84588493540E+03  0.00000000000E+00 0. -1.
         22    1    3    3    0    0 -0.95253214992E+02  0.43862705998E+02 -0.85954597058E+02  0.13559242125E+03  0.00000000000E+00 0.  1.
         22    1    3    3    0    0 -0.46359434742E+02  0.16629084370E+03 -0.62496685134E+02  0.18359650743E+03  0.00000000000E+00 0.  1.
</event>
<event>
 7    1  0.6301680E-006  0.9011048E+02  0.7818608E-02  0.1318941E+00
          2   -1    0    0  502    0  0.00000000000E+00  0.00000000000E+00  0.29364677870E+04  0.29364677870E+04  0.00000000000E+00 0. -1.
          1   -1    0    0  501    0 -0.00000000000E+00 -0.00000000000E+00 -0.56989867296E+03  0.56989867296E+03  0.00000000000E+00 0. -1.
         25    2    1    2    0    0 -0.25277467613E+02  0.55284992179E+02 -0.16573091249E+03  0.21630041880E+03  0.12499502025E+03 0.  0.
          2    1    1    2  501    0  0.75053287906E+02  0.20084798700E+02 -0.37419104164E+03  0.38217186031E+03  0.00000000000E+00 0. -1.
          1    1    1    2  502    0 -0.49775820292E+02 -0.75369790879E+02  0.29064910682E+04  0.29078941809E+04  0.00000000000E+00 0. -1.
         22    1    3    3    0    0 -0.40268658266E+02  0.19008666016E+01  0.12713095302E+01  0.40333538901E+02  0.00000000000E+00 0.  1.
         22    1    3    3    0    0  0.14991190653E+02  0.53384125577E+02 -0.16700222202E+03  0.17596687990E+03  0.00000000000E+00 0.  1.
</event>
<event>
 7    1  0.5676357E-006  0.1040366E+03  0.7818608E-02  0.1332512E+00
          2   -1    0    0  502    0  0.00000000000E+00  0.00000000000E+00  0.72943454408E+03  0.72943454408E+03  0.00000000000E+00 0. -1.
          1   -1    0    0  501    0 -0.00000000000E+00 -0.00000000000E+00 -0.36816438677E+03  0.36816438677E+03  0.00000000000E+00 0. -1.
         25    2    1    2    0    0  0.15683117326E+03 -0.97343455689E+01  0.21347969713E+03  0.29306784580E+03  0.12499762704E+03 0.  0.
          2    1    1    2  501    0 -0.99243212445E+02  0.25376368562E+02 -0.31843318933E+03  0.33450391831E+03  0.00000000000E+00 0. -1.
          1    1    1    2  502    0 -0.57587960814E+02 -0.15642022993E+02  0.46622364951E+03  0.47002716674E+03  0.00000000000E+00 0. -1.
         22    1    3    3    0    0  0.16456502240E+03 -0.31705236333E+02  0.14806290746E+03  0.22362802413E+03  0.00000000000E+00 0.  1.
         22    1    3    3    0    0 -0.77338491440E+01  0.21970890764E+02  0.65416789668E+02  0.69439821673E+02  0.00000000000E+00 0.  1.
</event>
<event>
 7    1  0.5676357E-006  0.7661443E+02  0.7818608E-02  0.1428277E+00
          2   -1    0    0  502    0  0.00000000000E+00  0.00000000000E+00  0.19958014044E+04  0.19958014044E+04  0.00000000000E+00 0. -1.
          1   -1    0    0  501    0 -0.00000000000E+00 -0.00000000000E+00 -0.17879209652E+03  0.17879209652E+03  0.00000000000E+00 0. -1.
         25    2    1    2    0    0 -0.44548320520E+02 -0.36616839083E+02  0.64202367094E+02  0.15189295398E+03  0.12499671900E+03 0.  0.
          2    1    1    2  501    0  0.14245855638E+02 -0.34245851794E+02 -0.13159551306E+03  0.13672271876E+03  0.00000000000E+00 0. -1.
          1    1    1    2  502    0  0.30302464882E+02  0.70862690877E+02  0.18844024538E+04  0.18859778282E+04  0.00000000000E+00 0. -1.
         22    1    3    3    0    0  0.44063763594E+02 -0.11815063975E+02  0.20081589680E+02  0.49844570846E+02  0.00000000000E+00 0.  1.
         22    1    3    3    0    0 -0.88612084114E+02 -0.24801775109E+02  0.44120777414E+02  0.10204838313E+03  0.00000000000E+00 0.  1.
</event>
<event>
 7    1  0.5676357E-006  0.3821243E+03  0.7818608E-02  0.1056696E+00
          2   -1    0    0  502    0  0.00000000000E+00  0.00000000000E+00  0.13211538419E+04  0.13211538419E+04  0.00000000000E+00 0. -1.
          1   -1    0    0  501    0 -0.00000000000E+00 -0.00000000000E+00 -0.89848049910E+03  0.89848049910E+03  0.00000000000E+00 0. -1.
         25    2    1    2    0    0  0.23341318825E+03  0.33339874031E+03  0.30710480286E+02  0.42685418556E+03  0.12499970256E+03 0.  0.
          2    1    1    2  501    0 -0.40693305206E+03 -0.31423006846E+02 -0.60890894741E+03  0.73304298678E+03  0.00000000000E+00 0. -1.
          1    1    1    2  502    0  0.17351986381E+03 -0.30197573346E+03  0.10008718099E+04  0.10597371686E+04  0.00000000000E+00 0. -1.
         22    1    3    3    0    0  0.17373243529E+03  0.18463984721E+03  0.67594247642E+02  0.26238104841E+03  0.00000000000E+00 0. -1.
         22    1    3    3    0    0  0.59680752964E+02  0.14875889310E+03 -0.36883767356E+02  0.16447313715E+03  0.00000000000E+00 0. -1.
</event>
<event>
 7    1  0.5676357E-006  0.5580248E+02  0.7818608E-02  0.1435465E+00
          2   -1    0    0  502    0  0.00000000000E+00  0.00000000000E+00  0.12217150771E+03  0.12217150771E+03  0.00000000000E+00 0. -1.
          1   -1    0    0  501    0 -0.00000000000E+00 -0.00000000000E+00 -0.87925157019E+03  0.87925157019E+03  0.00000000000E+00 0. -1.
         25    2    1    2    0    0 -0.16584546756E+02 -0.19153258594E+01 -0.39872177299E+03  0.41818982730E+03  0.12499985495E+03 0.  0.
          2    1    1    2  501    0  0.63981218709E+02  0.10844393056E+02 -0.46325588707E+03  0.46777902274E+03  0.00000000000E+00 0. -1.
          1    1    1    2  502    0 -0.47396671953E+02 -0.89290671969E+01  0.10489759758E+03  0.11545422786E+03  0.00000000000E+00 0. -1.
         22    1    3    3    0    0 -0.70440853232E+02  0.12771022196E+00 -0.25979384945E+03  0.26917424529E+03  0.00000000000E+00 0.  1.
         22    1    3    3    0    0  0.53856306476E+02 -0.20430360814E+01 -0.13892792353E+03  0.14901558201E+03  0.00000000000E+00 0.  1.
</event>
<event>
 7    1  0.5676357E-006  0.1242865E+03  0.7818608E-02  0.1441472E+00
          2   -1    0    0  502    0  0.00000000000E+00  0.00000000000E+00  0.14729831035E+04  0.14729831035E+04  0.00000000000E+00 0. -1.
          1   -1    0    0  501    0 -0.00000000000E+00 -0.00000000000E+00 -0.13889837886E+04  0.13889837886E+04  0.00000000000E+00 0. -1.
         25    2    1    2    0    0 -0.47632352615E+02 -0.12886386385E+03 -0.92061864407E+01  0.18598142433E+03  0.12501839826E+03 0.  0.
          2    1    1    2  501    0  0.18973616803E+02  0.82809303168E+01 -0.12885330148E+04  0.12886993063E+04  0.00000000000E+00 0. -1.
          1    1    1    2  502    0  0.28658735812E+02  0.12058293354E+03  0.13817385161E+04  0.13872861615E+04  0.00000000000E+00 0. -1.
         22    1    3    3    0    0 -0.75861210130E+02 -0.36015895039E+02 -0.25092516923E+02  0.87645321058E+02  0.00000000000E+00 0.  1.
         22    1    3    3    0    0  0.28228857515E+02 -0.92847968815E+02  0.15886330482E+02  0.98336103268E+02  0.00000000000E+00 0.  1.
</event>
<event>
 7    1  0.5676357E-006  0.4461426E+02  0.7818608E-02  0.1492664E+00
          2   -1    0    0  502    0  0.00000000000E+00  0.00000000000E+00  0.48510420907E+03  0.48510420907E+03  0.00000000000E+00 0. -1.
          1   -1    0    0  501    0 -0.00000000000E+00 -0.00000000000E+00 -0.21878544874E+04  0.21878544874E+04  0.00000000000E+00 0. -1.
         25    2    1    2    0    0  0.33908113803E+02 -0.30426125357E+01 -0.55346098678E+03  0.56842101332E+03  0.12499746727E+03 0.  0.
          2    1    1    2  501    0 -0.76393897201E+01  0.39165936624E+02 -0.16256239089E+04  0.16261135950E+04  0.00000000000E+00 0. -1.
          1    1    1    2  502    0 -0.26268724083E+02 -0.36123324088E+02  0.47633461733E+03  0.47842408811E+03  0.00000000000E+00 0. -1.
         22    1    3    3    0    0  0.31398509458E+02  0.39236318604E+02 -0.90413402404E+02  0.10344050671E+03  0.00000000000E+00 0. -1.
         22    1    3    3    0    0  0.25096043444E+01 -0.42278931139E+02 -0.46304758437E+03  0.46498050661E+03  0.00000000000E+00 0. -1.
</event>
<event>
 7    1  0.5676357E-006  0.5239873E+02  0.7818608E-02  0.1533370E+00
          2   -1    0    0  502    0  0.00000000000E+00  0.00000000000E+00  0.13569537630E+04  0.13569537630E+04  0.00000000000E+00 0. -1.
          1   -1    0    0  501    0 -0.00000000000E+00 -0.00000000000E+00 -0.98534087902E+03  0.98534087902E+03  0.00000000000E+00 0. -1.
         25    2    1    2    0    0  0.99467805435E+01  0.47811327585E+02 -0.50187119575E+02  0.14327362448E+03  0.12499489194E+03 0.  0.
          2    1    1    2  501    0  0.15759293132E+02 -0.50142209792E+02 -0.88770599231E+03  0.88926066218E+03  0.00000000000E+00 0. -1.
          1    1    1    2  502    0 -0.25706073675E+02  0.23308822062E+01  0.13095059958E+04  0.13097603553E+04  0.00000000000E+00 0. -1.
         22    1    3    3    0    0 -0.35680388895E+02 -0.87445067287E+00 -0.65700952072E+02  0.74769445088E+02  0.00000000000E+00 0.  1.
         22    1    3    3    0    0  0.45627169438E+02  0.48685778258E+02  0.15513832497E+02  0.68504179393E+02  0.00000000000E+00 0.  1.
</event>
<event>
 7    1  0.5676357E-006  0.6590755E+02  0.7818608E-02  0.1412696E+00
          2   -1    0    0  502    0  0.00000000000E+00  0.00000000000E+00  0.16133327329E+04  0.16133327329E+04  0.00000000000E+00 0. -1.
          1   -1    0    0  501    0 -0.00000000000E+00 -0.00000000000E+00 -0.39796235870E+03  0.39796235870E+03  0.00000000000E+00 0. -1.
         25    2    1    2    0    0 -0.88511077839E+02 -0.19126377279E+02 -0.20368628090E+03  0.25556325793E+03  0.12499779427E+03 0.  0.
          2    1    1    2  501    0  0.40844327163E+02 -0.26340187248E+02 -0.16413040618E+03  0.17117492444E+03  0.00000000000E+00 0. -1.
          1    1    1    2  502    0  0.47666750676E+02  0.45466564526E+02  0.15831870613E+04  0.15845569093E+04  0.00000000000E+00 0. -1.
         22    1    3    3    0    0 -0.83659351916E+02  0.30710374894E+02 -0.71643193259E+02  0.11434492306E+03  0.00000000000E+00 0.  1.
         22    1    3    3    0    0 -0.48517259232E+01 -0.49836752172E+02 -0.13204308764E+03  0.14121833487E+03  0.00000000000E+00 0.  1.
</event>
<event>
 7    1  0.5676357E-006  0.5736977E+02  0.7818608E-02  0.1459218E+00
          2   -1    0    0  502    0  0.00000000000E+00  0.00000000000E+00  0.19771846383E+03  0.19771846383E+03  0.00000000000E+00 0. -1.
          1   -1    0    0  501    0 -0.00000000000E+00 -0.00000000000E+00 -0.16276277213E+04  0.16276277213E+04  0.00000000000E+00 0. -1.
         25    2    1    2    0    0  0.12009886755E+02 -0.33346472330E+02 -0.11058050743E+04  0.11134115818E+04  0.12499705410E+03 0.  0.
          2    1    1    2  501    0  0.38817515889E+02  0.64827596917E+01 -0.51298807771E+03  0.51449547479E+03  0.00000000000E+00 0. -1.
          1    1    1    2  502    0 -0.50827402644E+02  0.26863712638E+02  0.18888389447E+03  0.19743912861E+03  0.00000000000E+00 0. -1.
         22    1    3    3    0    0 -0.45461954316E+02 -0.49660540738E+02 -0.70034151469E+03  0.70357032044E+03  0.00000000000E+00 0.  1.
         22    1    3    3    0    0  0.57471841071E+02  0.16314068408E+02 -0.40546355958E+03  0.40984126133E+03  0.00000000000E+00 0.  1.
</event>
<event>
 7    1  0.5676357E-006  0.1046839E+03  0.7818608E-02  0.1316977E+00
          2   -1    0    0  502    0  0.00000000000E+00  0.00000000000E+00  0.60626475352E+02  0.60626475352E+02  0.00000000000E+00 0. -1.
          1   -1    0    0  501    0 -0.00000000000E+00 -0.00000000000E+00 -0.12402252666E+04  0.12402252666E+04  0.00000000000E+00 0. -1.
         25    2    1    2    0    0 -0.12968139716E+03 -0.83040358281E+02 -0.40705357128E+03  0.45280375374E+03  0.12500265451E+03 0.  0.
          2    1    1    2  501    0  0.67694360801E+02  0.71002656369E+01 -0.74236701262E+03  0.74548086608E+03  0.00000000000E+00 0. -1.
          1    1    1    2  502    0  0.61987036355E+02  0.75940092644E+02 -0.30178207359E+02  0.10256712215E+03  0.00000000000E+00 0. -1.
         22    1    3    3    0    0 -0.59666680362E+02  0.27264444585E+02 -0.16844580807E+03  0.18076905969E+03  0.00000000000E+00 0. -1.
         22    1    3    3    0    0 -0.70014716793E+02 -0.11030480287E+03 -0.23860776321E+03  0.27203469405E+03  0.00000000000E+00 0. -1.
</event>
<event>
 7    1  0.5676357E-006  0.1328650E+03  0.7818608E-02  0.1381005E+00
          2   -1    0    0  502    0  0.00000000000E+00  0.00000000000E+00  0.11060533901E+04  0.11060533901E+04  0.00000000000E+00 0. -1.
          1   -1    0    0  501    0 -0.00000000000E+00 -0.00000000000E+00 -0.83254548192E+03  0.83254548192E+03  0.00000000000E+00 0. -1.
         25    2    1    2    0    0  0.73760627150E+02 -0.13331457185E+03 -0.33186622741E+03  0.38596811983E+03  0.12499116546E+03 0.  0.
          2    1    1    2  501    0 -0.46721929548E+02  0.11810796243E+03 -0.46488418052E+03  0.48192295109E+03  0.00000000000E+00 0. -1.
          1    1    1    2  502    0 -0.27038697602E+02  0.15206609413E+02  0.10702583161E+04  0.10707078011E+04  0.00000000000E+00 0. -1.
         22    1    3    3    0    0  0.85530226323E+02 -0.14942978615E+03 -0.26362955120E+03  0.31487334100E+03  0.00000000000E+00 0.  1.
         22    1    3    3    0    0 -0.11769599172E+02  0.16115214305E+02 -0.68236676211E+02  0.71094778832E+02  0.00000000000E+00 0.  1.
</event>
<event>
 7    1  0.5676357E-006  0.1088559E+03  0.7818608E-02  0.1301563E+00
          2   -1    0    0  502    0  0.00000000000E+00  0.00000000000E+00  0.47713305332E+03  0.47713305332E+03  0.00000000000E+00 0. -1.
          1   -1    0    0  501    0 -0.00000000000E+00 -0.00000000000E+00 -0.13885430456E+04  0.13885430456E+04  0.00000000000E+00 0. -1.
         25    2    1    2    0    0 -0.32484806177E+02 -0.14046835442E+03 -0.91802502008E+02  0.21175004453E+03  0.12499504294E+03 0.  0.
          2    1    1    2  501    0  0.74813857173E+02  0.78196043660E+02 -0.12309756204E+04  0.12357235583E+04  0.00000000000E+00 0. -1.
          1    1    1    2  502    0 -0.42329050996E+02  0.62272310759E+02  0.41136813014E+03  0.41820249610E+03  0.00000000000E+00 0. -1.
         22    1    3    3    0    0 -0.50199395821E+02 -0.12187159073E+03 -0.17289105833E+02  0.13293448442E+03  0.00000000000E+00 0. -1.
         22    1    3    3    0    0  0.17714589644E+02 -0.18596763688E+02 -0.74513396176E+02  0.78815560111E+02  0.00000000000E+00 0. -1.
</event>
<event>
 7    1  0.5676357E-006  0.9300931E+02  0.7818608E-02  0.1335184E+00
          2   -1    0    0  502    0  0.00000000000E+00  0.00000000000E+00  0.30212822079E+03  0.30212822079E+03  0.00000000000E+00 0. -1.
          1   -1    0    0  501    0 -0.00000000000E+00 -0.00000000000E+00 -0.33254585622E+03  0.33254585622E+03  0.00000000000E+00 0. -1.
         25    2    1    2    0    0  0.37403343429E+02 -0.13871974445E+03 -0.53186925890E+02  0.19772684783E+03  0.12499951868E+03 0.  0.
          2    1    1    2  501    0  0.23775777166E+01  0.87051630773E+02 -0.19289437560E+03  0.21164092098E+03  0.00000000000E+00 0. -1.
          1    1    1    2  502    0 -0.39780921146E+02  0.51668113676E+02  0.21566366605E+03  0.22530630820E+03  0.00000000000E+00 0. -1.
         22    1    3    3    0    0 -0.25136308603E+02 -0.69876080348E+02 -0.71326146478E+02  0.10296562429E+03  0.00000000000E+00 0.  1.
         22    1    3    3    0    0  0.62539652032E+02 -0.68843664101E+02  0.18139220588E+02  0.94761223539E+02  0.00000000000E+00 0.  1.
</event>
<event>
 7    1  0.5676357E-006  0.9840147E+02  0.7818608E-02  0.1436810E+00
          2   -1    0    0  502    0  0.00000000000E+00  0.00000000000E+00  0.48758186010E+03  0.48758186010E+03  0.00000000000E+00 0. -1.
          1   -1    0    0  501    0 -0.00000000000E+00 -0.00000000000E+00 -0.23706696411E+04  0.23706696411E+04  0.00000000000E+00 0. -1.
         25    2    1    2    0    0  0.45605246807E+02  0.95784113126E+02 -0.72094203461E+03  0.73934912576E+03  0.12500111051E+03 0.  0.
          2    1    1    2  501    0 -0.18529507417E+02 -0.95871346387E+02 -0.16386864444E+04  0.16415931045E+04  0.00000000000E+00 0. -1.
          1    1    1    2  502    0 -0.27075739389E+02  0.87233260212E-01  0.47654069801E+03  0.47730927094E+03  0.00000000000E+00 0. -1.
         22    1    3    3    0    0  0.55751295581E+02  0.11784271615E+03 -0.48687549304E+03  0.50402664456E+03  0.00000000000E+00 0. -1.
         22    1    3    3    0    0 -0.10146048774E+02 -0.22058603022E+02 -0.23406654157E+03  0.23532248120E+03  0.00000000000E+00 0. -1.
</event>
<event>
 7    1  0.5676357E-006  0.7006183E+02  0.7818608E-02  0.1410054E+00
          2   -1    0    0  502    0  0.00000000000E+00  0.00000000000E+00  0.27165534079E+04  0.27165534079E+04  0.00000000000E+00 0. -1.
          1   -1    0    0  501    0 -0.00000000000E+00 -0.00000000000E+00 -0.86488569925E+01  0.86488569925E+01  0.00000000000E+00 0. -1.
         25    2    1    2    0    0 -0.30964047615E+02 -0.15540211108E+02  0.10143542300E+04  0.10226148055E+04  0.12500506367E+03 0.  0.
          2    1    1    2  501    0 -0.46664297835E+02  0.70920319203E+00  0.15178466452E+03  0.15879749382E+03  0.00000000000E+00 0. -1.
          1    1    1    2  502    0  0.77628345451E+02  0.14831007916E+02  0.15417656564E+04  0.15437899656E+04  0.00000000000E+00 0. -1.
         22    1    3    3    0    0  0.14545010302E+02  0.45773442612E+02  0.25939411213E+03  0.26380309092E+03  0.00000000000E+00 0. -1.
         22    1    3    3    0    0 -0.45509057917E+02 -0.61313653720E+02  0.75496011790E+03  0.75881171453E+03  0.00000000000E+00 0. -1.
</event>
<event>
 7    1  0.5676357E-006  0.1226062E+03  0.7818608E-02  0.1248997E+00
          2   -1    0    0  502    0  0.00000000000E+00  0.00000000000E+00  0.83564321646E+03  0.83564321646E+03  0.00000000000E+00 0. -1.
          1   -1    0    0  501    0 -0.00000000000E+00 -0.00000000000E+00 -0.47673951836E+03  0.47673951836E+03  0.00000000000E+00 0. -1.
         25    2    1    2    0    0  0.45986438130E+02  0.13234940779E+03 -0.20646803797E+03  0.27908122115E+03  0.12500463616E+03 0.  0.
          2    1    1    2  501    0  0.63051922947E+02 -0.11333087930E+03 -0.21176505470E+03  0.24832211255E+03  0.00000000000E+00 0. -1.
          1    1    1    2  502    0 -0.10903836108E+03 -0.19018528481E+02  0.77713679077E+03  0.78497940112E+03  0.00000000000E+00 0. -1.
         22    1    3    3    0    0 -0.19520632691E+01  0.11598643432E+03 -0.19538818505E+03  0.22722941349E+03  0.00000000000E+00 0. -1.
         22    1    3    3    0    0  0.47938501399E+02  0.16362973470E+02 -0.11079852918E+02  0.51851807662E+02  0.00000000000E+00 0. -1.
</event>
<event>
 7    1  0.5676357E-006  0.7977232E+02  0.7818608E-02  0.1403228E+00
          2   -1    0    0  502    0  0.00000000000E+00  0.00000000000E+00  0.23739342404E+03  0.23739342404E+03  0.00000000000E+00 0. -1.
          1   -1    0    0  501    0 -0.00000000000E+00 -0.00000000000E+00 -0.49986583675E+03  0.49986583675E+03  0.00000000000E+00 0. -1.
         25    2    1    2    0    0  0.12540907097E+02 -0.97636597445E+02 -0.41183633751E+03  0.44150223996E+03  0.12499951793E+03 0.  0.
          2    1    1    2  501    0  0.12676052485E+02  0.62508385083E+02 -0.56617877562E+02  0.85285195502E+02  0.00000000000E+00 0. -1.
          1    1    1    2  502    0 -0.25216959582E+02  0.35128212362E+02  0.20598180236E+03  0.21047182533E+03  0.00000000000E+00 0. -1.
         22    1    3    3    0    0 -0.35952248372E+02  0.12706309613E+02 -0.85434095634E+02  0.93557464501E+02  0.00000000000E+00 0.  1.
         22    1    3    3    0    0  0.48493155470E+02 -0.11034290706E+03 -0.32640224188E+03  0.34794477546E+03  0.00000000000E+00 0.  1.
</event>
<event>
 7    1  0.5676357E-006  0.6511850E+02  0.7818608E-02  0.1390923E+00
          2   -1    0    0  502    0  0.00000000000E+00  0.00000000000E+00  0.35535231613E+03  0.35535231613E+03  0.00000000000E+00 0. -1.
          1   -1    0    0  501    0 -0.00000000000E+00 -0.00000000000E+00 -0.22036083865E+03  0.22036083865E+03  0.00000000000E+00 0. -1.
         25    2    1    2    0    0  0.76637595323E+00 -0.11126177082E+02  0.17352259469E+03  0.21414911764E+03  0.12500149828E+03 0.  0.
          2    1    1    2  501    0 -0.44748082181E+02  0.49575361708E+02 -0.18884024131E+03  0.20030163276E+03  0.00000000000E+00 0. -1.
          1    1    1    2  502    0  0.43981706228E+02 -0.38449184626E+02  0.15030912410E+03  0.16126240439E+03  0.00000000000E+00 0. -1.
         22    1    3    3    0    0 -0.33786710780E+02  0.42319587541E+02  0.43773264926E+02  0.69631803346E+02  0.00000000000E+00 0. -1.
         22    1    3    3    0    0  0.34553086733E+02 -0.53445764622E+02  0.12974932976E+03  0.14451731430E+03  0.00000000000E+00 0. -1.
</event>
<event>
 7    1  0.5676357E-006  0.6491425E+02  0.7818608E-02  0.1500815E+00
          2   -1    0    0  502    0  0.00000000000E+00  0.00000000000E+00  0.51884709571E+03  0.51884709571E+03  0.00000000000E+00 0. -1.
          1   -1    0    0  501    0 -0.00000000000E+00 -0.00000000000E+00 -0.22108360679E+03  0.22108360679E+03  0.00000000000E+00 0. -1.
         25    2    1    2    0    0  0.39852222659E+02  0.19668847253E+01 -0.47444845732E+02  0.13951843220E+03  0.12498924454E+03 0.  0.
          2    1    1    2  501    0  0.25649256743E+02 -0.37698342793E+01 -0.12398450280E+03  0.12666591079E+03  0.00000000000E+00 0. -1.
          1    1    1    2  502    0 -0.65501479402E+02  0.18029495540E+01  0.46919283745E+03  0.47374635951E+03  0.00000000000E+00 0. -1.
         22    1    3    3    0    0  0.18791880043E+02 -0.35272807847E+02 -0.77524450552E+02  0.87220101825E+02  0.00000000000E+00 0.  1.
         22    1    3    3    0    0  0.21060342616E+02  0.37239692573E+02  0.30079604820E+02  0.52298330377E+02  0.00000000000E+00 0.  1.
</event>
<event>
 7    1  0.5676357E-006  0.6800986E+02  0.7818608E-02  0.1388809E+00
          2   -1    0    0  502    0  0.00000000000E+00  0.00000000000E+00  0.14807083944E+03  0.14807083944E+03  0.00000000000E+00 0. -1.
          1   -1    0    0  501    0 -0.00000000000E+00 -0.00000000000E+00 -0.18011376817E+04  0.18011376817E+04  0.00000000000E+00 0. -1.
         25    2    1    2    0    0 -0.34636659661E+02  0.43441478526E+01 -0.87553020354E+03  0.88509655182E+03  0.12499679564E+03 0.  0.
          2    1    1    2  501    0  0.74651697642E+02  0.36099042067E+02 -0.91322332220E+03  0.91698029042E+03  0.00000000000E+00 0. -1.
          1    1    1    2  502    0 -0.40015037981E+02 -0.40443189920E+02  0.13568668346E+03  0.14713167892E+03  0.00000000000E+00 0. -1.
         22    1    3    3    0    0  0.32768662078E+02  0.37917353284E+02 -0.24405852868E+03  0.24915071005E+03  0.00000000000E+00 0.  1.
         22    1    3    3    0    0 -0.67405321739E+02 -0.33573205431E+02 -0.63147167486E+03  0.63594584178E+03  0.00000000000E+00 0.  1.
</event>
<event>
 7    1  0.5676357E-006  0.9252442E+02  0.7818608E-02  0.1404020E+00
          2   -1    0    0  502    0  0.00000000000E+00  0.00000000000E+00  0.80772826124E+03  0.80772826124E+03  0.00000000000E+00 0. -1.
          1   -1    0    0  501    0 -0.00000000000E+00 -0.00000000000E+00 -0.79143533414E+03  0.79143533414E+03  0.00000000000E+00 0. -1.
         25    2    1    2    0    0 -0.29391041394E+02 -0.62210807474E+02  0.80841611660E+02  0.16399537320E+03  0.12500039350E+03 0.  0.
          2    1    1    2  501    0  0.18890567586E+02 -0.31872969452E+02 -0.74612725653E+03  0.74704660007E+03  0.00000000000E+00 0. -1.
          1    1    1    2  502    0  0.10500473808E+02  0.94083776927E+02  0.68157857198E+03  0.68812162210E+03  0.00000000000E+00 0. -1.
         22    1    3    3    0    0  0.44115397372E+02  0.58546517310E+00  0.13367235459E+02  0.46099826882E+02  0.00000000000E+00 0.  1.
         22    1    3    3    0    0 -0.73506438766E+02 -0.62796272647E+02  0.67474376201E+02  0.11789554632E+03  0.00000000000E+00 0.  1.
</event>
<event>
 7    1  0.5676357E-006  0.1067798E+03  0.7818608E-02  0.1377820E+00
          2   -1    0    0  502    0  0.00000000000E+00  0.00000000000E+00  0.16315638599E+04  0.16315638599E+04  0.00000000000E+00 0. -1.
          1   -1    0    0  501    0 -0.00000000000E+00 -0.00000000000E+00 -0.44766636833E+02  0.44766636833E+02  0.00000000000E+00 0. -1.
         25    2    1    2    0    0 -0.90835472862E+00 -0.14068685650E+03  0.84378925644E+03  0.86452201633E+03  0.12499756292E+03 0.  0.
          2    1    1    2  501    0 -0.11505091423E+02  0.10306546092E+03  0.45620127490E+02  0.11329630354E+03  0.00000000000E+00 0. -1.
          1    1    1    2  502    0  0.12413446151E+02  0.37621395576E+02  0.69738783910E+03  0.69851217682E+03  0.00000000000E+00 0. -1.
         22    1    3    3    0    0  0.29677655062E+02 -0.11815782583E+03  0.37713565471E+03  0.39632478735E+03  0.00000000000E+00 0.  1.
         22    1    3    3    0    0 -0.30586009791E+02 -0.22529030671E+02  0.46665360172E+03  0.46819722897E+03  0.00000000000E+00 0.  1.
</event>
<event>
 7    1  0.5676357E-006  0.1789341E+03  0.7818608E-02  0.1201986E+00
          2   -1    0    0  502    0  0.00000000000E+00  0.00000000000E+00  0.42845043461E+03  0.42845043461E+03  0.00000000000E+00 0. -1.
          1   -1    0    0  501    0 -0.00000000000E+00 -0.00000000000E+00 -0.10411364554E+04  0.10411364554E+04  0.00000000000E+00 0. -1.
         25    2    1    2    0    0 -0.84440548497E+02 -0.21577074770E+03 -0.27251843571E+03  0.37891680975E+03  0.12499771643E+03 0.  0.
          2    1    1    2  501    0  0.11666313423E+03  0.41126501309E+02 -0.68858238016E+03  0.69960515312E+03  0.00000000000E+00 0. -1.
          1    1    1    2  502    0 -0.32222585737E+02  0.17464424639E+03  0.34841479507E+03  0.39106492716E+03  0.00000000000E+00 0. -1.
         22    1    3    3    0    0 -0.14357230428E+02  0.15704071597E+02 -0.18769677041E+02  0.28373380245E+02  0.00000000000E+00 0.  1.
         22    1    3    3    0    0 -0.70083318069E+02 -0.23147481930E+03 -0.25374875867E+03  0.35054342950E+03  0.00000000000E+00 0.  1.
</event>
<event>
 7    1  0.5676357E-006  0.8494029E+02  0.7818608E-02  0.1426592E+00
          2   -1    0    0  502    0  0.00000000000E+00  0.00000000000E+00  0.53099040978E+03  0.53099040978E+03  0.00000000000E+00 0. -1.
          1   -1    0    0  501    0 -0.00000000000E+00 -0.00000000000E+00 -0.10972158704E+03  0.10972158704E+03  0.00000000000E+00 0. -1.
         25    2    1    2    0    0  0.66037423232E+01  0.70022819757E+02  0.21433968963E+01  0.14344747673E+03  0.12500311889E+03 0.  0.
          2    1    1    2  501    0  0.12840021807E+02 -0.97776203623E+02  0.25066924770E+02  0.10175167258E+03  0.00000000000E+00 0. -1.
          1    1    1    2  502    0 -0.19443764130E+02  0.27753383865E+02  0.39405850107E+03  0.39551284751E+03  0.00000000000E+00 0. -1.
         22    1    3    3    0    0 -0.38011407726E+02 -0.19178779335E+02  0.88485302667E+01  0.43485505424E+02  0.00000000000E+00 0.  1.
         22    1    3    3    0    0  0.44615150050E+02  0.89201599092E+02 -0.67051333704E+01  0.99961971309E+02  0.00000000000E+00 0.  1.
</event>
<event>
 7    1  0.5676357E-006  0.6851668E+02  0.7818608E-02  0.1512613E+00
          2   -1    0    0  502    0  0.00000000000E+00  0.00000000000E+00  0.27949253388E+04  0.27949253388E+04  0.00000000000E+00 0. -1.
          1   -1    0    0  501    0 -0.00000000000E+00 -0.00000000000E+00 -0.88094372107E+03  0.88094372107E+03  0.00000000000E+00 0. -1.
         25    2    1    2    0    0  0.25571969736E+02  0.38306550995E+02 -0.92758637910E+02  0.16232764125E+03  0.12499912288E+03 0.  0.
          2    1    1    2  501    0  0.14952560097E+02  0.17034274786E+02 -0.75280384139E+03  0.75314498550E+03  0.00000000000E+00 0. -1.
          1    1    1    2  502    0 -0.40524529834E+02 -0.55340825780E+02  0.27595440970E+04  0.27603964331E+04  0.00000000000E+00 0. -1.
         22    1    3    3    0    0  0.47167762570E+02  0.48158001735E+01  0.13122773808E+02  0.49195497249E+02  0.00000000000E+00 0. -1.
         22    1    3    3    0    0 -0.21595792834E+02  0.33490750821E+02 -0.10588141172E+03  0.11313214400E+03  0.00000000000E+00 0. -1.
</event>
<event>
 7    1  0.5676357E-006  0.1044634E+03  0.7818608E-02  0.1313358E+00
          2   -1    0    0  502    0  0.00000000000E+00  0.00000000000E+00  0.22941934120E+03  0.22941934120E+03  0.00000000000E+00 0. -1.
          1   -1    0    0  501    0 -0.00000000000E+00 -0.00000000000E+00 -0.13177337976E+04  0.13177337976E+04  0.00000000000E+00 0. -1.
         25    2    1    2    0    0 -0.84729646446E+02 -0.14252321949E+02  0.12716969432E+02  0.15221657705E+03  0.12500369335E+03 0.  0.
          2    1    1    2  501    0  0.62694371735E+01 -0.70188700526E+02 -0.12242108036E+04  0.12262372736E+04  0.00000000000E+00 0. -1.
          1    1    1    2  502    0  0.78460209273E+02  0.84441022475E+02  0.12317937777E+03  0.16869928815E+03  0.00000000000E+00 0. -1.
         22    1    3    3    0    0  0.25518742884E+02  0.17254155902E+02  0.20959516244E+02  0.37258736632E+02  0.00000000000E+00 0. -1.
         22    1    3    3    0    0 -0.11024838933E+03 -0.31506477851E+02 -0.82425468112E+01  0.11495784042E+03  0.00000000000E+00 0. -1.
</event>
<event>
 7    1  0.5676357E-006  0.6009213E+02  0.7818608E-02  0.1430838E+00
          2   -1    0    0  502    0  0.00000000000E+00  0.00000000000E+00  0.11985021824E+04  0.11985021824E+04  0.00000000000E+00 0. -1.
          1   -1    0    0  501    0 -0.00000000000E+00 -0.00000000000E+00 -0.70559794865E+03  0.70559794865E+03  0.00000000000E+00 0. -1.
         25    2    1    2    0    0 -0.44944509953E+02 -0.80301972064E+02  0.58848628151E+03  0.60861300063E+03  0.12500106128E+03 0.  0.
          2    1    1    2  501    0  0.39792706858E+02  0.23823092668E+02 -0.69341794093E+03  0.69496722230E+03  0.00000000000E+00 0. -1.
          1    1    1    2  502    0  0.51518030958E+01  0.56478879396E+02  0.59783589315E+03  0.60051990810E+03  0.00000000000E+00 0. -1.
         22    1    3    3    0    0  0.78163522673E+01 -0.98889440129E+02  0.36657341376E+03  0.37975819202E+03  0.00000000000E+00 0. -1.
         22    1    3    3    0    0 -0.52760862221E+02  0.18587468065E+02  0.22191286775E+03  0.22885480861E+03  0.00000000000E+00 0. -1.
</event>
<event>
 7    1  0.5676357E-006  0.3336516E+03  0.7818608E-02  0.1085589E+00
          2   -1    0    0  502    0  0.00000000000E+00  0.00000000000E+00  0.18730426816E+04  0.18730426816E+04  0.00000000000E+00 0. -1.
          1   -1    0    0  501    0 -0.00000000000E+00 -0.00000000000E+00 -0.10462689721E+04  0.10462689721E+04  0.00000000000E+00 0. -1.
         25    2    1    2    0    0 -0.23718735834E+03 -0.24167392032E+03 -0.18328637826E+03  0.40482564869E+03  0.12500313063E+03 0.  0.
          2    1    1    2  501    0  0.25030056231E+03 -0.97151274567E+02 -0.71117492614E+03  0.76017005809E+03  0.00000000000E+00 0. -1.
          1    1    1    2  502    0 -0.13113203972E+02  0.33882519489E+03  0.17212350138E+04  0.17543159469E+04  0.00000000000E+00 0. -1.
         22    1    3    3    0    0 -0.89872018601E+02 -0.21670606787E+02 -0.73878623204E+02  0.11834122651E+03  0.00000000000E+00 0. -1.
         22    1    3    3    0    0 -0.14731533974E+03 -0.22000331353E+03 -0.10940775505E+03  0.28648442218E+03  0.00000000000E+00 0. -1.
</event>
<event>
 7    1  0.5676357E-006  0.8919948E+02  0.7818608E-02  0.1321916E+00
          2   -1    0    0  502    0  0.00000000000E+00  0.00000000000E+00  0.89918597002E+03  0.89918597002E+03  0.00000000000E+00 0. -1.
          1   -1    0    0  501    0 -0.00000000000E+00 -0.00000000000E+00 -0.12794008919E+04  0.12794008919E+04  0.00000000000E+00 0. -1.
         25    2    1    2    0    0 -0.16038036086E+03 -0.28851522540E+02  0.25131483206E+03  0.32455878443E+03  0.12499995692E+03 0.  0.
          2    1    1    2  501    0  0.88777650458E+02  0.21178919450E+01 -0.12387940477E+04  0.12419728859E+04  0.00000000000E+00 0. -1.
          1    1    1    2  502    0  0.71602710401E+02  0.26733630595E+02  0.60726429373E+03  0.61205519162E+03  0.00000000000E+00 0. -1.
         22    1    3    3    0    0  0.20587797133E+01  0.15417928174E+02  0.90181974166E+02  0.91513603074E+02  0.00000000000E+00 0.  1.
         22    1    3    3    0    0 -0.16243914057E+03 -0.44269450715E+02  0.16113285790E+03  0.23304518135E+03  0.00000000000E+00 0.  1.
</event>
<event>
 7    1  0.5676357E-006  0.6443794E+02  0.7818608E-02  0.1396513E+00
          2   -1    0    0  502    0  0.00000000000E+00  0.00000000000E+00  0.58274337027E+03  0.58274337027E+03  0.00000000000E+00 0. -1.
          1   -1    0    0  501    0 -0.00000000000E+00 -0.00000000000E+00 -0.46466743961E+03  0.46466743961E+03  0.00000000000E+00 0. -1.
         25    2    1    2    0    0 -0.83901988275E+02 -0.21659256912E+01  0.14679942329E+03  0.21028481365E+03  0.12500158919E+03 0.  0.
          2    1    1    2  501    0  0.35059402856E+02  0.44251161705E+02 -0.42849031305E+03  0.43219356244E+03  0.00000000000E+00 0. -1.
          1    1    1    2  502    0  0.48842585419E+02 -0.42085236014E+02  0.39976682041E+03  0.40493243379E+03  0.00000000000E+00 0. -1.
         22    1    3    3    0    0 -0.81331173004E+02 -0.35511390656E+02  0.38139132098E+02  0.96594057611E+02  0.00000000000E+00 0.  1.
         22    1    3    3    0    0 -0.25708152710E+01  0.33345464965E+02  0.10866029120E+03  0.11369075603E+03  0.00000000000E+00 0.  1.
</event>
<event>
 7    1  0.5676357E-006  0.1014000E+03  0.7818608E-02  0.1472392E+00
          2   -1    0    0  502    0  0.00000000000E+00  0.00000000000E+00  0.12509520099E+03  0.12509520099E+03  0.00000000000E+00 0. -1.
          1   -1    0    0  501    0 -0.00000000000E+00 -0.00000000000E+00 -0.78006965114E+03  0.78006965114E+03  0.00000000000E+00 0. -1.
         25    2    1    2    0    0 -0.91668310712E+02 -0.56839872936E+02 -0.20147950959E+03  0.26048665868E+03  0.12500182487E+03 0.  0.
          2    1    1    2  501    0  0.17026619247E+02 -0.10961507796E+02 -0.52224228347E+03  0.52263473196E+03  0.00000000000E+00 0. -1.
          1    1    1    2  502    0  0.74641691465E+02  0.67801380732E+02  0.68747342906E+02  0.12204346148E+03  0.00000000000E+00 0. -1.
         22    1    3    3    0    0 -0.85431960201E+02 -0.93658112389E+02 -0.14299320936E+03  0.19109557756E+03  0.00000000000E+00 0. -1.
         22    1    3    3    0    0 -0.62363505114E+01  0.36818239452E+02 -0.58486300227E+02  0.69391081115E+02  0.00000000000E+00 0. -1.
</event>
<event>
 7    1  0.5676357E-006  0.4371696E+02  0.7818608E-02  0.1509432E+00
          2   -1    0    0  502    0  0.00000000000E+00  0.00000000000E+00  0.59825484139E+03  0.59825484139E+03  0.00000000000E+00 0. -1.
          1   -1    0    0  501    0 -0.00000000000E+00 -0.00000000000E+00 -0.22042479476E+04  0.22042479476E+04  0.00000000000E+00 0. -1.
         25    2    1    2    0    0  0.61866691468E+01 -0.23832068911E+02 -0.22849812487E+02  0.12943642530E+03  0.12500172751E+03 0.  0.
          2    1    1    2  501    0 -0.35039232996E+02 -0.94727403618E+01 -0.21270589970E+04  0.21273686698E+04  0.00000000000E+00 0. -1.
          1    1    1    2  502    0  0.28852563849E+02  0.33304809273E+02  0.54391570330E+03  0.54569769383E+03  0.00000000000E+00 0. -1.
         22    1    3    3    0    0  0.55511991547E+02  0.16976069624E+02  0.76012361238E+01  0.58545255453E+02  0.00000000000E+00 0. -1.
         22    1    3    3    0    0 -0.49325322400E+02 -0.40808138535E+02 -0.30451048611E+02  0.70891169846E+02  0.00000000000E+00 0. -1.
</event>
<event>
 7    1  0.5676357E-006  0.8964720E+02  0.7818608E-02  0.1394643E+00
          2   -1    0    0  502    0  0.00000000000E+00  0.00000000000E+00  0.16106884903E+03  0.16106884903E+03  0.00000000000E+00 0. -1.
          1   -1    0    0  501    0 -0.00000000000E+00 -0.00000000000E+00 -0.21798884215E+04  0.21798884215E+04  0.00000000000E+00 0. -1.
         25    2    1    2    0    0  0.52267241919E+02 -0.23993147185E+02 -0.20288404105E+03  0.24514152690E+03  0.12499959363E+03 0.  0.
          2    1    1    2  501    0 -0.66628064627E+02  0.62598582125E+02 -0.19517513467E+04  0.19538912971E+04  0.00000000000E+00 0. -1.
          1    1    1    2  502    0  0.14360822708E+02 -0.38605434940E+02  0.13581581530E+03  0.14192444652E+03  0.00000000000E+00 0. -1.
         22    1    3    3    0    0 -0.25357395405E+02 -0.48421437348E+02 -0.10001130435E+03  0.11397321656E+03  0.00000000000E+00 0. -1.
         22    1    3    3    0    0  0.77624637324E+02  0.24428290163E+02 -0.10287273671E+03  0.13116831034E+03  0.00000000000E+00 0. -1.
</event>
<event>
 7    1  0.5676357E-006  0.4527966E+02  0.7818608E-02  0.1490173E+00
          2   -1    0    0  502    0  0.00000000000E+00  0.00000000000E+00  0.58691253187E+02  0.58691253187E+02  0.00000000000E+00 0. -1.
          1   -1    0    0  501    0 -0.00000000000E+00 -0.00000000000E+00 -0.13772329201E+04  0.13772329201E+04  0.00000000000E+00 0. -1.
         25    2    1    2    0    0  0.11995952880E+02  0.37023998352E+02 -0.51575499550E+03  0.53211132831E+03  0.12499828397E+03 0.  0.
          2    1    1    2  501    0 -0.39995208517E+02 -0.85385800825E+00 -0.84237191506E+03  0.84332128460E+03  0.00000000000E+00 0. -1.
          1    1    1    2  502    0  0.27999255637E+02 -0.36170140344E+02  0.39585243613E+02  0.60491560409E+02  0.00000000000E+00 0. -1.
         22    1    3    3    0    0 -0.54897309216E+01 -0.45866638359E+02 -0.17917544710E+03  0.18503439275E+03  0.00000000000E+00 0.  1.
         22    1    3    3    0    0  0.17485683802E+02  0.82890636711E+02 -0.33657954840E+03  0.34707693556E+03  0.00000000000E+00 0.  1.
</event>
<event>
 7    1  0.5676357E-006  0.6368784E+02  0.7818608E-02  0.1453132E+00
          2   -1    0    0  502    0  0.00000000000E+00  0.00000000000E+00  0.15731509273E+04  0.15731509273E+04  0.00000000000E+00 0. -1.
          1   -1    0    0  501    0 -0.00000000000E+00 -0.00000000000E+00 -0.31007980371E+03  0.31007980371E+03  0.00000000000E+00 0. -1.
         25    2    1    2    0    0 -0.76685429702E+02  0.14963947449E+02  0.52021918925E+02  0.15635895410E+03  0.12504906088E+03 0.  0.
          2    1    1    2  501    0  0.49319017589E+02 -0.39957404132E+02 -0.25376796675E+03  0.26158581879E+03  0.00000000000E+00 0. -1.
          1    1    1    2  502    0  0.27366412113E+02  0.24993456683E+02  0.14648171714E+04  0.14652859581E+04  0.00000000000E+00 0. -1.
         22    1    3    3    0    0 -0.48795887017E+02  0.23450616750E+02 -0.35078483136E+02  0.64509456631E+02  0.00000000000E+00 0. -1.
         22    1    3    3    0    0 -0.27889542685E+02 -0.84866693009E+01  0.87100402061E+02  0.91849497473E+02  0.00000000000E+00 0. -1.
</event>
<event>
 7    1  0.5676357E-006  0.1275192E+03  0.7818608E-02  0.1268913E+00
          2   -1    0    0  502    0  0.00000000000E+00  0.00000000000E+00  0.34561651987E+04  0.34561651987E+04  0.00000000000E+00 0. -1.
          1   -1    0    0  501    0 -0.00000000000E+00 -0.00000000000E+00 -0.90382469977E+02  0.90382469977E+02  0.00000000000E+00 0. -1.
         25    2    1    2    0    0 -0.18119540297E+03 -0.29661993668E+02  0.23150476258E+03  0.32083134377E+03  0.12500675230E+03 0.  0.
          2    1    1    2  501    0  0.98773919215E+02  0.58958055307E+02  0.28240963707E+02  0.11844784267E+03  0.00000000000E+00 0. -1.
          1    1    1    2  502    0  0.82421483752E+02 -0.29296061639E+02  0.31060370025E+04  0.31072684823E+04  0.00000000000E+00 0. -1.
         22    1    3    3    0    0 -0.15282658296E+03 -0.53225896323E+02  0.23327244007E+03  0.28391018262E+03  0.00000000000E+00 0.  1.
         22    1    3    3    0    0 -0.28368820012E+02  0.23563902655E+02 -0.17676774877E+01  0.36921161153E+02  0.00000000000E+00 0.  1.
</event>
<event>
 7    1  0.5676357E-006  0.1329639E+03  0.7818608E-02  0.1239002E+00
          2   -1    0    0  502    0  0.00000000000E+00  0.00000000000E+00  0.11414393354E+04  0.11414393354E+04  0.00000000000E+00 0. -1.
          1   -1    0    0  501    0 -0.00000000000E+00 -0.00000000000E+00 -0.96007207479E+03  0.96007207479E+03  0.00000000000E+00 0. -1.
         25    2    1    2    0    0  0.42193332958E+02 -0.13517318230E+02  0.14471522663E+02  0.13340610105E+03  0.12499907036E+03 0.  0.
          2    1    1    2  501    0 -0.12594983573E+03 -0.62174223248E+02 -0.89210981574E+03  0.90309961715E+03  0.00000000000E+00 0. -1.
          1    1    1    2  502    0  0.83756502775E+02  0.75691541478E+02  0.10590055536E+04  0.10650056919E+04  0.00000000000E+00 0. -1.
         22    1    3    3    0    0  0.50680048849E+02 -0.63317147102E+02  0.93986054063E+00  0.81107409072E+02  0.00000000000E+00 0. -1.
         22    1    3    3    0    0 -0.84867158914E+01  0.49799828872E+02  0.13531662122E+02  0.52298691973E+02  0.00000000000E+00 0. -1.
</event>
<event>
 7    1  0.5676357E-006  0.5222770E+02  0.7818608E-02  0.1510277E+00
          2   -1    0    0  502    0  0.00000000000E+00  0.00000000000E+00  0.18092620752E+03  0.18092620752E+03  0.00000000000E+00 0. -1.
          1   -1    0    0  501    0 -0.00000000000E+00 -0.00000000000E+00 -0.16322600626E+04  0.16322600626E+04  0.00000000000E+00 0. -1.
         25    2    1    2    0    0 -0.36935010894E+02 -0.39832653834E+01 -0.68724699282E+03  0.69951018766E+03  0.12500404822E+03 0.  0.
          2    1    1    2  501    0  0.49600448645E+02 -0.23442209110E+02 -0.93676771119E+03  0.93837278647E+03  0.00000000000E+00 0. -1.
          1    1    1    2  502    0 -0.12665437751E+02  0.27425474493E+02  0.17268084897E+03  0.17530329594E+03  0.00000000000E+00 0. -1.
         22    1    3    3    0    0  0.35727432927E+02 -0.16816032357E+02 -0.97921311535E+02  0.10558319781E+03  0.00000000000E+00 0.  1.
         22    1    3    3    0    0 -0.72662443821E+02  0.12832766974E+02 -0.58932568128E+03  0.59392698985E+03  0.00000000000E+00 0.  1.
</event>
<event>
 7    1  0.5676357E-006  0.1944386E+03  0.7818608E-02  0.1330048E+00
          2   -1    0    0  502    0  0.00000000000E+00  0.00000000000E+00  0.25262340325E+03  0.25262340325E+03  0.00000000000E+00 0. -1.
          1   -1    0    0  501    0 -0.00000000000E+00 -0.00000000000E+00 -0.14000788774E+04  0.14000788774E+04  0.00000000000E+00 0. -1.
         25    2    1    2    0    0  0.17089033712E+03 -0.31403489952E+02 -0.25074372392E+03  0.32967714333E+03  0.12499966899E+03 0.  0.
          2    1    1    2  501    0 -0.19097097404E+03  0.57119973712E+02 -0.10996047106E+04  0.11175254467E+04  0.00000000000E+00 0. -1.
          1    1    1    2  502    0  0.20080636925E+02 -0.25716483760E+02  0.20289296035E+03  0.20549969070E+03  0.00000000000E+00 0. -1.
         22    1    3    3    0    0  0.96407109098E+02  0.35674351822E+02 -0.17898158314E+03  0.20640105902E+03  0.00000000000E+00 0. -1.
         22    1    3    3    0    0  0.74483228022E+02 -0.67077841774E+02 -0.71762140785E+02  0.12327608431E+03  0.00000000000E+00 0. -1.
</event>
<event>
 7    1  0.5676357E-006  0.1284425E+03  0.7818608E-02  0.1306946E+00
          2   -1    0    0  502    0  0.00000000000E+00  0.00000000000E+00  0.24281382947E+04  0.24281382947E+04  0.00000000000E+00 0. -1.
          1   -1    0    0  501    0 -0.00000000000E+00 -0.00000000000E+00 -0.43987935338E+02  0.43987935338E+02  0.00000000000E+00 0. -1.
         25    2    1    2    0    0 -0.14842769372E+03  0.45674876304E+02  0.56171310044E+03  0.59604097759E+03  0.12500506057E+03 0.  0.
          2    1    1    2  501    0  0.22627297646E+02 -0.56373505667E+02  0.12837857855E+02  0.62086853152E+02  0.00000000000E+00 0. -1.
          1    1    1    2  502    0  0.12580039607E+03  0.10698629363E+02  0.18095994010E+04  0.18139983993E+04  0.00000000000E+00 0. -1.
         22    1    3    3    0    0 -0.18884068741E+02  0.64735643030E+02  0.16378634921E+03  0.17712503979E+03  0.00000000000E+00 0.  1.
         22    1    3    3    0    0 -0.12954362498E+03 -0.19060766726E+02  0.39792675123E+03  0.41891593780E+03  0.00000000000E+00 0.  1.
</event>
<event>
 7    1  0.5676357E-006  0.3326468E+02  0.7818608E-02  0.1613056E+00
          2   -1    0    0  502    0  0.00000000000E+00  0.00000000000E+00  0.12576170056E+04  0.12576170056E+04  0.00000000000E+00 0. -1.
          1   -1    0    0  501    0 -0.00000000000E+00 -0.00000000000E+00 -0.68777460261E+03  0.68777460261E+03  0.00000000000E+00 0. -1.
         25    2    1    2    0    0 -0.30174916946E+02  0.12662468385E+02  0.66781490484E+03  0.68020078832E+03  0.12500200633E+03 0.  0.
          2    1    1    2  501    0  0.13111058640E+02 -0.30578242528E+02 -0.68091308104E+03  0.68172542325E+03  0.00000000000E+00 0. -1.
          1    1    1    2  502    0  0.17063858306E+02  0.17915774143E+02  0.58294057922E+03  0.58346539668E+03  0.00000000000E+00 0. -1.
         22    1    3    3    0    0  0.59262449483E+01 -0.28958331609E+02  0.54255006104E+03  0.54335464854E+03  0.00000000000E+00 0. -1.
         22    1    3    3    0    0 -0.36101161894E+02  0.41620799994E+02  0.12526484380E+03  0.13684613979E+03  0.00000000000E+00 0. -1.
</event>
<event>
 7    1  0.5676357E-006  0.6358930E+02  0.7818608E-02  0.1395548E+00
          2   -1    0    0  502    0  0.00000000000E+00  0.00000000000E+00  0.11873562919E+04  0.11873562919E+04  0.00000000000E+00 0. -1.
          1   -1    0    0  501    0 -0.00000000000E+00 -0.00000000000E+00 -0.16806655750E+03  0.16806655750E+03  0.00000000000E+00 0. -1.
         25    2    1    2    0    0  0.34083739964E+02  0.93985096599E+02  0.10316863863E+02  0.16040717449E+03  0.12501649585E+03 0.  0.
          2    1    1    2  501    0  0.16103977711E+02 -0.55356372268E+02 -0.83082446039E+02  0.10112546113E+03  0.00000000000E+00 0. -1.
          1    1    1    2  502    0 -0.50187717674E+02 -0.38628724332E+02  0.10920553166E+04  0.10938902138E+04  0.00000000000E+00 0. -1.
         22    1    3    3    0    0 -0.18276623679E+02  0.10103866902E+03  0.24787527726E+02  0.10562797518E+03  0.00000000000E+00 0.  1.
         22    1    3    3    0    0  0.52360363643E+02 -0.70535724168E+01 -0.14470663863E+02  0.54779199312E+02  0.00000000000E+00 0.  1.
</event>
<event>
 7    1  0.5676357E-006  0.8466620E+02  0.7818608E-02  0.1412994E+00
          2   -1    0    0  502    0  0.00000000000E+00  0.00000000000E+00  0.63889355261E+03  0.63889355261E+03  0.00000000000E+00 0. -1.
          1   -1    0    0  501    0 -0.00000000000E+00 -0.00000000000E+00 -0.36680043987E+02  0.36680043987E+02  0.00000000000E+00 0. -1.
         25    2    1    2    0    0 -0.24226204323E+02  0.50104919344E+02  0.21726291440E+03  0.25676033273E+03  0.12500113028E+03 0.  0.
          2    1    1    2  501    0 -0.13668422491E+02  0.35183606326E+02  0.21222298183E+02  0.43302400253E+02  0.00000000000E+00 0. -1.
          1    1    1    2  502    0  0.37894626814E+02 -0.85288525671E+02  0.36372829603E+03  0.37551086361E+03  0.00000000000E+00 0. -1.
         22    1    3    3    0    0 -0.52783277098E+02 -0.22822427839E+02  0.10758462350E+03  0.12198929775E+03  0.00000000000E+00 0.  1.
         22    1    3    3    0    0  0.28557072775E+02  0.72927347183E+02  0.10967829091E+03  0.13477103498E+03  0.00000000000E+00 0.  1.
</event>
<event>
 7    1  0.5676357E-006  0.7501676E+02  0.7818608E-02  0.1379854E+00
          2   -1    0    0  502    0  0.00000000000E+00  0.00000000000E+00  0.79882204262E+03  0.79882204262E+03  0.00000000000E+00 0. -1.
          1   -1    0    0  501    0 -0.00000000000E+00 -0.00000000000E+00 -0.97049124427E+03  0.97049124427E+03  0.00000000000E+00 0. -1.
         25    2    1    2    0    0 -0.25732290111E+02 -0.12450778764E+03 -0.11123096410E+02  0.17863850706E+03  0.12499461186E+03 0.  0.
          2    1    1    2  501    0  0.22774034962E+02  0.50569889649E+02 -0.87281355998E+03  0.87457388533E+03  0.00000000000E+00 0. -1.
          1    1    1    2  502    0  0.29582551493E+01  0.73937897993E+02  0.71226745474E+03  0.71610089451E+03  0.00000000000E+00 0. -1.
         22    1    3    3    0    0 -0.32010956094E+02 -0.20327961261E+01  0.35129768830E+02  0.47570308262E+02  0.00000000000E+00 0.  1.
         22    1    3    3    0    0  0.62786659829E+01 -0.12247499152E+03 -0.46252865240E+02  0.13106819880E+03  0.00000000000E+00 0.  1.
</event>
<event>
 7    1  0.5676357E-006  0.8230237E+02  0.7818608E-02  0.1369834E+00
          2   -1    0    0  502    0  0.00000000000E+00  0.00000000000E+00  0.36295276704E+04  0.36295276704E+04  0.00000000000E+00 0. -1.
          1   -1    0    0  501    0 -0.00000000000E+00 -0.00000000000E+00 -0.20913611890E+02  0.20913611890E+02  0.00000000000E+00 0. -1.
         25    2    1    2    0    0  0.55275743289E+02 -0.49281221813E+02  0.83967919825E+03  0.85215596515E+03  0.12499834540E+03 0.  0.
          2    1    1    2  501    0 -0.42606147039E+02 -0.34607832393E+02  0.39725662024E+02  0.67757760085E+02  0.00000000000E+00 0. -1.
          1    1    1    2  502    0 -0.12669596250E+02  0.83889054206E+02  0.27292091982E+04  0.27305275571E+04  0.00000000000E+00 0. -1.
         22    1    3    3    0    0  0.26336328478E+02 -0.24799204910E+02  0.78379250660E+03  0.78462685154E+03  0.00000000000E+00 0.  1.
         22    1    3    3    0    0  0.28939414812E+02 -0.24482016903E+02  0.55886691653E+02  0.67529113612E+02  0.00000000000E+00 0.  1.
</event>
<event>
 7    1  0.5676357E-006  0.1048995E+03  0.7818608E-02  0.1287685E+00
          2   -1    0    0  502    0  0.00000000000E+00  0.00000000000E+00  0.97967097193E+03  0.97967097193E+03  0.00000000000E+00 0. -1.
          1   -1    0    0  501    0 -0.00000000000E+00 -0.00000000000E+00 -0.34832491906E+04  0.34832491906E+04  0.00000000000E+00 0. -1.
         25    2    1    2    0    0  0.64544336541E+02 -0.63430331175E+02 -0.40622035549E+03  0.43454567472E+03  0.12500235162E+03 0.  0.
          2    1    1    2  501    0 -0.78969631944E+02 -0.40822298146E+02 -0.30593505125E+04  0.30606417989E+04  0.00000000000E+00 0. -1.
          1    1    1    2  502    0  0.14425295403E+02  0.10425262932E+03  0.96199264932E+03  0.96773268893E+03  0.00000000000E+00 0. -1.
         22    1    3    3    0    0  0.84702262090E+02  0.11649504521E+01 -0.25941960554E+03  0.27289991215E+03  0.00000000000E+00 0. -1.
         22    1    3    3    0    0 -0.20157925549E+02 -0.64595281627E+02 -0.14680074995E+03  0.16164576257E+03  0.00000000000E+00 0. -1.
</event>
<event>
 7    1  0.5676357E-006  0.6757464E+02  0.7818608E-02  0.1480909E+00
          2   -1    0    0  502    0  0.00000000000E+00  0.00000000000E+00  0.99433630194E+02  0.99433630194E+02  0.00000000000E+00 0. -1.
          1   -1    0    0  501    0 -0.00000000000E+00 -0.00000000000E+00 -0.14886856994E+04  0.14886856994E+04  0.00000000000E+00 0. -1.
         25    2    1    2    0    0  0.17364831974E+02  0.43032145834E+02 -0.21715799394E+03  0.25482511986E+03  0.12499977765E+03 0.  0.
          2    1    1    2  501    0 -0.45396100830E+01 -0.68599776672E+02 -0.12491810077E+04  0.12510714318E+04  0.00000000000E+00 0. -1.
          1    1    1    2  502    0 -0.12825221891E+02  0.25567630837E+02  0.77086932435E+02  0.82222777960E+02  0.00000000000E+00 0. -1.
         22    1    3    3    0    0  0.19515781587E+02 -0.42399163755E+02 -0.60951336512E+02  0.76769917550E+02  0.00000000000E+00 0. -1.
         22    1    3    3    0    0 -0.21509496126E+01  0.85431309589E+02 -0.15620665743E+03  0.17805520231E+03  0.00000000000E+00 0. -1.
</event>
<event>
 7    1  0.5676357E-006  0.5950840E+02  0.7818608E-02  0.1405440E+00
          2   -1    0    0  502    0  0.00000000000E+00  0.00000000000E+00  0.10971997275E+04  0.10971997275E+04  0.00000000000E+00 0. -1.
          1   -1    0    0  501    0 -0.00000000000E+00 -0.00000000000E+00 -0.43403599376E+02  0.43403599376E+02  0.00000000000E+00 0. -1.
         25    2    1    2    0    0  0.28741149142E+02  0.28175264459E+02  0.21528579151E+03  0.25217621083E+03  0.12499988040E+03 0.  0.
          2    1    1    2  501    0 -0.59859781434E+02  0.22548303700E+02  0.18956405054E+02  0.66715550853E+02  0.00000000000E+00 0. -1.
          1    1    1    2  502    0  0.31118632292E+02 -0.50723568159E+02  0.81955393152E+03  0.82171156516E+03  0.00000000000E+00 0. -1.
         22    1    3    3    0    0  0.34567011296E+02  0.43784555403E+02  0.24946081709E+02  0.61108694589E+02  0.00000000000E+00 0.  1.
         22    1    3    3    0    0 -0.58258621540E+01 -0.15609290944E+02  0.19033970980E+03  0.19106751624E+03  0.00000000000E+00 0.  1.
</event>
<event>
 7    1  0.5676357E-006  0.1170153E+03  0.7818608E-02  0.1340123E+00
          2   -1    0    0  502    0  0.00000000000E+00  0.00000000000E+00  0.10329690821E+04  0.10329690821E+04  0.00000000000E+00 0. -1.
          1   -1    0    0  501    0 -0.00000000000E+00 -0.00000000000E+00 -0.50450021220E+03  0.50450021220E+03  0.00000000000E+00 0. -1.
         25    2    1    2    0    0  0.86670752713E+02  0.10074878890E+03  0.22936511596E+03  0.29307909869E+03  0.12499945531E+03 0.  0.
          2    1    1    2  501    0 -0.48853883534E+02  0.88677225514E+01 -0.46696394504E+03  0.46959627811E+03  0.00000000000E+00 0. -1.
          1    1    1    2  502    0 -0.37816869179E+02 -0.10961651145E+03  0.76606769897E+03  0.77479391749E+03  0.00000000000E+00 0. -1.
         22    1    3    3    0    0  0.67493857030E+02  0.13040309733E+03  0.17804169717E+03  0.23077962315E+03  0.00000000000E+00 0. -1.
         22    1    3    3    0    0  0.19176895683E+02 -0.29654308424E+02  0.51323418791E+02  0.62299475540E+02  0.00000000000E+00 0. -1.
</event>
<event>
 7    1  0.5676357E-006  0.1439582E+03  0.7818608E-02  0.1229789E+00
          2   -1    0    0  502    0  0.00000000000E+00  0.00000000000E+00  0.24900419211E+04  0.24900419211E+04  0.00000000000E+00 0. -1.
          1   -1    0    0  501    0 -0.00000000000E+00 -0.00000000000E+00 -0.40857283726E+03  0.40857283726E+03  0.00000000000E+00 0. -1.
         25    2    1    2    0    0 -0.81725082966E+02  0.22990345958E+03  0.50970448095E+03  0.57875587220E+03  0.12500044714E+03 0.  0.
          2    1    1    2  501    0  0.75669537176E+01 -0.11434484730E+03 -0.36277936934E+03  0.38044825366E+03  0.00000000000E+00 0. -1.
          1    1    1    2  502    0  0.74158129248E+02 -0.11555861227E+03  0.19345439722E+04  0.19394106325E+04  0.00000000000E+00 0. -1.
         22    1    3    3    0    0  0.73523082125E+01  0.90173077647E+01 -0.41787906625E+01  0.12362466048E+02  0.00000000000E+00 0. -1.
         22    1    3    3    0    0 -0.89077391179E+02  0.22088615181E+03  0.51388327161E+03  0.56639340615E+03  0.00000000000E+00 0. -1.
</event>
<event>
 7    1  0.5676357E-006  0.5986322E+02  0.7818608E-02  0.1435612E+00
          2   -1    0    0  502    0  0.00000000000E+00  0.00000000000E+00  0.78440163403E+03  0.78440163403E+03  0.00000000000E+00 0. -1.
          1   -1    0    0  501    0 -0.00000000000E+00 -0.00000000000E+00 -0.10704848233E+04  0.10704848233E+04  0.00000000000E+00 0. -1.
         25    2    1    2    0    0  0.94464134002E+02  0.24896853737E+01  0.26147609269E+02  0.15886598659E+03  0.12500013232E+03 0.  0.
          2    1    1    2  501    0 -0.38713800298E+02 -0.22761309337E+02 -0.10023504135E+04  0.10033559622E+04  0.00000000000E+00 0. -1.
          1    1    1    2  502    0 -0.55750333704E+02  0.20271623964E+02  0.69011961493E+03  0.69266450852E+03  0.00000000000E+00 0. -1.
         22    1    3    3    0    0  0.95803390836E+02  0.49259893147E+02  0.30263403569E+02  0.11189593542E+03  0.00000000000E+00 0.  1.
         22    1    3    3    0    0 -0.13392568338E+01 -0.46770207773E+02 -0.41157943005E+01  0.46970051168E+02  0.00000000000E+00 0.  1.
</event>
<event>
 7    1  0.5676357E-006  0.9567112E+02  0.7818608E-02  0.1363933E+00
          2   -1    0    0  502    0  0.00000000000E+00  0.00000000000E+00  0.15827616011E+04  0.15827616011E+04  0.00000000000E+00 0. -1.
          1   -1    0    0  501    0 -0.00000000000E+00 -0.00000000000E+00 -0.38236835660E+03  0.38236835660E+03  0.00000000000E+00 0. -1.
         25    2    1    2    0    0 -0.25177895046E+02 -0.11198220896E+03  0.59013697297E+02  0.17967039141E+03  0.12499956624E+03 0.  0.
          2    1    1    2  501    0 -0.33426338671E+02  0.36639164447E+02 -0.31856271228E+03  0.32240029489E+03  0.00000000000E+00 0. -1.
          1    1    1    2  502    0  0.58604233717E+02  0.75343044516E+02  0.14599422595E+04  0.14630592714E+04  0.00000000000E+00 0. -1.
         22    1    3    3    0    0  0.31669313865E+02 -0.76721978533E+02  0.73907945564E+02  0.11113771569E+03  0.00000000000E+00 0. -1.
         22    1    3    3    0    0 -0.56847208910E+02 -0.35260230430E+02 -0.14894248267E+02  0.68532675727E+02  0.00000000000E+00 0. -1.
</event>
<event>
 7    1  0.5676357E-006  0.7624744E+02  0.7818608E-02  0.1438643E+00
          2   -1    0    0  502    0  0.00000000000E+00  0.00000000000E+00  0.46000760592E+04  0.46000760592E+04  0.00000000000E+00 0. -1.
          1   -1    0    0  501    0 -0.00000000000E+00 -0.00000000000E+00 -0.56308277525E+01  0.56308277525E+01  0.00000000000E+00 0. -1.
         25    2    1    2    0    0 -0.51226170598E+02  0.69355637346E+02  0.36183896755E+04  0.36215745992E+04  0.12499763379E+03 0.  0.
          2    1    1    2  501    0 -0.89855149781E+01 -0.33274118588E+02  0.11086582003E+03  0.11609968346E+03  0.00000000000E+00 0. -1.
          1    1    1    2  502    0  0.60211685576E+02 -0.36081518758E+02  0.86518973588E+03  0.86803260431E+03  0.00000000000E+00 0. -1.
         22    1    3    3    0    0 -0.43296019639E+02  0.32405581824E+02  0.33600686031E+04  0.33605037844E+04  0.00000000000E+00 0. -1.
         22    1    3    3    0    0 -0.79301509594E+01  0.36950055523E+02  0.25832107237E+03  0.26107081478E+03  0.00000000000E+00 0. -1.
</event>
<event>
 7    1  0.5676357E-006  0.3278965E+02  0.7818608E-02  0.1614613E+00
          2   -1    0    0  502    0  0.00000000000E+00  0.00000000000E+00  0.13364511434E+04  0.13364511434E+04  0.00000000000E+00 0. -1.
          1   -1    0    0  501    0 -0.00000000000E+00 -0.00000000000E+00 -0.80807091396E+03  0.80807091396E+03  0.00000000000E+00 0. -1.
         25    2    1    2    0    0 -0.28510305091E+01 -0.38659745759E+02 -0.35355864842E+03  0.37700307984E+03  0.12499960007E+03 0.  0.
          2    1    1    2  501    0  0.22771220702E+02  0.23769743742E+02 -0.44206134517E+03  0.44328519275E+03  0.00000000000E+00 0. -1.
          1    1    1    2  502    0 -0.19920190193E+02  0.14890002017E+02  0.13240002231E+04  0.13242337848E+04  0.00000000000E+00 0. -1.
         22    1    3    3    0    0 -0.29295605975E+02 -0.54211343851E+02 -0.76407169392E+02  0.98158839979E+02  0.00000000000E+00 0. -1.
         22    1    3    3    0    0  0.26444575466E+02  0.15551598092E+02 -0.27715147903E+03  0.27884423986E+03  0.00000000000E+00 0. -1.
</event>
<event>
 7    1  0.5676357E-006  0.9917248E+02  0.7818608E-02  0.1341787E+00
          2   -1    0    0  502    0  0.00000000000E+00  0.00000000000E+00  0.18436080972E+04  0.18436080972E+04  0.00000000000E+00 0. -1.
          1   -1    0    0  501    0 -0.00000000000E+00 -0.00000000000E+00 -0.20246797851E+03  0.20246797851E+03  0.00000000000E+00 0. -1.
         25    2    1    2    0    0  0.70684288071E+02  0.56221478623E+02  0.65755947944E+03  0.67540315604E+03  0.12501132330E+03 0.  0.
          2    1    1    2  501    0  0.33629166357E+02 -0.46945865737E+02 -0.18684800691E+03  0.19556843515E+03  0.00000000000E+00 0. -1.
          1    1    1    2  502    0 -0.10431345443E+03 -0.92756128857E+01  0.11704286461E+04  0.11751044845E+04  0.00000000000E+00 0. -1.
         22    1    3    3    0    0  0.96058438632E+02  0.47633085433E+02  0.33515698676E+03  0.35188967054E+03  0.00000000000E+00 0. -1.
         22    1    3    3    0    0 -0.25374150561E+02  0.85883931900E+01  0.32240249268E+03  0.32351348550E+03  0.00000000000E+00 0. -1.
</event>
<event>
 7    1  0.5676357E-006  0.2169440E+03  0.7818608E-02  0.1361946E+00
          2   -1    0    0  502    0  0.00000000000E+00  0.00000000000E+00  0.14289912774E+04  0.14289912774E+04  0.00000000000E+00 0. -1.
          1   -1    0    0  501    0 -0.00000000000E+00 -0.00000000000E+00 -0.14360339771E+04  0.14360339771E+04  0.00000000000E+00 0. -1.
         25    2    1    2    0    0  0.18150514139E+03  0.79748154583E+02  0.27368037184E+03  0.36032111822E+03  0.12500591103E+03 0.  0.
          2    1    1    2  501    0 -0.20351768817E+03 -0.76589597190E+02 -0.13841128842E+04  0.14010902512E+04  0.00000000000E+00 0. -1.
          1    1    1    2  502    0  0.22012546778E+02 -0.31585573924E+01  0.11033898127E+04  0.11036138851E+04  0.00000000000E+00 0. -1.
         22    1    3    3    0    0  0.11496053788E+03  0.69880424515E+02  0.25841672251E+03  0.29133898036E+03  0.00000000000E+00 0.  1.
         22    1    3    3    0    0  0.66544603512E+02  0.98677300673E+01  0.15263649326E+02  0.68982137862E+02  0.00000000000E+00 0.  1.
</event>
<event>
 7    1  0.5676357E-006  0.1775656E+03  0.7818608E-02  0.1289190E+00
          2   -1    0    0  502    0  0.00000000000E+00  0.00000000000E+00  0.88956203710E+03  0.88956203710E+03  0.00000000000E+00 0. -1.
          1   -1    0    0  501    0 -0.00000000000E+00 -0.00000000000E+00 -0.22185785711E+03  0.22185785711E+03  0.00000000000E+00 0. -1.
         25    2    1    2    0    0  0.42113836317E+02  0.20444166997E+03  0.13279772244E+03  0.27718261849E+03  0.12499998911E+03 0.  0.
          2    1    1    2  501    0 -0.41388584946E+02 -0.31115144745E+02 -0.13378044600E+03  0.14345164665E+03  0.00000000000E+00 0. -1.
          1    1    1    2  502    0 -0.72525137073E+00 -0.17332652523E+03  0.66868690355E+03  0.69078562906E+03  0.00000000000E+00 0. -1.
         22    1    3    3    0    0  0.44616818545E+02  0.26004294533E+02  0.72102238806E+02  0.88688311925E+02  0.00000000000E+00 0. -1.
         22    1    3    3    0    0 -0.25029822281E+01  0.17843737544E+03  0.60695483632E+02  0.18849430656E+03  0.00000000000E+00 0. -1.
</event>
<event>
 7    1  0.5676357E-006  0.5647024E+02  0.7818608E-02  0.1507824E+00
          2   -1    0    0  502    0  0.00000000000E+00  0.00000000000E+00  0.68928923761E+03  0.68928923761E+03  0.00000000000E+00 0. -1.
          1   -1    0    0  501    0 -0.00000000000E+00 -0.00000000000E+00 -0.84337877794E+02  0.84337877794E+02  0.00000000000E+00 0. -1.
         25    2    1    2    0    0 -0.23672954995E+02 -0.54839608522E+02  0.85711974526E+02  0.16290753434E+03  0.12499812281E+03 0.  0.
          2    1    1    2  501    0  0.28365044639E+02 -0.15665713043E+01 -0.39757757801E+02  0.48864191474E+02  0.00000000000E+00 0. -1.
          1    1    1    2  502    0 -0.46920896441E+01  0.56406179826E+02  0.55899714309E+03  0.56185538959E+03  0.00000000000E+00 0. -1.
         22    1    3    3    0    0 -0.74417841192E+02 -0.20833867456E+02  0.51886221092E+02  0.93081926602E+02  0.00000000000E+00 0.  1.
         22    1    3    3    0    0  0.50744886197E+02 -0.34005741066E+02  0.33825753433E+02  0.69825607737E+02  0.00000000000E+00 0.  1.
</event>
<event>
 7    1  0.5676357E-006  0.4353239E+02  0.7818608E-02  0.1526635E+00
          2   -1    0    0  502    0  0.00000000000E+00  0.00000000000E+00  0.28949783222E+04  0.28949783222E+04  0.00000000000E+00 0. -1.
          1   -1    0    0  501    0 -0.00000000000E+00 -0.00000000000E+00 -0.30544111808E+02  0.30544111808E+02  0.00000000000E+00 0. -1.
         25    2    1    2    0    0 -0.49571996154E+02  0.39460110210E+02  0.47823127302E+03  0.49834173970E+03  0.12499942372E+03 0.  0.
          2    1    1    2  501    0  0.32478656608E+02  0.31143497584E+00 -0.72966616889E+01  0.33289659034E+02  0.00000000000E+00 0. -1.
          1    1    1    2  502    0  0.17093339546E+02 -0.39771545186E+02  0.23934995991E+04  0.23938910353E+04  0.00000000000E+00 0. -1.
         22    1    3    3    0    0 -0.60234275726E+02  0.72519817395E+02  0.42073231854E+03  0.43116467359E+03  0.00000000000E+00 0.  1.
         22    1    3    3    0    0  0.10662279572E+02 -0.33059707185E+02  0.57498954481E+02  0.67177066110E+02  0.00000000000E+00 0.  1.
</event>
<event>
 7    1  0.5676357E-006  0.5169761E+02  0.7818608E-02  0.1518247E+00
          2   -1    0    0  502    0  0.00000000000E+00  0.00000000000E+00  0.38547024596E+03  0.38547024596E+03  0.00000000000E+00 0. -1.
          1   -1    0    0  501    0 -0.00000000000E+00 -0.00000000000E+00 -0.96049169137E+02  0.96049169137E+02  0.00000000000E+00 0. -1.
         25    2    1    2    0    0 -0.61157457785E+02 -0.15423603366E+02  0.16511945199E+03  0.21648107266E+03  0.12498599606E+03 0.  0.
          2    1    1    2  501    0  0.11422470674E+02  0.26571526384E+02 -0.63855383514E+02  0.70100134482E+02  0.00000000000E+00 0. -1.
          1    1    1    2  502    0  0.49734987111E+02 -0.11147923018E+02  0.18815700834E+03  0.19493820795E+03  0.00000000000E+00 0. -1.
         22    1    3    3    0    0 -0.10669893540E+02  0.52062356847E+02  0.84673612286E+02  0.99969776663E+02  0.00000000000E+00 0. -1.
         22    1    3    3    0    0 -0.50487564245E+02 -0.67485960213E+02  0.80445839705E+02  0.11651129600E+03  0.00000000000E+00 0. -1.
</event>
<event>
 7    1  0.5676357E-006  0.2301928E+03  0.7818608E-02  0.1209122E+00
          2   -1    0    0  502    0  0.00000000000E+00  0.00000000000E+00  0.15984197509E+03  0.15984197509E+03  0.00000000000E+00 0. -1.
          1   -1    0    0  501    0 -0.00000000000E+00 -0.00000000000E+00 -0.13279814823E+04  0.13279814823E+04  0.00000000000E+00 0. -1.
         25    2    1    2    0    0 -0.44515423470E+02  0.16488142155E+03 -0.25036419452E+03  0.32783294244E+03  0.12499880861E+03 0.  0.
          2    1    1    2  501    0  0.32450340405E+02 -0.25311010392E+03 -0.10040690402E+04  0.10359886036E+04  0.00000000000E+00 0. -1.
          1    1    1    2  502    0  0.12065083065E+02  0.88228682371E+02  0.86293727483E+02  0.12400191138E+03  0.00000000000E+00 0. -1.
         22    1    3    3    0    0  0.21280710340E+02  0.13784366301E+03 -0.18069596325E+03  0.22826470424E+03  0.00000000000E+00 0. -1.
         22    1    3    3    0    0 -0.65796133811E+02  0.27037758536E+02 -0.69668231267E+02  0.99568238204E+02  0.00000000000E+00 0. -1.
</event>
<event>
 7    1  0.5676357E-006  0.1399300E+03  0.7818608E-02  0.1306146E+00
          2   -1    0    0  502    0  0.00000000000E+00  0.00000000000E+00  0.88201088668E+03  0.88201088668E+03  0.00000000000E+00 0. -1.
          1   -1    0    0  501    0 -0.00000000000E+00 -0.00000000000E+00 -0.11376783557E+04  0.11376783557E+04  0.00000000000E+00 0. -1.
         25    2    1    2    0    0 -0.17485864724E+03 -0.48206509244E+02 -0.14950828855E+03  0.26622934470E+03  0.12500368629E+03 0.  0.
          2    1    1    2  501    0  0.12089372891E+03  0.63778831489E+02 -0.92381755827E+03  0.93387467789E+03  0.00000000000E+00 0. -1.
          1    1    1    2  502    0  0.53964918330E+02 -0.15572322245E+02  0.81765837782E+03  0.81958521976E+03  0.00000000000E+00 0. -1.
         22    1    3    3    0    0 -0.71060234225E+02 -0.23168218928E+02 -0.14041379729E+03  0.15906714848E+03  0.00000000000E+00 0. -1.
         22    1    3    3    0    0 -0.10379841302E+03 -0.25038290317E+02 -0.90944912576E+01  0.10716219622E+03  0.00000000000E+00 0. -1.
</event>
<event>
 7    1  0.5676357E-006  0.7410815E+02  0.7818608E-02  0.1360364E+00
          2   -1    0    0  502    0  0.00000000000E+00  0.00000000000E+00  0.56772957212E+03  0.56772957212E+03  0.00000000000E+00 0. -1.
          1   -1    0    0  501    0 -0.00000000000E+00 -0.00000000000E+00 -0.30178432873E+03  0.30178432873E+03  0.00000000000E+00 0. -1.
         25    2    1    2    0    0 -0.47593875151E+01  0.24957753557E+02 -0.62541117064E+02  0.14205560897E+03  0.12499145364E+03 0.  0.
          2    1    1    2  501    0 -0.29491216915E+02 -0.81338951110E+02 -0.18790655962E+03  0.20686863462E+03  0.00000000000E+00 0. -1.
          1    1    1    2  502    0  0.34250604430E+02  0.56381197553E+02  0.51639292007E+03  0.52058965725E+03  0.00000000000E+00 0. -1.
         22    1    3    3    0    0 -0.37964872528E+02 -0.39625648260E+02 -0.24941143750E+02  0.60279218621E+02  0.00000000000E+00 0. -1.
         22    1    3    3    0    0  0.33205485013E+02  0.64583401817E+02 -0.37599973314E+02  0.81776390348E+02  0.00000000000E+00 0. -1.
</event>
<event>
 7    1  0.5676357E-006  0.4130890E+02  0.7818608E-02  0.1588103E+00
          2   -1    0    0  502    0  0.00000000000E+00  0.00000000000E+00  0.42234094287E+03  0.42234094287E+03  0.00000000000E+00 0. -1.
          1   -1    0    0  501    0 -0.00000000000E+00 -0.00000000000E+00 -0.12893225317E+04  0.12893225317E+04  0.00000000000E+00 0. -1.
         25    2    1    2    0    0 -0.44791293016E+02  0.32857301751E+02 -0.98236172847E+03  0.99183964926E+03  0.12500184832E+03 0.  0.
          2    1    1    2  501    0  0.23039096362E+02  0.22481524096E+01 -0.30075494912E+03  0.30164448208E+03  0.00000000000E+00 0. -1.
          1    1    1    2  502    0  0.21752196654E+02 -0.35105454160E+02  0.41613508877E+03  0.41817934320E+03  0.00000000000E+00 0. -1.
         22    1    3    3    0    0 -0.64018078400E+01 -0.45275702948E+02 -0.46073461427E+03  0.46299811793E+03  0.00000000000E+00 0.  1.
         22    1    3    3    0    0 -0.38389485176E+02  0.78133004699E+02 -0.52162711420E+03  0.52884153134E+03  0.00000000000E+00 0.  1.
</event>
<event>
 7    1  0.5676357E-006  0.8721944E+02  0.7818608E-02  0.1333872E+00
          2   -1    0    0  502    0  0.00000000000E+00  0.00000000000E+00  0.79031675937E+03  0.79031675937E+03  0.00000000000E+00 0. -1.
          1   -1    0    0  501    0 -0.00000000000E+00 -0.00000000000E+00 -0.28316669770E+03  0.28316669770E+03  0.00000000000E+00 0. -1.
         25    2    1    2    0    0  0.32703786903E+02 -0.62404187221E+01  0.28265139965E+02  0.13241417833E+03  0.12500446385E+03 0.  0.
          2    1    1    2  501    0 -0.64678939308E+02  0.68890936086E+02 -0.21959150516E+03  0.23906015018E+03  0.00000000000E+00 0. -1.
          1    1    1    2  502    0  0.31975152405E+02 -0.62650517364E+02  0.69847642687E+03  0.70200912856E+03  0.00000000000E+00 0. -1.
         22    1    3    3    0    0 -0.90696750609E+01 -0.13814964094E+02  0.70570508367E+02  0.72479713643E+02  0.00000000000E+00 0.  1.
         22    1    3    3    0    0  0.41773461964E+02  0.75745453717E+01 -0.42305368401E+02  0.59934464689E+02  0.00000000000E+00 0.  1.
</event>
<event>
 7    1  0.5676357E-006  0.1002389E+03  0.7818608E-02  0.1289981E+00
          2   -1    0    0  502    0  0.00000000000E+00  0.00000000000E+00  0.10359523859E+04  0.10359523859E+04  0.00000000000E+00 0. -1.
          1   -1    0    0  501    0 -0.00000000000E+00 -0.00000000000E+00 -0.51682551601E+03  0.51682551601E+03  0.00000000000E+00 0. -1.
         25    2    1    2    0    0 -0.47799981539E+02  0.18209872733E+03  0.13921498060E+03  0.26542588089E+03  0.12500121075E+03 0.  0.
          2    1    1    2  501    0  0.16801159657E+02 -0.96491274240E+02 -0.44590316545E+03  0.45653310716E+03  0.00000000000E+00 0. -1.
          1    1    1    2  502    0  0.30998821883E+02 -0.85607453092E+02  0.82581505476E+03  0.83081891388E+03  0.00000000000E+00 0. -1.
         22    1    3    3    0    0 -0.33805418812E+02 -0.54629556157E+01  0.55649419875E+01  0.34693209774E+02  0.00000000000E+00 0.  1.
         22    1    3    3    0    0 -0.13994562727E+02  0.18756168295E+03  0.13365003862E+03  0.23073267111E+03  0.00000000000E+00 0.  1.
</event>
<event>
 7    1  0.5676357E-006  0.6881755E+02  0.7818608E-02  0.1481516E+00
          2   -1    0    0  502    0  0.00000000000E+00  0.00000000000E+00  0.53543803051E+03  0.53543803051E+03  0.00000000000E+00 0. -1.
          1   -1    0    0  501    0 -0.00000000000E+00 -0.00000000000E+00 -0.14370413224E+03  0.14370413224E+03  0.00000000000E+00 0. -1.
         25    2    1    2    0    0 -0.71711400140E+02  0.30858010139E+02  0.29538581031E+03  0.33011086988E+03  0.12500267109E+03 0.  0.
          2    1    1    2  501    0  0.46044036459E+01 -0.27585968427E+02 -0.11962404992E+03  0.12284990642E+03  0.00000000000E+00 0. -1.
          1    1    1    2  502    0  0.67106996494E+02 -0.32720417123E+01  0.21597213788E+03  0.22618138645E+03  0.00000000000E+00 0. -1.
         22    1    3    3    0    0 -0.16424979884E+02 -0.32948589040E+02  0.19633586399E+02  0.41723700684E+02  0.00000000000E+00 0. -1.
         22    1    3    3    0    0 -0.55286420256E+02  0.63806599179E+02  0.27575222392E+03  0.28838716920E+03  0.00000000000E+00 0. -1.
</event>
<event>
 7    1  0.5676357E-006  0.5523887E+02  0.7818608E-02  0.1482437E+00
          2   -1    0    0  502    0  0.00000000000E+00  0.00000000000E+00  0.12352865341E+03  0.12352865341E+03  0.00000000000E+00 0. -1.
          1   -1    0    0  501    0 -0.00000000000E+00 -0.00000000000E+00 -0.16308200701E+03  0.16308200701E+03  0.00000000000E+00 0. -1.
         25    2    1    2    0    0  0.32093507415E+02 -0.36882033557E+02 -0.34025330827E+02  0.13846706930E+03  0.12500051410E+03 0.  0.
          2    1    1    2  501    0 -0.27979329984E+02 -0.20383953070E+02 -0.59826914689E+02  0.69120244287E+02  0.00000000000E+00 0. -1.
          1    1    1    2  502    0 -0.41141774309E+01  0.57265986627E+02  0.54298891916E+02  0.79023346826E+02  0.00000000000E+00 0. -1.
         22    1    3    3    0    0  0.98926232387E+01 -0.59077894219E+02  0.30123601431E+02  0.67048437290E+02  0.00000000000E+00 0. -1.
         22    1    3    3    0    0  0.22200884176E+02  0.22195860662E+02 -0.64148932258E+02  0.71418632013E+02  0.00000000000E+00 0. -1.
</event>
<event>
 7    1  0.5676357E-006  0.4646447E+02  0.7818608E-02  0.1509630E+00
          2   -1    0    0  502    0  0.00000000000E+00  0.00000000000E+00  0.35121415994E+04  0.35121415994E+04  0.00000000000E+00 0. -1.
          1   -1    0    0  501    0 -0.00000000000E+00 -0.00000000000E+00 -0.24188369746E+03  0.24188369746E+03  0.00000000000E+00 0. -1.
         25    2    1    2    0    0 -0.43861641702E+02 -0.66650885543E+02  0.21195392817E+03  0.25868037935E+03  0.12499954735E+03 0.  0.
          2    1    1    2  501    0  0.14695854415E+02  0.30776250621E+02 -0.21702561839E+03  0.21968901833E+03  0.00000000000E+00 0. -1.
          1    1    1    2  502    0  0.29165787287E+02  0.35874634922E+02  0.32753295921E+04  0.32756558992E+04  0.00000000000E+00 0. -1.
         22    1    3    3    0    0  0.38007383044E+02 -0.17595478178E+02  0.11605959620E+03  0.12338554165E+03  0.00000000000E+00 0. -1.
         22    1    3    3    0    0 -0.81869024746E+02 -0.49055407365E+02  0.95894331968E+02  0.13529483770E+03  0.00000000000E+00 0. -1.
</event>
<event>
 7    1  0.5676357E-006  0.4142543E+02  0.7818608E-02  0.1498612E+00
          2   -1    0    0  502    0  0.00000000000E+00  0.00000000000E+00  0.24158597899E+04  0.24158597899E+04  0.00000000000E+00 0. -1.
          1   -1    0    0  501    0 -0.00000000000E+00 -0.00000000000E+00 -0.57137900035E+02  0.57137900035E+02  0.00000000000E+00 0. -1.
         25    2    1    2    0    0 -0.33502461481E+01 -0.71498421337E+01  0.37049175158E+03  0.39109672428E+03  0.12502065975E+03 0.  0.
          2    1    1    2  501    0  0.41019797338E+02 -0.10085902586E+02 -0.37055763574E+02  0.56191447914E+02  0.00000000000E+00 0. -1.
          1    1    1    2  502    0 -0.37669551190E+02  0.17235744720E+02  0.20252859018E+04  0.20257095177E+04  0.00000000000E+00 0. -1.
         22    1    3    3    0    0 -0.56190016529E+01 -0.64100121150E+02  0.14727141103E+03  0.16071486309E+03  0.00000000000E+00 0.  1.
         22    1    3    3    0    0  0.22687555048E+01  0.56950279017E+02  0.22322034055E+03  0.23038186119E+03  0.00000000000E+00 0.  1.
</event>
<event>
 7    1  0.8654235E-006  0.1636095E+03  0.7818608E-02  0.1229249E+00
          2   -1    0    0  502    0  0.00000000000E+00  0.00000000000E+00  0.26020632447E+04  0.26020632447E+04  0.00000000000E+00 0. -1.
          1   -1    0    0  501    0 -0.00000000000E+00 -0.00000000000E+00 -0.12402262375E+04  0.12402262375E+04  0.00000000000E+00 0. -1.
         25    2    1    2    0    0  0.50481193137E+02  0.39695520694E+02 -0.22723078418E+03  0.26717585693E+03  0.12500009609E+03 0.  0.
          2    1    1    2  501    0  0.64189942408E+02  0.78488543627E+02 -0.98779966566E+03  0.99298991922E+03  0.00000000000E+00 0. -1.
          1    1    1    2  502    0 -0.11467113555E+03 -0.11818406432E+03  0.25768674570E+04  0.25821237061E+04  0.00000000000E+00 0. -1.
         22    1    3    3    0    0  0.66780792932E+02 -0.11467623604E+02 -0.56575720501E+02  0.88272265441E+02  0.00000000000E+00 0. -1.
         22    1    3    3    0    0 -0.16299599795E+02  0.51163144298E+02 -0.17065506368E+03  0.17890359149E+03  0.00000000000E+00 0. -1.
</event>
<event>
 7    1  0.5676357E-006  0.3048489E+02  0.7818608E-02  0.1645613E+00
          2   -1    0    0  502    0  0.00000000000E+00  0.00000000000E+00  0.13923451985E+03  0.13923451985E+03  0.00000000000E+00 0. -1.
          1   -1    0    0  501    0 -0.00000000000E+00 -0.00000000000E+00 -0.88733346283E+03  0.88733346283E+03  0.00000000000E+00 0. -1.
         25    2    1    2    0    0 -0.35863352340E+02 -0.31572201333E+02 -0.25259374398E+02  0.13618498904E+03  0.12500132522E+03 0.  0.
          2    1    1    2  501    0  0.28563016676E+02  0.10442582841E+02 -0.80482753611E+03  0.80540192223E+03  0.00000000000E+00 0. -1.
          1    1    1    2  502    0  0.73003356648E+01  0.21129618492E+02  0.81987967527E+02  0.84981071407E+02  0.00000000000E+00 0. -1.
         22    1    3    3    0    0 -0.61839392137E+01 -0.78203205755E+02 -0.12226764299E+02  0.79394434690E+02  0.00000000000E+00 0.  1.
         22    1    3    3    0    0 -0.29679413127E+02  0.46631004422E+02 -0.13032610099E+02  0.56790554346E+02  0.00000000000E+00 0.  1.
</event>
<event>
 7    1  0.5676357E-006  0.5276086E+02  0.7818608E-02  0.1549949E+00
          2   -1    0    0  502    0  0.00000000000E+00  0.00000000000E+00  0.22958700441E+03  0.22958700441E+03  0.00000000000E+00 0. -1.
          1   -1    0    0  501    0 -0.00000000000E+00 -0.00000000000E+00 -0.78186088627E+03  0.78186088627E+03  0.00000000000E+00 0. -1.
         25    2    1    2    0    0  0.40757261155E+02 -0.61197780515E+02 -0.15431135576E+03  0.21176247166E+03  0.12500010883E+03 0.  0.
          2    1    1    2  501    0 -0.56517819996E+01  0.22312908737E+02 -0.59518190568E+03  0.59562682057E+03  0.00000000000E+00 0. -1.
          1    1    1    2  502    0 -0.35105479156E+02  0.38884871779E+02  0.19721937958E+03  0.20405859845E+03  0.00000000000E+00 0. -1.
         22    1    3    3    0    0  0.59823346817E+02  0.18762786370E+02 -0.71106690946E+02  0.94799981403E+02  0.00000000000E+00 0. -1.
         22    1    3    3    0    0 -0.19066085662E+02 -0.79960566886E+02 -0.83204664817E+02  0.11696249025E+03  0.00000000000E+00 0. -1.
</event>
<event>
 7    1  0.5676357E-006  0.6956578E+02  0.7818608E-02  0.1373162E+00
          2   -1    0    0  502    0  0.00000000000E+00  0.00000000000E+00  0.38040056398E+04  0.38040056398E+04  0.00000000000E+00 0. -1.
          1   -1    0    0  501    0 -0.00000000000E+00 -0.00000000000E+00 -0.16666076290E+04  0.16666076290E+04  0.00000000000E+00 0. -1.
         25    2    1    2    0    0  0.13487138917E+02 -0.70065277628E+02  0.37308617261E+03  0.39988673266E+03  0.12500024287E+03 0.  0.
          2    1    1    2  501    0  0.49603357858E+02  0.39130082077E+02 -0.16522423474E+04  0.16534498574E+04  0.00000000000E+00 0. -1.
          1    1    1    2  502    0 -0.63090496775E+02  0.30935195551E+02  0.34165541855E+04  0.34172766789E+04  0.00000000000E+00 0. -1.
         22    1    3    3    0    0 -0.52921221387E+02 -0.13596112617E+02  0.11169708881E+03  0.12434528379E+03  0.00000000000E+00 0. -1.
         22    1    3    3    0    0  0.66408360304E+02 -0.56469165011E+02  0.26138908380E+03  0.27554144887E+03  0.00000000000E+00 0. -1.
</event>
<event>
 7    1  0.5676357E-006  0.3816503E+02  0.7818608E-02  0.1622115E+00
          2   -1    0    0  502    0  0.00000000000E+00  0.00000000000E+00  0.15074350866E+02  0.15074350866E+02  0.00000000000E+00 0. -1.
          1   -1    0    0  501    0 -0.00000000000E+00 -0.00000000000E+00 -0.14007121562E+04  0.14007121562E+04  0.00000000000E+00 0. -1.
         25    2    1    2    0    0  0.22614490593E+02 -0.17703549682E+02 -0.12734526116E+04  0.12798911898E+04  0.12496028548E+03 0.  0.
          2    1    1    2  501    0 -0.90157047888E+01 -0.18350692934E+02 -0.88127971226E+02  0.90468614317E+02  0.00000000000E+00 0. -1.
          1    1    1    2  502    0 -0.13598785804E+02  0.36054242616E+02 -0.24057222563E+02  0.45426702978E+02  0.00000000000E+00 0. -1.
         22    1    3    3    0    0  0.54515712781E+01  0.50401564546E+02 -0.33501298662E+03  0.33882700386E+03  0.00000000000E+00 0. -1.
         22    1    3    3    0    0  0.17162919315E+02 -0.68105114228E+02 -0.93843962494E+03  0.94106418593E+03  0.00000000000E+00 0. -1.
</event>
<event>
 7    1  0.5676357E-006  0.5294265E+02  0.7818608E-02  0.1455544E+00
          2   -1    0    0  502    0  0.00000000000E+00  0.00000000000E+00  0.17040848478E+04  0.17040848478E+04  0.00000000000E+00 0. -1.
          1   -1    0    0  501    0 -0.00000000000E+00 -0.00000000000E+00 -0.22731547636E+02  0.22731547636E+02  0.00000000000E+00 0. -1.
         25    2    1    2    0    0 -0.29398583768E+02  0.80482383518E+02  0.10707640745E+04  0.10814353783E+04  0.12500033368E+03 0.  0.
          2    1    1    2  501    0 -0.37411531500E+01 -0.51837356638E+02  0.24151680324E+02  0.57309784789E+02  0.00000000000E+00 0. -1.
          1    1    1    2  502    0  0.33139736918E+02 -0.28645026881E+02  0.58643754531E+03  0.58807123231E+03  0.00000000000E+00 0. -1.
         22    1    3    3    0    0 -0.55876155681E+02  0.16779450864E+02  0.21127476208E+03  0.21918193319E+03  0.00000000000E+00 0. -1.
         22    1    3    3    0    0  0.26477571913E+02  0.63702932655E+02  0.85948931243E+03  0.86225344512E+03  0.00000000000E+00 0. -1.
</event>
<event>
 7    1  0.5676357E-006  0.4470419E+02  0.7818608E-02  0.1486141E+00
          2   -1    0    0  502    0  0.00000000000E+00  0.00000000000E+00  0.11199899928E+03  0.11199899928E+03  0.00000000000E+00 0. -1.
          1   -1    0    0  501    0 -0.00000000000E+00 -0.00000000000E+00 -0.47997380794E+03  0.47997380794E+03  0.00000000000E+00 0. -1.
         25    2    1    2    0    0 -0.32461866399E+01  0.26158006805E+02 -0.12126401758E+03  0.17614432096E+03  0.12500832292E+03 0.  0.
          2    1    1    2  501    0  0.41671034625E+02 -0.67251205899E+00 -0.32354661046E+03  0.32621976724E+03  0.00000000000E+00 0. -1.
          1    1    1    2  502    0 -0.38424847985E+02 -0.25485494746E+02  0.76835819377E+02  0.89608719020E+02  0.00000000000E+00 0. -1.
         22    1    3    3    0    0 -0.21609319750E+02  0.61315505660E+02 -0.11997731163E+03  0.13645918526E+03  0.00000000000E+00 0. -1.
         22    1    3    3    0    0  0.18363133111E+02 -0.35157498854E+02 -0.12867059428E+01  0.39685135700E+02  0.00000000000E+00 0. -1.
</event>
<event>
 7    1  0.5676357E-006  0.1631732E+03  0.7818608E-02  0.1255671E+00
          2   -1    0    0  502    0  0.00000000000E+00  0.00000000000E+00  0.79064864345E+03  0.79064864345E+03  0.00000000000E+00 0. -1.
          1   -1    0    0  501    0 -0.00000000000E+00 -0.00000000000E+00 -0.10566613919E+04  0.10566613919E+04  0.00000000000E+00 0. -1.
         25    2    1    2    0    0  0.12992100572E+03  0.78091912571E+02 -0.21783535644E+03  0.29335282558E+03  0.12500329284E+03 0.  0.
          2    1    1    2  501    0 -0.16893205545E+03 -0.10752255180E+02 -0.79006687012E+03  0.80799709753E+03  0.00000000000E+00 0. -1.
          1    1    1    2  502    0  0.39011049727E+02 -0.67339657391E+02  0.74188947806E+03  0.74596011228E+03  0.00000000000E+00 0. -1.
         22    1    3    3    0    0  0.10122348624E+03  0.11213383373E+03 -0.17942972934E+03  0.23455323192E+03  0.00000000000E+00 0.  1.
         22    1    3    3    0    0  0.28697519480E+02 -0.34041921164E+02 -0.38405627103E+02  0.58799593655E+02  0.00000000000E+00 0.  1.
</event>
<event>
 7    1  0.5676357E-006  0.4503375E+02  0.7818608E-02  0.1488262E+00
          2   -1    0    0  502    0  0.00000000000E+00  0.00000000000E+00  0.13586769976E+04  0.13586769976E+04  0.00000000000E+00 0. -1.
          1   -1    0    0  501    0 -0.00000000000E+00 -0.00000000000E+00 -0.17586489327E+02  0.17586489327E+02  0.00000000000E+00 0. -1.
         25    2    1    2    0    0 -0.41782536620E+01 -0.17084190391E+02  0.93584253931E+03  0.94431747595E+03  0.12499963849E+03 0.  0.
          2    1    1    2  501    0  0.44775742453E+02  0.13419685901E+02  0.32395590355E+02  0.56872043715E+02  0.00000000000E+00 0. -1.
          1    1    1    2  502    0 -0.40597488791E+02  0.36645044900E+01  0.37285237857E+03  0.37507396723E+03  0.00000000000E+00 0. -1.
         22    1    3    3    0    0  0.45438216004E+02  0.20769289109E+02  0.21276984311E+03  0.21855663106E+03  0.00000000000E+00 0.  1.
         22    1    3    3    0    0 -0.49616469666E+02 -0.37853479500E+02  0.72307269621E+03  0.72576084489E+03  0.00000000000E+00 0.  1.
</event>
<event>
 7    1  0.5676357E-006  0.3944497E+02  0.7818608E-02  0.1542589E+00
          2   -1    0    0  502    0  0.00000000000E+00  0.00000000000E+00  0.17656257450E+03  0.17656257450E+03  0.00000000000E+00 0. -1.
          1   -1    0    0  501    0 -0.00000000000E+00 -0.00000000000E+00 -0.92176466267E+03  0.92176466267E+03  0.00000000000E+00 0. -1.
         25    2    1    2    0    0  0.16054148658E+02 -0.70339173169E+01  0.49273505064E+02  0.13549837388E+03  0.12499887736E+03 0.  0.
          2    1    1    2  501    0  0.85614851940E+00 -0.32274456152E+02 -0.87289615645E+03  0.87349302999E+03  0.00000000000E+00 0. -1.
          1    1    1    2  502    0 -0.16910297178E+02  0.39308373469E+02  0.78420563213E+02  0.89335833293E+02  0.00000000000E+00 0. -1.
         22    1    3    3    0    0  0.42368328835E+02 -0.55917622057E+02  0.21209116666E+02  0.73291761982E+02  0.00000000000E+00 0. -1.
         22    1    3    3    0    0 -0.26314180176E+02  0.48883704740E+02  0.28064388398E+02  0.62206611896E+02  0.00000000000E+00 0. -1.
</event>
<event>
 7    1  0.5676357E-006  0.1351103E+03  0.7818608E-02  0.1301193E+00
          2   -1    0    0  502    0  0.00000000000E+00  0.00000000000E+00  0.11255274227E+04  0.11255274227E+04  0.00000000000E+00 0. -1.
          1   -1    0    0  501    0 -0.00000000000E+00 -0.00000000000E+00 -0.94445131734E+03  0.94445131734E+03  0.00000000000E+00 0. -1.
         25    2    1    2    0    0 -0.12672545380E+03 -0.12118138011E+03 -0.69646783564E+03  0.72899685670E+03  0.12499881387E+03 0.  0.
          2    1    1    2  501    0  0.61912568584E+01  0.60556054556E+02 -0.22353113280E+03  0.23167117804E+03  0.00000000000E+00 0. -1.
          1    1    1    2  502    0  0.12053419694E+03  0.60625325558E+02  0.11010750738E+04  0.11093107053E+04  0.00000000000E+00 0. -1.
         22    1    3    3    0    0 -0.10279650913E+03 -0.22509494594E+02 -0.45577487256E+03  0.46776546911E+03  0.00000000000E+00 0.  1.
         22    1    3    3    0    0 -0.23928944671E+02 -0.98671885519E+02 -0.24069296308E+03  0.26123138759E+03  0.00000000000E+00 0.  1.
</event>
<event>
 7    1  0.6136170E-006  0.9129644E+02  0.7818608E-02  0.1455908E+00
          2   -1    0    0  502    0  0.00000000000E+00  0.00000000000E+00  0.19239964731E+04  0.19239964731E+04  0.00000000000E+00 0. -1.
          1   -1    0    0  501    0 -0.00000000000E+00 -0.00000000000E+00 -0.14954446214E+04  0.14954446214E+04  0.00000000000E+00 0. -1.
         25    2    1    2    0    0  0.73560724991E+02  0.47553795899E+02 -0.20153455039E+03  0.25281217284E+03  0.12500110388E+03 0.  0.
          2    1    1    2  501    0 -0.13624239880E+02  0.21358830053E+02 -0.12670460690E+04  0.12672993176E+04  0.00000000000E+00 0. -1.
          1    1    1    2  502    0 -0.59936485111E+02 -0.68912625952E+02  0.18971324710E+04  0.18993296040E+04  0.00000000000E+00 0. -1.
         22    1    3    3    0    0  0.10733580140E+01 -0.15256961942E+01 -0.15242821900E+03  0.15243963328E+03  0.00000000000E+00 0.  1.
         22    1    3    3    0    0  0.72487366977E+02  0.49079492093E+02 -0.49106331381E+02  0.10037253956E+03  0.00000000000E+00 0.  1.
</event>
<event>
 7    1  0.5676357E-006  0.7521302E+02  0.7818608E-02  0.1383715E+00
          2   -1    0    0  502    0  0.00000000000E+00  0.00000000000E+00  0.21216664453E+04  0.21216664453E+04  0.00000000000E+00 0. -1.
          1   -1    0    0  501    0 -0.00000000000E+00 -0.00000000000E+00 -0.29906348986E+04  0.29906348986E+04  0.00000000000E+00 0. -1.
         25    2    1    2    0    0  0.20375329695E+02  0.10654418855E+02  0.34903683334E+02  0.13180394897E+03  0.12500137260E+03 0.  0.
          2    1    1    2  501    0  0.38894445091E+02  0.36889776044E+02 -0.29412323421E+04  0.29417208100E+04  0.00000000000E+00 0. -1.
          1    1    1    2  502    0 -0.59269774786E+02 -0.47544194898E+02  0.20373602054E+04  0.20387765850E+04  0.00000000000E+00 0. -1.
         22    1    3    3    0    0  0.81507197129E+01 -0.31530400894E+02 -0.35908548482E+02  0.48477048863E+02  0.00000000000E+00 0. -1.
         22    1    3    3    0    0  0.12224609983E+02  0.42184819748E+02  0.70812231817E+02  0.83326900106E+02  0.00000000000E+00 0. -1.
</event>
<event>
 7    1  0.5676357E-006  0.9011550E+02  0.7818608E-02  0.1420723E+00
          2   -1    0    0  502    0  0.00000000000E+00  0.00000000000E+00  0.91275189627E+03  0.91275189627E+03  0.00000000000E+00 0. -1.
          1   -1    0    0  501    0 -0.00000000000E+00 -0.00000000000E+00 -0.90538748078E+02  0.90538748078E+02  0.00000000000E+00 0. -1.
         25    2    1    2    0    0  0.12010773651E+02  0.10985850117E+03  0.51111995375E+03  0.53766394691E+03  0.12500305484E+03 0.  0.
          2    1    1    2  501    0 -0.32222615322E+02 -0.83258883463E+02 -0.50448660089E+02  0.10254465329E+03  0.00000000000E+00 0. -1.
          1    1    1    2  502    0  0.20211841671E+02 -0.26599617711E+02  0.36154185453E+03  0.36308204415E+03  0.00000000000E+00 0. -1.
         22    1    3    3    0    0 -0.37012924753E+02  0.98857015927E+02  0.24391798958E+03  0.26577932922E+03  0.00000000000E+00 0.  1.
         22    1    3    3    0    0  0.49023698404E+02  0.11001485247E+02  0.26720196416E+03  0.27188461769E+03  0.00000000000E+00 0.  1.
</event>
<event>
 7    1  0.5676357E-006  0.1545951E+03  0.7818608E-02  0.1227395E+00
          2   -1    0    0  502    0  0.00000000000E+00  0.00000000000E+00  0.16732761790E+04  0.16732761790E+04  0.00000000000E+00 0. -1.
          1   -1    0    0  501    0 -0.00000000000E+00 -0.00000000000E+00 -0.32917058902E+04  0.32917058902E+04  0.00000000000E+00 0. -1.
         25    2    1    2    0    0  0.56047649736E+01  0.67984798924E+02  0.17969025516E+03  0.22927746054E+03  0.12500487925E+03 0.  0.
          2    1    1    2  501    0  0.57861640391E+02  0.92830503821E+02 -0.32609045882E+04  0.32627387584E+04  0.00000000000E+00 0. -1.
          1    1    1    2  502    0 -0.63466405365E+02 -0.16081530274E+03  0.14627846218E+04  0.14729658503E+04  0.00000000000E+00 0. -1.
         22    1    3    3    0    0 -0.54177923502E+02  0.60649053044E+02  0.11545264841E+03  0.14121922339E+03  0.00000000000E+00 0.  1.
         22    1    3    3    0    0  0.59782688475E+02  0.73357458798E+01  0.64237606748E+02  0.88058237148E+02  0.00000000000E+00 0.  1.
</event>
<event>
 7    1  0.5676357E-006  0.7155013E+02  0.7818608E-02  0.1448598E+00
          2   -1    0    0  502    0  0.00000000000E+00  0.00000000000E+00  0.20078813196E+03  0.20078813196E+03  0.00000000000E+00 0. -1.
          1   -1    0    0  501    0 -0.00000000000E+00 -0.00000000000E+00 -0.14373314535E+04  0.14373314535E+04  0.00000000000E+00 0. -1.
         25    2    1    2    0    0 -0.15225391919E+02 -0.37427795191E+02 -0.11222930389E+04  0.11299549035E+04  0.12499506593E+03 0.  0.
          2    1    1    2  501    0 -0.27463786890E+02 -0.20227402278E+02 -0.30368843770E+03  0.30559789689E+03  0.00000000000E+00 0. -1.
          1    1    1    2  502    0  0.42689178810E+02  0.57655197469E+02  0.18943815508E+03  0.20256678499E+03  0.00000000000E+00 0. -1.
         22    1    3    3    0    0  0.39262645711E+01 -0.43140681041E+02 -0.12200433730E+03  0.12946656802E+03  0.00000000000E+00 0.  1.
         22    1    3    3    0    0 -0.19151656490E+02  0.57128858502E+01 -0.10002887016E+04  0.10004883355E+04  0.00000000000E+00 0.  1.
</event>
<event>
 7    1  0.5676357E-006  0.5530955E+02  0.7818608E-02  0.1475595E+00
          2   -1    0    0  502    0  0.00000000000E+00  0.00000000000E+00  0.88175841119E+03  0.88175841119E+03  0.00000000000E+00 0. -1.
          1   -1    0    0  501    0 -0.00000000000E+00 -0.00000000000E+00 -0.39486721133E+03  0.39486721133E+03  0.00000000000E+00 0. -1.
         25    2    1    2    0    0 -0.45616585006E+02  0.55230356114E+02  0.33809750208E+02  0.14798492952E+03  0.12500070036E+03 0.  0.
          2    1    1    2  501    0 -0.60339410706E+01 -0.35781852126E+02 -0.33583819705E+03  0.33779290102E+03  0.00000000000E+00 0. -1.
          1    1    1    2  502    0  0.51650526077E+02 -0.19448503989E+02  0.78891964670E+03  0.79084779199E+03  0.00000000000E+00 0. -1.
         22    1    3    3    0    0  0.36198058924E+02  0.77077404917E+00  0.34049852903E+02  0.49701972247E+02  0.00000000000E+00 0.  1.
         22    1    3    3    0    0 -0.81814643930E+02  0.54459582065E+02 -0.24010269586E+00  0.98282957268E+02  0.00000000000E+00 0.  1.
</event>
<event>
 7    1  0.5676357E-006  0.7116457E+02  0.7818608E-02  0.1406576E+00
          2   -1    0    0  502    0  0.00000000000E+00  0.00000000000E+00  0.34242641926E+03  0.34242641926E+03  0.00000000000E+00 0. -1.
          1   -1    0    0  501    0 -0.00000000000E+00 -0.00000000000E+00 -0.35384045530E+03  0.35384045530E+03  0.00000000000E+00 0. -1.
         25    2    1    2    0    0  0.26001134554E+02 -0.23642772843E+02 -0.15641296341E+02  0.13078506298E+03  0.12500017136E+03 0.  0.
          2    1    1    2  501    0 -0.72730508278E+02  0.16899609443E+02 -0.27363361561E+03  0.28363828942E+03  0.00000000000E+00 0. -1.
          1    1    1    2  502    0  0.46729373724E+02  0.67431634008E+01  0.27786087591E+03  0.28184352216E+03  0.00000000000E+00 0. -1.
         22    1    3    3    0    0  0.70435986108E+02  0.90122837585E+01 -0.24117226870E+02  0.74993933284E+02  0.00000000000E+00 0.  1.
         22    1    3    3    0    0 -0.44434851554E+02 -0.32655056602E+02  0.84759305288E+01  0.55791129695E+02  0.00000000000E+00 0.  1.
</event>
<event>
 7    1  0.5676357E-006  0.1870148E+03  0.7818608E-02  0.1197099E+00
          2   -1    0    0  502    0  0.00000000000E+00  0.00000000000E+00  0.22661400713E+04  0.22661400713E+04  0.00000000000E+00 0. -1.
          1   -1    0    0  501    0 -0.00000000000E+00 -0.00000000000E+00 -0.74516670020E+03  0.74516670020E+03  0.00000000000E+00 0. -1.
         25    2    1    2    0    0 -0.26862397651E+03 -0.14143474701E+03  0.63371429472E+02  0.33436816720E+03  0.12499401883E+03 0.  0.
          2    1    1    2  501    0  0.15440435864E+03  0.91119707557E+02 -0.59455050002E+03  0.62099420621E+03  0.00000000000E+00 0. -1.
          1    1    1    2  502    0  0.11421961787E+03  0.50315039458E+02  0.20521524416E+04  0.20559443981E+04  0.00000000000E+00 0. -1.
         22    1    3    3    0    0 -0.13773860611E+03 -0.51827300359E+02 -0.30160077091E+02  0.15022524064E+03  0.00000000000E+00 0. -1.
         22    1    3    3    0    0 -0.13088537040E+03 -0.89607446656E+02  0.93531506563E+02  0.18414292656E+03  0.00000000000E+00 0. -1.
</event>
<event>
 7    1  0.5676357E-006  0.1027715E+03  0.7818608E-02  0.1336867E+00
          2   -1    0    0  502    0  0.00000000000E+00  0.00000000000E+00  0.27329517043E+04  0.27329517043E+04  0.00000000000E+00 0. -1.
          1   -1    0    0  501    0 -0.00000000000E+00 -0.00000000000E+00 -0.38140383554E+03  0.38140383554E+03  0.00000000000E+00 0. -1.
         25    2    1    2    0    0 -0.55311040161E+02 -0.34278909150E+02  0.72818530292E+03  0.74169633705E+03  0.12500106496E+03 0.  0.
          2    1    1    2  501    0  0.47105336346E+02  0.91852035632E+02 -0.36710509105E+03  0.38134217841E+03  0.00000000000E+00 0. -1.
          1    1    1    2  502    0  0.82057038149E+01 -0.57573126481E+02  0.19904676569E+04  0.19913170244E+04  0.00000000000E+00 0. -1.
         22    1    3    3    0    0 -0.50806737247E+01  0.17260135538E+02  0.11384158125E+02  0.21291420349E+02  0.00000000000E+00 0. -1.
         22    1    3    3    0    0 -0.50230366437E+02 -0.51539044688E+02  0.71680114479E+03  0.72040491671E+03  0.00000000000E+00 0. -1.
</event>
<event>
 7    1  0.5676357E-006  0.1156909E+03  0.7818608E-02  0.1279924E+00
          2   -1    0    0  502    0  0.00000000000E+00  0.00000000000E+00  0.14548422956E+04  0.14548422956E+04  0.00000000000E+00 0. -1.
          1   -1    0    0  501    0 -0.00000000000E+00 -0.00000000000E+00 -0.32878458037E+03  0.32878458037E+03  0.00000000000E+00 0. -1.
         25    2    1    2    0    0 -0.49866389369E+02 -0.10577342141E+03  0.46426337471E+03  0.49481238770E+03  0.12499657778E+03 0.  0.
          2    1    1    2  501    0  0.86114154627E+02 -0.10432513053E+02 -0.30361379496E+03  0.31576228630E+03  0.00000000000E+00 0. -1.
          1    1    1    2  502    0 -0.36247765258E+02  0.11620593446E+03  0.96540813544E+03  0.97305220193E+03  0.00000000000E+00 0. -1.
         22    1    3    3    0    0 -0.77456017762E+01 -0.66616835850E+02  0.41096885384E+03  0.41640508641E+03  0.00000000000E+00 0.  1.
         22    1    3    3    0    0 -0.42120787593E+02 -0.39156585560E+02  0.53294520879E+02  0.78407301292E+02  0.00000000000E+00 0.  1.
</event>
<event>
 7    1  0.5676357E-006  0.1305259E+03  0.7818608E-02  0.1271514E+00
          2   -1    0    0  502    0  0.00000000000E+00  0.00000000000E+00  0.97252326106E+03  0.97252326106E+03  0.00000000000E+00 0. -1.
          1   -1    0    0  501    0 -0.00000000000E+00 -0.00000000000E+00 -0.12014628569E+04  0.12014628569E+04  0.00000000000E+00 0. -1.
         25    2    1    2    0    0 -0.18744612057E+02 -0.20317380340E+03  0.57899269399E+03  0.62648834775E+03  0.12499662116E+03 0.  0.
          2    1    1    2  501    0  0.42010980738E+02  0.12315099831E+03 -0.11693648685E+04  0.11765820356E+04  0.00000000000E+00 0. -1.
          1    1    1    2  502    0 -0.23266368681E+02  0.80022805085E+02  0.36143257866E+03  0.37091573458E+03  0.00000000000E+00 0. -1.
         22    1    3    3    0    0  0.21082307948E+02 -0.11060610280E+03  0.16065232337E+03  0.19618191224E+03  0.00000000000E+00 0. -1.
         22    1    3    3    0    0 -0.39826920005E+02 -0.92567700598E+02  0.41834037062E+03  0.43030643551E+03  0.00000000000E+00 0. -1.
</event>
<event>
 7    1  0.5676357E-006  0.7217867E+02  0.7818608E-02  0.1393271E+00
          2   -1    0    0  502    0  0.00000000000E+00  0.00000000000E+00  0.14922481161E+04  0.14922481161E+04  0.00000000000E+00 0. -1.
          1   -1    0    0  501    0 -0.00000000000E+00 -0.00000000000E+00 -0.24457771553E+02  0.24457771553E+02  0.00000000000E+00 0. -1.
         25    2    1    2    0    0  0.86630472033E+02  0.31056481705E+02  0.43396884049E+03  0.46088486915E+03  0.12496625285E+03 0.  0.
          2    1    1    2  501    0 -0.67894008377E+02  0.17153265986E+02  0.10901268695E+03  0.12956695884E+03  0.00000000000E+00 0. -1.
          1    1    1    2  502    0 -0.18736463656E+02 -0.48209747691E+02  0.92480881709E+03  0.92625405965E+03  0.00000000000E+00 0. -1.
         22    1    3    3    0    0  0.15409385468E+02  0.16524953843E+02  0.18227143323E+01  0.22668161539E+02  0.00000000000E+00 0.  1.
         22    1    3    3    0    0  0.71221086565E+02  0.14531527862E+02  0.43214612616E+03  0.43821670761E+03  0.00000000000E+00 0.  1.
</event>
<event>
 7    1  0.5676357E-006  0.1266920E+03  0.7818608E-02  0.1290225E+00
          2   -1    0    0  502    0  0.00000000000E+00  0.00000000000E+00  0.28139391032E+04  0.28139391032E+04  0.00000000000E+00 0. -1.
          1   -1    0    0  501    0 -0.00000000000E+00 -0.00000000000E+00 -0.87279068628E+02  0.87279068628E+02  0.00000000000E+00 0. -1.
         25    2    1    2    0    0  0.67521603204E+00  0.11908052041E+03  0.84670367956E+02  0.19228867373E+03  0.12500094631E+03 0.  0.
          2    1    1    2  501    0  0.70838015966E+02 -0.12625748945E+03  0.12603186552E+03  0.19194532887E+03  0.00000000000E+00 0. -1.
          1    1    1    2  502    0 -0.71513231998E+02  0.71769690446E+01  0.25159578011E+04  0.25169841692E+04  0.00000000000E+00 0. -1.
         22    1    3    3    0    0  0.60189426439E+01  0.10403393399E+03  0.11672720446E+03  0.15647532506E+03  0.00000000000E+00 0. -1.
         22    1    3    3    0    0 -0.53437266119E+01  0.15046586422E+02 -0.32056836499E+02  0.35813348676E+02  0.00000000000E+00 0. -1.
</event>
<event>
 7    1  0.5676357E-006  0.1579104E+03  0.7818608E-02  0.1306948E+00
          2   -1    0    0  502    0  0.00000000000E+00  0.00000000000E+00  0.99244877725E+03  0.99244877725E+03  0.00000000000E+00 0. -1.
          1   -1    0    0  501    0 -0.00000000000E+00 -0.00000000000E+00 -0.18577265107E+04  0.18577265107E+04  0.00000000000E+00 0. -1.
         25    2    1    2    0    0 -0.82102250286E+02 -0.93093192535E+02 -0.13870695617E+03  0.22421532375E+03  0.12500307884E+03 0.  0.
          2    1    1    2  501    0  0.13151026759E+03  0.93319367957E+02 -0.16717404299E+04  0.16794997826E+04  0.00000000000E+00 0. -1.
          1    1    1    2  502    0 -0.49408017302E+02 -0.22617542234E+00  0.94516965255E+03  0.94646018164E+03  0.00000000000E+00 0. -1.
         22    1    3    3    0    0 -0.96085904181E+02 -0.60035253591E+02 -0.41613690951E+02  0.12069975945E+03  0.00000000000E+00 0.  1.
         22    1    3    3    0    0  0.13983653895E+02 -0.33057938943E+02 -0.97093265217E+02  0.10351556431E+03  0.00000000000E+00 0.  1.
</event>
<event>
 7    1  0.5676357E-006  0.8245061E+02  0.7818608E-02  0.1383592E+00
          2   -1    0    0  502    0  0.00000000000E+00  0.00000000000E+00  0.64672958708E+03  0.64672958708E+03  0.00000000000E+00 0. -1.
          1   -1    0    0  501    0 -0.00000000000E+00 -0.00000000000E+00 -0.57224499033E+03  0.57224499033E+03  0.00000000000E+00 0. -1.
         25    2    1    2    0    0  0.31882604072E+02 -0.10779790113E+03 -0.17203030489E+03  0.24053405175E+03  0.12500126526E+03 0.  0.
          2    1    1    2  501    0 -0.41361294220E+02  0.26178570542E+02 -0.36155024942E+03  0.36484881399E+03  0.00000000000E+00 0. -1.
          1    1    1    2  502    0  0.94786901486E+01  0.81619330591E+02  0.60806515106E+03  0.61359171167E+03  0.00000000000E+00 0. -1.
         22    1    3    3    0    0  0.72690045300E+02 -0.76573819870E+02 -0.15267626064E+03  0.18562713470E+03  0.00000000000E+00 0.  1.
         22    1    3    3    0    0 -0.40807441229E+02 -0.31224081263E+02 -0.19354044255E+02  0.54906917045E+02  0.00000000000E+00 0.  1.
</event>
<event>
 7    1  0.5676357E-006  0.6563962E+02  0.7818608E-02  0.1419838E+00
          2   -1    0    0  502    0  0.00000000000E+00  0.00000000000E+00  0.84862218271E+03  0.84862218271E+03  0.00000000000E+00 0. -1.
          1   -1    0    0  501    0 -0.00000000000E+00 -0.00000000000E+00 -0.41866664667E+03  0.41866664667E+03  0.00000000000E+00 0. -1.
         25    2    1    2    0    0  0.16776408148E+02 -0.11248787851E+02 -0.46964720589E+02  0.13505038627E+03  0.12499975501E+03 0.  0.
          2    1    1    2  501    0  0.40423741772E+02 -0.22322321178E+02 -0.32465568877E+03  0.32792328550E+03  0.00000000000E+00 0. -1.
          1    1    1    2  502    0 -0.57200149920E+02  0.33571109029E+02  0.80157594540E+03  0.80431515761E+03  0.00000000000E+00 0. -1.
         22    1    3    3    0    0  0.55957052590E+02 -0.10817529984E+02  0.17493302463E+02  0.59617332384E+02  0.00000000000E+00 0.  1.
         22    1    3    3    0    0 -0.39180644442E+02 -0.43125786716E+00 -0.64458023052E+02  0.75433053882E+02  0.00000000000E+00 0.  1.
</event>
<event>
 7    1  0.5676357E-006  0.8205836E+02  0.7818608E-02  0.1408973E+00
          2   -1    0    0  502    0  0.00000000000E+00  0.00000000000E+00  0.43022348202E+03  0.43022348202E+03  0.00000000000E+00 0. -1.
          1   -1    0    0  501    0 -0.00000000000E+00 -0.00000000000E+00 -0.16306903023E+03  0.16306903023E+03  0.00000000000E+00 0. -1.
         25    2    1    2    0    0  0.66173035374E+02 -0.87696107440E+02  0.77317548660E+02  0.18350077971E+03  0.12500021981E+03 0.  0.
          2    1    1    2  501    0 -0.63528448564E+02  0.47598859367E+02 -0.94051173977E+02  0.12307371172E+03  0.00000000000E+00 0. -1.
          1    1    1    2  502    0 -0.26445868096E+01  0.40097248073E+02  0.28388807711E+03  0.28671802083E+03  0.00000000000E+00 0. -1.
         22    1    3    3    0    0  0.94961817219E+02 -0.26429316696E+02  0.49679460772E+02  0.11038253636E+03  0.00000000000E+00 0.  1.
         22    1    3    3    0    0 -0.28788781846E+02 -0.61266790744E+02  0.27638087888E+02  0.73118243348E+02  0.00000000000E+00 0.  1.
</event>
<event>
 7    1  0.5676357E-006  0.3475228E+02  0.7818608E-02  0.1564699E+00
          2   -1    0    0  502    0  0.00000000000E+00  0.00000000000E+00  0.21532718841E+04  0.21532718841E+04  0.00000000000E+00 0. -1.
          1   -1    0    0  501    0 -0.00000000000E+00 -0.00000000000E+00 -0.49203908731E+03  0.49203908731E+03  0.00000000000E+00 0. -1.
         25    2    1    2    0    0 -0.26759443608E+02  0.57779543763E+02 -0.19047802083E+03  0.23653300517E+03  0.12494575869E+03 0.  0.
          2    1    1    2  501    0  0.21508518099E+02 -0.23443974577E+02 -0.27748291878E+03  0.27930092465E+03  0.00000000000E+00 0. -1.
          1    1    1    2  502    0  0.52509255093E+01 -0.34335569186E+02  0.21291937364E+04  0.21294770416E+04  0.00000000000E+00 0. -1.
         22    1    3    3    0    0  0.21047928851E+02  0.16551585082E+02  0.82504030561E+01  0.28018555070E+02  0.00000000000E+00 0.  1.
         22    1    3    3    0    0 -0.47807372459E+02  0.41227958681E+02 -0.19872842389E+03  0.20851445010E+03  0.00000000000E+00 0.  1.
</event>
<event>
 7    1  0.5676357E-006  0.1270139E+03  0.7818608E-02  0.1433190E+00
          2   -1    0    0  502    0  0.00000000000E+00  0.00000000000E+00  0.12268230772E+04  0.12268230772E+04  0.00000000000E+00 0. -1.
          1   -1    0    0  501    0 -0.00000000000E+00 -0.00000000000E+00 -0.19390367553E+03  0.19390367553E+03  0.00000000000E+00 0. -1.
         25    2    1    2    0    0  0.54014042903E+02  0.92883725350E+02  0.32460886513E+03  0.36406124381E+03  0.12499908263E+03 0.  0.
          2    1    1    2  501    0 -0.59551977451E+02 -0.11371605078E+03 -0.15037300178E+03  0.19771145108E+03  0.00000000000E+00 0. -1.
          1    1    1    2  502    0  0.55379345474E+01  0.20832325433E+02  0.85868353829E+03  0.85895405781E+03  0.00000000000E+00 0. -1.
         22    1    3    3    0    0  0.28735853099E+02  0.18018043152E+02  0.43465630074E+01  0.34194908135E+02  0.00000000000E+00 0.  1.
         22    1    3    3    0    0  0.25278189804E+02  0.74865682198E+02  0.32026230212E+03  0.32986633567E+03  0.00000000000E+00 0.  1.
</event>
<event>
 7    1  0.5676357E-006  0.8560913E+02  0.7818608E-02  0.1389577E+00
          2   -1    0    0  502    0  0.00000000000E+00  0.00000000000E+00  0.11794069244E+04  0.11794069244E+04  0.00000000000E+00 0. -1.
          1   -1    0    0  501    0 -0.00000000000E+00 -0.00000000000E+00 -0.79047852885E+03  0.79047852885E+03  0.00000000000E+00 0. -1.
         25    2    1    2    0    0  0.68528929678E+02  0.10729717283E+03  0.32887207858E+03  0.37415248794E+03  0.12499737062E+03 0.  0.
          2    1    1    2  501    0 -0.56394584816E+02 -0.64048087771E+02 -0.76485428326E+03  0.76960027375E+03  0.00000000000E+00 0. -1.
          1    1    1    2  502    0 -0.12134344862E+02 -0.43249085058E+02  0.82491060018E+03  0.82613269151E+03  0.00000000000E+00 0. -1.
         22    1    3    3    0    0 -0.12593190993E+01  0.32159652166E+02  0.22816491453E+03  0.23042364752E+03  0.00000000000E+00 0. -1.
         22    1    3    3    0    0  0.69788248777E+02  0.75137520663E+02  0.10070716405E+03  0.14372884042E+03  0.00000000000E+00 0. -1.
</event>
<event>
 7    1  0.5676357E-006  0.2147964E+03  0.7818608E-02  0.1222973E+00
          2   -1    0    0  502    0  0.00000000000E+00  0.00000000000E+00  0.20259409922E+04  0.20259409922E+04  0.00000000000E+00 0. -1.
          1   -1    0    0  501    0 -0.00000000000E+00 -0.00000000000E+00 -0.27323953737E+03  0.27323953737E+03  0.00000000000E+00 0. -1.
         25    2    1    2    0    0  0.54195588228E+01  0.17456452389E+03 -0.48262212085E+02  0.22012208841E+03  0.12498939183E+03 0.  0.
          2    1    1    2  501    0  0.78302718144E+02  0.25777339078E+02 -0.12015096928E+03  0.14571218994E+03  0.00000000000E+00 0. -1.
          1    1    1    2  502    0 -0.83722276967E+02 -0.20034186297E+03  0.19211146362E+04  0.19333462512E+04  0.00000000000E+00 0. -1.
         22    1    3    3    0    0  0.53535750755E+02  0.56156823893E+02  0.12527519668E+02  0.78591375021E+02  0.00000000000E+00 0. -1.
         22    1    3    3    0    0 -0.48116191932E+02  0.11840770000E+03 -0.60789731753E+02  0.14153071339E+03  0.00000000000E+00 0. -1.
</event>
<event>
 7    1  0.5676357E-006  0.7450171E+02  0.7818608E-02  0.1456793E+00
          2   -1    0    0  502    0  0.00000000000E+00  0.00000000000E+00  0.26080998119E+04  0.26080998119E+04  0.00000000000E+00 0. -1.
          1   -1    0    0  501    0 -0.00000000000E+00 -0.00000000000E+00 -0.20867135364E+03  0.20867135364E+03  0.00000000000E+00 0. -1.
         25    2    1    2    0    0 -0.56225023938E+02 -0.88495136499E+02  0.13246812839E+03  0.21015587258E+03  0.12500017297E+03 0.  0.
          2    1    1    2  501    0  0.15133465913E+02  0.26877807956E+02 -0.16785915202E+03  0.17066966124E+03  0.00000000000E+00 0. -1.
          1    1    1    2  502    0  0.41091558025E+02  0.61617328543E+02  0.24348194819E+04  0.24359456318E+04  0.00000000000E+00 0. -1.
         22    1    3    3    0    0 -0.84646148740E+02 -0.10119424610E+03  0.10437203704E+03  0.16822237680E+03  0.00000000000E+00 0. -1.
         22    1    3    3    0    0  0.28421124803E+02  0.12699109600E+02  0.28096091342E+02  0.41933495781E+02  0.00000000000E+00 0. -1.
</event>
<event>
 7    1  0.5723393E-006  0.1015067E+03  0.7818608E-02  0.1352841E+00
          2   -1    0    0  502    0  0.00000000000E+00  0.00000000000E+00  0.25431274652E+04  0.25431274652E+04  0.00000000000E+00 0. -1.
          1   -1    0    0  501    0 -0.00000000000E+00 -0.00000000000E+00 -0.43642846221E+03  0.43642846221E+03  0.00000000000E+00 0. -1.
         25    2    1    2    0    0 -0.68469820385E+02 -0.73231434519E+02 -0.95420881088E+02  0.18649778444E+03  0.12500127899E+03 0.  0.
          2    1    1    2  501    0  0.25180341617E+02  0.10079998548E+03 -0.28606280406E+03  0.30434620836E+03  0.00000000000E+00 0. -1.
          1    1    1    2  502    0  0.43289478769E+02 -0.27568550965E+02  0.24881826881E+04  0.24887119346E+04  0.00000000000E+00 0. -1.
         22    1    3    3    0    0 -0.39916165051E+02 -0.10695020789E+03 -0.81169291115E+02  0.14007177096E+03  0.00000000000E+00 0. -1.
         22    1    3    3    0    0 -0.28553655335E+02  0.33718773372E+02 -0.14251589973E+02  0.46426013478E+02  0.00000000000E+00 0. -1.
</event>
<event>
 7    1  0.5676357E-006  0.6532349E+02  0.7818608E-02  0.1379599E+00
          2   -1    0    0  502    0  0.00000000000E+00  0.00000000000E+00  0.11141781861E+04  0.11141781861E+04  0.00000000000E+00 0. -1.
          1   -1    0    0  501    0 -0.00000000000E+00 -0.00000000000E+00 -0.17118848918E+03  0.17118848918E+03  0.00000000000E+00 0. -1.
         25    2    1    2    0    0 -0.10914606064E+03  0.44821954776E+02  0.87455429428E+02  0.19286264809E+03  0.12500271481E+03 0.  0.
          2    1    1    2  501    0  0.63816536016E+02  0.96966978550E+00 -0.10873604457E+03  0.12608337685E+03  0.00000000000E+00 0. -1.
          1    1    1    2  502    0  0.45329524629E+02 -0.45791624561E+02  0.96427031207E+03  0.96642065035E+03  0.00000000000E+00 0. -1.
         22    1    3    3    0    0  0.26499304423E+02 -0.12695891736E+01  0.25431445422E+02  0.36750284459E+02  0.00000000000E+00 0.  1.
         22    1    3    3    0    0 -0.13564536507E+03  0.46091543949E+02  0.62023984006E+02  0.15611236364E+03  0.00000000000E+00 0.  1.
</event>
<event>
 7    1  0.5676357E-006  0.2971163E+03  0.7818608E-02  0.1264928E+00
          2   -1    0    0  502    0  0.00000000000E+00  0.00000000000E+00  0.64328260435E+03  0.64328260435E+03  0.00000000000E+00 0. -1.
          1   -1    0    0  501    0 -0.00000000000E+00 -0.00000000000E+00 -0.50146974433E+03  0.50146974433E+03  0.00000000000E+00 0. -1.
         25    2    1    2    0    0  0.14244062908E+03 -0.22423934600E+03  0.15022830990E+03  0.32979591109E+03  0.12499672305E+03 0.  0.
          2    1    1    2  501    0 -0.16009267006E+03  0.25904390526E+03 -0.35412433549E+03  0.46705187383E+03  0.00000000000E+00 0. -1.
          1    1    1    2  502    0  0.17652040986E+02 -0.34804559263E+02  0.34570888560E+03  0.34790456375E+03  0.00000000000E+00 0. -1.
         22    1    3    3    0    0  0.35108462446E+02 -0.16909125704E+03  0.82072772716E+02  0.19120773354E+03  0.00000000000E+00 0.  1.
         22    1    3    3    0    0  0.10733216663E+03 -0.55148088955E+02  0.68155537188E+02  0.13858817756E+03  0.00000000000E+00 0.  1.
</event>
<event>
 7    1  0.5676357E-006  0.9003029E+02  0.7818608E-02  0.1388473E+00
          2   -1    0    0  502    0  0.00000000000E+00  0.00000000000E+00  0.10456907290E+04  0.10456907290E+04  0.00000000000E+00 0. -1.
          1   -1    0    0  501    0 -0.00000000000E+00 -0.00000000000E+00 -0.55552572719E+03  0.55552572719E+03  0.00000000000E+00 0. -1.
         25    2    1    2    0    0  0.74320047768E+02 -0.96387358799E+02 -0.31241316305E+03  0.35782829132E+03  0.12500043675E+03 0.  0.
          2    1    1    2  501    0 -0.55592723534E+02  0.57574814978E+02 -0.21266729658E+03  0.22722849572E+03  0.00000000000E+00 0. -1.
          1    1    1    2  502    0 -0.18727324234E+02  0.38812543821E+02  0.10152454615E+04  0.10161596692E+04  0.00000000000E+00 0. -1.
         22    1    3    3    0    0  0.53391617890E+02 -0.68613788574E+02 -0.66469496658E+02  0.10943815984E+03  0.00000000000E+00 0.  1.
         22    1    3    3    0    0  0.20928429878E+02 -0.27773570225E+02 -0.24594366639E+03  0.24839013148E+03  0.00000000000E+00 0.  1.
</event>
<event>
 7    1  0.5676357E-006  0.9661603E+02  0.7818608E-02  0.1379907E+00
          2   -1    0    0  502    0  0.00000000000E+00  0.00000000000E+00  0.16408551533E+04  0.16408551533E+04  0.00000000000E+00 0. -1.
          1   -1    0    0  501    0 -0.00000000000E+00 -0.00000000000E+00 -0.84404436970E+02  0.84404436970E+02  0.00000000000E+00 0. -1.
         25    2    1    2    0    0 -0.50180533729E+02  0.61895087254E+02  0.57824364481E+03  0.59694186223E+03  0.12499914531E+03 0.  0.
          2    1    1    2  501    0 -0.40652452522E+02 -0.14147715758E+02 -0.66155280749E+02  0.78925920509E+02  0.00000000000E+00 0. -1.
          1    1    1    2  502    0  0.90832986251E+02 -0.47747371496E+02  0.10443623523E+04  0.10493918075E+04  0.00000000000E+00 0. -1.
         22    1    3    3    0    0  0.11287553394E+02 -0.11132298553E+02  0.62544150841E+01  0.17042729850E+02  0.00000000000E+00 0.  1.
         22    1    3    3    0    0 -0.61468087123E+02  0.73027385808E+02  0.57198922973E+03  0.57989913238E+03  0.00000000000E+00 0.  1.
</event>
<event>
 7    1  0.5676357E-006  0.2936367E+02  0.7818608E-02  0.1653279E+00
          2   -1    0    0  502    0  0.00000000000E+00  0.00000000000E+00  0.65721808342E+03  0.65721808342E+03  0.00000000000E+00 0. -1.
          1   -1    0    0  501    0 -0.00000000000E+00 -0.00000000000E+00 -0.86617145356E+03  0.86617145356E+03  0.00000000000E+00 0. -1.
         25    2    1    2    0    0 -0.69597620869E-01  0.40069391062E+02  0.32950276273E+03  0.35469446342E+03  0.12502212120E+03 0.  0.
          2    1    1    2  501    0 -0.15781026804E+02 -0.15649601225E+02 -0.85275809060E+03  0.85304766098E+03  0.00000000000E+00 0. -1.
          1    1    1    2  502    0  0.15850624425E+02 -0.24419789837E+02  0.31430195773E+03  0.31564741257E+03  0.00000000000E+00 0. -1.
         22    1    3    3    0    0 -0.46471841861E+02 -0.23385666534E+02  0.11428023766E+03  0.12556470127E+03  0.00000000000E+00 0.  1.
         22    1    3    3    0    0  0.46402244240E+02  0.63455057596E+02  0.21522252506E+03  0.22912976214E+03  0.00000000000E+00 0.  1.
</event>
<event>
 7    1  0.5676357E-006  0.1369940E+03  0.7818608E-02  0.1273993E+00
          2   -1    0    0  502    0  0.00000000000E+00  0.00000000000E+00  0.75027352123E+03  0.75027352123E+03  0.00000000000E+00 0. -1.
          1   -1    0    0  501    0 -0.00000000000E+00 -0.00000000000E+00 -0.89643705276E+03  0.89643705276E+03  0.00000000000E+00 0. -1.
         25    2    1    2    0    0 -0.12231232973E+03  0.44834766029E+02 -0.28959898390E+03  0.34126683310E+03  0.12500007060E+03 0.  0.
          2    1    1    2  501    0  0.40749787104E+02  0.65956156643E+02 -0.57183296552E+03  0.57706472792E+03  0.00000000000E+00 0. -1.
          1    1    1    2  502    0  0.81562542622E+02 -0.11079092267E+03  0.71526841789E+03  0.72837901298E+03  0.00000000000E+00 0. -1.
         22    1    3    3    0    0 -0.77605744924E+02 -0.30362782982E+02 -0.19688224983E+03  0.21379235377E+03  0.00000000000E+00 0.  1.
         22    1    3    3    0    0 -0.44706584801E+02  0.75197549011E+02 -0.92716734074E+02  0.12747447933E+03  0.00000000000E+00 0.  1.
</event>
<event>
 7    1  0.5676357E-006  0.1786978E+03  0.7818608E-02  0.1246973E+00
          2   -1    0    0  502    0  0.00000000000E+00  0.00000000000E+00  0.18315238205E+04  0.18315238205E+04  0.00000000000E+00 0. -1.
          1   -1    0    0  501    0 -0.00000000000E+00 -0.00000000000E+00 -0.84882084167E+03  0.84882084167E+03  0.00000000000E+00 0. -1.
         25    2    1    2    0    0  0.15444070122E+03  0.20129610581E+03  0.24591892448E+03  0.37479611551E+03  0.12499583344E+03 0.  0.
          2    1    1    2  501    0 -0.10966681725E+03 -0.13804099689E+03 -0.77346958415E+03  0.79330783762E+03  0.00000000000E+00 0. -1.
          1    1    1    2  502    0 -0.44773883967E+02 -0.63255108922E+02  0.15102536385E+04  0.15122407090E+04  0.00000000000E+00 0. -1.
         22    1    3    3    0    0  0.29870731021E+02  0.16256861481E+02  0.10637922756E+03  0.11168297172E+03  0.00000000000E+00 0.  1.
         22    1    3    3    0    0  0.12456997020E+03  0.18503924433E+03  0.13953969692E+03  0.26311314379E+03  0.00000000000E+00 0.  1.
</event>
<event>
 7    1  0.5676357E-006  0.2826216E+03  0.7818608E-02  0.1094470E+00
          2   -1    0    0  502    0  0.00000000000E+00  0.00000000000E+00  0.19641216693E+03  0.19641216693E+03  0.00000000000E+00 0. -1.
          1   -1    0    0  501    0 -0.00000000000E+00 -0.00000000000E+00 -0.28623215751E+04  0.28623215751E+04  0.00000000000E+00 0. -1.
         25    2    1    2    0    0  0.20619648141E+03 -0.18726989336E+03 -0.11676451941E+04  0.12068995723E+04  0.12499710641E+03 0.  0.
          2    1    1    2  501    0  0.77745748267E+02  0.27171782377E+03 -0.15281791226E+04  0.15540934360E+04  0.00000000000E+00 0. -1.
          1    1    1    2  502    0 -0.28394222968E+03 -0.84447930414E+02  0.29914908475E+02  0.29774073369E+03  0.00000000000E+00 0. -1.
         22    1    3    3    0    0  0.10015702481E+03 -0.15084829804E+03 -0.87439590578E+03  0.89294727654E+03  0.00000000000E+00 0. -1.
         22    1    3    3    0    0  0.10603945661E+03 -0.36421595313E+02 -0.29324928828E+03  0.31395229580E+03  0.00000000000E+00 0. -1.
</event>
<event>
 7    1  0.5676357E-006  0.5893206E+02  0.7818608E-02  0.1426527E+00
          2   -1    0    0  502    0  0.00000000000E+00  0.00000000000E+00  0.95268613505E+03  0.95268613505E+03  0.00000000000E+00 0. -1.
          1   -1    0    0  501    0 -0.00000000000E+00 -0.00000000000E+00 -0.17988143401E+04  0.17988143401E+04  0.00000000000E+00 0. -1.
         25    2    1    2    0    0 -0.37481438875E+02  0.16092877311E+02  0.62375185047E+03  0.63746052421E+03  0.12500284001E+03 0.  0.
          2    1    1    2  501    0  0.13066809927E+01  0.48848547575E+02 -0.17873323030E+04  0.17880001816E+04  0.00000000000E+00 0. -1.
          1    1    1    2  502    0  0.36174757882E+02 -0.64941424887E+02  0.31745224747E+03  0.32603976935E+03  0.00000000000E+00 0. -1.
         22    1    3    3    0    0 -0.87647846460E+01 -0.41340491908E+02  0.45411770937E+03  0.45607976461E+03  0.00000000000E+00 0. -1.
         22    1    3    3    0    0 -0.28716654229E+02  0.57433369219E+02  0.16963414109E+03  0.18138075960E+03  0.00000000000E+00 0. -1.
</event>
<event>
 7    1  0.5676357E-006  0.1930176E+03  0.7818608E-02  0.1207281E+00
          2   -1    0    0  502    0  0.00000000000E+00  0.00000000000E+00  0.26931852891E+03  0.26931852891E+03  0.00000000000E+00 0. -1.
          1   -1    0    0  501    0 -0.00000000000E+00 -0.00000000000E+00 -0.19016089522E+04  0.19016089522E+04  0.00000000000E+00 0. -1.
         25    2    1    2    0    0 -0.19346431156E+03 -0.22583301711E+03 -0.10694069663E+04  0.11169954260E+04  0.12497411988E+03 0.  0.
          2    1    1    2  501    0  0.76110341565E+02  0.77067914280E+02 -0.76747225121E+03  0.77507799858E+03  0.00000000000E+00 0. -1.
          1    1    1    2  502    0  0.11735397000E+03  0.14876510283E+03  0.20458879425E+03  0.27885405650E+03  0.00000000000E+00 0. -1.
         22    1    3    3    0    0 -0.98019213164E+02 -0.60761813782E+02 -0.24443890383E+03  0.27027789749E+03  0.00000000000E+00 0. -1.
         22    1    3    3    0    0 -0.95445098397E+02 -0.16507120333E+03 -0.82496806251E+03  0.84671752854E+03  0.00000000000E+00 0. -1.
</event>
<event>
 7    1  0.5676357E-006  0.1853716E+03  0.7818608E-02  0.1224733E+00
          2   -1    0    0  502    0  0.00000000000E+00  0.00000000000E+00  0.16379698893E+04  0.16379698893E+04  0.00000000000E+00 0. -1.
          1   -1    0    0  501    0 -0.00000000000E+00 -0.00000000000E+00 -0.13094166458E+04  0.13094166458E+04  0.00000000000E+00 0. -1.
         25    2    1    2    0    0 -0.10630613543E+03  0.19058316273E+03 -0.24317886816E+03  0.34983435968E+03  0.12500072376E+03 0.  0.
          2    1    1    2  501    0  0.14855484330E+03 -0.10685401090E+03 -0.10032388487E+04  0.10197914045E+04  0.00000000000E+00 0. -1.
          1    1    1    2  502    0 -0.42248707872E+02 -0.83729151828E+02  0.15749709604E+04  0.15777607709E+04  0.00000000000E+00 0. -1.
         22    1    3    3    0    0 -0.71595360974E+02  0.87634523991E+02 -0.41086394461E+02  0.12039018780E+03  0.00000000000E+00 0. -1.
         22    1    3    3    0    0 -0.34710774455E+02  0.10294863874E+03 -0.20209247370E+03  0.22944417188E+03  0.00000000000E+00 0. -1.
</event>
<event>
 7    1  0.5676357E-006  0.6582234E+02  0.7818608E-02  0.1448061E+00
          2   -1    0    0  502    0  0.00000000000E+00  0.00000000000E+00  0.14354832197E+04  0.14354832197E+04  0.00000000000E+00 0. -1.
          1   -1    0    0  501    0 -0.00000000000E+00 -0.00000000000E+00 -0.17388168706E+03  0.17388168706E+03  0.00000000000E+00 0. -1.
         25    2    1    2    0    0  0.26808436109E+02  0.11469622706E+02  0.18756407349E+02  0.12972006479E+03  0.12500099160E+03 0.  0.
          2    1    1    2  501    0  0.33361931846E+02  0.16511184484E+02 -0.11464347238E+03  0.12053532042E+03  0.00000000000E+00 0. -1.
          1    1    1    2  502    0 -0.60170367955E+02 -0.27980807189E+02  0.13574885976E+04  0.13591095215E+04  0.00000000000E+00 0. -1.
         22    1    3    3    0    0  0.50193611790E+02  0.40278131693E+02  0.49773751186E+02  0.81358176382E+02  0.00000000000E+00 0.  1.
         22    1    3    3    0    0 -0.23385175681E+02 -0.28808508987E+02 -0.31017343836E+02  0.48361888408E+02  0.00000000000E+00 0.  1.
</event>
<event>
 7    1  0.5676357E-006  0.5274487E+02  0.7818608E-02  0.1481733E+00
          2   -1    0    0  502    0  0.00000000000E+00  0.00000000000E+00  0.18789518276E+03  0.18789518276E+03  0.00000000000E+00 0. -1.
          1   -1    0    0  501    0 -0.00000000000E+00 -0.00000000000E+00 -0.13039275801E+04  0.13039275801E+04  0.00000000000E+00 0. -1.
         25    2    1    2    0    0 -0.41618191121E+02  0.77119289039E+02 -0.74067612055E+02  0.16967546766E+03  0.12499717835E+03 0.  0.
          2    1    1    2  501    0  0.14683729933E+02 -0.33344168839E+02 -0.11770503642E+04  0.11776141156E+04  0.00000000000E+00 0. -1.
          1    1    1    2  502    0  0.26934461187E+02 -0.43775120200E+02  0.13508557894E+03  0.14453317953E+03  0.00000000000E+00 0. -1.
         22    1    3    3    0    0 -0.60294719723E+02  0.32580474482E+02  0.13332551882E+02  0.69819033821E+02  0.00000000000E+00 0. -1.
         22    1    3    3    0    0  0.18676528602E+02  0.44538814557E+02 -0.87400163938E+02  0.99856433839E+02  0.00000000000E+00 0. -1.
</event>
<event>
 7    1  0.5676357E-006  0.1901850E+03  0.7818608E-02  0.1261924E+00
          2   -1    0    0  502    0  0.00000000000E+00  0.00000000000E+00  0.92813707244E+03  0.92813707244E+03  0.00000000000E+00 0. -1.
          1   -1    0    0  501    0 -0.00000000000E+00 -0.00000000000E+00 -0.77651442254E+03  0.77651442254E+03  0.00000000000E+00 0. -1.
         25    2    1    2    0    0 -0.50738299684E+02 -0.16924862668E+03  0.51823584077E+03  0.56161423056E+03  0.12499073816E+03 0.  0.
          2    1    1    2  501    0 -0.61854282588E+02 -0.10758512013E+02 -0.72433511163E+03  0.72705092792E+03  0.00000000000E+00 0. -1.
          1    1    1    2  502    0  0.11259258227E+03  0.18000713870E+03  0.35772192076E+03  0.41598633650E+03  0.00000000000E+00 0. -1.
         22    1    3    3    0    0 -0.79489198412E+02 -0.51811944988E+02  0.24950371713E+03  0.26693653771E+03  0.00000000000E+00 0. -1.
         22    1    3    3    0    0  0.28750898728E+02 -0.11743668170E+03  0.26873212364E+03  0.29467769285E+03  0.00000000000E+00 0. -1.
</event>
<event>
 7    1  0.5676357E-006  0.9596258E+02  0.7818608E-02  0.1351921E+00
          2   -1    0    0  502    0  0.00000000000E+00  0.00000000000E+00  0.13008394757E+04  0.13008394757E+04  0.00000000000E+00 0. -1.
          1   -1    0    0  501    0 -0.00000000000E+00 -0.00000000000E+00 -0.78297676129E+03  0.78297676129E+03  0.00000000000E+00 0. -1.
         25    2    1    2    0    0 -0.13275127358E+03  0.43331607744E+02  0.70458851877E+03  0.72908882274E+03  0.12500000721E+03 0.  0.
          2    1    1    2  501    0  0.52143486264E+02 -0.16572926885E+02 -0.76665847169E+03  0.76860836404E+03  0.00000000000E+00 0. -1.
          1    1    1    2  502    0  0.80607787317E+02 -0.26758680859E+02  0.57993266733E+03  0.58611905020E+03  0.00000000000E+00 0. -1.
         22    1    3    3    0    0 -0.58829131851E+02  0.51633969102E+01  0.55323109994E+03  0.55637413434E+03  0.00000000000E+00 0.  1.
         22    1    3    3    0    0 -0.73922141729E+02  0.38168210834E+02  0.15135741883E+03  0.17271468840E+03  0.00000000000E+00 0.  1.
</event>
<event>
 7    1  0.5676357E-006  0.1702768E+03  0.7818608E-02  0.1285779E+00
          2   -1    0    0  502    0  0.00000000000E+00  0.00000000000E+00  0.25697764952E+03  0.25697764952E+03  0.00000000000E+00 0. -1.
          1   -1    0    0  501    0 -0.00000000000E+00 -0.00000000000E+00 -0.66245768420E+03  0.66245768420E+03  0.00000000000E+00 0. -1.
         25    2    1    2    0    0 -0.78063451056E+02  0.17468563562E+03 -0.11974134118E+03  0.25801279440E+03  0.12499455830E+03 0.  0.
          2    1    1    2  501    0  0.10786405874E+03 -0.12756098293E+03 -0.45421457472E+03  0.48396005973E+03  0.00000000000E+00 0. -1.
          1    1    1    2  502    0 -0.29800607688E+02 -0.47124652695E+02  0.16847588121E+03  0.17746247959E+03  0.00000000000E+00 0. -1.
         22    1    3    3    0    0 -0.96878220955E+02  0.17647023528E+03 -0.85120779463E+02  0.21856962445E+03  0.00000000000E+00 0.  1.
         22    1    3    3    0    0  0.18814769899E+02 -0.17845996577E+01 -0.34620561718E+02  0.39443169953E+02  0.00000000000E+00 0.  1.
</event>
<event>
 7    1  0.5676357E-006  0.3725364E+02  0.7818608E-02  0.1546861E+00
          2   -1    0    0  502    0  0.00000000000E+00  0.00000000000E+00  0.10327356202E+04  0.10327356202E+04  0.00000000000E+00 0. -1.
          1   -1    0    0  501    0 -0.00000000000E+00 -0.00000000000E+00 -0.76344070369E+02  0.76344070369E+02  0.00000000000E+00 0. -1.
         25    2    1    2    0    0  0.47031834141E+02  0.40107820693E+02  0.29695935654E+03  0.32806989503E+03  0.12499746351E+03 0.  0.
          2    1    1    2  501    0 -0.32641540679E+02 -0.63493207812E+01 -0.55735223820E+02  0.64901457815E+02  0.00000000000E+00 0. -1.
          1    1    1    2  502    0 -0.14390293462E+02 -0.33758499912E+02  0.71516741711E+03  0.71610833772E+03  0.00000000000E+00 0. -1.
         22    1    3    3    0    0  0.58582804986E+02  0.32558692630E+02  0.57772870875E+02  0.88485694409E+02  0.00000000000E+00 0. -1.
         22    1    3    3    0    0 -0.11550970846E+02  0.75491280629E+01  0.23918648567E+03  0.23958420063E+03  0.00000000000E+00 0. -1.
</event>
<event>
 7    1  0.5676357E-006  0.1287640E+03  0.7818608E-02  0.1354257E+00
          2   -1    0    0  502    0  0.00000000000E+00  0.00000000000E+00  0.20705100402E+04  0.20705100402E+04  0.00000000000E+00 0. -1.
          1   -1    0    0  501    0 -0.00000000000E+00 -0.00000000000E+00 -0.30349496690E+02  0.30349496690E+02  0.00000000000E+00 0. -1.
         25    2    1    2    0    0 -0.12598567761E+03  0.19381881941E+02  0.16941072290E+04  0.17034882320E+04  0.12499921965E+03 0.  0.
          2    1    1    2  501    0  0.25197854592E+01  0.39895634965E+02  0.22148062471E+02  0.45700631060E+02  0.00000000000E+00 0. -1.
          1    1    1    2  502    0  0.12346589215E+03 -0.59277516906E+02  0.32390525211E+03  0.35167067390E+03  0.00000000000E+00 0. -1.
         22    1    3    3    0    0 -0.81358096015E+02 -0.47784150775E+02  0.74263610289E+03  0.74860593517E+03  0.00000000000E+00 0. -1.
         22    1    3    3    0    0 -0.44627581597E+02  0.67166032716E+02  0.95147112606E+03  0.95488229678E+03  0.00000000000E+00 0. -1.
</event>
<event>
 7    1  0.5676357E-006  0.6192876E+02  0.7818608E-02  0.1491071E+00
          2   -1    0    0  502    0  0.00000000000E+00  0.00000000000E+00  0.25090992042E+03  0.25090992042E+03  0.00000000000E+00 0. -1.
          1   -1    0    0  501    0 -0.00000000000E+00 -0.00000000000E+00 -0.38166292149E+03  0.38166292149E+03  0.00000000000E+00 0. -1.
         25    2    1    2    0    0 -0.59167907849E+02 -0.43499443654E+02 -0.23513936523E+03  0.27623784715E+03  0.12499513671E+03 0.  0.
          2    1    1    2  501    0  0.57513120473E+02  0.14479407559E+02 -0.11799528529E+03  0.13206172656E+03  0.00000000000E+00 0. -1.
          1    1    1    2  502    0  0.16547873765E+01  0.29020036095E+02  0.22238164945E+03  0.22427326820E+03  0.00000000000E+00 0. -1.
         22    1    3    3    0    0  0.41045167735E+01  0.32236836000E+02 -0.16693721978E+02  0.36534107444E+02  0.00000000000E+00 0.  1.
         22    1    3    3    0    0 -0.63272424623E+02 -0.75736279654E+02 -0.21844564325E+03  0.23970373970E+03  0.00000000000E+00 0.  1.
</event>
<event>
 7    1  0.5676357E-006  0.1654238E+03  0.7818608E-02  0.1235274E+00
          2   -1    0    0  502    0  0.00000000000E+00  0.00000000000E+00  0.14111560153E+04  0.14111560153E+04  0.00000000000E+00 0. -1.
          1   -1    0    0  501    0 -0.00000000000E+00 -0.00000000000E+00 -0.86136103156E+03  0.86136103156E+03  0.00000000000E+00 0. -1.
         25    2    1    2    0    0 -0.11151448575E+02  0.24571928937E+03 -0.22873569930E+02  0.27686658059E+03  0.12501831574E+03 0.  0.
          2    1    1    2  501    0  0.38107332393E+02 -0.15539919925E+03 -0.70073147184E+03  0.71876677409E+03  0.00000000000E+00 0. -1.
          1    1    1    2  502    0 -0.26955883818E+02 -0.90320090119E+02  0.12734000255E+04  0.12768836922E+04  0.00000000000E+00 0. -1.
         22    1    3    3    0    0  0.31648516928E+02  0.23278720616E+02 -0.31235630670E+02  0.50191553877E+02  0.00000000000E+00 0. -1.
         22    1    3    3    0    0 -0.42799965503E+02  0.22244056875E+03  0.83620607398E+01  0.22667502671E+03  0.00000000000E+00 0. -1.
</event>
<event>
 7    1  0.5676357E-006  0.1070837E+03  0.7818608E-02  0.1421249E+00
          2   -1    0    0  502    0  0.00000000000E+00  0.00000000000E+00  0.36081080257E+03  0.36081080257E+03  0.00000000000E+00 0. -1.
          1   -1    0    0  501    0 -0.00000000000E+00 -0.00000000000E+00 -0.32967812654E+03  0.32967812654E+03  0.00000000000E+00 0. -1.
         25    2    1    2    0    0  0.38694078696E+02  0.10505349338E+03 -0.26949612633E+03  0.31746930303E+03  0.12500051225E+03 0.  0.
          2    1    1    2  501    0  0.22221885843E+02 -0.17035662042E+02 -0.20381624634E+02  0.34632883425E+02  0.00000000000E+00 0. -1.
          1    1    1    2  502    0 -0.60915964539E+02 -0.88017831336E+02  0.32101042700E+03  0.33838674266E+03  0.00000000000E+00 0. -1.
         22    1    3    3    0    0  0.43809116612E+02  0.10870376550E+02 -0.17520884896E+02  0.48418851620E+02  0.00000000000E+00 0. -1.
         22    1    3    3    0    0 -0.51150379154E+01  0.94183116828E+02 -0.25197524143E+03  0.26905045141E+03  0.00000000000E+00 0. -1.
</event>
<event>
 7    1  0.5676357E-006  0.1644426E+03  0.7818608E-02  0.1292352E+00
          2   -1    0    0  502    0  0.00000000000E+00  0.00000000000E+00  0.11634059708E+04  0.11634059708E+04  0.00000000000E+00 0. -1.
          1   -1    0    0  501    0 -0.00000000000E+00 -0.00000000000E+00 -0.14638933828E+04  0.14638933828E+04  0.00000000000E+00 0. -1.
         25    2    1    2    0    0  0.15405116228E+03 -0.35936886331E+02  0.26595644637E+03  0.33373747075E+03  0.12499859045E+03 0.  0.
          2    1    1    2  501    0 -0.13911597780E+03  0.88124587207E+02 -0.14244011597E+04  0.14338890689E+04  0.00000000000E+00 0. -1.
          1    1    1    2  502    0 -0.14935184482E+02 -0.52187700876E+02  0.85795730140E+03  0.85967281385E+03  0.00000000000E+00 0. -1.
         22    1    3    3    0    0 -0.20706196243E+02  0.37654505300E+01  0.41344777164E+02  0.46393057446E+02  0.00000000000E+00 0. -1.
         22    1    3    3    0    0  0.17475735852E+03 -0.39702336861E+02  0.22461166921E+03  0.28734441330E+03  0.00000000000E+00 0. -1.
</event>
<event>
 7    1  0.5676357E-006  0.6019620E+02  0.7818608E-02  0.1488179E+00
          2   -1    0    0  502    0  0.00000000000E+00  0.00000000000E+00  0.17564524946E+04  0.17564524946E+04  0.00000000000E+00 0. -1.
          1   -1    0    0  501    0 -0.00000000000E+00 -0.00000000000E+00 -0.15347047053E+04  0.15347047053E+04  0.00000000000E+00 0. -1.
         25    2    1    2    0    0 -0.34595484619E+02  0.38814993012E+02  0.16289034276E+04  0.16345205760E+04  0.12501074281E+03 0.  0.
          2    1    1    2  501    0  0.11751964674E+02 -0.59043594083E+02 -0.15294291212E+04  0.15306135017E+04  0.00000000000E+00 0. -1.
          1    1    1    2  502    0  0.22843519945E+02  0.20228601071E+02  0.12227348287E+03  0.12602312215E+03  0.00000000000E+00 0. -1.
         22    1    3    3    0    0  0.15005576210E+01  0.23096229793E+02  0.49683923999E+02  0.54810398719E+02  0.00000000000E+00 0.  1.
         22    1    3    3    0    0 -0.36096042240E+02  0.15718763219E+02  0.15792195036E+04  0.15797101773E+04  0.00000000000E+00 0.  1.
</event>
<event>
 7    1  0.5676357E-006  0.5023789E+02  0.7818608E-02  0.1577073E+00
          2   -1    0    0  502    0  0.00000000000E+00  0.00000000000E+00  0.13649852902E+04  0.13649852902E+04  0.00000000000E+00 0. -1.
          1   -1    0    0  501    0 -0.00000000000E+00 -0.00000000000E+00 -0.19822860729E+02  0.19822860729E+02  0.00000000000E+00 0. -1.
         25    2    1    2    0    0  0.54274716410E+02  0.41174315625E+02  0.61051611443E+03  0.62689415211E+03  0.12500113142E+03 0.  0.
          2    1    1    2  501    0 -0.18616902288E+02 -0.82698550270E+01 -0.12599326548E+01  0.20409972642E+02  0.00000000000E+00 0. -1.
          1    1    1    2  502    0 -0.35657814122E+02 -0.32904460598E+02  0.73590624765E+03  0.73750402613E+03  0.00000000000E+00 0. -1.
         22    1    3    3    0    0  0.58663968150E+02 -0.27139384053E+02  0.40881337438E+03  0.41389175203E+03  0.00000000000E+00 0. -1.
         22    1    3    3    0    0 -0.43892517399E+01  0.68313699679E+02  0.20170274006E+03  0.21300240008E+03  0.00000000000E+00 0. -1.
</event>
<event>
 7    1  0.5676357E-006  0.1669039E+03  0.7818608E-02  0.1332755E+00
          2   -1    0    0  502    0  0.00000000000E+00  0.00000000000E+00  0.44201166688E+03  0.44201166688E+03  0.00000000000E+00 0. -1.
          1   -1    0    0  501    0 -0.00000000000E+00 -0.00000000000E+00 -0.14212725715E+04  0.14212725715E+04  0.00000000000E+00 0. -1.
         25    2    1    2    0    0  0.88820198328E+01  0.16142051345E+03  0.17264662785E+03  0.26751423723E+03  0.12498614553E+03 0.  0.
          2    1    1    2  501    0 -0.45992219227E+02 -0.16066290133E+03 -0.13671623946E+04  0.13773383263E+04  0.00000000000E+00 0. -1.
          1    1    1    2  502    0  0.37110199394E+02 -0.75761212170E+00  0.21525486212E+03  0.21843167477E+03  0.00000000000E+00 0. -1.
         22    1    3    3    0    0  0.63913409418E+02  0.10295722529E+03  0.81454312116E+02  0.14601342098E+03  0.00000000000E+00 0. -1.
         22    1    3    3    0    0 -0.55031389585E+02  0.58463288164E+02  0.91192315735E+02  0.12150081626E+03  0.00000000000E+00 0. -1.
</event>
<event>
 7    1  0.5676357E-006  0.5483467E+02  0.7818608E-02  0.1457397E+00
          2   -1    0    0  502    0  0.00000000000E+00  0.00000000000E+00  0.31803863108E+03  0.31803863108E+03  0.00000000000E+00 0. -1.
          1   -1    0    0  501    0 -0.00000000000E+00 -0.00000000000E+00 -0.15878682234E+04  0.15878682234E+04  0.00000000000E+00 0. -1.
         25    2    1    2    0    0  0.11450720717E+02 -0.10274119033E+02  0.27213567787E+03  0.29986314855E+03  0.12499361649E+03 0.  0.
          2    1    1    2  501    0 -0.20103227336E+02  0.51091240772E+02 -0.15597293812E+04  0.15606954210E+04  0.00000000000E+00 0. -1.
          1    1    1    2  502    0  0.86525066190E+01 -0.40817121739E+02  0.17764111057E+02  0.45348284858E+02  0.00000000000E+00 0. -1.
         22    1    3    3    0    0  0.17213762321E+02 -0.72966543525E+01 -0.75055729539E+01  0.20146672265E+02  0.00000000000E+00 0.  1.
         22    1    3    3    0    0 -0.57630416038E+01 -0.29774646803E+01  0.27964125083E+03  0.27971647629E+03  0.00000000000E+00 0.  1.
</event>
<event>
 7    1  0.5676357E-006  0.1012916E+03  0.7818608E-02  0.1294987E+00
          2   -1    0    0  502    0  0.00000000000E+00  0.00000000000E+00  0.44697735944E+02  0.44697735944E+02  0.00000000000E+00 0. -1.
          1   -1    0    0  501    0 -0.00000000000E+00 -0.00000000000E+00 -0.26121326664E+04  0.26121326664E+04  0.00000000000E+00 0. -1.
         25    2    1    2    0    0 -0.23091094261E+02  0.64816464595E+02 -0.18252228011E+03  0.23167355851E+03  0.12499552895E+03 0.  0.
          2    1    1    2  501    0  0.10054187624E+03 -0.27456396774E+02 -0.23062817321E+04  0.23086355170E+04  0.00000000000E+00 0. -1.
          1    1    1    2  502    0 -0.77450781978E+02 -0.37360067821E+02 -0.78630918188E+02  0.11652132677E+03  0.00000000000E+00 0. -1.
         22    1    3    3    0    0 -0.39692233201E+02  0.71268261323E+02 -0.45319008071E+02  0.93319081334E+02  0.00000000000E+00 0. -1.
         22    1    3    3    0    0  0.16601138939E+02 -0.64517967281E+01 -0.13720327204E+03  0.13835447717E+03  0.00000000000E+00 0. -1.
</event>
<event>
 7    1  0.5676357E-006  0.5110326E+02  0.7818608E-02  0.1539202E+00
          2   -1    0    0  502    0  0.00000000000E+00  0.00000000000E+00  0.37549371954E+03  0.37549371954E+03  0.00000000000E+00 0. -1.
          1   -1    0    0  501    0 -0.00000000000E+00 -0.00000000000E+00 -0.54921709242E+02  0.54921709242E+02  0.00000000000E+00 0. -1.
         25    2    1    2    0    0 -0.66439103130E+02 -0.91895205086E+01  0.11937172161E+03  0.18540114951E+03  0.12500150642E+03 0.  0.
          2    1    1    2  501    0  0.47917786983E+02 -0.83018134415E+01  0.69795410784E+01  0.49129913591E+02  0.00000000000E+00 0. -1.
          1    1    1    2  502    0  0.18521316147E+02  0.17491333950E+02  0.19422074761E+03  0.19588436568E+03  0.00000000000E+00 0. -1.
         22    1    3    3    0    0 -0.54129931090E+02  0.39972365332E+02  0.14366647357E+02  0.68805813609E+02  0.00000000000E+00 0.  1.
         22    1    3    3    0    0 -0.12309172040E+02 -0.49161885841E+02  0.10500507425E+03  0.11659533590E+03  0.00000000000E+00 0.  1.
</event>
<event>
 7    1  0.5676357E-006  0.4932875E+02  0.7818608E-02  0.1497894E+00
          2   -1    0    0  502    0  0.00000000000E+00  0.00000000000E+00  0.82893419140E+03  0.82893419140E+03  0.00000000000E+00 0. -1.
          1   -1    0    0  501    0 -0.00000000000E+00 -0.00000000000E+00 -0.63881039799E+03  0.63881039799E+03  0.00000000000E+00 0. -1.
         25    2    1    2    0    0  0.92313277798E+01  0.27356722765E+02  0.48209957048E+03  0.49887742897E+03  0.12500034231E+03 0.  0.
          2    1    1    2  501    0  0.20931283550E+02 -0.44729788948E+02 -0.62855538314E+03  0.63049246016E+03  0.00000000000E+00 0. -1.
          1    1    1    2  502    0 -0.30162611329E+02  0.17373066184E+02  0.33657960607E+03  0.33837470026E+03  0.00000000000E+00 0. -1.
         22    1    3    3    0    0 -0.14216639143E+02  0.36113734652E+02  0.38826294247E+02  0.54898049000E+02  0.00000000000E+00 0. -1.
         22    1    3    3    0    0  0.23447966923E+02 -0.87570118869E+01  0.44327327624E+03  0.44397937997E+03  0.00000000000E+00 0. -1.
</event>
<event>
 7    1  0.5676357E-006  0.1432999E+03  0.7818608E-02  0.1404141E+00
          2   -1    0    0  502    0  0.00000000000E+00  0.00000000000E+00  0.16307668950E+04  0.16307668950E+04  0.00000000000E+00 0. -1.
          1   -1    0    0  501    0 -0.00000000000E+00 -0.00000000000E+00 -0.27704529029E+02  0.27704529029E+02  0.00000000000E+00 0. -1.
         25    2    1    2    0    0  0.11685622065E+03 -0.55850010372E+02  0.69436280156E+03  0.71731368992E+03  0.12499851840E+03 0.  0.
          2    1    1    2  501    0  0.14031658455E+02 -0.19347156124E+02  0.43448723402E+01  0.24291517135E+02  0.00000000000E+00 0. -1.
          1    1    1    2  502    0 -0.13088787910E+03  0.75197166496E+02  0.90435469204E+03  0.91686621693E+03  0.00000000000E+00 0. -1.
         22    1    3    3    0    0  0.51971947526E+02  0.19536494891E+02  0.97335768632E+02  0.11205806449E+03  0.00000000000E+00 0.  1.
         22    1    3    3    0    0  0.64884273124E+02 -0.75386505263E+02  0.59702703292E+03  0.60525562543E+03  0.00000000000E+00 0.  1.
</event>
<event>
 7    1  0.5676357E-006  0.1123514E+03  0.7818608E-02  0.1331974E+00
          2   -1    0    0  502    0  0.00000000000E+00  0.00000000000E+00  0.36430882484E+04  0.36430882484E+04  0.00000000000E+00 0. -1.
          1   -1    0    0  501    0 -0.00000000000E+00 -0.00000000000E+00 -0.64479121489E+02  0.64479121489E+02  0.00000000000E+00 0. -1.
         25    2    1    2    0    0 -0.62053852827E+02 -0.35573453432E+02  0.38241124721E+03  0.40863132859E+03  0.12500019787E+03 0.  0.
          2    1    1    2  501    0 -0.11084952552E+02 -0.54401684382E+02 -0.35017895408E+02  0.65640478635E+02  0.00000000000E+00 0. -1.
          1    1    1    2  502    0  0.73138805379E+02  0.89975137814E+02  0.32312157752E+04  0.32332955627E+04  0.00000000000E+00 0. -1.
         22    1    3    3    0    0 -0.36393052474E+02  0.22648494823E+02  0.30694024686E+03  0.30991889863E+03  0.00000000000E+00 0. -1.
         22    1    3    3    0    0 -0.25660800353E+02 -0.58221948255E+02  0.75471000355E+02  0.98712429956E+02  0.00000000000E+00 0. -1.
</event>
<event>
 7    1  0.1357577E-005  0.6966137E+02  0.7818608E-02  0.1387742E+00
          2   -1    0    0  502    0  0.00000000000E+00  0.00000000000E+00  0.11536217380E+04  0.11536217380E+04  0.00000000000E+00 0. -1.
          1   -1    0    0  501    0 -0.00000000000E+00 -0.00000000000E+00 -0.15611018874E+04  0.15611018874E+04  0.00000000000E+00 0. -1.
         25    2    1    2    0    0  0.88022932156E+02  0.37121827244E+02 -0.24468572618E+03  0.29089294297E+03  0.12498613136E+03 0.  0.
          2    1    1    2  501    0 -0.51465258426E+02  0.22137332530E+02 -0.12916326497E+04  0.12928471047E+04  0.00000000000E+00 0. -1.
          1    1    1    2  502    0 -0.36557673730E+02 -0.59259159774E+02  0.11288382264E+04  0.11309835777E+04  0.00000000000E+00 0. -1.
         22    1    3    3    0    0  0.10205280347E+03 -0.63492608192E+01 -0.11753980152E+03  0.15579054127E+03  0.00000000000E+00 0. -1.
         22    1    3    3    0    0 -0.14029871316E+02  0.43471088063E+02 -0.12714592466E+03  0.13510240170E+03  0.00000000000E+00 0. -1.
</event>
<event>
 7    1  0.5676357E-006  0.1248133E+03  0.7818608E-02  0.1321823E+00
          2   -1    0    0  502    0  0.00000000000E+00  0.00000000000E+00  0.14228075958E+04  0.14228075958E+04  0.00000000000E+00 0. -1.
          1   -1    0    0  501    0 -0.00000000000E+00 -0.00000000000E+00 -0.39326883000E+03  0.39326883000E+03  0.00000000000E+00 0. -1.
         25    2    1    2    0    0  0.14475788142E+03  0.57254726610E+02  0.77388281148E+03  0.79922029117E+03  0.12500207985E+03 0.  0.
          2    1    1    2  501    0 -0.31671531219E+02 -0.44558422027E+02 -0.37350615010E+03  0.37748560638E+03  0.00000000000E+00 0. -1.
          1    1    1    2  502    0 -0.11308635020E+03 -0.12696304583E+02  0.62916210441E+03  0.63937052823E+03  0.00000000000E+00 0. -1.
         22    1    3    3    0    0  0.30945652605E+02 -0.13742411413E+02  0.41007368450E+03  0.41146921392E+03  0.00000000000E+00 0. -1.
         22    1    3    3    0    0  0.11381222881E+03  0.70997138023E+02  0.36380912698E+03  0.38775107725E+03  0.00000000000E+00 0. -1.
</event>
<event>
 7    1  0.5676357E-006  0.5023341E+02  0.7818608E-02  0.1520792E+00
          2   -1    0    0  502    0  0.00000000000E+00  0.00000000000E+00  0.14111492292E+04  0.14111492292E+04  0.00000000000E+00 0. -1.
          1   -1    0    0  501    0 -0.00000000000E+00 -0.00000000000E+00 -0.67865637941E+02  0.67865637941E+02  0.00000000000E+00 0. -1.
         25    2    1    2    0    0  0.41471989950E+02  0.11551264549E+02  0.38386721500E+03  0.40599565627E+03  0.12500030599E+03 0.  0.
          2    1    1    2  501    0 -0.89659635915E+01  0.27855662699E+02 -0.52344827971E+02  0.59969220962E+02  0.00000000000E+00 0. -1.
          1    1    1    2  502    0 -0.32506026359E+02 -0.39406927248E+02  0.10117612042E+04  0.10130499899E+04  0.00000000000E+00 0. -1.
         22    1    3    3    0    0 -0.27876924135E+02 -0.23523092920E+02  0.43023654061E+02  0.56404730374E+02  0.00000000000E+00 0. -1.
         22    1    3    3    0    0  0.69348914085E+02  0.35074357469E+02  0.34084356094E+03  0.34959092590E+03  0.00000000000E+00 0. -1.
</event>
<event>
 7    1  0.5676357E-006  0.7526998E+02  0.7818608E-02  0.1355383E+00
          2   -1    0    0  502    0  0.00000000000E+00  0.00000000000E+00  0.10359327211E+04  0.10359327211E+04  0.00000000000E+00 0. -1.
          1   -1    0    0  501    0 -0.00000000000E+00 -0.00000000000E+00 -0.43985785960E+03  0.43985785960E+03  0.00000000000E+00 0. -1.
         25    2    1    2    0    0  0.79240067484E+02  0.65843213115E+02 -0.18064994838E+03  0.24263799652E+03  0.12499790596E+03 0.  0.
          2    1    1    2  501    0 -0.73815870471E+02  0.16754256201E+01 -0.22106340038E+03  0.23306783727E+03  0.00000000000E+00 0. -1.
          1    1    1    2  502    0 -0.54241970126E+01 -0.67518638736E+02  0.99778821028E+03  0.10000847469E+04  0.00000000000E+00 0. -1.
         22    1    3    3    0    0  0.10403538910E+02 -0.34276949485E+01  0.18120134354E+02  0.21173615268E+02  0.00000000000E+00 0. -1.
         22    1    3    3    0    0  0.68836528574E+02  0.69270908064E+02 -0.19877008274E+03  0.22146438125E+03  0.00000000000E+00 0. -1.
</event>
<event>
 7    1  0.5676357E-006  0.6698824E+02  0.7818608E-02  0.1410531E+00
          2   -1    0    0  502    0  0.00000000000E+00  0.00000000000E+00  0.91903693857E+02  0.91903693857E+02  0.00000000000E+00 0. -1.
          1   -1    0    0  501    0 -0.00000000000E+00 -0.00000000000E+00 -0.21205358442E+04  0.21205358442E+04  0.00000000000E+00 0. -1.
         25    2    1    2    0    0 -0.31954361625E+02 -0.10703300459E+03 -0.18087439794E+03  0.24661383739E+03  0.12500276663E+03 0.  0.
          2    1    1    2  501    0  0.96338925415E+01  0.47665739868E+02 -0.18893526727E+04  0.18899784011E+04  0.00000000000E+00 0. -1.
          1    1    1    2  502    0  0.22320469084E+02  0.59367264725E+02  0.41594920299E+02  0.75847299594E+02  0.00000000000E+00 0. -1.
         22    1    3    3    0    0 -0.38800652804E+02 -0.39550395073E+02 -0.16887514065E+03  0.17773164473E+03  0.00000000000E+00 0. -1.
         22    1    3    3    0    0  0.68462911783E+01 -0.67482609521E+02 -0.11999257283E+02  0.68882192663E+02  0.00000000000E+00 0. -1.
</event>
<event>
 7    1  0.5676357E-006  0.5510489E+02  0.7818608E-02  0.1490554E+00
          2   -1    0    0  502    0  0.00000000000E+00  0.00000000000E+00  0.30147364729E+03  0.30147364729E+03  0.00000000000E+00 0. -1.
          1   -1    0    0  501    0 -0.00000000000E+00 -0.00000000000E+00 -0.26348349526E+04  0.26348349526E+04  0.00000000000E+00 0. -1.
         25    2    1    2    0    0 -0.25258503289E+01  0.28905326086E+02 -0.33132277764E+03  0.35530564302E+03  0.12500167673E+03 0.  0.
          2    1    1    2  501    0  0.24365971088E+02  0.21934473217E+02 -0.22887581764E+04  0.22889929689E+04  0.00000000000E+00 0. -1.
          1    1    1    2  502    0 -0.21840120759E+02 -0.50839799303E+02  0.28671964875E+03  0.29200998793E+03  0.00000000000E+00 0. -1.
         22    1    3    3    0    0 -0.83720656581E+01 -0.34585507645E+02 -0.24721226493E+03  0.24976019049E+03  0.00000000000E+00 0.  1.
         22    1    3    3    0    0  0.58462153292E+01  0.63490833731E+02 -0.84110512706E+02  0.10554545253E+03  0.00000000000E+00 0.  1.
</event>
<event>
 7    1  0.5676357E-006  0.1143708E+03  0.7818608E-02  0.1441714E+00
          2   -1    0    0  502    0  0.00000000000E+00  0.00000000000E+00  0.40585713952E+03  0.40585713952E+03  0.00000000000E+00 0. -1.
          1   -1    0    0  501    0 -0.00000000000E+00 -0.00000000000E+00 -0.25269146875E+03  0.25269146875E+03  0.00000000000E+00 0. -1.
         25    2    1    2    0    0 -0.11397447867E+03  0.44513659815E+01 -0.99011528143E+02  0.19605638245E+03  0.12499930378E+03 0.  0.
          2    1    1    2  501    0  0.26238913011E+01  0.22302429270E+02 -0.94634330856E+02  0.97262221513E+02  0.00000000000E+00 0. -1.
          1    1    1    2  502    0  0.11135058737E+03 -0.26753795252E+02  0.34681152977E+03  0.36523000431E+03  0.00000000000E+00 0. -1.
         22    1    3    3    0    0  0.10535376613E+02  0.28496243866E+02 -0.53125900408E+02  0.61199602686E+02  0.00000000000E+00 0.  1.
         22    1    3    3    0    0 -0.12450985528E+03 -0.24044877884E+02 -0.45885627735E+02  0.13485677976E+03  0.00000000000E+00 0.  1.
</event>
<event>
 7    1  0.5676357E-006  0.3175321E+03  0.7818608E-02  0.1217290E+00
          2   -1    0    0  502    0  0.00000000000E+00  0.00000000000E+00  0.21783496431E+04  0.21783496431E+04  0.00000000000E+00 0. -1.
          1   -1    0    0  501    0 -0.00000000000E+00 -0.00000000000E+00 -0.26870241305E+04  0.26870241305E+04  0.00000000000E+00 0. -1.
         25    2    1    2    0    0 -0.30257100469E+03  0.20029447393E+03  0.59422929266E+03  0.70739028297E+03  0.12500188403E+03 0.  0.
          2    1    1    2  501    0  0.55300920355E+02 -0.21107240860E+02 -0.26148437896E+04  0.26155136688E+04  0.00000000000E+00 0. -1.
          1    1    1    2  502    0  0.24727008433E+03 -0.17918723307E+03  0.15119400095E+04  0.15424698219E+04  0.00000000000E+00 0. -1.
         22    1    3    3    0    0 -0.46539118227E+02  0.31103672218E+01  0.25241496169E+02  0.53034866253E+02  0.00000000000E+00 0. -1.
         22    1    3    3    0    0 -0.25603188646E+03  0.19718410671E+03  0.56898779649E+03  0.65435541671E+03  0.00000000000E+00 0. -1.
</event>
<event>
 7    1  0.5676357E-006  0.4108998E+02  0.7818608E-02  0.1502559E+00
          2   -1    0    0  502    0  0.00000000000E+00  0.00000000000E+00  0.72434174148E+03  0.72434174148E+03  0.00000000000E+00 0. -1.
          1   -1    0    0  501    0 -0.00000000000E+00 -0.00000000000E+00 -0.72465607984E+03  0.72465607984E+03  0.00000000000E+00 0. -1.
         25    2    1    2    0    0  0.22592070635E+02 -0.46872893440E+02  0.14600941120E+03  0.19912725205E+03  0.12500177821E+03 0.  0.
          2    1    1    2  501    0  0.16785232541E+02  0.37533925555E+02 -0.69674823211E+03  0.69796034168E+03  0.00000000000E+00 0. -1.
          1    1    1    2  502    0 -0.39377303177E+02  0.93389678845E+01  0.55042448255E+03  0.55191022759E+03  0.00000000000E+00 0. -1.
         22    1    3    3    0    0  0.65011886559E+02 -0.58169752067E+00  0.41261519398E+02  0.77002576249E+02  0.00000000000E+00 0. -1.
         22    1    3    3    0    0 -0.42419815924E+02 -0.46291195919E+02  0.10474789180E+03  0.12212467580E+03  0.00000000000E+00 0. -1.
</event>
<event>
 7    1  0.5676357E-006  0.3321366E+02  0.7818608E-02  0.1594034E+00
          2   -1    0    0  502    0  0.00000000000E+00  0.00000000000E+00  0.12234136918E+02  0.12234136918E+02  0.00000000000E+00 0. -1.
          1   -1    0    0  501    0 -0.00000000000E+00 -0.00000000000E+00 -0.76340331261E+03  0.76340331261E+03  0.00000000000E+00 0. -1.
         25    2    1    2    0    0  0.12296540042E+02  0.15342691352E+02 -0.51296113114E+03  0.52833577416E+03  0.12499186022E+03 0.  0.
          2    1    1    2  501    0 -0.17217464302E+02  0.21788097540E+02 -0.12540079847E+03  0.12843878903E+03  0.00000000000E+00 0. -1.
          1    1    1    2  502    0  0.49209242601E+01 -0.37130788892E+02 -0.11280724608E+03  0.11886288633E+03  0.00000000000E+00 0. -1.
         22    1    3    3    0    0 -0.20046365382E+02  0.63090824780E+02 -0.32715256953E+03  0.33378303235E+03  0.00000000000E+00 0.  1.
         22    1    3    3    0    0  0.32342905423E+02 -0.47748133428E+02 -0.18580856162E+03  0.19455274181E+03  0.00000000000E+00 0.  1.
</event>
<event>
 7    1  0.5676357E-006  0.7321431E+02  0.7818608E-02  0.1369428E+00
          2   -1    0    0  502    0  0.00000000000E+00  0.00000000000E+00  0.25547115811E+03  0.25547115811E+03  0.00000000000E+00 0. -1.
          1   -1    0    0  501    0 -0.00000000000E+00 -0.00000000000E+00 -0.16146442692E+03  0.16146442692E+03  0.00000000000E+00 0. -1.
         25    2    1    2    0    0 -0.13137752695E+02 -0.35484409832E+02  0.81439186751E+02  0.15391464176E+03  0.12500252767E+03 0.  0.
          2    1    1    2  501    0 -0.58307490429E+02 -0.20816660878E+02 -0.10041772565E+03  0.11796955724E+03  0.00000000000E+00 0. -1.
          1    1    1    2  502    0  0.71445243125E+02  0.56301070710E+02  0.11298527010E+03  0.14505138602E+03  0.00000000000E+00 0. -1.
         22    1    3    3    0    0  0.54979989813E+02 -0.99491421315E+01  0.48790562852E+02  0.74177515006E+02  0.00000000000E+00 0. -1.
         22    1    3    3    0    0 -0.68117742509E+02 -0.25535267701E+02  0.32648623899E+02  0.79737126757E+02  0.00000000000E+00 0. -1.
</event>
<event>
 7    1  0.5676357E-006  0.6658415E+02  0.7818608E-02  0.1389779E+00
          2   -1    0    0  502    0  0.00000000000E+00  0.00000000000E+00  0.10958747926E+03  0.10958747926E+03  0.00000000000E+00 0. -1.
          1   -1    0    0  501    0 -0.00000000000E+00 -0.00000000000E+00 -0.93496568441E+03  0.93496568441E+03  0.00000000000E+00 0. -1.
         25    2    1    2    0    0 -0.11643413277E+03  0.38913106325E+02 -0.42917653069E+03  0.46356108756E+03  0.12500100115E+03 0.  0.
          2    1    1    2  501    0  0.54455432296E+02 -0.18955355220E+02 -0.47516190605E+03  0.47864761209E+03  0.00000000000E+00 0. -1.
          1    1    1    2  502    0  0.61978700471E+02 -0.19957751105E+02  0.78960231596E+02  0.10234446402E+03  0.00000000000E+00 0. -1.
         22    1    3    3    0    0 -0.11812958766E+03  0.69294322181E+02 -0.28486566152E+03  0.31607712299E+03  0.00000000000E+00 0. -1.
         22    1    3    3    0    0  0.16954548890E+01 -0.30381215856E+02 -0.14431086917E+03  0.14748396457E+03  0.00000000000E+00 0. -1.
</event>
<event>
 7    1  0.5676357E-006  0.1041128E+03  0.7818608E-02  0.1446571E+00
          2   -1    0    0  502    0  0.00000000000E+00  0.00000000000E+00  0.39486844759E+02  0.39486844759E+02  0.00000000000E+00 0. -1.
          1   -1    0    0  501    0 -0.00000000000E+00 -0.00000000000E+00 -0.94020771264E+03  0.94020771264E+03  0.00000000000E+00 0. -1.
         25    2    1    2    0    0 -0.89220844401E+02  0.24988846085E+02 -0.18051429891E+03  0.23832124184E+03  0.12500720258E+03 0.  0.
          2    1    1    2  501    0  0.94280799762E+02 -0.48239337060E+02 -0.70549136211E+03  0.71339607853E+03  0.00000000000E+00 0. -1.
          1    1    1    2  502    0 -0.50599553606E+01  0.23250490975E+02 -0.14715206851E+02  0.27977237024E+02  0.00000000000E+00 0. -1.
         22    1    3    3    0    0  0.51439093222E+01 -0.18620941898E+02 -0.11237927272E+03  0.11402762919E+03  0.00000000000E+00 0.  1.
         22    1    3    3    0    0 -0.94364753723E+02  0.43609787983E+02 -0.68135026191E+02  0.12429361266E+03  0.00000000000E+00 0.  1.
</event>
<event>
 7    1  0.5676357E-006  0.5754223E+02  0.7818608E-02  0.1466251E+00
          2   -1    0    0  502    0  0.00000000000E+00  0.00000000000E+00  0.11361428558E+04  0.11361428558E+04  0.00000000000E+00 0. -1.
          1   -1    0    0  501    0 -0.00000000000E+00 -0.00000000000E+00 -0.49385263181E+02  0.49385263181E+02  0.00000000000E+00 0. -1.
         25    2    1    2    0    0 -0.30056397793E+02 -0.33111060934E+01  0.53848324139E+03  0.55362600222E+03  0.12499279418E+03 0.  0.
          2    1    1    2  501    0 -0.32523439587E+02  0.18242701671E+02 -0.31350389710E+02  0.48717730056E+02  0.00000000000E+00 0. -1.
          1    1    1    2  502    0  0.62579837380E+02 -0.14931595577E+02  0.57962474090E+03  0.58318438667E+03  0.00000000000E+00 0. -1.
         22    1    3    3    0    0 -0.68209848158E+02 -0.18042400585E+02  0.45742314772E+03  0.46283263463E+03  0.00000000000E+00 0.  1.
         22    1    3    3    0    0  0.38153450365E+02  0.14731294492E+02  0.81060093667E+02  0.90793367585E+02  0.00000000000E+00 0.  1.
</event>
<event>
 7    1  0.5676357E-006  0.8574145E+02  0.7818608E-02  0.1349521E+00
          2   -1    0    0  502    0  0.00000000000E+00  0.00000000000E+00  0.84755620582E+03  0.84755620582E+03  0.00000000000E+00 0. -1.
          1   -1    0    0  501    0 -0.00000000000E+00 -0.00000000000E+00 -0.89174276864E+02  0.89174276864E+02  0.00000000000E+00 0. -1.
         25    2    1    2    0    0 -0.66322804709E+02  0.74265407674E+02  0.39662932158E+02  0.16465865182E+03  0.12500103292E+03 0.  0.
          2    1    1    2  501    0  0.46741689558E+01 -0.84556576023E+02  0.45839961219E+02  0.96296232786E+02  0.00000000000E+00 0. -1.
          1    1    1    2  502    0  0.61648635753E+02  0.10291168350E+02  0.67287903558E+03  0.67577559807E+03  0.00000000000E+00 0. -1.
         22    1    3    3    0    0 -0.93465383081E+02  0.78454861329E+02  0.54269580158E+02  0.13355197652E+03  0.00000000000E+00 0. -1.
         22    1    3    3    0    0  0.27142578372E+02 -0.41894536555E+01 -0.14606648001E+02  0.31106675304E+02  0.00000000000E+00 0. -1.
</event>
<event>
 7    1  0.5676357E-006  0.1152595E+03  0.7818608E-02  0.1277900E+00
          2   -1    0    0  502    0  0.00000000000E+00  0.00000000000E+00  0.75688599601E+02  0.75688599601E+02  0.00000000000E+00 0. -1.
          1   -1    0    0  501    0 -0.00000000000E+00 -0.00000000000E+00 -0.29205795658E+04  0.29205795658E+04  0.00000000000E+00 0. -1.
         25    2    1    2    0    0 -0.12192586823E+03 -0.96372377444E+02 -0.13930677596E+04  0.14072724985E+04  0.12499819882E+03 0.  0.
          2    1    1    2  501    0  0.74350118980E+01  0.88452081036E+02 -0.14701066042E+04  0.14727839210E+04  0.00000000000E+00 0. -1.
          1    1    1    2  502    0  0.11449085633E+03  0.79202964082E+01  0.18283397585E+02  0.11621174599E+03  0.00000000000E+00 0. -1.
         22    1    3    3    0    0 -0.11259782073E+03 -0.12022290248E+03 -0.10094288468E+04  0.10227797477E+04  0.00000000000E+00 0. -1.
         22    1    3    3    0    0 -0.93280475012E+01  0.23850525039E+02 -0.38363891280E+03  0.38449275082E+03  0.00000000000E+00 0. -1.
</event>
<event>
 7    1  0.5676357E-006  0.4606216E+02  0.7818608E-02  0.1486795E+00
          2   -1    0    0  502    0  0.00000000000E+00  0.00000000000E+00  0.23078275958E+04  0.23078275958E+04  0.00000000000E+00 0. -1.
          1   -1    0    0  501    0 -0.00000000000E+00 -0.00000000000E+00 -0.13813945721E+03  0.13813945721E+03  0.00000000000E+00 0. -1.
         25    2    1    2    0    0  0.34472649193E+02 -0.74963339991E+02  0.23529637373E+03  0.27892162460E+03  0.12500009320E+03 0.  0.
          2    1    1    2  501    0 -0.77988763469E+01  0.44803411618E+02 -0.11167645817E+03  0.12058109087E+03  0.00000000000E+00 0. -1.
          1    1    1    2  502    0 -0.26673772846E+02  0.30159928373E+02  0.20460682231E+04  0.20464643375E+04  0.00000000000E+00 0. -1.
         22    1    3    3    0    0 -0.29683354780E+02  0.16192530886E+02  0.87473308882E+02  0.93781018198E+02  0.00000000000E+00 0. -1.
         22    1    3    3    0    0  0.64156003973E+02 -0.91155870877E+02  0.14782306484E+03  0.18514060641E+03  0.00000000000E+00 0. -1.
</event>
<event>
 7    1  0.5676357E-006  0.5578632E+02  0.7818608E-02  0.1563113E+00
          2   -1    0    0  502    0  0.00000000000E+00  0.00000000000E+00  0.27894984408E+03  0.27894984408E+03  0.00000000000E+00 0. -1.
          1   -1    0    0  501    0 -0.00000000000E+00 -0.00000000000E+00 -0.84527981775E+03  0.84527981775E+03  0.00000000000E+00 0. -1.
         25    2    1    2    0    0 -0.38101613657E+01  0.74859552757E+02 -0.17429289419E+02  0.14678592894E+03  0.12499543526E+03 0.  0.
          2    1    1    2  501    0  0.14939976702E+00 -0.20018336912E+02 -0.75951346160E+03  0.75977724004E+03  0.00000000000E+00 0. -1.
          1    1    1    2  502    0  0.36607615987E+01 -0.54841215845E+02  0.21061277735E+03  0.21766649286E+03  0.00000000000E+00 0. -1.
         22    1    3    3    0    0 -0.41675067339E+02  0.17527979981E+02 -0.52797626779E+02  0.69509932480E+02  0.00000000000E+00 0. -1.
         22    1    3    3    0    0  0.37864905973E+02  0.57331572776E+02  0.35368337360E+02  0.77275996461E+02  0.00000000000E+00 0. -1.
</event>
<event>
 7    1  0.5676357E-006  0.4267122E+02  0.7818608E-02  0.1536458E+00
          2   -1    0    0  502    0  0.00000000000E+00  0.00000000000E+00  0.37869224903E+03  0.37869224903E+03  0.00000000000E+00 0. -1.
          1   -1    0    0  501    0 -0.00000000000E+00 -0.00000000000E+00 -0.17181597925E+03  0.17181597925E+03  0.00000000000E+00 0. -1.
         25    2    1    2    0    0 -0.52201549372E+02  0.50576663654E+02 -0.10452802504E+03  0.17841650404E+03  0.12499336076E+03 0.  0.
          2    1    1    2  501    0  0.18350777136E+02 -0.25060248501E+02 -0.20678389060E+02  0.37314378603E+02  0.00000000000E+00 0. -1.
          1    1    1    2  502    0  0.33850772236E+02 -0.25516415153E+02  0.33208268387E+03  0.33477734564E+03  0.00000000000E+00 0. -1.
         22    1    3    3    0    0 -0.80001023368E+02  0.66450698485E+02 -0.50488791246E+02  0.11560699421E+03  0.00000000000E+00 0.  1.
         22    1    3    3    0    0  0.27799473997E+02 -0.15874034831E+02 -0.54039233791E+02  0.62809509829E+02  0.00000000000E+00 0.  1.
</event>
<event>
 7    1  0.5676357E-006  0.4231880E+02  0.7818608E-02  0.1545597E+00
          2   -1    0    0  502    0  0.00000000000E+00  0.00000000000E+00  0.85513804604E+03  0.85513804604E+03  0.00000000000E+00 0. -1.
          1   -1    0    0  501    0 -0.00000000000E+00 -0.00000000000E+00 -0.27460698407E+03  0.27460698407E+03  0.00000000000E+00 0. -1.
         25    2    1    2    0    0  0.17913669276E+02 -0.32002410101E+02 -0.78132498935E+02  0.15190471241E+03  0.12500120185E+03 0.  0.
          2    1    1    2  501    0  0.97088316026E+01  0.42395368446E+02 -0.15635302748E+03  0.16228954951E+03  0.00000000000E+00 0. -1.
          1    1    1    2  502    0 -0.27622500879E+02 -0.10392958344E+02  0.81501658839E+03  0.81555076819E+03  0.00000000000E+00 0. -1.
         22    1    3    3    0    0 -0.47046870016E+02  0.60331649470E+01 -0.56111565788E+02  0.73473225550E+02  0.00000000000E+00 0.  1.
         22    1    3    3    0    0  0.64960539292E+02 -0.38035575048E+02 -0.22020933147E+02  0.78431486860E+02  0.00000000000E+00 0.  1.
</event>
<event>
 7    1  0.5676357E-006  0.5203161E+02  0.7818608E-02  0.1455963E+00
          2   -1    0    0  502    0  0.00000000000E+00  0.00000000000E+00  0.55838314900E+03  0.55838314900E+03  0.00000000000E+00 0. -1.
          1   -1    0    0  501    0 -0.00000000000E+00 -0.00000000000E+00 -0.25015541666E+03  0.25015541666E+03  0.00000000000E+00 0. -1.
         25    2    1    2    0    0  0.11127311900E+02  0.62295507758E+02  0.22642524962E+03  0.26626671943E+03  0.12500009940E+03 0.  0.
          2    1    1    2  501    0  0.29028998166E+02 -0.43272198041E+02 -0.22566875822E+03  0.23160646427E+03  0.00000000000E+00 0. -1.
          1    1    1    2  502    0 -0.40156310066E+02 -0.19023309717E+02  0.30747124093E+03  0.31066538196E+03  0.00000000000E+00 0. -1.
         22    1    3    3    0    0 -0.12458255109E+02  0.97144249735E+02  0.16259700339E+03  0.18981569716E+03  0.00000000000E+00 0. -1.
         22    1    3    3    0    0  0.23585567009E+02 -0.34848741977E+02  0.63828246230E+02  0.76451022265E+02  0.00000000000E+00 0. -1.
</event>
<event>
 7    1  0.5676357E-006  0.8341601E+02  0.7818608E-02  0.1342325E+00
          2   -1    0    0  502    0  0.00000000000E+00  0.00000000000E+00  0.73368744303E+03  0.73368744303E+03  0.00000000000E+00 0. -1.
          1   -1    0    0  501    0 -0.00000000000E+00 -0.00000000000E+00 -0.18524249611E+03  0.18524249611E+03  0.00000000000E+00 0. -1.
         25    2    1    2    0    0 -0.12906457152E+03 -0.22019310065E+02  0.75273252537E+02  0.19603499997E+03  0.12498457916E+03 0.  0.
          2    1    1    2  501    0  0.76838196656E+02 -0.22054682041E+02 -0.10986292415E+03  0.13586897942E+03  0.00000000000E+00 0. -1.
          1    1    1    2  502    0  0.52226374862E+02  0.44073992107E+02  0.58303461853E+03  0.58702595975E+03  0.00000000000E+00 0. -1.
         22    1    3    3    0    0 -0.12839165310E+02 -0.52902161677E+02  0.52751843412E+00  0.54440436732E+02  0.00000000000E+00 0.  1.
         22    1    3    3    0    0 -0.11622540621E+03  0.30882851611E+02  0.74745734103E+02  0.14159456324E+03  0.00000000000E+00 0.  1.
</event>
<event>
 7    1  0.5676357E-006  0.1563705E+03  0.7818608E-02  0.1357084E+00
          2   -1    0    0  502    0  0.00000000000E+00  0.00000000000E+00  0.39507689102E+04  0.39507689102E+04  0.00000000000E+00 0. -1.
          1   -1    0    0  501    0 -0.00000000000E+00 -0.00000000000E+00 -0.56160993643E+03  0.56160993643E+03  0.00000000000E+00 0. -1.
         25    2    1    2    0    0  0.30647708348E+02 -0.18148255739E+03 -0.17480739394E+03  0.28294483930E+03  0.12499982577E+03 0.  0.
          2    1    1    2  501    0  0.97751362911E+01  0.30617416690E+02 -0.33038864620E+03  0.33194824451E+03  0.00000000000E+00 0. -1.
          1    1    1    2  502    0 -0.40422844639E+02  0.15086514070E+03  0.38943550139E+04  0.38974857628E+04  0.00000000000E+00 0. -1.
         22    1    3    3    0    0  0.52937052663E+02 -0.12316015259E+03 -0.17507971523E+03  0.22050773550E+03  0.00000000000E+00 0. -1.
         22    1    3    3    0    0 -0.22289344315E+02 -0.58322404803E+02  0.27232128427E+00  0.62437103800E+02  0.00000000000E+00 0. -1.
</event>
<event>
 7    1  0.5676357E-006  0.1644807E+03  0.7818608E-02  0.1220945E+00
          2   -1    0    0  502    0  0.00000000000E+00  0.00000000000E+00  0.54358859801E+03  0.54358859801E+03  0.00000000000E+00 0. -1.
          1   -1    0    0  501    0 -0.00000000000E+00 -0.00000000000E+00 -0.90508952512E+03  0.90508952512E+03  0.00000000000E+00 0. -1.
         25    2    1    2    0    0 -0.10052458293E+02 -0.10633126336E+03 -0.31968375697E+03  0.35949121520E+03  0.12501535844E+03 0.  0.
          2    1    1    2  501    0  0.10526694103E+03 -0.31794014170E+02 -0.54644708750E+03  0.55740147797E+03  0.00000000000E+00 0. -1.
          1    1    1    2  502    0 -0.95214482741E+02  0.13812527753E+03  0.50462991736E+03  0.53178542995E+03  0.00000000000E+00 0. -1.
         22    1    3    3    0    0 -0.55111471899E+02 -0.10459916482E+03 -0.24909418182E+03  0.27572843711E+03  0.00000000000E+00 0. -1.
         22    1    3    3    0    0  0.45059013606E+02 -0.17320985422E+01 -0.70589575152E+02  0.83762778086E+02  0.00000000000E+00 0. -1.
</event>
<event>
 7    1  0.5676357E-006  0.1114093E+03  0.7818608E-02  0.1398764E+00
          2   -1    0    0  502    0  0.00000000000E+00  0.00000000000E+00  0.20808706184E+04  0.20808706184E+04  0.00000000000E+00 0. -1.
          1   -1    0    0  501    0 -0.00000000000E+00 -0.00000000000E+00 -0.62503478614E+03  0.62503478614E+03  0.00000000000E+00 0. -1.
         25    2    1    2    0    0  0.10075566898E+03 -0.25611316889E+01  0.20990260677E+03  0.26427570648E+03  0.12499712188E+03 0.  0.
          2    1    1    2  501    0  0.62854872247E+01 -0.31453093169E+02 -0.59570594092E+03  0.59656883297E+03  0.00000000000E+00 0. -1.
          1    1    1    2  502    0 -0.10704115620E+03  0.34014224857E+02  0.18416391665E+04  0.18450608651E+04  0.00000000000E+00 0. -1.
         22    1    3    3    0    0 -0.11708221557E+02  0.39288919251E+01 -0.10851387107E+02  0.16439928404E+02  0.00000000000E+00 0.  1.
         22    1    3    3    0    0  0.11246389054E+03 -0.64900236140E+01  0.22075399388E+03  0.24783577808E+03  0.00000000000E+00 0.  1.
</event>
<event>
 7    1  0.5676357E-006  0.2716023E+02  0.7818608E-02  0.1685260E+00
          2   -1    0    0  502    0  0.00000000000E+00  0.00000000000E+00  0.25282612197E+04  0.25282612197E+04  0.00000000000E+00 0. -1.
          1   -1    0    0  501    0 -0.00000000000E+00 -0.00000000000E+00 -0.35124559399E+03  0.35124559399E+03  0.00000000000E+00 0. -1.
         25    2    1    2    0    0 -0.77547463585E+00 -0.16389841991E+02  0.69656375858E+03  0.70788197405E+03  0.12500636438E+03 0.  0.
          2    1    1    2  501    0 -0.20091904981E+02 -0.14437416042E+01 -0.34518968715E+03  0.34577693554E+03  0.00000000000E+00 0. -1.
          1    1    1    2  502    0  0.20867379617E+02  0.17833583595E+02  0.18256415543E+04  0.18258479042E+04  0.00000000000E+00 0. -1.
         22    1    3    3    0    0 -0.89819624737E+01 -0.69580257599E+02  0.32885415043E+03  0.33625457640E+03  0.00000000000E+00 0. -1.
         22    1    3    3    0    0  0.82064878379E+01  0.53190415608E+02  0.36770960815E+03  0.37162739765E+03  0.00000000000E+00 0. -1.
</event>
<event>
 7    1  0.5676357E-006  0.1636988E+03  0.7818608E-02  0.1232953E+00
          2   -1    0    0  502    0  0.00000000000E+00  0.00000000000E+00  0.74274943830E+03  0.74274943830E+03  0.00000000000E+00 0. -1.
          1   -1    0    0  501    0 -0.00000000000E+00 -0.00000000000E+00 -0.19718160319E+03  0.19718160319E+03  0.00000000000E+00 0. -1.
         25    2    1    2    0    0 -0.16479417699E+03  0.14274095953E+03  0.38783085958E+02  0.25428696524E+03  0.12500252251E+03 0.  0.
          2    1    1    2  501    0  0.97519694604E+02  0.21813358006E+01 -0.47711451303E+02  0.10858743780E+03  0.00000000000E+00 0. -1.
          1    1    1    2  502    0  0.67274482388E+02 -0.14492229533E+03  0.55449620046E+03  0.57705663846E+03  0.00000000000E+00 0. -1.
         22    1    3    3    0    0 -0.62333464628E+02  0.13474289670E+03  0.19818519150E+02  0.14977944694E+03  0.00000000000E+00 0. -1.
         22    1    3    3    0    0 -0.10246071236E+03  0.79980628346E+01  0.18964566808E+02  0.10450751830E+03  0.00000000000E+00 0. -1.
</event>
<event>
 7    1  0.5676357E-006  0.9656764E+02  0.7818608E-02  0.1396115E+00
          2   -1    0    0  502    0  0.00000000000E+00  0.00000000000E+00  0.18065663003E+04  0.18065663003E+04  0.00000000000E+00 0. -1.
          1   -1    0    0  501    0 -0.00000000000E+00 -0.00000000000E+00 -0.14722804267E+04  0.14722804267E+04  0.00000000000E+00 0. -1.
         25    2    1    2    0    0 -0.12634927213E+03  0.94377480487E+01  0.51335947668E+03  0.54333687314E+03  0.12499518296E+03 0.  0.
          2    1    1    2  501    0  0.95656685506E+02  0.12612368151E+02 -0.14554147138E+04  0.14586093591E+04  0.00000000000E+00 0. -1.
          1    1    1    2  502    0  0.30692586620E+02 -0.22050116200E+02  0.12763411107E+04  0.12769004947E+04  0.00000000000E+00 0. -1.
         22    1    3    3    0    0 -0.84712984610E+02 -0.13690169085E+02  0.47354973229E+03  0.48126194473E+03  0.00000000000E+00 0. -1.
         22    1    3    3    0    0 -0.41636287516E+02  0.23127917134E+02  0.39809744387E+02  0.62074928411E+02  0.00000000000E+00 0. -1.
</event>
<event>
 7    1  0.5676357E-006  0.8361132E+02  0.7818608E-02  0.1379178E+00
          2   -1    0    0  502    0  0.00000000000E+00  0.00000000000E+00  0.17966876582E+04  0.17966876582E+04  0.00000000000E+00 0. -1.
          1   -1    0    0  501    0 -0.00000000000E+00 -0.00000000000E+00 -0.45066753857E+03  0.45066753857E+03  0.00000000000E+00 0. -1.
         25    2    1    2    0    0 -0.12838418890E+03 -0.12460273411E+02  0.50751641420E+03  0.53836413267E+03  0.12500108118E+03 0.  0.
          2    1    1    2  501    0  0.48424005043E+02  0.12596592424E+02 -0.43254518333E+03  0.43542955116E+03  0.00000000000E+00 0. -1.
          1    1    1    2  502    0  0.79960183854E+02 -0.13631901245E+00  0.12710488888E+04  0.12735615129E+04  0.00000000000E+00 0. -1.
         22    1    3    3    0    0 -0.97340350908E+02  0.22886981988E+02  0.16726356021E+03  0.19487446326E+03  0.00000000000E+00 0. -1.
         22    1    3    3    0    0 -0.31043837988E+02 -0.35347255400E+02  0.34025285399E+03  0.34348966941E+03  0.00000000000E+00 0. -1.
</event>
<event>
 7    1  0.5676357E-006  0.7897748E+02  0.7818608E-02  0.1355711E+00
          2   -1    0    0  502    0  0.00000000000E+00  0.00000000000E+00  0.56176984888E+03  0.56176984888E+03  0.00000000000E+00 0. -1.
          1   -1    0    0  501    0 -0.00000000000E+00 -0.00000000000E+00 -0.14483981993E+04  0.14483981993E+04  0.00000000000E+00 0. -1.
         25    2    1    2    0    0 -0.22776316953E+02  0.12869309522E+03 -0.69144798999E+02  0.19361515594E+03  0.12500060803E+03 0.  0.
          2    1    1    2  501    0 -0.15169116642E+02 -0.76686817278E+02 -0.13137773665E+04  0.13161010367E+04  0.00000000000E+00 0. -1.
          1    1    1    2  502    0  0.37945433594E+02 -0.52006277945E+02  0.49629381507E+03  0.50045185557E+03  0.00000000000E+00 0. -1.
         22    1    3    3    0    0 -0.43182934948E+02  0.12247627277E+00  0.55335602996E+01  0.43536205172E+02  0.00000000000E+00 0. -1.
         22    1    3    3    0    0  0.20406617995E+02  0.12857061895E+03 -0.74678359298E+02  0.15007895076E+03  0.00000000000E+00 0. -1.
</event>
<event>
 7    1  0.5676357E-006  0.1285052E+03  0.7818608E-02  0.1239443E+00
          2   -1    0    0  502    0  0.00000000000E+00  0.00000000000E+00  0.79017420069E+03  0.79017420069E+03  0.00000000000E+00 0. -1.
          1   -1    0    0  501    0 -0.00000000000E+00 -0.00000000000E+00 -0.20155581544E+03  0.20155581544E+03  0.00000000000E+00 0. -1.
         25    2    1    2    0    0  0.98709539447E+02 -0.79516401754E+02  0.32402995806E+03  0.36971157076E+03  0.12499920203E+03 0.  0.
          2    1    1    2  501    0  0.45733279037E+02  0.10691464338E+03 -0.14556603997E+03  0.18631088474E+03  0.00000000000E+00 0. -1.
          1    1    1    2  502    0 -0.14444281848E+03 -0.27398241628E+02  0.41015446716E+03  0.43570756063E+03  0.00000000000E+00 0. -1.
         22    1    3    3    0    0  0.45751997707E+02 -0.38956109746E+01  0.24166986122E+03  0.24599337979E+03  0.00000000000E+00 0.  1.
         22    1    3    3    0    0  0.52957541741E+02 -0.75620790780E+02  0.82360096838E+02  0.12371819097E+03  0.00000000000E+00 0.  1.
</event>
<event>
 7    1  0.5676357E-006  0.1020634E+03  0.7818608E-02  0.1426652E+00
          2   -1    0    0  502    0  0.00000000000E+00  0.00000000000E+00  0.21431425093E+03  0.21431425093E+03  0.00000000000E+00 0. -1.
          1   -1    0    0  501    0 -0.00000000000E+00 -0.00000000000E+00 -0.22333871016E+04  0.22333871016E+04  0.00000000000E+00 0. -1.
         25    2    1    2    0    0 -0.12283616674E+03 -0.41265513589E+02 -0.14175565200E+04  0.14289446457E+04  0.12499898630E+03 0.  0.
          2    1    1    2  501    0  0.25016717754E+02  0.12990831211E+02 -0.79744802598E+03  0.79794608340E+03  0.00000000000E+00 0. -1.
          1    1    1    2  502    0  0.97819448987E+02  0.28274682378E+02  0.19593169523E+03  0.22081062352E+03  0.00000000000E+00 0. -1.
         22    1    3    3    0    0 -0.31540225734E+01 -0.52486465322E+02 -0.26718766084E+03  0.27231236293E+03  0.00000000000E+00 0.  1.
         22    1    3    3    0    0 -0.11968214417E+03  0.11220951733E+02 -0.11503688591E+04  0.11566322827E+04  0.00000000000E+00 0.  1.
</event>
<event>
 7    1  0.5845396E-006  0.9006167E+02  0.7818608E-02  0.1330643E+00
          2   -1    0    0  502    0  0.00000000000E+00  0.00000000000E+00  0.11199248063E+04  0.11199248063E+04  0.00000000000E+00 0. -1.
          1   -1    0    0  501    0 -0.00000000000E+00 -0.00000000000E+00 -0.57385005048E+03  0.57385005048E+03  0.00000000000E+00 0. -1.
         25    2    1    2    0    0 -0.11029633544E+03  0.68085848707E+02 -0.88230336616E+02  0.20052929448E+03  0.12500576482E+03 0.  0.
          2    1    1    2  501    0  0.40941741365E+02 -0.78100492479E+02 -0.42377259406E+03  0.43285000241E+03  0.00000000000E+00 0. -1.
          1    1    1    2  502    0  0.69354594079E+02  0.10014643773E+02  0.10580776865E+04  0.10603955599E+04  0.00000000000E+00 0. -1.
         22    1    3    3    0    0 -0.74319919040E+02  0.74306096021E+02 -0.55452748171E-01  0.10509447819E+03  0.00000000000E+00 0.  1.
         22    1    3    3    0    0 -0.35976416404E+02 -0.62202473141E+01 -0.88174883868E+02  0.95434816283E+02  0.00000000000E+00 0.  1.
</event>
<event>
 7    1  0.5676357E-006  0.2974309E+03  0.7818608E-02  0.1272639E+00
          2   -1    0    0  502    0  0.00000000000E+00  0.00000000000E+00  0.56136293002E+03  0.56136293002E+03  0.00000000000E+00 0. -1.
          1   -1    0    0  501    0 -0.00000000000E+00 -0.00000000000E+00 -0.13064012261E+04  0.13064012261E+04  0.00000000000E+00 0. -1.
         25    2    1    2    0    0  0.26481926540E+03 -0.48704094561E+02 -0.69696200002E+02  0.30493273412E+03  0.12500031956E+03 0.  0.
          2    1    1    2  501    0  0.34951924139E+02 -0.93364945364E+01 -0.10662182200E+04  0.10668318048E+04  0.00000000000E+00 0. -1.
          1    1    1    2  502    0 -0.29977118954E+03  0.58040589097E+02  0.39087612388E+03  0.49599961722E+03  0.00000000000E+00 0. -1.
         22    1    3    3    0    0  0.14046212873E+03 -0.73264097240E+02  0.36877295484E+01  0.15846399245E+03  0.00000000000E+00 0. -1.
         22    1    3    3    0    0  0.12435713667E+03  0.24560002679E+02 -0.73383929550E+02  0.14646874168E+03  0.00000000000E+00 0. -1.
</event>
<event>
 7    1  0.5676357E-006  0.8836600E+02  0.7818608E-02  0.1346919E+00
          2   -1    0    0  502    0  0.00000000000E+00  0.00000000000E+00  0.12113381231E+03  0.12113381231E+03  0.00000000000E+00 0. -1.
          1   -1    0    0  501    0 -0.00000000000E+00 -0.00000000000E+00 -0.18505514275E+04  0.18505514275E+04  0.00000000000E+00 0. -1.
         25    2    1    2    0    0  0.10114093371E+03  0.84629395452E+02 -0.47148639046E+03  0.50528795332E+03  0.12499950535E+03 0.  0.
          2    1    1    2  501    0 -0.61613367794E+02 -0.70046071820E+01 -0.13431234437E+04  0.13445541479E+04  0.00000000000E+00 0. -1.
          1    1    1    2  502    0 -0.39527565912E+02 -0.77624788270E+02  0.85192219042E+02  0.12184313853E+03  0.00000000000E+00 0. -1.
         22    1    3    3    0    0  0.12557111370E+03  0.42262503858E+02 -0.35702249401E+03  0.38081397698E+03  0.00000000000E+00 0.  1.
         22    1    3    3    0    0 -0.24430179992E+02  0.42366891594E+02 -0.11446389645E+03  0.12447397635E+03  0.00000000000E+00 0.  1.
</event>
<event>
 7    1  0.5676357E-006  0.1644423E+03  0.7818608E-02  0.1347162E+00
          2   -1    0    0  502    0  0.00000000000E+00  0.00000000000E+00  0.32652415983E+04  0.32652415983E+04  0.00000000000E+00 0. -1.
          1   -1    0    0  501    0 -0.00000000000E+00 -0.00000000000E+00 -0.27786288683E+03  0.27786288683E+03  0.00000000000E+00 0. -1.
         25    2    1    2    0    0  0.17743721898E+03  0.13714498742E+02  0.78842063085E+03  0.81786545065E+03  0.12499900021E+03 0.  0.
          2    1    1    2  501    0 -0.16327814140E+03  0.16373633986E+02 -0.23743283394E+03  0.28862120154E+03  0.00000000000E+00 0. -1.
          1    1    1    2  502    0 -0.14159077584E+02 -0.30088132728E+02  0.24363909146E+04  0.24366178329E+04  0.00000000000E+00 0. -1.
         22    1    3    3    0    0  0.29353932832E+02  0.52946982243E+02  0.29753362294E+03  0.30363019132E+03  0.00000000000E+00 0. -1.
         22    1    3    3    0    0  0.14808328615E+03 -0.39232483502E+02  0.49088700792E+03  0.51423525933E+03  0.00000000000E+00 0. -1.
</event>
<event>
 7    1  0.5676357E-006  0.1128841E+03  0.7818608E-02  0.1261964E+00
          2   -1    0    0  502    0  0.00000000000E+00  0.00000000000E+00  0.90849034114E+03  0.90849034114E+03  0.00000000000E+00 0. -1.
          1   -1    0    0  501    0 -0.00000000000E+00 -0.00000000000E+00 -0.77005268904E+03  0.77005268904E+03  0.00000000000E+00 0. -1.
         25    2    1    2    0    0 -0.14639621365E+03 -0.21400048510E+02 -0.67240639285E+02  0.20502709572E+03  0.12499997184E+03 0.  0.
          2    1    1    2  501    0  0.67071898309E+02  0.91310125684E+02 -0.62548049243E+03  0.63565873313E+03  0.00000000000E+00 0. -1.
          1    1    1    2  502    0  0.79324315339E+02 -0.69910077174E+02  0.83115878382E+03  0.83785720133E+03  0.00000000000E+00 0. -1.
         22    1    3    3    0    0 -0.48515399344E+02  0.51550133839E+02 -0.15655227058E+02  0.72499975218E+02  0.00000000000E+00 0. -1.
         22    1    3    3    0    0 -0.97880814304E+02 -0.72950182349E+02 -0.51585412227E+02  0.13252712050E+03  0.00000000000E+00 0. -1.
</event>
<event>
 7    1  0.5676357E-006  0.9078926E+02  0.7818608E-02  0.1373077E+00
          2   -1    0    0  502    0  0.00000000000E+00  0.00000000000E+00  0.31580448523E+04  0.31580448523E+04  0.00000000000E+00 0. -1.
          1   -1    0    0  501    0 -0.00000000000E+00 -0.00000000000E+00 -0.12304523309E+03  0.12304523309E+03  0.00000000000E+00 0. -1.
         25    2    1    2    0    0 -0.66537336254E+02  0.31241233910E+02  0.50190211978E+03  0.52242932478E+03  0.12499371877E+03 0.  0.
          2    1    1    2  501    0  0.91214634062E+02  0.10446976572E+02 -0.93836340645E+02  0.13128026360E+03  0.00000000000E+00 0. -1.
          1    1    1    2  502    0 -0.24677297808E+02 -0.41688210483E+02  0.26269338401E+04  0.26273804970E+04  0.00000000000E+00 0. -1.
         22    1    3    3    0    0 -0.60877805013E+02 -0.14232846683E+02  0.10008183332E+03  0.11800446783E+03  0.00000000000E+00 0.  1.
         22    1    3    3    0    0 -0.56595312407E+01  0.45474080593E+02  0.40182028647E+03  0.40442485694E+03  0.00000000000E+00 0.  1.
</event>
<event>
 7    1  0.5676357E-006  0.2328582E+03  0.7818608E-02  0.1306168E+00
          2   -1    0    0  502    0  0.00000000000E+00  0.00000000000E+00  0.98434694931E+03  0.98434694931E+03  0.00000000000E+00 0. -1.
          1   -1    0    0  501    0 -0.00000000000E+00 -0.00000000000E+00 -0.74587250671E+03  0.74587250671E+03  0.00000000000E+00 0. -1.
         25    2    1    2    0    0  0.18870823084E+03 -0.18628343221E+03  0.49946745483E+03  0.57914130928E+03  0.12499841672E+03 0.  0.
          2    1    1    2  501    0 -0.16193026229E+03  0.16574861187E+03 -0.68633681023E+03  0.72439783907E+03  0.00000000000E+00 0. -1.
          1    1    1    2  502    0 -0.26777968552E+02  0.20534820339E+02  0.42534379800E+03  0.42668030766E+03  0.00000000000E+00 0. -1.
         22    1    3    3    0    0  0.13750856441E+03 -0.18999174306E+03  0.35184289783E+03  0.42284618063E+03  0.00000000000E+00 0. -1.
         22    1    3    3    0    0  0.51199666427E+02  0.37083108553E+01  0.14762455700E+03  0.15629512865E+03  0.00000000000E+00 0. -1.
</event>
<event>
 7    1  0.5676357E-006  0.2738361E+03  0.7818608E-02  0.1195817E+00
          2   -1    0    0  502    0  0.00000000000E+00  0.00000000000E+00  0.21951966523E+04  0.21951966523E+04  0.00000000000E+00 0. -1.
          1   -1    0    0  501    0 -0.00000000000E+00 -0.00000000000E+00 -0.16908619440E+04  0.16908619440E+04  0.00000000000E+00 0. -1.
         25    2    1    2    0    0  0.32998625571E+03 -0.44627901843E+01  0.15726094702E+03  0.38635022155E+03  0.12499857113E+03 0.  0.
          2    1    1    2  501    0 -0.65342067979E+02  0.56590990002E+02 -0.15656627627E+04  0.15680471971E+04  0.00000000000E+00 0. -1.
          1    1    1    2  502    0 -0.26464418773E+03 -0.52128199818E+02  0.19127365239E+04  0.19316611776E+04  0.00000000000E+00 0. -1.
         22    1    3    3    0    0  0.32252236763E+03 -0.25898631179E+02  0.16389519396E+03  0.36270242806E+03  0.00000000000E+00 0.  1.
         22    1    3    3    0    0  0.74638880750E+01  0.21435840995E+02 -0.66342469425E+01  0.23647793488E+02  0.00000000000E+00 0.  1.
</event>
<event>
 7    1  0.5676357E-006  0.1355757E+03  0.7818608E-02  0.1344881E+00
          2   -1    0    0  502    0  0.00000000000E+00  0.00000000000E+00  0.24262000431E+04  0.24262000431E+04  0.00000000000E+00 0. -1.
          1   -1    0    0  501    0 -0.00000000000E+00 -0.00000000000E+00 -0.25765921309E+04  0.25765921309E+04  0.00000000000E+00 0. -1.
         25    2    1    2    0    0  0.15932385081E+03  0.24198624937E+02  0.75227701702E+03  0.77943289413E+03  0.12500105294E+03 0.  0.
          2    1    1    2  501    0 -0.35874244814E+02  0.20119323814E+02 -0.25602583440E+04  0.25605887090E+04  0.00000000000E+00 0. -1.
          1    1    1    2  502    0 -0.12344960600E+03 -0.44317948752E+02  0.16575892392E+04  0.16627705710E+04  0.00000000000E+00 0. -1.
         22    1    3    3    0    0  0.47229401365E+02 -0.20289021376E+02  0.71519974658E+02  0.88075919052E+02  0.00000000000E+00 0.  1.
         22    1    3    3    0    0  0.11209444945E+03  0.44487646314E+02  0.68075704236E+03  0.69135697508E+03  0.00000000000E+00 0.  1.
</event>
<event>
 7    1  0.5676357E-006  0.1421965E+03  0.7818608E-02  0.1286452E+00
          2   -1    0    0  502    0  0.00000000000E+00  0.00000000000E+00  0.74113809046E+03  0.74113809046E+03  0.00000000000E+00 0. -1.
          1   -1    0    0  501    0 -0.00000000000E+00 -0.00000000000E+00 -0.23044111612E+03  0.23044111612E+03  0.00000000000E+00 0. -1.
         25    2    1    2    0    0 -0.11722393444E+03 -0.17743231168E+02  0.11523035067E+02  0.17266719819E+03  0.12499963174E+03 0.  0.
          2    1    1    2  501    0 -0.19337541879E+01 -0.66316873074E+02 -0.13380652728E+03  0.14935144393E+03  0.00000000000E+00 0. -1.
          1    1    1    2  502    0  0.11915768863E+03  0.84060104242E+02  0.63298046655E+03  0.64956056447E+03  0.00000000000E+00 0. -1.
         22    1    3    3    0    0 -0.62216249888E+01 -0.37316737758E+02  0.41377595769E+02  0.56065613044E+02  0.00000000000E+00 0.  1.
         22    1    3    3    0    0 -0.11100230945E+03  0.19573506590E+02 -0.29854560703E+02  0.11660158514E+03  0.00000000000E+00 0.  1.
</event>
<event>
 7    1  0.5676357E-006  0.9943313E+02  0.7818608E-02  0.1300517E+00
          2   -1    0    0  502    0  0.00000000000E+00  0.00000000000E+00  0.46772480523E+03  0.46772480523E+03  0.00000000000E+00 0. -1.
          1   -1    0    0  501    0 -0.00000000000E+00 -0.00000000000E+00 -0.39801404234E+03  0.39801404234E+03  0.00000000000E+00 0. -1.
         25    2    1    2    0    0 -0.16683103616E+03 -0.46390040784E+02  0.13351840619E+03  0.25186819273E+03  0.12500316480E+03 0.  0.
          2    1    1    2  501    0  0.81072071794E+02  0.18827479735E+02 -0.32609354187E+03  0.33654740062E+03  0.00000000000E+00 0. -1.
          1    1    1    2  502    0  0.85758964371E+02  0.27562561049E+02  0.26228589857E+03  0.27732325422E+03  0.00000000000E+00 0. -1.
         22    1    3    3    0    0 -0.16190422974E+03 -0.30064039717E+02  0.15383120194E+03  0.22534609999E+03  0.00000000000E+00 0.  1.
         22    1    3    3    0    0 -0.49268064224E+01 -0.16326001067E+02 -0.20312795749E+02  0.26522092744E+02  0.00000000000E+00 0.  1.
</event>
<event>
 7    1  0.5676357E-006  0.2154494E+03  0.7818608E-02  0.1175226E+00
          2   -1    0    0  502    0  0.00000000000E+00  0.00000000000E+00  0.44496985726E+03  0.44496985726E+03  0.00000000000E+00 0. -1.
          1   -1    0    0  501    0 -0.00000000000E+00 -0.00000000000E+00 -0.80375513731E+03  0.80375513731E+03  0.00000000000E+00 0. -1.
         25    2    1    2    0    0 -0.31233097448E+03  0.40036080420E+00 -0.12430988697E+02  0.33664613981E+03  0.12500118425E+03 0.  0.
          2    1    1    2  501    0  0.12403946112E+03  0.60879049315E+02 -0.58550743279E+03  0.60159039255E+03  0.00000000000E+00 0. -1.
          1    1    1    2  502    0  0.18829151335E+03 -0.61279410119E+02  0.23915314144E+03  0.31048846221E+03  0.00000000000E+00 0. -1.
         22    1    3    3    0    0 -0.16349517652E+03 -0.14614841951E+02 -0.67163950496E+02  0.17735631536E+03  0.00000000000E+00 0. -1.
         22    1    3    3    0    0 -0.14883579795E+03  0.15015202755E+02  0.54732961799E+02  0.15928982445E+03  0.00000000000E+00 0. -1.
</event>
<event>
 7    1  0.5676357E-006  0.5239372E+02  0.7818608E-02  0.1475356E+00
          2   -1    0    0  502    0  0.00000000000E+00  0.00000000000E+00  0.22739625002E+03  0.22739625002E+03  0.00000000000E+00 0. -1.
          1   -1    0    0  501    0 -0.00000000000E+00 -0.00000000000E+00 -0.13850855797E+04  0.13850855797E+04  0.00000000000E+00 0. -1.
         25    2    1    2    0    0  0.19833419942E+02  0.17957981403E+02 -0.75683705574E+03  0.76755664768E+03  0.12500009924E+03 0.  0.
          2    1    1    2  501    0 -0.16826266608E+02  0.34485762785E+02 -0.61917956181E+03  0.62036740795E+03  0.00000000000E+00 0. -1.
          1    1    1    2  502    0 -0.30071533339E+01 -0.52443744188E+02  0.21832728787E+03  0.22455777409E+03  0.00000000000E+00 0. -1.
         22    1    3    3    0    0  0.53444470566E+02 -0.24974140843E+02 -0.56652504212E+03  0.56958813409E+03  0.00000000000E+00 0.  1.
         22    1    3    3    0    0 -0.33611050624E+02  0.42932122246E+02 -0.19031201362E+03  0.19796851358E+03  0.00000000000E+00 0.  1.
</event>
<event>
 7    1  0.5676357E-006  0.1814803E+03  0.7818608E-02  0.1357246E+00
          2   -1    0    0  502    0  0.00000000000E+00  0.00000000000E+00  0.65642210981E+03  0.65642210981E+03  0.00000000000E+00 0. -1.
          1   -1    0    0  501    0 -0.00000000000E+00 -0.00000000000E+00 -0.15084949047E+04  0.15084949047E+04  0.00000000000E+00 0. -1.
         25    2    1    2    0    0  0.18012855831E+03  0.75171119928E+02 -0.30077086625E+03  0.37972040398E+03  0.12500990528E+03 0.  0.
          2    1    1    2  501    0 -0.17259970672E+03 -0.48560422142E+02 -0.11610543189E+04  0.11748173921E+04  0.00000000000E+00 0. -1.
          1    1    1    2  502    0 -0.75288515849E+01 -0.26610697786E+02  0.60975239027E+03  0.61037921842E+03  0.00000000000E+00 0. -1.
         22    1    3    3    0    0  0.28466410465E+02  0.19257423060E+01 -0.15307313353E+03  0.15570943844E+03  0.00000000000E+00 0.  1.
         22    1    3    3    0    0  0.15166214784E+03  0.73245377622E+02 -0.14769773272E+03  0.22401096554E+03  0.00000000000E+00 0.  1.
</event>
<event>
 7    1  0.5676357E-006  0.7708258E+02  0.7818608E-02  0.1502619E+00
          2   -1    0    0  502    0  0.00000000000E+00  0.00000000000E+00  0.32174830032E+03  0.32174830032E+03  0.00000000000E+00 0. -1.
          1   -1    0    0  501    0 -0.00000000000E+00 -0.00000000000E+00 -0.10912826406E+04  0.10912826406E+04  0.00000000000E+00 0. -1.
         25    2    1    2    0    0  0.76510220047E+02 -0.46101420046E+02  0.24613613934E+02  0.15559180426E+03  0.12499529935E+03 0.  0.
          2    1    1    2  501    0 -0.46750610416E+01  0.21051161243E+02 -0.10194300443E+04  0.10196580911E+04  0.00000000000E+00 0. -1.
          1    1    1    2  502    0 -0.71835159005E+02  0.25050258803E+02  0.22528209005E+03  0.23778104557E+03  0.00000000000E+00 0. -1.
         22    1    3    3    0    0  0.97689522428E+02 -0.50776353911E+02  0.51083092470E+02  0.12137117963E+03  0.00000000000E+00 0.  1.
         22    1    3    3    0    0 -0.21179302381E+02  0.46749338649E+01 -0.26469478536E+02  0.34220624628E+02  0.00000000000E+00 0.  1.
</event>
<event>
 7    1  0.5676357E-006  0.1977418E+03  0.7818608E-02  0.1248152E+00
          2   -1    0    0  502    0  0.00000000000E+00  0.00000000000E+00  0.20633004790E+04  0.20633004790E+04  0.00000000000E+00 0. -1.
          1   -1    0    0  501    0 -0.00000000000E+00 -0.00000000000E+00 -0.14584708627E+03  0.14584708627E+03  0.00000000000E+00 0. -1.
         25    2    1    2    0    0 -0.78248153310E+02  0.11117840370E+03  0.13475781803E+03  0.22862031663E+03  0.12499667480E+03 0.  0.
          2    1    1    2  501    0 -0.38657212102E+02  0.57409151513E+02 -0.80447851871E+02  0.10612279489E+03  0.00000000000E+00 0. -1.
          1    1    1    2  502    0  0.11690536541E+03 -0.16858755521E+03  0.18631434265E+04  0.18744044537E+04  0.00000000000E+00 0. -1.
         22    1    3    3    0    0  0.32288313668E+02  0.14834988007E+02  0.12368927254E+02  0.37624492424E+02  0.00000000000E+00 0. -1.
         22    1    3    3    0    0 -0.11053646698E+03  0.96343415694E+02  0.12238889078E+03  0.19099582421E+03  0.00000000000E+00 0. -1.
</event>
<event>
 7    1  0.5676357E-006  0.4408414E+02  0.7818608E-02  0.1487393E+00
          2   -1    0    0  502    0  0.00000000000E+00  0.00000000000E+00  0.18805100699E+04  0.18805100699E+04  0.00000000000E+00 0. -1.
          1   -1    0    0  501    0 -0.00000000000E+00 -0.00000000000E+00 -0.39614428210E+02  0.39614428210E+02  0.00000000000E+00 0. -1.
         25    2    1    2    0    0  0.22773657605E+02 -0.12989222772E+02  0.14027133439E+03  0.18970618908E+03  0.12500012614E+03 0.  0.
          2    1    1    2  501    0 -0.59164225739E+01  0.51342243450E+02  0.30995559204E+02  0.60264041591E+02  0.00000000000E+00 0. -1.
          1    1    1    2  502    0 -0.16857235031E+02 -0.38353020678E+02  0.16696287481E+04  0.16701542674E+04  0.00000000000E+00 0. -1.
         22    1    3    3    0    0 -0.43280781238E+02  0.24700836913E+02  0.71628995656E+02  0.87258640761E+02  0.00000000000E+00 0. -1.
         22    1    3    3    0    0  0.66054438843E+02 -0.37690059685E+02  0.68642338730E+02  0.10244754832E+03  0.00000000000E+00 0. -1.
</event>
<event>
 7    1  0.5676357E-006  0.1157806E+03  0.7818608E-02  0.1367598E+00
          2   -1    0    0  502    0  0.00000000000E+00  0.00000000000E+00  0.11659438852E+03  0.11659438852E+03  0.00000000000E+00 0. -1.
          1   -1    0    0  501    0 -0.00000000000E+00 -0.00000000000E+00 -0.53093191567E+03  0.53093191567E+03  0.00000000000E+00 0. -1.
         25    2    1    2    0    0 -0.90945172444E+02 -0.32100777662E+02 -0.25223317326E+02  0.15988559797E+03  0.12500281750E+03 0.  0.
          2    1    1    2  501    0  0.11859397024E+03  0.35428456715E+01 -0.42054809230E+03  0.43696427711E+03  0.00000000000E+00 0. -1.
          1    1    1    2  502    0 -0.27648797799E+02  0.28557931990E+02  0.31433882481E+02  0.50676429108E+02  0.00000000000E+00 0. -1.
         22    1    3    3    0    0 -0.43044535314E+02  0.24640383108E+02  0.37903065528E+02  0.62422935501E+02  0.00000000000E+00 0.  1.
         22    1    3    3    0    0 -0.47900637130E+02 -0.56741160770E+02 -0.63126382854E+02  0.97462662467E+02  0.00000000000E+00 0.  1.
</event>
<event>
 7    1  0.5676357E-006  0.6129899E+02  0.7818608E-02  0.1452040E+00
          2   -1    0    0  502    0  0.00000000000E+00  0.00000000000E+00  0.51988535193E+03  0.51988535193E+03  0.00000000000E+00 0. -1.
          1   -1    0    0  501    0 -0.00000000000E+00 -0.00000000000E+00 -0.12340301253E+04  0.12340301253E+04  0.00000000000E+00 0. -1.
         25    2    1    2    0    0 -0.11835381934E+02  0.78859895380E+02 -0.49680323550E+01  0.14835602833E+03  0.12500348167E+03 0.  0.
          2    1    1    2  501    0  0.32397895986E+02 -0.21379777955E+02 -0.11549617443E+04  0.11556138409E+04  0.00000000000E+00 0. -1.
          1    1    1    2  502    0 -0.20562514051E+02 -0.57480117425E+02  0.44578500334E+03  0.44994560792E+03  0.00000000000E+00 0. -1.
         22    1    3    3    0    0 -0.46493709432E+02  0.97666831688E+02  0.26194718034E+01  0.10820044668E+03  0.00000000000E+00 0. -1.
         22    1    3    3    0    0  0.34658327498E+02 -0.18806936308E+02 -0.75875041584E+01  0.40155581649E+02  0.00000000000E+00 0. -1.
</event>
<event>
 7    1  0.5676357E-006  0.5457487E+02  0.7818608E-02  0.1543470E+00
          2   -1    0    0  502    0  0.00000000000E+00  0.00000000000E+00  0.87474208452E+03  0.87474208452E+03  0.00000000000E+00 0. -1.
          1   -1    0    0  501    0 -0.00000000000E+00 -0.00000000000E+00 -0.89208230679E+02  0.89208230679E+02  0.00000000000E+00 0. -1.
         25    2    1    2    0    0  0.29009804285E+02  0.15348888812E+02  0.15661985067E+03  0.20305384943E+03  0.12499572398E+03 0.  0.
          2    1    1    2  501    0 -0.49217384219E+02 -0.26750592853E+02 -0.53870834862E+02  0.77717513960E+02  0.00000000000E+00 0. -1.
          1    1    1    2  502    0  0.20207579935E+02  0.11401704042E+02  0.68278483803E+03  0.68317895180E+03  0.00000000000E+00 0. -1.
         22    1    3    3    0    0  0.46393510014E+02 -0.45145247182E+02  0.63673026493E+02  0.90800360227E+02  0.00000000000E+00 0.  1.
         22    1    3    3    0    0 -0.17383705729E+02  0.60494135994E+02  0.92946824176E+02  0.11225348921E+03  0.00000000000E+00 0.  1.
</event>
<event>
 7    1  0.5676357E-006  0.1306794E+03  0.7818608E-02  0.1310180E+00
          2   -1    0    0  502    0  0.00000000000E+00  0.00000000000E+00  0.76008332863E+03  0.76008332863E+03  0.00000000000E+00 0. -1.
          1   -1    0    0  501    0 -0.00000000000E+00 -0.00000000000E+00 -0.61486064355E+03  0.61486064355E+03  0.00000000000E+00 0. -1.
         25    2    1    2    0    0 -0.80036960755E+02 -0.10190723192E+03  0.87536055718E+02  0.20019366909E+03  0.12499578027E+03 0.  0.
          2    1    1    2  501    0  0.51216743967E+02 -0.27164362396E+02 -0.54989469256E+03  0.55294233909E+03  0.00000000000E+00 0. -1.
          1    1    1    2  502    0  0.28820216788E+02  0.12907159432E+03  0.60758132192E+03  0.62180796400E+03  0.00000000000E+00 0. -1.
         22    1    3    3    0    0 -0.25042529105E+02 -0.10838788676E+03  0.20283850318E+02  0.11307739316E+03  0.00000000000E+00 0.  1.
         22    1    3    3    0    0 -0.54994431650E+02  0.64806548381E+01  0.67252205401E+02  0.87116275924E+02  0.00000000000E+00 0.  1.
</event>
<event>
 7    1  0.5676357E-006  0.8561324E+02  0.7818608E-02  0.1417395E+00
          2   -1    0    0  502    0  0.00000000000E+00  0.00000000000E+00  0.87944415801E+03  0.87944415801E+03  0.00000000000E+00 0. -1.
          1   -1    0    0  501    0 -0.00000000000E+00 -0.00000000000E+00 -0.43813128289E+03  0.43813128289E+03  0.00000000000E+00 0. -1.
         25    2    1    2    0    0  0.20692767179E+02  0.69953413032E+02  0.16535070001E+03  0.21974378228E+03  0.12499922099E+03 0.  0.
          2    1    1    2  501    0 -0.56425539855E+02 -0.64981727922E+02 -0.40594680427E+03  0.41496900416E+03  0.00000000000E+00 0. -1.
          1    1    1    2  502    0  0.35732772676E+02 -0.49716851101E+01  0.68190897939E+03  0.68286265447E+03  0.00000000000E+00 0. -1.
         22    1    3    3    0    0  0.39778665954E+02  0.24867189857E+02  0.16420084673E+03  0.17077071606E+03  0.00000000000E+00 0.  1.
         22    1    3    3    0    0 -0.19085898775E+02  0.45086223175E+02  0.11498532752E+01  0.48973066218E+02  0.00000000000E+00 0.  1.
</event>
<event>
 7    1  0.5676357E-006  0.1135594E+03  0.7818608E-02  0.1283024E+00
          2   -1    0    0  502    0  0.00000000000E+00  0.00000000000E+00  0.79522801642E+03  0.79522801642E+03  0.00000000000E+00 0. -1.
          1   -1    0    0  501    0 -0.00000000000E+00 -0.00000000000E+00 -0.68833517113E+03  0.68833517113E+03  0.00000000000E+00 0. -1.
         25    2    1    2    0    0 -0.53579788518E+02  0.16145722690E+03 -0.28727184792E+03  0.35649588116E+03  0.12499987525E+03 0.  0.
          2    1    1    2  501    0  0.70015858220E+02 -0.49607805979E+02 -0.35714043515E+03  0.36730429515E+03  0.00000000000E+00 0. -1.
          1    1    1    2  502    0 -0.16436069702E+02 -0.11184942092E+03  0.75130512836E+03  0.75976301124E+03  0.00000000000E+00 0. -1.
         22    1    3    3    0    0 -0.77413716313E+02  0.16626229474E+03 -0.22923772909E+03  0.29357447193E+03  0.00000000000E+00 0.  1.
         22    1    3    3    0    0  0.23833927795E+02 -0.48050678376E+01 -0.58034118830E+02  0.62921409229E+02  0.00000000000E+00 0.  1.
</event>
<event>
 7    1  0.5676357E-006  0.4338047E+02  0.7818608E-02  0.1539784E+00
          2   -1    0    0  502    0  0.00000000000E+00  0.00000000000E+00  0.91283160340E+03  0.91283160340E+03  0.00000000000E+00 0. -1.
          1   -1    0    0  501    0 -0.00000000000E+00 -0.00000000000E+00 -0.18567074971E+03  0.18567074971E+03  0.00000000000E+00 0. -1.
         25    2    1    2    0    0  0.68192766700E+02  0.64671385253E+01  0.21085124985E+03  0.25450920463E+03  0.12499843346E+03 0.  0.
          2    1    1    2  501    0 -0.39935587792E+02 -0.16232107765E+02 -0.16067057497E+03  0.16635313690E+03  0.00000000000E+00 0. -1.
          1    1    1    2  502    0 -0.28257178908E+02  0.97649692397E+01  0.67698017881E+03  0.67764001158E+03  0.00000000000E+00 0. -1.
         22    1    3    3    0    0 -0.60831141505E+01  0.37634341415E+02  0.12006295268E+02  0.39968725994E+02  0.00000000000E+00 0.  1.
         22    1    3    3    0    0  0.74275880850E+02 -0.31167202889E+02  0.19884495458E+03  0.21454047864E+03  0.00000000000E+00 0.  1.
</event>
<event>
 7    1  0.8171853E-006  0.7275518E+02  0.7818608E-02  0.1477757E+00
          2   -1    0    0  502    0  0.00000000000E+00  0.00000000000E+00  0.24563380619E+04  0.24563380619E+04  0.00000000000E+00 0. -1.
          1   -1    0    0  501    0 -0.00000000000E+00 -0.00000000000E+00 -0.75623537164E+03  0.75623537164E+03  0.00000000000E+00 0. -1.
         25    2    1    2    0    0  0.49948044979E+02 -0.79744076047E+02 -0.40788057564E+03  0.43685945002E+03  0.12500276088E+03 0.  0.
          2    1    1    2  501    0  0.30196784851E+00  0.27164309248E+02 -0.33277016011E+03  0.33387717853E+03  0.00000000000E+00 0. -1.
          1    1    1    2  502    0 -0.50250012827E+02  0.52579766799E+02  0.24407534260E+04  0.24418368050E+04  0.00000000000E+00 0. -1.
         22    1    3    3    0    0  0.83320204275E+02 -0.16602635314E+02 -0.22867992727E+03  0.24395166135E+03  0.00000000000E+00 0.  1.
         22    1    3    3    0    0 -0.33372159297E+02 -0.63141440733E+02 -0.17920064837E+03  0.19290778867E+03  0.00000000000E+00 0.  1.
</event>
<event>
 7    1  0.5676357E-006  0.9983848E+02  0.7818608E-02  0.1346228E+00
          2   -1    0    0  502    0  0.00000000000E+00  0.00000000000E+00  0.18600028392E+04  0.18600028392E+04  0.00000000000E+00 0. -1.
          1   -1    0    0  501    0 -0.00000000000E+00 -0.00000000000E+00 -0.52142796668E+02  0.52142796668E+02  0.00000000000E+00 0. -1.
         25    2    1    2    0    0  0.74542410175E+02 -0.10795886851E+03  0.32391537444E+03  0.37115575525E+03  0.12499494652E+03 0.  0.
          2    1    1    2  501    0  0.80418641362E+01  0.54622059007E+02  0.14405585801E+01  0.55229667009E+02  0.00000000000E+00 0. -1.
          1    1    1    2  502    0 -0.82584274312E+02  0.53336809505E+02  0.14825041096E+04  0.14857602137E+04  0.00000000000E+00 0. -1.
         22    1    3    3    0    0  0.37025948157E+02  0.23905067878E+02  0.82010991370E+02  0.93103038687E+02  0.00000000000E+00 0.  1.
         22    1    3    3    0    0  0.37516462018E+02 -0.13186393639E+03  0.24190438307E+03  0.27805271657E+03  0.00000000000E+00 0.  1.
</event>
<event>
 7    1  0.5676357E-006  0.9254626E+02  0.7818608E-02  0.1397046E+00
          2   -1    0    0  502    0  0.00000000000E+00  0.00000000000E+00  0.19430426064E+04  0.19430426064E+04  0.00000000000E+00 0. -1.
          1   -1    0    0  501    0 -0.00000000000E+00 -0.00000000000E+00 -0.35358362725E+02  0.35358362725E+02  0.00000000000E+00 0. -1.
         25    2    1    2    0    0  0.83455342630E+02  0.10933709001E+02  0.72878185797E+03  0.74419918008E+03  0.12500033164E+03 0.  0.
          2    1    1    2  501    0 -0.13578262894E+01  0.39119584666E+02 -0.10811425115E+02  0.40608773802E+02  0.00000000000E+00 0. -1.
          1    1    1    2  502    0 -0.82097516341E+02 -0.50053293667E+02  0.11897138108E+04  0.11935930152E+04  0.00000000000E+00 0. -1.
         22    1    3    3    0    0  0.96891512734E+02 -0.34635420470E+02  0.51958573434E+03  0.52967623405E+03  0.00000000000E+00 0.  1.
         22    1    3    3    0    0 -0.13436170104E+02  0.45569129471E+02  0.20919612363E+03  0.21452294603E+03  0.00000000000E+00 0.  1.
</event>
<event>
 7    1  0.5676357E-006  0.1172181E+03  0.7818608E-02  0.1328719E+00
          2   -1    0    0  502    0  0.00000000000E+00  0.00000000000E+00  0.23683206035E+04  0.23683206035E+04  0.00000000000E+00 0. -1.
          1   -1    0    0  501    0 -0.00000000000E+00 -0.00000000000E+00 -0.11756266802E+04  0.11756266802E+04  0.00000000000E+00 0. -1.
         25    2    1    2    0    0 -0.23845178979E+02 -0.14598362086E+03 -0.20437795742E+03  0.28155831258E+03  0.12499969514E+03 0.  0.
          2    1    1    2  501    0 -0.20099847073E+02  0.11331244230E+03 -0.92878506477E+03  0.93588749856E+03  0.00000000000E+00 0. -1.
          1    1    1    2  502    0  0.43945026052E+02  0.32671178554E+02  0.23258569454E+04  0.23265014726E+04  0.00000000000E+00 0. -1.
         22    1    3    3    0    0 -0.10620376564E+02 -0.67586724602E+02 -0.18843543213E+03  0.20047111967E+03  0.00000000000E+00 0.  1.
         22    1    3    3    0    0 -0.13224802415E+02 -0.78396896254E+02 -0.15942525289E+02  0.81087192909E+02  0.00000000000E+00 0.  1.
</event>
<event>
 7    1  0.5676357E-006  0.1198605E+03  0.7818608E-02  0.1260698E+00
          2   -1    0    0  502    0  0.00000000000E+00  0.00000000000E+00  0.27908169976E+04  0.27908169976E+04  0.00000000000E+00 0. -1.
          1   -1    0    0  501    0 -0.00000000000E+00 -0.00000000000E+00 -0.10060759899E+03  0.10060759899E+03  0.00000000000E+00 0. -1.
         25    2    1    2    0    0 -0.71163328244E+02  0.23814376952E+02  0.83761647683E+02  0.16814393746E+03  0.12500010498E+03 0.  0.
          2    1    1    2  501    0  0.12667124897E+03 -0.10798286926E+03  0.63215792704E+02  0.17805095286E+03  0.00000000000E+00 0. -1.
          1    1    1    2  502    0 -0.55507920728E+02  0.84168492304E+02  0.25432319582E+04  0.25452297063E+04  0.00000000000E+00 0. -1.
         22    1    3    3    0    0 -0.88720514405E+02  0.46442587879E+02  0.94371016994E+02  0.13760135353E+03  0.00000000000E+00 0.  1.
         22    1    3    3    0    0  0.17557186161E+02 -0.22628210928E+02 -0.10609369312E+02  0.30542583926E+02  0.00000000000E+00 0.  1.
</event>
<event>
 7    1  0.5676357E-006  0.8604683E+02  0.7818608E-02  0.1385623E+00
          2   -1    0    0  502    0  0.00000000000E+00  0.00000000000E+00  0.96010500348E+03  0.96010500348E+03  0.00000000000E+00 0. -1.
          1   -1    0    0  501    0 -0.00000000000E+00 -0.00000000000E+00 -0.18894429698E+04  0.18894429698E+04  0.00000000000E+00 0. -1.
         25    2    1    2    0    0 -0.91267765117E+02 -0.22108406145E+02 -0.26224826158E+03  0.30531574299E+03  0.12499986257E+03 0.  0.
          2    1    1    2  501    0  0.28225821087E+02 -0.36497368502E+02 -0.16033549583E+04  0.16040186649E+04  0.00000000000E+00 0. -1.
          1    1    1    2  502    0  0.63041944030E+02  0.58605774647E+02  0.93626525358E+03  0.94021356542E+03  0.00000000000E+00 0. -1.
         22    1    3    3    0    0 -0.75205226546E+02 -0.44150912532E+02 -0.26395520095E+03  0.27798826825E+03  0.00000000000E+00 0. -1.
         22    1    3    3    0    0 -0.16062538571E+02  0.22042506387E+02  0.17069393749E+01  0.27327474732E+02  0.00000000000E+00 0. -1.
</event>
<event>
 7    1  0.5676357E-006  0.8057635E+03  0.7818608E-02  0.1152558E+00
          2   -1    0    0  502    0  0.00000000000E+00  0.00000000000E+00  0.28409330490E+04  0.28409330490E+04  0.00000000000E+00 0. -1.
          1   -1    0    0  501    0 -0.00000000000E+00 -0.00000000000E+00 -0.10670712085E+04  0.10670712085E+04  0.00000000000E+00 0. -1.
         25    2    1    2    0    0 -0.79696067723E+03 -0.16354995998E+03 -0.37649234463E+03  0.90513323835E+03  0.12499913251E+03 0.  0.
          2    1    1    2  501    0  0.76924096595E+03  0.20275559446E+03 -0.54608630282E+02  0.79738547596E+03  0.00000000000E+00 0. -1.
          1    1    1    2  502    0  0.27719711286E+02 -0.39205634476E+02  0.22049628154E+04  0.22054855433E+04  0.00000000000E+00 0. -1.
         22    1    3    3    0    0 -0.54491690890E+03 -0.17043316953E+03 -0.26470905947E+03  0.62932725116E+03  0.00000000000E+00 0.  1.
         22    1    3    3    0    0 -0.25204376833E+03  0.68832095470E+01 -0.11178328516E+03  0.27580598719E+03  0.00000000000E+00 0.  1.
</event>
<event>
 7    1  0.5676357E-006  0.4629899E+02  0.7818608E-02  0.1483436E+00
          2   -1    0    0  502    0  0.00000000000E+00  0.00000000000E+00  0.18283563854E+04  0.18283563854E+04  0.00000000000E+00 0. -1.
          1   -1    0    0  501    0 -0.00000000000E+00 -0.00000000000E+00 -0.52045100604E+02  0.52045100604E+02  0.00000000000E+00 0. -1.
         25    2    1    2    0    0  0.56783563081E+01 -0.30407349890E+01  0.11095026291E+03  0.16726284839E+03  0.12500163923E+03 0.  0.
          2    1    1    2  501    0 -0.34141495640E+02 -0.33475653020E+02  0.68588984524E+00  0.47819781624E+02  0.00000000000E+00 0. -1.
          1    1    1    2  502    0  0.28463139332E+02  0.36516388009E+02  0.16646751320E+04  0.16653188560E+04  0.00000000000E+00 0. -1.
         22    1    3    3    0    0  0.15311192169E+02  0.40296242331E+02 -0.47209818248E+01  0.43364817779E+02  0.00000000000E+00 0.  1.
         22    1    3    3    0    0 -0.96328358605E+01 -0.43336977320E+02  0.11567124473E+03  0.12389803061E+03  0.00000000000E+00 0.  1.
</event>
<event>
 7    1  0.5676357E-006  0.4473919E+02  0.7818608E-02  0.1574140E+00
          2   -1    0    0  502    0  0.00000000000E+00  0.00000000000E+00  0.44461771226E+03  0.44461771226E+03  0.00000000000E+00 0. -1.
          1   -1    0    0  501    0 -0.00000000000E+00 -0.00000000000E+00 -0.14507956442E+04  0.14507956442E+04  0.00000000000E+00 0. -1.
         25    2    1    2    0    0 -0.33472694052E+02  0.42284942107E+02 -0.38380257036E+03  0.40723180465E+03  0.12499956851E+03 0.  0.
          2    1    1    2  501    0  0.10203329276E+02 -0.43382174638E+02 -0.10544940667E+04  0.10554353877E+04  0.00000000000E+00 0. -1.
          1    1    1    2  502    0  0.23269364775E+02  0.10972325311E+01  0.43211870509E+03  0.43274616410E+03  0.00000000000E+00 0. -1.
         22    1    3    3    0    0 -0.56948955797E+02  0.75279367818E+02 -0.29245601361E+03  0.30731203471E+03  0.00000000000E+00 0. -1.
         22    1    3    3    0    0  0.23476261745E+02 -0.32994425711E+02 -0.91346556753E+02  0.99919769936E+02  0.00000000000E+00 0. -1.
</event>
<event>
 7    1  0.5676357E-006  0.2555840E+03  0.7818608E-02  0.1244042E+00
          2   -1    0    0  502    0  0.00000000000E+00  0.00000000000E+00  0.15016185388E+04  0.15016185388E+04  0.00000000000E+00 0. -1.
          1   -1    0    0  501    0 -0.00000000000E+00 -0.00000000000E+00 -0.57381185829E+03  0.57381185829E+03  0.00000000000E+00 0. -1.
         25    2    1    2    0    0  0.18648462418E+03 -0.14618491285E+03  0.18607628555E+03  0.32618168165E+03  0.12499424627E+03 0.  0.
          2    1    1    2  501    0 -0.23209610142E+03  0.11402963060E+03 -0.46988835701E+03  0.53634543440E+03  0.00000000000E+00 0. -1.
          1    1    1    2  502    0  0.45611477238E+02  0.32155282253E+02  0.12116187519E+04  0.12129032810E+04  0.00000000000E+00 0. -1.
         22    1    3    3    0    0  0.12473410778E+03 -0.14757940175E+03  0.92927263599E+02  0.21441491036E+03  0.00000000000E+00 0.  1.
         22    1    3    3    0    0  0.61750516402E+02  0.13944888976E+01  0.93149021953E+02  0.11176677130E+03  0.00000000000E+00 0.  1.
</event>
<event>
 7    1  0.5676357E-006  0.1421151E+03  0.7818608E-02  0.1400801E+00
          2   -1    0    0  502    0  0.00000000000E+00  0.00000000000E+00  0.51100617114E+03  0.51100617114E+03  0.00000000000E+00 0. -1.
          1   -1    0    0  501    0 -0.00000000000E+00 -0.00000000000E+00 -0.97648187150E+03  0.97648187150E+03  0.00000000000E+00 0. -1.
         25    2    1    2    0    0  0.12441101587E+03 -0.92600520428E+02  0.16480342044E+03  0.25855703117E+03  0.12505444305E+03 0.  0.
          2    1    1    2  501    0 -0.12453349927E+03  0.67858403413E+02 -0.92367220137E+03  0.93449649060E+03  0.00000000000E+00 0. -1.
          1    1    1    2  502    0  0.12248340270E+00  0.24742117015E+02  0.29339308057E+03  0.29443452088E+03  0.00000000000E+00 0. -1.
         22    1    3    3    0    0  0.17746236223E+02  0.63845089140E+01 -0.17204753818E+02  0.25528306017E+02  0.00000000000E+00 0.  1.
         22    1    3    3    0    0  0.10666477965E+03 -0.98985029342E+02  0.18200817426E+03  0.23302872515E+03  0.00000000000E+00 0.  1.
</event>
<event>
 7    1  0.5676357E-006  0.6662195E+02  0.7818608E-02  0.1373301E+00
          2   -1    0    0  502    0  0.00000000000E+00  0.00000000000E+00  0.72236299493E+03  0.72236299493E+03  0.00000000000E+00 0. -1.
          1   -1    0    0  501    0 -0.00000000000E+00 -0.00000000000E+00 -0.16964964049E+04  0.16964964049E+04  0.00000000000E+00 0. -1.
         25    2    1    2    0    0  0.98098919659E+02 -0.38308618917E+00  0.19738835352E+02  0.16011917937E+03  0.12499994075E+03 0.  0.
          2    1    1    2  501    0 -0.49332126658E+02  0.44701084109E+02 -0.16239058872E+04  0.16252698779E+04  0.00000000000E+00 0. -1.
          1    1    1    2  502    0 -0.48766793000E+02 -0.44317997920E+02  0.63003364184E+03  0.63347034255E+03  0.00000000000E+00 0. -1.
         22    1    3    3    0    0  0.13478454713E+02  0.33664827280E+02  0.51976718267E+02  0.63376403961E+02  0.00000000000E+00 0.  1.
         22    1    3    3    0    0  0.84620464946E+02 -0.34047913469E+02 -0.32237882915E+02  0.96742775410E+02  0.00000000000E+00 0.  1.
</event>
<event>
 7    1  0.5676357E-006  0.1209196E+03  0.7818608E-02  0.1293322E+00
          2   -1    0    0  502    0  0.00000000000E+00  0.00000000000E+00  0.85075774497E+03  0.85075774497E+03  0.00000000000E+00 0. -1.
          1   -1    0    0  501    0 -0.00000000000E+00 -0.00000000000E+00 -0.72855350508E+03  0.72855350508E+03  0.00000000000E+00 0. -1.
         25    2    1    2    0    0 -0.10002914809E+03  0.20335000026E+02  0.10859865043E+03  0.19451862998E+03  0.12499795134E+03 0.  0.
          2    1    1    2  501    0  0.14439885018E+02  0.71717508384E+02 -0.67796072083E+03  0.68189636330E+03  0.00000000000E+00 0. -1.
          1    1    1    2  502    0  0.85589263071E+02 -0.92052508409E+02  0.69156631029E+03  0.70289625677E+03  0.00000000000E+00 0. -1.
         22    1    3    3    0    0 -0.73207776081E+02  0.46143267645E+02  0.75884356218E+01  0.86868659382E+02  0.00000000000E+00 0. -1.
         22    1    3    3    0    0 -0.26821372009E+02 -0.25808267620E+02  0.10101021481E+03  0.10764997060E+03  0.00000000000E+00 0. -1.
</event>
<event>
 7    1  0.5676357E-006  0.7538323E+02  0.7818608E-02  0.1347323E+00
          2   -1    0    0  502    0  0.00000000000E+00  0.00000000000E+00  0.42814816603E+03  0.42814816603E+03  0.00000000000E+00 0. -1.
          1   -1    0    0  501    0 -0.00000000000E+00 -0.00000000000E+00 -0.10130904277E+04  0.10130904277E+04  0.00000000000E+00 0. -1.
         25    2    1    2    0    0 -0.69703238552E+02  0.70965676826E+02  0.40319349102E+02  0.16475716031E+03  0.12499841283E+03 0.  0.
          2    1    1    2  501    0 -0.59932100988E+01 -0.72190389064E+02 -0.94506609515E+03  0.94783822198E+03  0.00000000000E+00 0. -1.
          1    1    1    2  502    0  0.75696448650E+02  0.12247122382E+01  0.31980448433E+03  0.32864321149E+03  0.00000000000E+00 0. -1.
         22    1    3    3    0    0 -0.62378826246E+02  0.92407050815E+02 -0.76016799652E+01  0.11174957066E+03  0.00000000000E+00 0. -1.
         22    1    3    3    0    0 -0.73244123056E+01 -0.21441373989E+02  0.47921029068E+02  0.53007589655E+02  0.00000000000E+00 0. -1.
</event>
<event>
 7    1  0.5676357E-006  0.6357531E+02  0.7818608E-02  0.1458589E+00
          2   -1    0    0  502    0  0.00000000000E+00  0.00000000000E+00  0.15264498205E+04  0.15264498205E+04  0.00000000000E+00 0. -1.
          1   -1    0    0  501    0 -0.00000000000E+00 -0.00000000000E+00 -0.51350416599E+03  0.51350416599E+03  0.00000000000E+00 0. -1.
         25    2    1    2    0    0 -0.57980310434E+02 -0.24692492157E+02  0.88165517577E+03  0.89269826258E+03  0.12499161366E+03 0.  0.
          2    1    1    2  501    0  0.62697393909E+02 -0.10670857818E+02 -0.50549071376E+03  0.50947589943E+03  0.00000000000E+00 0. -1.
          1    1    1    2  502    0 -0.47170834745E+01  0.35363349975E+02  0.63678119254E+03  0.63777982452E+03  0.00000000000E+00 0. -1.
         22    1    3    3    0    0  0.18270330781E+02  0.26526028401E+02  0.87344551207E+02  0.93094069602E+02  0.00000000000E+00 0.  1.
         22    1    3    3    0    0 -0.76250641215E+02 -0.51218520558E+02  0.79431062456E+03  0.79960419297E+03  0.00000000000E+00 0.  1.
</event>
<event>
 7    1  0.5676357E-006  0.2108274E+03  0.7818608E-02  0.1160961E+00
          2   -1    0    0  502    0  0.00000000000E+00  0.00000000000E+00  0.60757242798E+03  0.60757242798E+03  0.00000000000E+00 0. -1.
          1   -1    0    0  501    0 -0.00000000000E+00 -0.00000000000E+00 -0.13832833099E+04  0.13832833099E+04  0.00000000000E+00 0. -1.
         25    2    1    2    0    0  0.61273234040E+02  0.44291108252E+02 -0.70036151549E+02  0.16201283444E+03  0.12500793783E+03 0.  0.
          2    1    1    2  501    0  0.14672337125E+03  0.78319148313E+02 -0.12354749700E+04  0.12466194440E+04  0.00000000000E+00 0. -1.
          1    1    1    2  502    0 -0.20799660529E+03 -0.12261025656E+03  0.52980023962E+03  0.58222345945E+03  0.00000000000E+00 0. -1.
         22    1    3    3    0    0  0.85003514016E+02  0.60967104798E+02 -0.79626487286E+02  0.13146468248E+03  0.00000000000E+00 0. -1.
         22    1    3    3    0    0 -0.23730279977E+02 -0.16675996546E+02  0.95903357371E+01  0.30548151959E+02  0.00000000000E+00 0. -1.
</event>
<event>
 7    1  0.5676357E-006  0.2560600E+03  0.7818608E-02  0.1279959E+00
          2   -1    0    0  502    0  0.00000000000E+00  0.00000000000E+00  0.16236404827E+04  0.16236404827E+04  0.00000000000E+00 0. -1.
          1   -1    0    0  501    0 -0.00000000000E+00 -0.00000000000E+00 -0.10504482170E+04  0.10504482170E+04  0.00000000000E+00 0. -1.
         25    2    1    2    0    0 -0.20918952244E+03 -0.97432212667E+02  0.51930587232E+03  0.58185622546E+03  0.12499914287E+03 0.  0.
          2    1    1    2  501    0 -0.33743452037E+02 -0.19908446059E+02 -0.10018266759E+04  0.10025924673E+04  0.00000000000E+00 0. -1.
          1    1    1    2  502    0  0.24293297447E+03  0.11734065873E+03  0.10557130692E+04  0.10896400070E+04  0.00000000000E+00 0. -1.
         22    1    3    3    0    0 -0.10619402229E+02  0.26037996176E+02  0.45384433235E+02  0.53390033982E+02  0.00000000000E+00 0. -1.
         22    1    3    3    0    0 -0.19857012021E+03 -0.12347020884E+03  0.47392143908E+03  0.52846619148E+03  0.00000000000E+00 0. -1.
</event>
<event>
 7    1  0.5676357E-006  0.1311022E+03  0.7818608E-02  0.1321364E+00
          2   -1    0    0  502    0  0.00000000000E+00  0.00000000000E+00  0.22358925702E+04  0.22358925702E+04  0.00000000000E+00 0. -1.
          1   -1    0    0  501    0 -0.00000000000E+00 -0.00000000000E+00 -0.11415945967E+03  0.11415945967E+03  0.00000000000E+00 0. -1.
         25    2    1    2    0    0 -0.21383873378E+02 -0.16314342623E+03  0.24245804427E+03  0.31856401242E+03  0.12499631680E+03 0.  0.
          2    1    1    2  501    0  0.45835493791E+02  0.11695812340E+03 -0.23666700359E+02  0.12782882236E+03  0.00000000000E+00 0. -1.
          1    1    1    2  502    0 -0.24451620413E+02  0.46185302831E+02  0.19029417666E+04  0.19036591951E+04  0.00000000000E+00 0. -1.
         22    1    3    3    0    0 -0.40985721578E+02 -0.17561262046E+03  0.19426212130E+03  0.26506111297E+03  0.00000000000E+00 0.  1.
         22    1    3    3    0    0  0.19601848200E+02  0.12469194233E+02  0.48195922975E+02  0.53502899445E+02  0.00000000000E+00 0.  1.
</event>
<event>
 7    1  0.5676357E-006  0.8476812E+02  0.7818608E-02  0.1380847E+00
          2   -1    0    0  502    0  0.00000000000E+00  0.00000000000E+00  0.10094448564E+04  0.10094448564E+04  0.00000000000E+00 0. -1.
          1   -1    0    0  501    0 -0.00000000000E+00 -0.00000000000E+00 -0.17958086391E+04  0.17958086391E+04  0.00000000000E+00 0. -1.
         25    2    1    2    0    0  0.20111602989E+02 -0.31152140180E+02 -0.67878564285E+02  0.14698542324E+03  0.12498913050E+03 0.  0.
          2    1    1    2  501    0  0.21224636895E+02 -0.43815419032E+02 -0.16861355153E+04  0.16868382412E+04  0.00000000000E+00 0. -1.
          1    1    1    2  502    0 -0.41336239884E+02  0.74967559213E+02  0.96765029681E+03  0.97142983101E+03  0.00000000000E+00 0. -1.
         22    1    3    3    0    0  0.17080095346E+02  0.47717512843E+02 -0.18877299453E+02  0.54083667808E+02  0.00000000000E+00 0. -1.
         22    1    3    3    0    0  0.30315076430E+01 -0.78869653023E+02 -0.49001264832E+02  0.92901755428E+02  0.00000000000E+00 0. -1.
</event>
<event>
 7    1  0.5676357E-006  0.1083238E+03  0.7818608E-02  0.1268006E+00
          2   -1    0    0  502    0  0.00000000000E+00  0.00000000000E+00  0.10735385598E+04  0.10735385598E+04  0.00000000000E+00 0. -1.
          1   -1    0    0  501    0 -0.00000000000E+00 -0.00000000000E+00 -0.35406354289E+03  0.35406354289E+03  0.00000000000E+00 0. -1.
         25    2    1    2    0    0  0.36402244114E+02 -0.68883779048E+02  0.23890645290E+02  0.14921699750E+03  0.12499940407E+03 0.  0.
          2    1    1    2  501    0 -0.11247768407E+03 -0.82302527711E+01 -0.27736893054E+03  0.29942025667E+03  0.00000000000E+00 0. -1.
          1    1    1    2  502    0  0.76075439953E+02  0.77114031819E+02  0.97295330218E+03  0.97896484855E+03  0.00000000000E+00 0. -1.
         22    1    3    3    0    0  0.36048596809E+01 -0.81702596751E+02  0.57945763544E+02  0.10022984008E+03  0.00000000000E+00 0. -1.
         22    1    3    3    0    0  0.32797384433E+02  0.12818817703E+02 -0.34055118253E+02  0.48987157421E+02  0.00000000000E+00 0. -1.
</event>
<event>
 7    1  0.5676357E-006  0.7709999E+02  0.7818608E-02  0.1363209E+00
          2   -1    0    0  502    0  0.00000000000E+00  0.00000000000E+00  0.21378648224E+04  0.21378648224E+04  0.00000000000E+00 0. -1.
          1   -1    0    0  501    0 -0.00000000000E+00 -0.00000000000E+00 -0.21551005993E+02  0.21551005993E+02  0.00000000000E+00 0. -1.
         25    2    1    2    0    0  0.12582588392E+02  0.36204477530E+02  0.96299544981E+03  0.97183021803E+03  0.12499860240E+03 0.  0.
          2    1    1    2  501    0  0.48463813594E+02  0.38532746608E+02  0.48734495127E+02  0.78794446534E+02  0.00000000000E+00 0. -1.
          1    1    1    2  502    0 -0.61046401986E+02 -0.74737224138E+02  0.11045838715E+04  0.11087911639E+04  0.00000000000E+00 0. -1.
         22    1    3    3    0    0 -0.77492139891E+01 -0.45654578446E+02  0.35867658561E+03  0.36165354127E+03  0.00000000000E+00 0.  1.
         22    1    3    3    0    0  0.20331802381E+02  0.81859055975E+02  0.60431886420E+03  0.61017667676E+03  0.00000000000E+00 0.  1.
</event>
<event>
 7    1  0.5676357E-006  0.5255042E+02  0.7818608E-02  0.1443978E+00
          2   -1    0    0  502    0  0.00000000000E+00  0.00000000000E+00  0.15844858833E+04  0.15844858833E+04  0.00000000000E+00 0. -1.
          1   -1    0    0  501    0 -0.00000000000E+00 -0.00000000000E+00 -0.14642088686E+03  0.14642088686E+03  0.00000000000E+00 0. -1.
         25    2    1    2    0    0  0.70762932961E+02 -0.59471551536E+02  0.79947380527E+03  0.81444924659E+03  0.12499980732E+03 0.  0.
          2    1    1    2  501    0 -0.24568140840E+02  0.46222616687E+02 -0.13322850505E+03  0.14314313953E+03  0.00000000000E+00 0. -1.
          1    1    1    2  502    0 -0.46194792121E+02  0.13248934849E+02  0.77181969618E+03  0.77331438401E+03  0.00000000000E+00 0. -1.
         22    1    3    3    0    0  0.74344792268E+02 -0.61516569774E+02  0.80314887803E+03  0.80892493890E+03  0.00000000000E+00 0. -1.
         22    1    3    3    0    0 -0.35818593076E+01  0.20450182379E+01 -0.36750727561E+01  0.55243076901E+01  0.00000000000E+00 0. -1.
</event>
<event>
 7    1  0.5676357E-006  0.4857588E+02  0.7818608E-02  0.1573777E+00
          2   -1    0    0  502    0  0.00000000000E+00  0.00000000000E+00  0.21798895215E+03  0.21798895215E+03  0.00000000000E+00 0. -1.
          1   -1    0    0  501    0 -0.00000000000E+00 -0.00000000000E+00 -0.13224703945E+04  0.13224703945E+04  0.00000000000E+00 0. -1.
         25    2    1    2    0    0 -0.64671385420E+02  0.26695234656E+02 -0.61753407349E+03  0.63393117667E+03  0.12500152474E+03 0.  0.
          2    1    1    2  501    0  0.19574310719E+02 -0.89026875109E+01 -0.69376815667E+03  0.69410133748E+03  0.00000000000E+00 0. -1.
          1    1    1    2  502    0  0.45097074701E+02 -0.17792547145E+02  0.20682078783E+03  0.21242683249E+03  0.00000000000E+00 0. -1.
         22    1    3    3    0    0  0.84221705777E+01 -0.20097028296E+02 -0.38682169766E+03  0.38743496136E+03  0.00000000000E+00 0. -1.
         22    1    3    3    0    0 -0.73093555997E+02  0.46792262952E+02 -0.23071237583E+03  0.24649621531E+03  0.00000000000E+00 0. -1.
</event>
<event>
 7    1  0.5676357E-006  0.4895640E+02  0.7818608E-02  0.1457311E+00
          2   -1    0    0  502    0  0.00000000000E+00  0.00000000000E+00  0.20599713740E+04  0.20599713740E+04  0.00000000000E+00 0. -1.
          1   -1    0    0  501    0 -0.00000000000E+00 -0.00000000000E+00 -0.25590874673E+03  0.25590874673E+03  0.00000000000E+00 0. -1.
         25    2    1    2    0    0 -0.28033717517E+02  0.68793900387E+02  0.42962531966E+03  0.45356534649E+03  0.12500047278E+03 0.  0.
          2    1    1    2  501    0 -0.14149422625E+02 -0.44571214306E+02 -0.24132820818E+03  0.24581721536E+03  0.00000000000E+00 0. -1.
          1    1    1    2  502    0  0.42183140142E+02 -0.24222686081E+02  0.16157655158E+04  0.16164975588E+04  0.00000000000E+00 0. -1.
         22    1    3    3    0    0  0.13344602081E+01 -0.31066880786E+02  0.18680381418E+03  0.18937422438E+03  0.00000000000E+00 0. -1.
         22    1    3    3    0    0 -0.29368177726E+02  0.99860781174E+02  0.24282150548E+03  0.26419112211E+03  0.00000000000E+00 0. -1.
</event>
<event>
 7    1  0.5676357E-006  0.3428626E+02  0.7818608E-02  0.1640241E+00
          2   -1    0    0  502    0  0.00000000000E+00  0.00000000000E+00  0.14844375692E+03  0.14844375692E+03  0.00000000000E+00 0. -1.
          1   -1    0    0  501    0 -0.00000000000E+00 -0.00000000000E+00 -0.11981537604E+04  0.11981537604E+04  0.00000000000E+00 0. -1.
         25    2    1    2    0    0 -0.28895701482E+02 -0.34198079698E+02 -0.10157334087E+03  0.16716614676E+03  0.12499162703E+03 0.  0.
          2    1    1    2  501    0  0.84265194043E+01  0.33182447531E+02 -0.10625981867E+04  0.10631495602E+04  0.00000000000E+00 0. -1.
          1    1    1    2  502    0  0.20469182077E+02  0.10156321670E+01  0.11446152407E+03  0.11628181034E+03  0.00000000000E+00 0. -1.
         22    1    3    3    0    0  0.30624228416E+02 -0.58142608125E+02 -0.68736212244E+02  0.95095074107E+02  0.00000000000E+00 0. -1.
         22    1    3    3    0    0 -0.59519929898E+02  0.23944528428E+02 -0.32837128626E+02  0.72071072651E+02  0.00000000000E+00 0. -1.
</event>
<event>
 7    1  0.6699764E-006  0.1817051E+03  0.7818608E-02  0.1285029E+00
          2   -1    0    0  502    0  0.00000000000E+00  0.00000000000E+00  0.93687678943E+03  0.93687678943E+03  0.00000000000E+00 0. -1.
          1   -1    0    0  501    0 -0.00000000000E+00 -0.00000000000E+00 -0.21295522916E+04  0.21295522916E+04  0.00000000000E+00 0. -1.
         25    2    1    2    0    0 -0.13197394764E+03  0.10396683762E+02 -0.70667196719E+03  0.72975013094E+03  0.12499908205E+03 0.  0.
          2    1    1    2  501    0 -0.50286187882E+02 -0.15499196139E+02 -0.14018610279E+04  0.14028482696E+04  0.00000000000E+00 0. -1.
          1    1    1    2  502    0  0.18226013552E+03  0.51025123777E+01  0.91585749292E+03  0.93383068056E+03  0.00000000000E+00 0. -1.
         22    1    3    3    0    0 -0.12087139602E+03 -0.41502407272E+02 -0.53553161973E+03  0.55056921447E+03  0.00000000000E+00 0. -1.
         22    1    3    3    0    0 -0.11102551623E+02  0.51899091033E+02 -0.17114034745E+03  0.17918091647E+03  0.00000000000E+00 0. -1.
</event>
<event>
 7    1  0.5676357E-006  0.1034901E+03  0.7818608E-02  0.1432072E+00
          2   -1    0    0  502    0  0.00000000000E+00  0.00000000000E+00  0.10930922801E+04  0.10930922801E+04  0.00000000000E+00 0. -1.
          1   -1    0    0  501    0 -0.00000000000E+00 -0.00000000000E+00 -0.16825499726E+03  0.16825499726E+03  0.00000000000E+00 0. -1.
         25    2    1    2    0    0  0.77166204948E+02  0.93294851988E+01 -0.10195260103E+02  0.14754442576E+03  0.12499500696E+03 0.  0.
          2    1    1    2  501    0  0.26201783792E+02  0.50286641879E+01 -0.84669923623E+02  0.88773965236E+02  0.00000000000E+00 0. -1.
          1    1    1    2  502    0 -0.10336798874E+03 -0.14358149387E+02  0.10197024666E+04  0.10250288863E+04  0.00000000000E+00 0. -1.
         22    1    3    3    0    0  0.11018590671E+03 -0.68608284859E+01 -0.66733025965E+01  0.11060080457E+03  0.00000000000E+00 0.  1.
         22    1    3    3    0    0 -0.33019701762E+02  0.16190313685E+02 -0.35219575064E+01  0.36943621186E+02  0.00000000000E+00 0.  1.
</event>
<event>
 7    1  0.5676357E-006  0.1058923E+03  0.7818608E-02  0.1287533E+00
          2   -1    0    0  502    0  0.00000000000E+00  0.00000000000E+00  0.51373858370E+03  0.51373858370E+03  0.00000000000E+00 0. -1.
          1   -1    0    0  501    0 -0.00000000000E+00 -0.00000000000E+00 -0.55019677439E+03  0.55019677439E+03  0.00000000000E+00 0. -1.
         25    2    1    2    0    0 -0.31063357345E+02 -0.11355964050E+03 -0.20166423524E+03  0.26486400918E+03  0.12499502177E+03 0.  0.
          2    1    1    2  501    0  0.96358939034E+02  0.54282534877E+02 -0.30304108325E+03  0.32259190452E+03  0.00000000000E+00 0. -1.
          1    1    1    2  502    0 -0.65295581690E+02  0.59277105619E+02  0.46824712779E+03  0.47647944439E+03  0.00000000000E+00 0. -1.
         22    1    3    3    0    0  0.15304866647E+02 -0.11075566103E+03 -0.88692139238E+02  0.14271422829E+03  0.00000000000E+00 0.  1.
         22    1    3    3    0    0 -0.46368223992E+02 -0.28039794629E+01 -0.11297209600E+03  0.12214978089E+03  0.00000000000E+00 0.  1.
</event>
<event>
 7    1  0.5676357E-006  0.7485193E+02  0.7818608E-02  0.1372168E+00
          2   -1    0    0  502    0  0.00000000000E+00  0.00000000000E+00  0.86058854787E+02  0.86058854787E+02  0.00000000000E+00 0. -1.
          1   -1    0    0  501    0 -0.00000000000E+00 -0.00000000000E+00 -0.12479074749E+04  0.12479074749E+04  0.00000000000E+00 0. -1.
         25    2    1    2    0    0  0.15772486319E+02 -0.53365757763E+02 -0.87349134154E+02  0.16235892706E+03  0.12503549308E+03 0.  0.
          2    1    1    2  501    0 -0.70117179905E+02  0.29882685541E+02 -0.11031902881E+04  0.11058201506E+04  0.00000000000E+00 0. -1.
          1    1    1    2  502    0  0.54344693586E+02  0.23483072221E+02  0.28690802112E+02  0.65787252016E+02  0.00000000000E+00 0. -1.
         22    1    3    3    0    0  0.70334729257E+02 -0.29341658300E+02 -0.58810951552E+02  0.96263363093E+02  0.00000000000E+00 0. -1.
         22    1    3    3    0    0 -0.54562242937E+02 -0.24024099463E+02 -0.28538182602E+02  0.66095563963E+02  0.00000000000E+00 0. -1.
</event>
<event>
 7    1  0.6480127E-006  0.1114996E+03  0.7818608E-02  0.1337468E+00
          2   -1    0    0  502    0  0.00000000000E+00  0.00000000000E+00  0.29124788374E+04  0.29124788374E+04  0.00000000000E+00 0. -1.
          1   -1    0    0  501    0 -0.00000000000E+00 -0.00000000000E+00 -0.10941742751E+04  0.10941742751E+04  0.00000000000E+00 0. -1.
         25    2    1    2    0    0  0.79895150907E+02  0.72000266932E+02 -0.23829065528E+03  0.28977037244E+03  0.12496863117E+03 0.  0.
          2    1    1    2  501    0  0.28389813919E+02 -0.45137036297E+02 -0.82820808025E+03  0.82992286254E+03  0.00000000000E+00 0. -1.
          1    1    1    2  502    0 -0.10828496483E+03 -0.26863230634E+02  0.28848032979E+04  0.28869598775E+04  0.00000000000E+00 0. -1.
         22    1    3    3    0    0  0.91760597019E+02  0.99234169802E+02 -0.19676652774E+03  0.23871425190E+03  0.00000000000E+00 0. -1.
         22    1    3    3    0    0 -0.11865446112E+02 -0.27233902871E+02 -0.41524127536E+02  0.51056120540E+02  0.00000000000E+00 0. -1.
</event>
<event>
 7    1  0.5676357E-006  0.5185703E+02  0.7818608E-02  0.1501728E+00
          2   -1    0    0  502    0  0.00000000000E+00  0.00000000000E+00  0.18400094420E+03  0.18400094420E+03  0.00000000000E+00 0. -1.
          1   -1    0    0  501    0 -0.00000000000E+00 -0.00000000000E+00 -0.15332398394E+04  0.15332398394E+04  0.00000000000E+00 0. -1.
         25    2    1    2    0    0 -0.29962802141E+02  0.76644317745E+02 -0.25073562900E+02  0.15174175262E+03  0.12499901990E+03 0.  0.
          2    1    1    2  501    0  0.10828122669E+02 -0.30377781861E+02 -0.14394502946E+04  0.14398115184E+04  0.00000000000E+00 0. -1.
          1    1    1    2  502    0  0.19134679472E+02 -0.46266535885E+02  0.11528496227E+03  0.12568751262E+03  0.00000000000E+00 0. -1.
         22    1    3    3    0    0 -0.61331574570E+02 -0.28778911204E+01 -0.24900099676E+02  0.66256013014E+02  0.00000000000E+00 0. -1.
         22    1    3    3    0    0  0.31368772429E+02  0.79522208866E+02 -0.17346322414E+00  0.85485739606E+02  0.00000000000E+00 0. -1.
</event>
<event>
 7    1  0.5676357E-006  0.1018940E+03  0.7818608E-02  0.1344368E+00
          2   -1    0    0  502    0  0.00000000000E+00  0.00000000000E+00  0.24649978376E+03  0.24649978376E+03  0.00000000000E+00 0. -1.
          1   -1    0    0  501    0 -0.00000000000E+00 -0.00000000000E+00 -0.90979878966E+03  0.90979878966E+03  0.00000000000E+00 0. -1.
         25    2    1    2    0    0 -0.10462708845E+03  0.33825825497E+02 -0.61297671075E+03  0.63518197821E+03  0.12499873366E+03 0.  0.
          2    1    1    2  501    0  0.47934300912E+01 -0.54759182083E+02 -0.27178683811E+03  0.27728979491E+03  0.00000000000E+00 0. -1.
          1    1    1    2  502    0  0.99833658355E+02  0.20933356586E+02  0.22146454296E+03  0.24382680030E+03  0.00000000000E+00 0. -1.
         22    1    3    3    0    0 -0.31676003372E+02 -0.33035092777E+02 -0.37011288070E+03  0.37293193884E+03  0.00000000000E+00 0. -1.
         22    1    3    3    0    0 -0.72951085074E+02  0.66860918274E+02 -0.24286383004E+03  0.26225003937E+03  0.00000000000E+00 0. -1.
</event>
<event>
 7    1  0.5676357E-006  0.7672855E+02  0.7818608E-02  0.1442662E+00
          2   -1    0    0  502    0  0.00000000000E+00  0.00000000000E+00  0.62158977511E+03  0.62158977511E+03  0.00000000000E+00 0. -1.
          1   -1    0    0  501    0 -0.00000000000E+00 -0.00000000000E+00 -0.85212276918E+03  0.85212276918E+03  0.00000000000E+00 0. -1.
         25    2    1    2    0    0  0.31364717585E+02 -0.89924581268E+02  0.21095236734E+03  0.26305199097E+03  0.12500109137E+03 0.  0.
          2    1    1    2  501    0  0.13636823673E+02  0.30311323758E+02 -0.82210744434E+03  0.82277906472E+03  0.00000000000E+00 0. -1.
          1    1    1    2  502    0 -0.45001541258E+02  0.59613257510E+02  0.38062208293E+03  0.38788148860E+03  0.00000000000E+00 0. -1.
         22    1    3    3    0    0  0.60233788568E+02 -0.10160057998E+03  0.12663679992E+03  0.17316947257E+03  0.00000000000E+00 0. -1.
         22    1    3    3    0    0 -0.28869070983E+02  0.11675998708E+02  0.84315567419E+02  0.89882518402E+02  0.00000000000E+00 0. -1.
</event>
<event>
 7    1  0.5676357E-006  0.2792459E+03  0.7818608E-02  0.1253593E+00
          2   -1    0    0  502    0  0.00000000000E+00  0.00000000000E+00  0.72958857078E+03  0.72958857078E+03  0.00000000000E+00 0. -1.
          1   -1    0    0  501    0 -0.00000000000E+00 -0.00000000000E+00 -0.14714027548E+04  0.14714027548E+04  0.00000000000E+00 0. -1.
         25    2    1    2    0    0  0.25435176548E+03  0.89459688239E+02 -0.15167168596E+02  0.29757775815E+03  0.12499849087E+03 0.  0.
          2    1    1    2  501    0 -0.27637597191E+03 -0.48595481418E+02 -0.12991098179E+04  0.13290716751E+04  0.00000000000E+00 0. -1.
          1    1    1    2  502    0  0.22024206429E+02 -0.40864206821E+02  0.57246280245E+03  0.57434189231E+03  0.00000000000E+00 0. -1.
         22    1    3    3    0    0  0.16495804022E+03  0.75541680685E+02 -0.66884576684E+02  0.19336816479E+03  0.00000000000E+00 0. -1.
         22    1    3    3    0    0  0.89393725263E+02  0.13918007554E+02  0.51717408088E+02  0.10420959337E+03  0.00000000000E+00 0. -1.
</event>
<event>
 7    1  0.5676357E-006  0.6790044E+02  0.7818608E-02  0.1513351E+00
          2   -1    0    0  502    0  0.00000000000E+00  0.00000000000E+00  0.10571376213E+04  0.10571376213E+04  0.00000000000E+00 0. -1.
          1   -1    0    0  501    0 -0.00000000000E+00 -0.00000000000E+00 -0.14283047676E+04  0.14283047676E+04  0.00000000000E+00 0. -1.
         25    2    1    2    0    0 -0.26640509155E+02  0.67355156032E+02 -0.20959328696E+03  0.25455991589E+03  0.12499988425E+03 0.  0.
          2    1    1    2  501    0  0.38858398125E+01 -0.67745170130E+02 -0.11951405068E+04  0.11970653026E+04  0.00000000000E+00 0. -1.
          1    1    1    2  502    0  0.22754669343E+02  0.39001409854E+00  0.10335666474E+04  0.10338171703E+04  0.00000000000E+00 0. -1.
         22    1    3    3    0    0 -0.54572543233E+02  0.36374075349E+02 -0.33598325186E+02  0.73689098840E+02  0.00000000000E+00 0. -1.
         22    1    3    3    0    0  0.27932034078E+02  0.30981080682E+02 -0.17599496178E+03  0.18087081705E+03  0.00000000000E+00 0. -1.
</event>
<event>
 7    1  0.5676357E-006  0.6682301E+02  0.7818608E-02  0.1407224E+00
          2   -1    0    0  502    0  0.00000000000E+00  0.00000000000E+00  0.14182175440E+04  0.14182175440E+04  0.00000000000E+00 0. -1.
          1   -1    0    0  501    0 -0.00000000000E+00 -0.00000000000E+00 -0.97459241524E+02  0.97459241524E+02  0.00000000000E+00 0. -1.
         25    2    1    2    0    0 -0.29417792618E+02  0.97500113024E+01  0.23829894372E+03  0.27087343225E+03  0.12500224190E+03 0.  0.
          2    1    1    2  501    0  0.64208551311E+02  0.26197943327E+02 -0.65715922329E+02  0.95538749958E+02  0.00000000000E+00 0. -1.
          1    1    1    2  502    0 -0.34790758694E+02 -0.35947954630E+02  0.11481752811E+04  0.11492646033E+04  0.00000000000E+00 0. -1.
         22    1    3    3    0    0 -0.70290848204E+02  0.20279980075E+01  0.76916142998E+02  0.10421616559E+03  0.00000000000E+00 0. -1.
         22    1    3    3    0    0  0.40873055587E+02  0.77220132949E+01  0.16138280072E+03  0.16665726666E+03  0.00000000000E+00 0. -1.
</event>
<event>
 7    1  0.5676357E-006  0.3000839E+02  0.7818608E-02  0.1656268E+00
          2   -1    0    0  502    0  0.00000000000E+00  0.00000000000E+00  0.12088275316E+03  0.12088275316E+03  0.00000000000E+00 0. -1.
          1   -1    0    0  501    0 -0.00000000000E+00 -0.00000000000E+00 -0.99717143788E+03  0.99717143788E+03  0.00000000000E+00 0. -1.
         25    2    1    2    0    0  0.38556259737E+02 -0.14421867850E+02 -0.90491997946E+03  0.91443960949E+03  0.12500021896E+03 0.  0.
          2    1    1    2  501    0 -0.26268581281E+02 -0.30811561799E+01 -0.84467573702E+02  0.88511597506E+02  0.00000000000E+00 0. -1.
          1    1    1    2  502    0 -0.12287678455E+02  0.17503024030E+02  0.11309886844E+03  0.11510298404E+03  0.00000000000E+00 0. -1.
         22    1    3    3    0    0  0.52047166108E+02 -0.15859376377E+02 -0.89716301307E+03  0.89881138141E+03  0.00000000000E+00 0.  1.
         22    1    3    3    0    0 -0.13490906371E+02  0.14375085275E+01 -0.77569663864E+01  0.15628228083E+02  0.00000000000E+00 0.  1.
</event>
<event>
 7    1  0.5676357E-006  0.8195489E+02  0.7818608E-02  0.1445791E+00
          2   -1    0    0  502    0  0.00000000000E+00  0.00000000000E+00  0.28503489528E+03  0.28503489528E+03  0.00000000000E+00 0. -1.
          1   -1    0    0  501    0 -0.00000000000E+00 -0.00000000000E+00 -0.62131608260E+03  0.62131608260E+03  0.00000000000E+00 0. -1.
         25    2    1    2    0    0  0.58643530402E+02 -0.26768393112E+02 -0.86334860318E+02  0.16502934071E+03  0.12500145864E+03 0.  0.
          2    1    1    2  501    0  0.17411916159E+01 -0.30353236395E+02 -0.48811698683E+03  0.48906292391E+03  0.00000000000E+00 0. -1.
          1    1    1    2  502    0 -0.60384722018E+02  0.57121629507E+02  0.23817065983E+03  0.25225871326E+03  0.00000000000E+00 0. -1.
         22    1    3    3    0    0  0.91055373037E+02  0.53024101041E+01 -0.38673852224E+02  0.99069992216E+02  0.00000000000E+00 0.  1.
         22    1    3    3    0    0 -0.32411842635E+02 -0.32070803216E+02 -0.47661008094E+02  0.65959348499E+02  0.00000000000E+00 0.  1.
</event>
<event>
 7    1  0.5676357E-006  0.1302665E+03  0.7818608E-02  0.1316214E+00
          2   -1    0    0  502    0  0.00000000000E+00  0.00000000000E+00  0.20341969397E+04  0.20341969397E+04  0.00000000000E+00 0. -1.
          1   -1    0    0  501    0 -0.00000000000E+00 -0.00000000000E+00 -0.33553726320E+03  0.33553726320E+03  0.00000000000E+00 0. -1.
         25    2    1    2    0    0  0.47647393115E+02 -0.17007450063E+03 -0.28950727658E+02  0.21830925732E+03  0.12500070945E+03 0.  0.
          2    1    1    2  501    0 -0.36743184455E+02  0.41026227793E+02 -0.20612588775E+03  0.21335673079E+03  0.00000000000E+00 0. -1.
          1    1    1    2  502    0 -0.10904208660E+02  0.12904827284E+03  0.19337362919E+04  0.19380682148E+04  0.00000000000E+00 0. -1.
         22    1    3    3    0    0  0.59850706560E+02 -0.77348416608E+02  0.36247274776E+02  0.10430124427E+03  0.00000000000E+00 0. -1.
         22    1    3    3    0    0 -0.12203313445E+02 -0.92726084027E+02 -0.65198002434E+02  0.11400801305E+03  0.00000000000E+00 0. -1.
</event>
<event>
 7    1  0.5676357E-006  0.7832921E+02  0.7818608E-02  0.1395313E+00
          2   -1    0    0  502    0  0.00000000000E+00  0.00000000000E+00  0.29218836323E+03  0.29218836323E+03  0.00000000000E+00 0. -1.
          1   -1    0    0  501    0 -0.00000000000E+00 -0.00000000000E+00 -0.66904943888E+03  0.66904943888E+03  0.00000000000E+00 0. -1.
         25    2    1    2    0    0  0.78763910772E+01 -0.73545599591E+02 -0.23467310271E+03  0.27598384380E+03  0.12499849659E+03 0.  0.
          2    1    1    2  501    0  0.38967094057E+02  0.71447831562E+02 -0.40764396930E+03  0.41568838421E+03  0.00000000000E+00 0. -1.
          1    1    1    2  502    0 -0.46843485134E+02  0.20977680294E+01  0.26545599636E+03  0.26956557409E+03  0.00000000000E+00 0. -1.
         22    1    3    3    0    0  0.59490789634E+02 -0.15808239078E+02 -0.65268587679E+02  0.89716458978E+02  0.00000000000E+00 0. -1.
         22    1    3    3    0    0 -0.51614398556E+02 -0.57737360514E+02 -0.16940451503E+03  0.18626738483E+03  0.00000000000E+00 0. -1.
</event>
<event>
 7    1  0.5676357E-006  0.6577068E+02  0.7818608E-02  0.1397861E+00
          2   -1    0    0  502    0  0.00000000000E+00  0.00000000000E+00  0.77364217784E+03  0.77364217784E+03  0.00000000000E+00 0. -1.
          1   -1    0    0  501    0 -0.00000000000E+00 -0.00000000000E+00 -0.52556278877E+03  0.52556278877E+03  0.00000000000E+00 0. -1.
         25    2    1    2    0    0  0.68842160308E+02 -0.62611264577E+02  0.12245300817E+03  0.19819047374E+03  0.12500124473E+03 0.  0.
          2    1    1    2  501    0 -0.14139273623E+02  0.64084436252E+02 -0.48425573190E+03  0.48868225660E+03  0.00000000000E+00 0. -1.
          1    1    1    2  502    0 -0.54702886684E+02 -0.14731716743E+01  0.60988211280E+03  0.61233223626E+03  0.00000000000E+00 0. -1.
         22    1    3    3    0    0 -0.71970707909E+01  0.25284671710E+02  0.61656053032E+02  0.67026720992E+02  0.00000000000E+00 0. -1.
         22    1    3    3    0    0  0.76039231098E+02 -0.87895936287E+02  0.60796955139E+02  0.13116375275E+03  0.00000000000E+00 0. -1.
</event>
<event>
 7    1  0.5676357E-006  0.2141454E+02  0.7818608E-02  0.1753247E+00
          2   -1    0    0  502    0  0.00000000000E+00  0.00000000000E+00  0.14555499676E+03  0.14555499676E+03  0.00000000000E+00 0. -1.
          1   -1    0    0  501    0 -0.00000000000E+00 -0.00000000000E+00 -0.50115975623E+02  0.50115975623E+02  0.00000000000E+00 0. -1.
         25    2    1    2    0    0 -0.56640101905E+01 -0.10929255043E+02  0.56621598185E+02  0.13777678223E+03  0.12499962685E+03 0.  0.
          2    1    1    2  501    0  0.21137525228E+02 -0.38745542566E+01  0.20819065988E+02  0.29920572388E+02  0.00000000000E+00 0. -1.
          1    1    1    2  502    0 -0.15473515037E+02  0.14803809299E+02  0.17998356962E+02  0.27973617762E+02  0.00000000000E+00 0. -1.
         22    1    3    3    0    0  0.24028217757E+02  0.40846277017E+01  0.88441363809E+02  0.91738292247E+02  0.00000000000E+00 0. -1.
         22    1    3    3    0    0 -0.29692227948E+02 -0.15013882744E+02 -0.31819765624E+02  0.46038489983E+02  0.00000000000E+00 0. -1.
</event>
<event>
 7    1  0.6897651E-006  0.6048985E+02  0.7818608E-02  0.1437315E+00
          2   -1    0    0  502    0  0.00000000000E+00  0.00000000000E+00  0.13405095217E+04  0.13405095217E+04  0.00000000000E+00 0. -1.
          1   -1    0    0  501    0 -0.00000000000E+00 -0.00000000000E+00 -0.13969822396E+04  0.13969822396E+04  0.00000000000E+00 0. -1.
         25    2    1    2    0    0 -0.33465623005E+02  0.20693149565E+01 -0.10232534138E+03  0.16498639105E+03  0.12500321498E+03 0.  0.
          2    1    1    2  501    0 -0.67742193948E+01  0.43353107789E+02 -0.12622417452E+04  0.12630041985E+04  0.00000000000E+00 0. -1.
          1    1    1    2  502    0  0.40239842400E+02 -0.45422422745E+02  0.13080943687E+04  0.13095011718E+04  0.00000000000E+00 0. -1.
         22    1    3    3    0    0 -0.28976076138E+02  0.21955718085E+02 -0.12750597483E+03  0.13258748117E+03  0.00000000000E+00 0.  1.
         22    1    3    3    0    0 -0.44895468667E+01 -0.19886403128E+02  0.25180633452E+02  0.32398909881E+02  0.00000000000E+00 0.  1.
</event>
<event>
 7    1  0.5676357E-006  0.5473943E+02  0.7818608E-02  0.1489335E+00
          2   -1    0    0  502    0  0.00000000000E+00  0.00000000000E+00  0.37102454109E+03  0.37102454109E+03  0.00000000000E+00 0. -1.
          1   -1    0    0  501    0 -0.00000000000E+00 -0.00000000000E+00 -0.22393705499E+03  0.22393705499E+03  0.00000000000E+00 0. -1.
         25    2    1    2    0    0 -0.68822019098E+02  0.17490802459E+02  0.45200916138E+02  0.15069643365E+03  0.12499557517E+03 0.  0.
          2    1    1    2  501    0  0.15844808632E+02 -0.29271565754E+02 -0.16683251553E+03  0.17012045955E+03  0.00000000000E+00 0. -1.
          1    1    1    2  502    0  0.52977210466E+02  0.11780763295E+02  0.26871908548E+03  0.27414470288E+03  0.00000000000E+00 0. -1.
         22    1    3    3    0    0  0.65886454689E+01 -0.33257688261E+01 -0.36700905715E+02  0.37435644348E+02  0.00000000000E+00 0.  1.
         22    1    3    3    0    0 -0.75410664567E+02  0.20816571285E+02  0.81901821853E+02  0.11326078930E+03  0.00000000000E+00 0.  1.
</event>
<event>
 7    1  0.5676357E-006  0.1413629E+03  0.7818608E-02  0.1298092E+00
          2   -1    0    0  502    0  0.00000000000E+00  0.00000000000E+00  0.78700272581E+02  0.78700272581E+02  0.00000000000E+00 0. -1.
          1   -1    0    0  501    0 -0.00000000000E+00 -0.00000000000E+00 -0.18137586520E+04  0.18137586520E+04  0.00000000000E+00 0. -1.
         25    2    1    2    0    0 -0.11312875340E+03  0.14590932169E+03 -0.43569436890E+03  0.48943047679E+03  0.12499985407E+03 0.  0.
          2    1    1    2  501    0  0.10522754471E+03 -0.86565492357E+02 -0.13291808378E+04  0.13361467436E+04  0.00000000000E+00 0. -1.
          1    1    1    2  502    0  0.79012086944E+01 -0.59343829333E+02  0.29816827275E+02  0.66881704281E+02  0.00000000000E+00 0. -1.
         22    1    3    3    0    0 -0.11887054417E+03  0.56103871887E+02 -0.22996174022E+03  0.26487780707E+03  0.00000000000E+00 0.  1.
         22    1    3    3    0    0  0.57417907691E+01  0.89805449803E+02 -0.20573262868E+03  0.22455266973E+03  0.00000000000E+00 0.  1.
</event>
<event>
 7    1  0.5676357E-006  0.1093227E+03  0.7818608E-02  0.1370948E+00
          2   -1    0    0  502    0  0.00000000000E+00  0.00000000000E+00  0.67814174980E+03  0.67814174980E+03  0.00000000000E+00 0. -1.
          1   -1    0    0  501    0 -0.00000000000E+00 -0.00000000000E+00 -0.31894155607E+03  0.31894155607E+03  0.00000000000E+00 0. -1.
         25    2    1    2    0    0 -0.10187534940E+03 -0.55207260558E+02 -0.16983240248E+03  0.24062402570E+03  0.12502179163E+03 0.  0.
          2    1    1    2  501    0  0.30345250646E+02 -0.27488794607E+02 -0.10519145499E+03  0.11287918439E+03  0.00000000000E+00 0. -1.
          1    1    1    2  502    0  0.71530098749E+02  0.82696055164E+02  0.63422405120E+03  0.64358009578E+03  0.00000000000E+00 0. -1.
         22    1    3    3    0    0 -0.13012055647E+03 -0.39250804882E+02 -0.15081475501E+03  0.20301988875E+03  0.00000000000E+00 0. -1.
         22    1    3    3    0    0  0.28245207077E+02 -0.15956455675E+02 -0.19017647467E+02  0.37604136949E+02  0.00000000000E+00 0. -1.
</event>
<event>
 7    1  0.5676357E-006  0.5045398E+02  0.7818608E-02  0.1449181E+00
          2   -1    0    0  502    0  0.00000000000E+00  0.00000000000E+00  0.97034611727E+03  0.97034611727E+03  0.00000000000E+00 0. -1.
          1   -1    0    0  501    0 -0.00000000000E+00 -0.00000000000E+00 -0.17600235119E+04  0.17600235119E+04  0.00000000000E+00 0. -1.
         25    2    1    2    0    0  0.80399859009E+02 -0.18580904719E+02 -0.82634404490E+02  0.17106651821E+03  0.12500368594E+03 0.  0.
          2    1    1    2  501    0 -0.44984200777E+02 -0.17207033142E+02 -0.16321332428E+04  0.16328437104E+04  0.00000000000E+00 0. -1.
          1    1    1    2  502    0 -0.35415658232E+02  0.35787937861E+02  0.92509025266E+03  0.92645940057E+03  0.00000000000E+00 0. -1.
         22    1    3    3    0    0  0.71451170787E+02  0.36123829743E+02 -0.11501369383E+02  0.80885612935E+02  0.00000000000E+00 0.  1.
         22    1    3    3    0    0  0.89486882215E+01 -0.54704734462E+02 -0.71133035107E+02  0.90180905279E+02  0.00000000000E+00 0.  1.
</event>
<event>
 7    1  0.5676357E-006  0.1486920E+03  0.7818608E-02  0.1236826E+00
          2   -1    0    0  502    0  0.00000000000E+00  0.00000000000E+00  0.20628256357E+03  0.20628256357E+03  0.00000000000E+00 0. -1.
          1   -1    0    0  501    0 -0.00000000000E+00 -0.00000000000E+00 -0.25488285389E+04  0.25488285389E+04  0.00000000000E+00 0. -1.
         25    2    1    2    0    0  0.10150888015E+03 -0.88209581374E+02  0.34848248205E+01  0.18363977387E+03  0.12500575805E+03 0.  0.
          2    1    1    2  501    0 -0.14985313558E+03 -0.29810241598E+01 -0.24323238026E+04  0.24369374078E+04  0.00000000000E+00 0. -1.
          1    1    1    2  502    0  0.48344255430E+02  0.91190605534E+02  0.86293002468E+02  0.13453392080E+03  0.00000000000E+00 0. -1.
         22    1    3    3    0    0 -0.51816832880E+01 -0.73216700038E+02 -0.13318669230E+02  0.74598404515E+02  0.00000000000E+00 0. -1.
         22    1    3    3    0    0  0.10669056344E+03 -0.14992881336E+02  0.16803494050E+02  0.10904136935E+03  0.00000000000E+00 0. -1.
</event>
<event>
 7    1  0.5676357E-006  0.3218524E+02  0.7818608E-02  0.1584412E+00
          2   -1    0    0  502    0  0.00000000000E+00  0.00000000000E+00  0.80876581540E+02  0.80876581540E+02  0.00000000000E+00 0. -1.
          1   -1    0    0  501    0 -0.00000000000E+00 -0.00000000000E+00 -0.13961188595E+04  0.13961188595E+04  0.00000000000E+00 0. -1.
         25    2    1    2    0    0 -0.93896095066E+01 -0.37711639715E+02 -0.10093077771E+04  0.10177611163E+04  0.12500067417E+03 0.  0.
          2    1    1    2  501    0  0.29456538756E+02  0.14889270380E+02 -0.37882618094E+03  0.38026129623E+03  0.00000000000E+00 0. -1.
          1    1    1    2  502    0 -0.20066929250E+02  0.22822369335E+02  0.72891680093E+02  0.78973028423E+02  0.00000000000E+00 0. -1.
         22    1    3    3    0    0  0.40661946487E+02  0.18391450666E+02 -0.19750700302E+03  0.20248618617E+03  0.00000000000E+00 0. -1.
         22    1    3    3    0    0 -0.50051555993E+02 -0.56103090381E+02 -0.81180077405E+03  0.81527493016E+03  0.00000000000E+00 0. -1.
</event>
<event>
 7    1  0.5676357E-006  0.7071982E+02  0.7818608E-02  0.1421223E+00
          2   -1    0    0  502    0  0.00000000000E+00  0.00000000000E+00  0.63591090437E+03  0.63591090437E+03  0.00000000000E+00 0. -1.
          1   -1    0    0  501    0 -0.00000000000E+00 -0.00000000000E+00 -0.92238982619E+03  0.92238982619E+03  0.00000000000E+00 0. -1.
         25    2    1    2    0    0  0.47069982153E+02  0.54904365920E+02 -0.11893101258E+03  0.18707520502E+03  0.12498989544E+03 0.  0.
          2    1    1    2  501    0 -0.39451220313E+02  0.15553698922E+02 -0.76671249319E+03  0.76788434256E+03  0.00000000000E+00 0. -1.
          1    1    1    2  502    0 -0.76187618408E+01 -0.70458064842E+02  0.59916458394E+03  0.60334118298E+03  0.00000000000E+00 0. -1.
         22    1    3    3    0    0  0.87154295245E+02  0.39097701725E+02 -0.55752581761E+02  0.11060222345E+03  0.00000000000E+00 0.  1.
         22    1    3    3    0    0 -0.40084313091E+02  0.15806664194E+02 -0.63178430815E+02  0.76472981563E+02  0.00000000000E+00 0.  1.
</event>
<event>
 7    1  0.5676357E-006  0.8567919E+02  0.7818608E-02  0.1405943E+00
          2   -1    0    0  502    0  0.00000000000E+00  0.00000000000E+00  0.24246177453E+04  0.24246177453E+04  0.00000000000E+00 0. -1.
          1   -1    0    0  501    0 -0.00000000000E+00 -0.00000000000E+00 -0.12826402663E+04  0.12826402663E+04  0.00000000000E+00 0. -1.
         25    2    1    2    0    0 -0.46597629775E+02 -0.21390747462E+01  0.15258138594E+03  0.20268630583E+03  0.12499897797E+03 0.  0.
          2    1    1    2  501    0  0.85736930600E+02  0.67537672218E+01 -0.12559443223E+04  0.12588854497E+04  0.00000000000E+00 0. -1.
          1    1    1    2  502    0 -0.39139300825E+02 -0.46146924755E+01  0.22453404154E+04  0.22456862562E+04  0.00000000000E+00 0. -1.
         22    1    3    3    0    0 -0.75686014039E+02  0.35255762089E+02  0.77572626101E+02  0.11396865272E+03  0.00000000000E+00 0.  1.
         22    1    3    3    0    0  0.29088384264E+02 -0.37394836835E+02  0.75008759837E+02  0.88717653110E+02  0.00000000000E+00 0.  1.
</event>
<event>
 7    1  0.5676357E-006  0.6640050E+02  0.7818608E-02  0.1407688E+00
          2   -1    0    0  502    0  0.00000000000E+00  0.00000000000E+00  0.13085992830E+04  0.13085992830E+04  0.00000000000E+00 0. -1.
          1   -1    0    0  501    0 -0.00000000000E+00 -0.00000000000E+00 -0.65218030722E+03  0.65218030722E+03  0.00000000000E+00 0. -1.
         25    2    1    2    0    0 -0.11164952899E+03  0.27629333906E+02  0.22025625924E+03  0.27814504393E+03  0.12499139295E+03 0.  0.
          2    1    1    2  501    0  0.65613947720E+02 -0.77060199520E+01 -0.62088870449E+03  0.62439359081E+03  0.00000000000E+00 0. -1.
          1    1    1    2  502    0  0.46035581267E+02 -0.19923313954E+02  0.10570514210E+04  0.10582409555E+04  0.00000000000E+00 0. -1.
         22    1    3    3    0    0  0.24782492363E+02 -0.77489099086E+01  0.55864996313E+02  0.61604507510E+02  0.00000000000E+00 0.  1.
         22    1    3    3    0    0 -0.13643202135E+03  0.35378243814E+02  0.16439126293E+03  0.21654053642E+03  0.00000000000E+00 0.  1.
</event>
<event>
 7    1  0.5676357E-006  0.4375514E+03  0.7818608E-02  0.1057252E+00
          2   -1    0    0  502    0  0.00000000000E+00  0.00000000000E+00  0.18501086222E+04  0.18501086222E+04  0.00000000000E+00 0. -1.
          1   -1    0    0  501    0 -0.00000000000E+00 -0.00000000000E+00 -0.18202498315E+04  0.18202498315E+04  0.00000000000E+00 0. -1.
         25    2    1    2    0    0  0.55965322828E+03  0.11082898796E+03  0.25080023238E+03  0.63562395826E+03  0.12498903655E+03 0.  0.
          2    1    1    2  501    0 -0.24463740108E+03  0.17671333708E+03 -0.15809075009E+04  0.16094544379E+04  0.00000000000E+00 0. -1.
          1    1    1    2  502    0 -0.31501582720E+03 -0.28754232504E+03  0.13599660592E+04  0.14252800575E+04  0.00000000000E+00 0. -1.
         22    1    3    3    0    0  0.27248698975E+03  0.11492871292E+03  0.10752253277E+03  0.31467262939E+03  0.00000000000E+00 0. -1.
         22    1    3    3    0    0  0.28716623853E+03 -0.40997249572E+01  0.14327769961E+03  0.32095132887E+03  0.00000000000E+00 0. -1.
</event>
<event>
 7    1  0.6040350E-006  0.7978357E+02  0.7818608E-02  0.1405893E+00
          2   -1    0    0  502    0  0.00000000000E+00  0.00000000000E+00  0.25281439485E+04  0.25281439485E+04  0.00000000000E+00 0. -1.
          1   -1    0    0  501    0 -0.00000000000E+00 -0.00000000000E+00 -0.76688647077E+03  0.76688647077E+03  0.00000000000E+00 0. -1.
         25    2    1    2    0    0  0.34533317849E+02  0.11602377621E+03 -0.29978647274E+02  0.17656883005E+03  0.12499506296E+03 0.  0.
          2    1    1    2  501    0 -0.55128765318E+01 -0.41978947081E+02 -0.66229245557E+03  0.66364442325E+03  0.00000000000E+00 0. -1.
          1    1    1    2  502    0 -0.29020441318E+02 -0.74044829127E+02  0.24535285806E+04  0.24548171660E+04  0.00000000000E+00 0. -1.
         22    1    3    3    0    0 -0.14620644669E+02  0.12343211456E+03 -0.21125086505E+02  0.12607743428E+03  0.00000000000E+00 0. -1.
         22    1    3    3    0    0  0.49153962518E+02 -0.74083383474E+01 -0.88535607686E+01  0.50491395768E+02  0.00000000000E+00 0. -1.
</event>
<event>
 7    1  0.5676357E-006  0.5269827E+02  0.7818608E-02  0.1487927E+00
          2   -1    0    0  502    0  0.00000000000E+00  0.00000000000E+00  0.32898917298E+04  0.32898917298E+04  0.00000000000E+00 0. -1.
          1   -1    0    0  501    0 -0.00000000000E+00 -0.00000000000E+00 -0.47572846900E+02  0.47572846900E+02  0.00000000000E+00 0. -1.
         25    2    1    2    0    0 -0.18877947042E+02 -0.21467352639E+02  0.43107864866E+03  0.44974618627E+03  0.12500242646E+03 0.  0.
          2    1    1    2  501    0  0.14334753967E+02 -0.31837113856E+02 -0.29964273157E+02  0.46010266851E+02  0.00000000000E+00 0. -1.
          1    1    1    2  502    0  0.45431930751E+01  0.53304466494E+02  0.28412045074E+04  0.28417081236E+04  0.00000000000E+00 0. -1.
         22    1    3    3    0    0  0.78416602746E+01  0.33747751169E+02  0.36112354625E+02  0.50045024742E+02  0.00000000000E+00 0. -1.
         22    1    3    3    0    0 -0.26719607316E+02 -0.55215103808E+02  0.39496629403E+03  0.39970116153E+03  0.00000000000E+00 0. -1.
</event>
<event>
 7    1  0.5676357E-006  0.3642181E+02  0.7818608E-02  0.1537105E+00
          2   -1    0    0  502    0  0.00000000000E+00  0.00000000000E+00  0.13315876344E+04  0.13315876344E+04  0.00000000000E+00 0. -1.
          1   -1    0    0  501    0 -0.00000000000E+00 -0.00000000000E+00 -0.81302572527E+03  0.81302572527E+03  0.00000000000E+00 0. -1.
         25    2    1    2    0    0 -0.25515374681E+02 -0.19086870945E+02  0.23255743676E+02  0.13106943221E+03  0.12499209358E+03 0.  0.
          2    1    1    2  501    0 -0.65553870843E+01  0.35955469863E+02 -0.75841703945E+03  0.75929715832E+03  0.00000000000E+00 0. -1.
          1    1    1    2  502    0  0.32070761766E+02 -0.16868598918E+02  0.12537232049E+04  0.12542467692E+04  0.00000000000E+00 0. -1.
         22    1    3    3    0    0 -0.24116715402E+02  0.46348194123E+02  0.37216536437E+02  0.64147031456E+02  0.00000000000E+00 0. -1.
         22    1    3    3    0    0 -0.13986592797E+01 -0.65435065068E+02 -0.13960792761E+02  0.66922400754E+02  0.00000000000E+00 0. -1.
</event>
<event>
 7    1  0.5676357E-006  0.4420383E+02  0.7818608E-02  0.1509142E+00
          2   -1    0    0  502    0  0.00000000000E+00  0.00000000000E+00  0.26660106662E+03  0.26660106662E+03  0.00000000000E+00 0. -1.
          1   -1    0    0  501    0 -0.00000000000E+00 -0.00000000000E+00 -0.15823006306E+03  0.15823006306E+03  0.00000000000E+00 0. -1.
         25    2    1    2    0    0  0.40215735117E+02 -0.33344333089E+01  0.75103611779E+01  0.13161835144E+03  0.12505423270E+03 0.  0.
          2    1    1    2  501    0 -0.13966129353E+02 -0.33145846083E+02 -0.90110924813E+02  0.97024113768E+02  0.00000000000E+00 0. -1.
          1    1    1    2  502    0 -0.26249605764E+02  0.36480279392E+02  0.19097156720E+03  0.19618866447E+03  0.00000000000E+00 0. -1.
         22    1    3    3    0    0  0.38956216608E+02 -0.51872299893E+02 -0.28811461277E+02  0.70981847042E+02  0.00000000000E+00 0. -1.
         22    1    3    3    0    0  0.12595185084E+01  0.48537866584E+02  0.36321822455E+02  0.60636504400E+02  0.00000000000E+00 0. -1.
</event>
<event>
 7    1  0.5676357E-006  0.3876831E+02  0.7818608E-02  0.1574069E+00
          2   -1    0    0  502    0  0.00000000000E+00  0.00000000000E+00  0.74058819336E+03  0.74058819336E+03  0.00000000000E+00 0. -1.
          1   -1    0    0  501    0 -0.00000000000E+00 -0.00000000000E+00 -0.22499861452E+03  0.22499861452E+03  0.00000000000E+00 0. -1.
         25    2    1    2    0    0 -0.20188773990E+02  0.32699705880E+02 -0.96653473640E+02  0.16261644790E+03  0.12500143119E+03 0.  0.
          2    1    1    2  501    0 -0.16811394379E+02 -0.20993231341E+02 -0.92923188656E+02  0.96737054602E+02  0.00000000000E+00 0. -1.
          1    1    1    2  502    0  0.37000168368E+02 -0.11706474539E+02  0.70516624113E+03  0.70623330538E+03  0.00000000000E+00 0. -1.
         22    1    3    3    0    0 -0.32480294329E+02 -0.39797980960E+02 -0.64249646778E+02  0.82260962305E+02  0.00000000000E+00 0.  1.
         22    1    3    3    0    0  0.12291520339E+02  0.72497686840E+02 -0.32403826862E+02  0.80355485592E+02  0.00000000000E+00 0.  1.
</event>
<event>
 7    1  0.5676357E-006  0.7077925E+02  0.7818608E-02  0.1360818E+00
          2   -1    0    0  502    0  0.00000000000E+00  0.00000000000E+00  0.23471536765E+03  0.23471536765E+03  0.00000000000E+00 0. -1.
          1   -1    0    0  501    0 -0.00000000000E+00 -0.00000000000E+00 -0.32651300196E+03  0.32651300196E+03  0.00000000000E+00 0. -1.
         25    2    1    2    0    0 -0.20681071990E+02  0.93825346609E+01 -0.27480139039E+02  0.12998222920E+03  0.12499793267E+03 0.  0.
          2    1    1    2  501    0  0.54333002110E+02  0.52885026735E+02 -0.23475527224E+03  0.24669604580E+03  0.00000000000E+00 0. -1.
          1    1    1    2  502    0 -0.33651930120E+02 -0.62267561396E+02  0.17043777697E+03  0.18455009461E+03  0.00000000000E+00 0. -1.
         22    1    3    3    0    0 -0.28410620903E+02 -0.38328097350E+01 -0.74875217285E+02  0.80175756772E+02  0.00000000000E+00 0.  1.
         22    1    3    3    0    0  0.77295489124E+01  0.13215344396E+02  0.47395078246E+02  0.49806472429E+02  0.00000000000E+00 0.  1.
</event>
<event>
 7    1  0.5676357E-006  0.1326599E+03  0.7818608E-02  0.1290034E+00
          2   -1    0    0  502    0  0.00000000000E+00  0.00000000000E+00  0.15666494658E+03  0.15666494658E+03  0.00000000000E+00 0. -1.
          1   -1    0    0  501    0 -0.00000000000E+00 -0.00000000000E+00 -0.33970402777E+03  0.33970402777E+03  0.00000000000E+00 0. -1.
         25    2    1    2    0    0  0.12469985338E+03  0.19096466877E+02 -0.34544157026E+02  0.18092238862E+03  0.12499953375E+03 0.  0.
          2    1    1    2  501    0 -0.11125616676E+02  0.67855839345E+02 -0.15777512503E+03  0.17210806012E+03  0.00000000000E+00 0. -1.
          1    1    1    2  502    0 -0.11357423670E+03 -0.86952306223E+02  0.92802008633E+01  0.14333852562E+03  0.00000000000E+00 0. -1.
         22    1    3    3    0    0  0.78787846607E+02 -0.15569661292E+02  0.37576119187E+02  0.88667377648E+02  0.00000000000E+00 0.  1.
         22    1    3    3    0    0  0.45912006769E+02  0.34666128170E+02 -0.72120276213E+02  0.92255010969E+02  0.00000000000E+00 0.  1.
</event>
<event>
 7    1  0.5676357E-006  0.2786135E+03  0.7818608E-02  0.1279469E+00
          2   -1    0    0  502    0  0.00000000000E+00  0.00000000000E+00  0.75122168030E+03  0.75122168030E+03  0.00000000000E+00 0. -1.
          1   -1    0    0  501    0 -0.00000000000E+00 -0.00000000000E+00 -0.50816506065E+03  0.50816506065E+03  0.00000000000E+00 0. -1.
         25    2    1    2    0    0  0.30318884992E+03 -0.29659245678E+02  0.86055541871E+02  0.34034337134E+03  0.12499961821E+03 0.  0.
          2    1    1    2  501    0 -0.31806215425E+02  0.17234709107E+02 -0.34572352137E+03  0.34761102366E+03  0.00000000000E+00 0. -1.
          1    1    1    2  502    0 -0.27138263450E+03  0.12424536571E+02  0.50272459915E+03  0.57143234596E+03  0.00000000000E+00 0. -1.
         22    1    3    3    0    0  0.10321525630E+03  0.47146868770E+02  0.45851498336E+02  0.12238699387E+03  0.00000000000E+00 0.  1.
         22    1    3    3    0    0  0.19997359362E+03 -0.76806114448E+02  0.40204043535E+02  0.21795637747E+03  0.00000000000E+00 0.  1.
</event>
<event>
 7    1  0.5676357E-006  0.1454587E+03  0.7818608E-02  0.1346067E+00
          2   -1    0    0  502    0  0.00000000000E+00  0.00000000000E+00  0.31379133523E+03  0.31379133523E+03  0.00000000000E+00 0. -1.
          1   -1    0    0  501    0 -0.00000000000E+00 -0.00000000000E+00 -0.42897667209E+03  0.42897667209E+03  0.00000000000E+00 0. -1.
         25    2    1    2    0    0 -0.69349162232E+02 -0.10268383865E+03 -0.50074260608E+01  0.17607757770E+03  0.12499984812E+03 0.  0.
          2    1    1    2  501    0 -0.37566909279E+02 -0.53607189941E+01 -0.31185021603E+03  0.31415054865E+03  0.00000000000E+00 0. -1.
          1    1    1    2  502    0  0.10691607151E+03  0.10804455764E+03  0.20167230523E+03  0.25253988097E+03  0.00000000000E+00 0. -1.
         22    1    3    3    0    0 -0.10083048672E+01  0.94425519067E+01  0.37008613784E+02  0.38207537992E+02  0.00000000000E+00 0. -1.
         22    1    3    3    0    0 -0.68340857365E+02 -0.11212639056E+03 -0.42016039845E+02  0.13787003971E+03  0.00000000000E+00 0. -1.
</event>
<event>
 7    1  0.5676357E-006  0.2762770E+03  0.7818608E-02  0.1201887E+00
          2   -1    0    0  502    0  0.00000000000E+00  0.00000000000E+00  0.47556623203E+03  0.47556623203E+03  0.00000000000E+00 0. -1.
          1   -1    0    0  501    0 -0.00000000000E+00 -0.00000000000E+00 -0.76005477449E+03  0.76005477449E+03  0.00000000000E+00 0. -1.
         25    2    1    2    0    0  0.14444355138E+03  0.31102512519E+03 -0.35616878615E+02  0.36673288888E+03  0.12499552677E+03 0.  0.
          2    1    1    2  501    0 -0.12070922383E+03 -0.23441619578E+03 -0.52168443396E+03  0.58453085308E+03  0.00000000000E+00 0. -1.
          1    1    1    2  502    0 -0.23734327547E+02 -0.76608929406E+02  0.27281277012E+03  0.28435726456E+03  0.00000000000E+00 0. -1.
         22    1    3    3    0    0  0.48398326498E+02  0.48045221234E+02 -0.52783695665E+02  0.86237229891E+02  0.00000000000E+00 0. -1.
         22    1    3    3    0    0  0.96045224882E+02  0.26297990395E+03  0.17166817050E+02  0.28049565899E+03  0.00000000000E+00 0. -1.
</event>
<event>
 7    1  0.5676357E-006  0.8687469E+02  0.7818608E-02  0.1332356E+00
          2   -1    0    0  502    0  0.00000000000E+00  0.00000000000E+00  0.12123932190E+04  0.12123932190E+04  0.00000000000E+00 0. -1.
          1   -1    0    0  501    0 -0.00000000000E+00 -0.00000000000E+00 -0.91669721603E+03  0.91669721603E+03  0.00000000000E+00 0. -1.
         25    2    1    2    0    0 -0.49790143228E+02  0.13331096228E+03 -0.58939241151E+03  0.61908033114E+03  0.12500468244E+03 0.  0.
          2    1    1    2  501    0  0.54252711441E+02 -0.46665277561E+02 -0.30676590767E+03  0.31500210624E+03  0.00000000000E+00 0. -1.
          1    1    1    2  502    0 -0.44625682128E+01 -0.86645684719E+02  0.11918543222E+04  0.11950079977E+04  0.00000000000E+00 0. -1.
         22    1    3    3    0    0 -0.84011334111E+01  0.96535513083E+02 -0.52626954045E+03  0.53511616826E+03  0.00000000000E+00 0. -1.
         22    1    3    3    0    0 -0.41389009817E+02  0.36775449197E+02 -0.63122871065E+02  0.83964162884E+02  0.00000000000E+00 0. -1.
</event>
<event>
 7    1  0.5676357E-006  0.1096177E+03  0.7818608E-02  0.1384324E+00
          2   -1    0    0  502    0  0.00000000000E+00  0.00000000000E+00  0.11743498948E+03  0.11743498948E+03  0.00000000000E+00 0. -1.
          1   -1    0    0  501    0 -0.00000000000E+00 -0.00000000000E+00 -0.84761989669E+03  0.84761989669E+03  0.00000000000E+00 0. -1.
         25    2    1    2    0    0 -0.89642313505E+02  0.63012775473E+02 -0.38447328813E+03  0.41886849549E+03  0.12499901193E+03 0.  0.
          2    1    1    2  501    0  0.10704437443E+03 -0.30814214447E+02 -0.43534422593E+03  0.44936912328E+03  0.00000000000E+00 0. -1.
          1    1    1    2  502    0 -0.17402060924E+02 -0.32198561027E+02  0.89632606847E+02  0.96817267400E+02  0.00000000000E+00 0. -1.
         22    1    3    3    0    0 -0.17553918260E+01  0.28899279164E+01 -0.23671091904E+03  0.23673506770E+03  0.00000000000E+00 0. -1.
         22    1    3    3    0    0 -0.87886921679E+02  0.60122847557E+02 -0.14776236908E+03  0.18213342779E+03  0.00000000000E+00 0. -1.
</event>
<event>
 7    1  0.5676357E-006  0.9312431E+02  0.7818608E-02  0.1321890E+00
          2   -1    0    0  502    0  0.00000000000E+00  0.00000000000E+00  0.49688382556E+03  0.49688382556E+03  0.00000000000E+00 0. -1.
          1   -1    0    0  501    0 -0.00000000000E+00 -0.00000000000E+00 -0.78364432567E+03  0.78364432567E+03  0.00000000000E+00 0. -1.
         25    2    1    2    0    0  0.97180740057E+01  0.78918715735E+02 -0.42803496401E+03  0.45294727345E+03  0.12499878981E+03 0.  0.
          2    1    1    2  501    0  0.68079353553E+02 -0.26968279613E+02 -0.33464067448E+03  0.34255870665E+03  0.00000000000E+00 0. -1.
          1    1    1    2  502    0 -0.77797427559E+02 -0.51950436121E+02  0.47591513838E+03  0.48502217113E+03  0.00000000000E+00 0. -1.
         22    1    3    3    0    0  0.12708730405E+02  0.59688670369E+02 -0.42913735772E+03  0.43345486615E+03  0.00000000000E+00 0.  1.
         22    1    3    3    0    0 -0.29906563991E+01  0.19230045366E+02  0.11023937075E+01  0.19492407300E+02  0.00000000000E+00 0.  1.
</event>
<event>
 7    1  0.5676357E-006  0.4617840E+02  0.7818608E-02  0.1499776E+00
          2   -1    0    0  502    0  0.00000000000E+00  0.00000000000E+00  0.17673968397E+03  0.17673968397E+03  0.00000000000E+00 0. -1.
          1   -1    0    0  501    0 -0.00000000000E+00 -0.00000000000E+00 -0.25505529144E+03  0.25505529144E+03  0.00000000000E+00 0. -1.
         25    2    1    2    0    0  0.47907812760E+02 -0.40176223185E+02 -0.14385457061E+03  0.20057083219E+03  0.12500093523E+03 0.  0.
          2    1    1    2  501    0 -0.19705577972E+01  0.36651357216E+02 -0.74906013678E+02  0.83415322147E+02  0.00000000000E+00 0. -1.
          1    1    1    2  502    0 -0.45937254963E+02  0.35248659696E+01  0.14044497681E+03  0.14780882107E+03  0.00000000000E+00 0. -1.
         22    1    3    3    0    0 -0.40800587319E+02 -0.21536513946E+02 -0.69051387449E+02  0.83045791387E+02  0.00000000000E+00 0. -1.
         22    1    3    3    0    0  0.88708400080E+02 -0.18639709239E+02 -0.74803183162E+02  0.11752504081E+03  0.00000000000E+00 0. -1.
</event>
<event>
 7    1  0.5676357E-006  0.2259894E+03  0.7818608E-02  0.1227268E+00
          2   -1    0    0  502    0  0.00000000000E+00  0.00000000000E+00  0.18823909110E+03  0.18823909110E+03  0.00000000000E+00 0. -1.
          1   -1    0    0  501    0 -0.00000000000E+00 -0.00000000000E+00 -0.19134871500E+04  0.19134871500E+04  0.00000000000E+00 0. -1.
         25    2    1    2    0    0  0.13676229801E+03  0.87250699986E+02 -0.85516081713E+03  0.87933589738E+03  0.12495993940E+03 0.  0.
          2    1    1    2  501    0  0.38762654223E+02  0.64122102639E+02 -0.96791393273E+03  0.97080974891E+03  0.00000000000E+00 0. -1.
          1    1    1    2  502    0 -0.17552495224E+03 -0.15137280262E+03  0.97826690948E+02  0.25158059483E+03  0.00000000000E+00 0. -1.
         22    1    3    3    0    0  0.14431739485E+03  0.42032224140E+02 -0.74506194021E+03  0.76007336032E+03  0.00000000000E+00 0. -1.
         22    1    3    3    0    0 -0.75550968311E+01  0.45218475846E+02 -0.11009887692E+03  0.11926253706E+03  0.00000000000E+00 0. -1.
</event>
<event>
 7    1  0.5676357E-006  0.3229949E+02  0.7818608E-02  0.1595883E+00
          2   -1    0    0  502    0  0.00000000000E+00  0.00000000000E+00  0.99782732660E+03  0.99782732660E+03  0.00000000000E+00 0. -1.
          1   -1    0    0  501    0 -0.00000000000E+00 -0.00000000000E+00 -0.10676076938E+03  0.10676076938E+03  0.00000000000E+00 0. -1.
         25    2    1    2    0    0 -0.34013713906E+02  0.47316487378E+02  0.59488518544E+03  0.61066326072E+03  0.12500180570E+03 0.  0.
          2    1    1    2  501    0  0.13775437269E+02 -0.24649894747E+02 -0.96256141518E+02  0.10031263511E+03  0.00000000000E+00 0. -1.
          1    1    1    2  502    0  0.20238276637E+02 -0.22666592632E+02  0.39243751329E+03  0.39361220014E+03  0.00000000000E+00 0. -1.
         22    1    3    3    0    0 -0.81547311478E+02  0.28341720060E+02  0.39562767080E+03  0.40493761372E+03  0.00000000000E+00 0. -1.
         22    1    3    3    0    0  0.47533597571E+02  0.18974767319E+02  0.19925751464E+03  0.20572564700E+03  0.00000000000E+00 0. -1.
</event>
<event>
 7    1  0.5676357E-006  0.5107777E+02  0.7818608E-02  0.1463217E+00
          2   -1    0    0  502    0  0.00000000000E+00  0.00000000000E+00  0.13630720389E+04  0.13630720389E+04  0.00000000000E+00 0. -1.
          1   -1    0    0  501    0 -0.00000000000E+00 -0.00000000000E+00 -0.13530530529E+03  0.13530530529E+03  0.00000000000E+00 0. -1.
         25    2    1    2    0    0  0.99177332422E+01 -0.13031993749E+02  0.34109769956E+02  0.13063794524E+03  0.12503840225E+03 0.  0.
          2    1    1    2  501    0 -0.52766122216E+02  0.15827143219E+02 -0.77925926508E+02  0.95431714531E+02  0.00000000000E+00 0. -1.
          1    1    1    2  502    0  0.42848388974E+02 -0.27951494696E+01  0.12715828901E+04  0.12723076844E+04  0.00000000000E+00 0. -1.
         22    1    3    3    0    0  0.62633157628E+02 -0.10679773465E+02  0.43553504700E+02  0.77031667302E+02  0.00000000000E+00 0. -1.
         22    1    3    3    0    0 -0.52715424386E+02 -0.23522202849E+01 -0.94437347441E+01  0.53606277938E+02  0.00000000000E+00 0. -1.
</event>
<event>
 7    1  0.5676357E-006  0.7695294E+02  0.7818608E-02  0.1369016E+00
          2   -1    0    0  502    0  0.00000000000E+00  0.00000000000E+00  0.20119453259E+04  0.20119453259E+04  0.00000000000E+00 0. -1.
          1   -1    0    0  501    0 -0.00000000000E+00 -0.00000000000E+00 -0.46697971326E+02  0.46697971326E+02  0.00000000000E+00 0. -1.
         25    2    1    2    0    0 -0.37830588685E+02  0.76713355476E+01  0.97539950414E+03  0.98413378838E+03  0.12500047173E+03 0.  0.
          2    1    1    2  501    0  0.42224881301E+02 -0.66613285280E+02 -0.39385841023E+01  0.78966972979E+02  0.00000000000E+00 0. -1.
          1    1    1    2  502    0 -0.43942926169E+01  0.58941949732E+02  0.99378643455E+03  0.99554253588E+03  0.00000000000E+00 0. -1.
         22    1    3    3    0    0 -0.82301730152E+02  0.17299339250E+02  0.69438763341E+03  0.69946195562E+03  0.00000000000E+00 0.  1.
         22    1    3    3    0    0  0.44471141467E+02 -0.96280037022E+01  0.28101187073E+03  0.28467183276E+03  0.00000000000E+00 0.  1.
</event>
<event>
 7    1  0.5676357E-006  0.5779768E+02  0.7818608E-02  0.1514424E+00
          2   -1    0    0  502    0  0.00000000000E+00  0.00000000000E+00  0.10891664799E+04  0.10891664799E+04  0.00000000000E+00 0. -1.
          1   -1    0    0  501    0 -0.00000000000E+00 -0.00000000000E+00 -0.30324474996E+02  0.30324474996E+02  0.00000000000E+00 0. -1.
         25    2    1    2    0    0  0.43074255263E+02  0.16610378628E+02  0.40450816125E+03  0.42589061350E+03  0.12499866404E+03 0.  0.
          2    1    1    2  501    0 -0.16785668897E+01  0.26490099702E+02 -0.86588129333E+01  0.27919849757E+02  0.00000000000E+00 0. -1.
          1    1    1    2  502    0 -0.41395688373E+02 -0.43100478330E+02  0.66299265655E+03  0.66568049159E+03  0.00000000000E+00 0. -1.
         22    1    3    3    0    0 -0.29515183124E+02 -0.29435507614E+02  0.80235923621E+02  0.90417910740E+02  0.00000000000E+00 0.  1.
         22    1    3    3    0    0  0.72589438387E+02  0.46045886242E+02  0.32427223762E+03  0.33547270276E+03  0.00000000000E+00 0.  1.
</event>
<event>
 7    1  0.5676357E-006  0.9038455E+02  0.7818608E-02  0.1395374E+00
          2   -1    0    0  502    0  0.00000000000E+00  0.00000000000E+00  0.46906951471E+03  0.46906951471E+03  0.00000000000E+00 0. -1.
          1   -1    0    0  501    0 -0.00000000000E+00 -0.00000000000E+00 -0.84894032157E+03  0.84894032157E+03  0.00000000000E+00 0. -1.
         25    2    1    2    0    0 -0.69039975841E+02  0.70661155123E+02 -0.13348324211E+02  0.15988262820E+03  0.12499903974E+03 0.  0.
          2    1    1    2  501    0  0.31001816279E+02 -0.84901715675E+02 -0.75859293628E+03  0.76395854398E+03  0.00000000000E+00 0. -1.
          1    1    1    2  502    0  0.38038159562E+02  0.14240560552E+02  0.39207045363E+03  0.39416866410E+03  0.00000000000E+00 0. -1.
         22    1    3    3    0    0  0.40212975324E+00  0.58089974082E+02  0.40752640376E+02  0.70960443169E+02  0.00000000000E+00 0.  1.
         22    1    3    3    0    0 -0.69442105594E+02  0.12571181041E+02 -0.54100964588E+02  0.88922185035E+02  0.00000000000E+00 0.  1.
</event>
<event>
 7    1  0.5676357E-006  0.1064820E+03  0.7818608E-02  0.1358463E+00
          2   -1    0    0  502    0  0.00000000000E+00  0.00000000000E+00  0.14820978536E+04  0.14820978536E+04  0.00000000000E+00 0. -1.
          1   -1    0    0  501    0 -0.00000000000E+00 -0.00000000000E+00 -0.23877698849E+02  0.23877698849E+02  0.00000000000E+00 0. -1.
         25    2    1    2    0    0 -0.47137530736E+02 -0.12796776724E+03  0.92738919676E+03  0.94565939542E+03  0.12499309424E+03 0.  0.
          2    1    1    2  501    0  0.29073522259E+01  0.46561696161E+02  0.41967079239E+02  0.62750936138E+02  0.00000000000E+00 0. -1.
          1    1    1    2  502    0  0.44230178510E+02  0.81406071080E+02  0.48886387876E+03  0.49756522091E+03  0.00000000000E+00 0. -1.
         22    1    3    3    0    0 -0.25215530590E+02  0.69802621886E+01  0.39978443895E+02  0.47778897218E+02  0.00000000000E+00 0.  1.
         22    1    3    3    0    0 -0.21922000146E+02 -0.13494802943E+03  0.88741075287E+03  0.89788049820E+03  0.00000000000E+00 0.  1.
</event>
<event>
 7    1  0.5676357E-006  0.7835254E+02  0.7818608E-02  0.1360114E+00
          2   -1    0    0  502    0  0.00000000000E+00  0.00000000000E+00  0.67130236574E+03  0.67130236574E+03  0.00000000000E+00 0. -1.
          1   -1    0    0  501    0 -0.00000000000E+00 -0.00000000000E+00 -0.83291684106E+02  0.83291684106E+02  0.00000000000E+00 0. -1.
         25    2    1    2    0    0 -0.47593473887E+02  0.85073654709E+02  0.68486873282E+02  0.17268007991E+03  0.12500117081E+03 0.  0.
          2    1    1    2  501    0 -0.25689775235E+02 -0.57005369410E+02  0.64329497645E+01  0.62856658643E+02  0.00000000000E+00 0. -1.
          1    1    1    2  502    0  0.73283249122E+02 -0.28068285299E+02  0.51309085859E+03  0.51905731130E+03  0.00000000000E+00 0. -1.
         22    1    3    3    0    0 -0.37294788412E+02 -0.25446529432E+02  0.67007618696E+01  0.45643480503E+02  0.00000000000E+00 0. -1.
         22    1    3    3    0    0 -0.10298685475E+02  0.11052018414E+03  0.61786111412E+02  0.12703659940E+03  0.00000000000E+00 0. -1.
</event>
<event>
 7    1  0.5676357E-006  0.1235162E+03  0.7818608E-02  0.1322737E+00
          2   -1    0    0  502    0  0.00000000000E+00  0.00000000000E+00  0.16088780609E+03  0.16088780609E+03  0.00000000000E+00 0. -1.
          1   -1    0    0  501    0 -0.00000000000E+00 -0.00000000000E+00 -0.98071961328E+03  0.98071961328E+03  0.00000000000E+00 0. -1.
         25    2    1    2    0    0  0.57701025221E+02  0.81763314529E+02  0.25978644810E+02  0.16218614805E+03  0.12495922823E+03 0.  0.
          2    1    1    2  501    0  0.29649533851E+02  0.46079038710E+02 -0.82074356728E+03  0.82257059022E+03  0.00000000000E+00 0. -1.
          1    1    1    2  502    0 -0.87350559072E+02 -0.12784235324E+03 -0.25066884721E+02  0.15685068110E+03  0.00000000000E+00 0. -1.
         22    1    3    3    0    0  0.82423523207E+02  0.96020351676E+02  0.47788691339E+01  0.12663484001E+03  0.00000000000E+00 0.  1.
         22    1    3    3    0    0 -0.24722497987E+02 -0.14257037148E+02  0.21199775676E+02  0.35551308044E+02  0.00000000000E+00 0.  1.
</event>
<event>
 7    1  0.5676357E-006  0.1961094E+03  0.7818608E-02  0.1307226E+00
          2   -1    0    0  502    0  0.00000000000E+00  0.00000000000E+00  0.17750396121E+04  0.17750396121E+04  0.00000000000E+00 0. -1.
          1   -1    0    0  501    0 -0.00000000000E+00 -0.00000000000E+00 -0.18287207780E+04  0.18287207780E+04  0.00000000000E+00 0. -1.
         25    2    1    2    0    0 -0.79249558061E+02 -0.13645523632E+03 -0.13425788577E+03  0.24197172174E+03  0.12499844104E+03 0.  0.
          2    1    1    2  501    0 -0.23833086577E+02 -0.31729815253E+02 -0.16347124189E+04  0.16351940220E+04  0.00000000000E+00 0. -1.
          1    1    1    2  502    0  0.10308264464E+03  0.16818505157E+03  0.17152891388E+04  0.17265946464E+04  0.00000000000E+00 0. -1.
         22    1    3    3    0    0 -0.64383428746E+02 -0.15681865622E+03 -0.92295552589E+02  0.19301757916E+03  0.00000000000E+00 0.  1.
         22    1    3    3    0    0 -0.14866129314E+02  0.20363419899E+02 -0.41962333178E+02  0.48954142588E+02  0.00000000000E+00 0.  1.
</event>
<event>
 7    1  0.5676357E-006  0.1593102E+03  0.7818608E-02  0.1295153E+00
          2   -1    0    0  502    0  0.00000000000E+00  0.00000000000E+00  0.15584542837E+04  0.15584542837E+04  0.00000000000E+00 0. -1.
          1   -1    0    0  501    0 -0.00000000000E+00 -0.00000000000E+00 -0.16750660605E+03  0.16750660605E+03  0.00000000000E+00 0. -1.
         25    2    1    2    0    0 -0.19778067877E+03  0.42988144914E+02  0.51907232182E+03  0.57097967000E+03  0.12496611852E+03 0.  0.
          2    1    1    2  501    0  0.15587754536E+03 -0.80006001423E+01 -0.97524351352E+02  0.18404569502E+03  0.00000000000E+00 0. -1.
          1    1    1    2  502    0  0.41903133410E+02 -0.34987544772E+02  0.96939970721E+03  0.97093552474E+03  0.00000000000E+00 0. -1.
         22    1    3    3    0    0 -0.49424525840E+02  0.67181014749E+02  0.23875511021E+03  0.25290329208E+03  0.00000000000E+00 0. -1.
         22    1    3    3    0    0 -0.14835615293E+03 -0.24192869835E+02  0.28031721161E+03  0.31807637792E+03  0.00000000000E+00 0. -1.
</event>
<event>
 7    1  0.5676357E-006  0.6667746E+02  0.7818608E-02  0.1389795E+00
          2   -1    0    0  502    0  0.00000000000E+00  0.00000000000E+00  0.93438902718E+03  0.93438902718E+03  0.00000000000E+00 0. -1.
          1   -1    0    0  501    0 -0.00000000000E+00 -0.00000000000E+00 -0.45924706053E+03  0.45924706053E+03  0.00000000000E+00 0. -1.
         25    2    1    2    0    0 -0.74597508634E+01  0.33117225416E+02 -0.16029504780E+02  0.13051747651E+03  0.12500187258E+03 0.  0.
          2    1    1    2  501    0  0.55839045924E+02  0.14019341173E+02 -0.38251586432E+03  0.38682415570E+03  0.00000000000E+00 0. -1.
          1    1    1    2  502    0 -0.48379295061E+02 -0.47136566590E+02  0.87368733574E+03  0.87629445550E+03  0.00000000000E+00 0. -1.
         22    1    3    3    0    0  0.25143353058E+02 -0.16497368203E+02 -0.52743466635E+02  0.60714286896E+02  0.00000000000E+00 0.  1.
         22    1    3    3    0    0 -0.32603103921E+02  0.49614593619E+02  0.36713961855E+02  0.69803189615E+02  0.00000000000E+00 0.  1.
</event>
<event>
 7    1  0.5676357E-006  0.5950663E+02  0.7818608E-02  0.1453394E+00
          2   -1    0    0  502    0  0.00000000000E+00  0.00000000000E+00  0.10702052186E+03  0.10702052186E+03  0.00000000000E+00 0. -1.
          1   -1    0    0  501    0 -0.00000000000E+00 -0.00000000000E+00 -0.53968597691E+03  0.53968597691E+03  0.00000000000E+00 0. -1.
         25    2    1    2    0    0 -0.28216355620E+02 -0.27293044985E+01 -0.32674431821E+02  0.13227454922E+03  0.12500130419E+03 0.  0.
          2    1    1    2  501    0 -0.38732033581E+02  0.81979646855E+01 -0.43628830178E+03  0.43808088217E+03  0.00000000000E+00 0. -1.
          1    1    1    2  502    0  0.66948389201E+02 -0.54686601870E+01  0.36297278548E+02  0.76351067385E+02  0.00000000000E+00 0. -1.
         22    1    3    3    0    0 -0.68537883262E+02  0.50558169229E+01  0.13968775712E+02  0.70129376310E+02  0.00000000000E+00 0.  1.
         22    1    3    3    0    0  0.40321527642E+02 -0.77851214214E+01 -0.46643207534E+02  0.62145172909E+02  0.00000000000E+00 0.  1.
</event>
<event>
 7    1  0.5676357E-006  0.8603681E+02  0.7818608E-02  0.1423886E+00
          2   -1    0    0  502    0  0.00000000000E+00  0.00000000000E+00  0.20718343959E+04  0.20718343959E+04  0.00000000000E+00 0. -1.
          1   -1    0    0  501    0 -0.00000000000E+00 -0.00000000000E+00 -0.62090082755E+03  0.62090082755E+03  0.00000000000E+00 0. -1.
         25    2    1    2    0    0  0.28127202697E+02  0.86641462674E+02  0.16753464565E+04  0.16824709928E+04  0.12500003942E+03 0.  0.
          2    1    1    2  501    0 -0.55282666648E+02 -0.65929058431E+02 -0.61358919644E+03  0.61959221748E+03  0.00000000000E+00 0. -1.
          1    1    1    2  502    0  0.27155463951E+02 -0.20712404243E+02  0.38917630837E+03  0.39067201321E+03  0.00000000000E+00 0. -1.
         22    1    3    3    0    0 -0.86639641515E+01  0.79326566005E+02  0.15387451024E+04  0.15408128565E+04  0.00000000000E+00 0. -1.
         22    1    3    3    0    0  0.36791166849E+02  0.73148966690E+01  0.13660135403E+03  0.14165813635E+03  0.00000000000E+00 0. -1.
</event>
<event>
 7    1  0.5676357E-006  0.8451463E+02  0.7818608E-02  0.1364275E+00
          2   -1    0    0  502    0  0.00000000000E+00  0.00000000000E+00  0.38897960692E+03  0.38897960692E+03  0.00000000000E+00 0. -1.
          1   -1    0    0  501    0 -0.00000000000E+00 -0.00000000000E+00 -0.11556741693E+03  0.11556741693E+03  0.00000000000E+00 0. -1.
         25    2    1    2    0    0 -0.99330225080E+02  0.70876561243E+02  0.11624800014E+03  0.20982828534E+03  0.12499732495E+03 0.  0.
          2    1    1    2  501    0  0.77535557432E+02 -0.19310872020E+02 -0.40286213601E+02  0.89485481788E+02  0.00000000000E+00 0. -1.
          1    1    1    2  502    0  0.21794667648E+02 -0.51565689223E+02  0.19745040345E+03  0.20523325672E+03  0.00000000000E+00 0. -1.
         22    1    3    3    0    0 -0.41510483154E+02  0.20720229830E+02 -0.22351251828E+02  0.51497830965E+02  0.00000000000E+00 0.  1.
         22    1    3    3    0    0 -0.57819741926E+02  0.50156331412E+02  0.13859925197E+03  0.15833045438E+03  0.00000000000E+00 0.  1.
</event>
<event>
 7    1  0.5676357E-006  0.8162009E+02  0.7818608E-02  0.1437135E+00
          2   -1    0    0  502    0  0.00000000000E+00  0.00000000000E+00  0.20734187296E+03  0.20734187296E+03  0.00000000000E+00 0. -1.
          1   -1    0    0  501    0 -0.00000000000E+00 -0.00000000000E+00 -0.27126500308E+03  0.27126500308E+03  0.00000000000E+00 0. -1.
         25    2    1    2    0    0 -0.58846687087E+02  0.61167372633E+02 -0.79573510089E+02  0.17076688426E+03  0.12500002079E+03 0.  0.
          2    1    1    2  501    0  0.75170811340E+02 -0.32991277765E+02 -0.13265520731E+03  0.15600153625E+03  0.00000000000E+00 0. -1.
          1    1    1    2  502    0 -0.16324124253E+02 -0.28176094869E+02  0.14830558728E+03  0.15183845552E+03  0.00000000000E+00 0. -1.
         22    1    3    3    0    0  0.63537199114E+01  0.26851475276E+02 -0.91998219947E+02  0.96047092380E+02  0.00000000000E+00 0. -1.
         22    1    3    3    0    0 -0.65200406999E+02  0.34315897357E+02  0.12424709858E+02  0.74719791885E+02  0.00000000000E+00 0. -1.
</event>
<event>
 7    1  0.5676357E-006  0.6599073E+02  0.7818608E-02  0.1459778E+00
          2   -1    0    0  502    0  0.00000000000E+00  0.00000000000E+00  0.10543725279E+04  0.10543725279E+04  0.00000000000E+00 0. -1.
          1   -1    0    0  501    0 -0.00000000000E+00 -0.00000000000E+00 -0.29544788028E+03  0.29544788028E+03  0.00000000000E+00 0. -1.
         25    2    1    2    0    0  0.70082172927E+02 -0.61763074994E+02  0.10455721507E+03  0.18784300588E+03  0.12500638079E+03 0.  0.
          2    1    1    2  501    0 -0.33140415268E+02  0.79244705939E+01 -0.25148091073E+03  0.25377890539E+03  0.00000000000E+00 0. -1.
          1    1    1    2  502    0 -0.36941757660E+02  0.53838604400E+02  0.90584834330E+03  0.90819849694E+03  0.00000000000E+00 0. -1.
         22    1    3    3    0    0 -0.15782134627E+02 -0.52916840237E+02  0.40672901003E+01  0.55369762531E+02  0.00000000000E+00 0.  1.
         22    1    3    3    0    0  0.85864307554E+02 -0.88462347571E+01  0.10048992497E+03  0.13247324334E+03  0.00000000000E+00 0.  1.
</event>
<event>
 7    1  0.5676357E-006  0.8079788E+02  0.7818608E-02  0.1499426E+00
          2   -1    0    0  502    0  0.00000000000E+00  0.00000000000E+00  0.14027167178E+04  0.14027167178E+04  0.00000000000E+00 0. -1.
          1   -1    0    0  501    0 -0.00000000000E+00 -0.00000000000E+00 -0.80528143493E+03  0.80528143493E+03  0.00000000000E+00 0. -1.
         25    2    1    2    0    0 -0.85939728094E+02 -0.50909759707E+02 -0.39925176639E+02  0.16491381178E+03  0.12500042035E+03 0.  0.
          2    1    1    2  501    0  0.20718943470E+02  0.35924994008E+01 -0.70149312944E+03  0.70180822974E+03  0.00000000000E+00 0. -1.
          1    1    1    2  502    0  0.65220784624E+02  0.47317260306E+02  0.13388535890E+04  0.13412761113E+04  0.00000000000E+00 0. -1.
         22    1    3    3    0    0 -0.10241053265E+03 -0.77547387816E+01  0.17239877221E+01  0.10271818391E+03  0.00000000000E+00 0. -1.
         22    1    3    3    0    0  0.16470804560E+02 -0.43155020926E+02 -0.41649164361E+02  0.62195627868E+02  0.00000000000E+00 0. -1.
</event>
<event>
 7    1  0.5676357E-006  0.4487311E+02  0.7818608E-02  0.1541898E+00
          2   -1    0    0  502    0  0.00000000000E+00  0.00000000000E+00  0.44801009972E+02  0.44801009972E+02  0.00000000000E+00 0. -1.
          1   -1    0    0  501    0 -0.00000000000E+00 -0.00000000000E+00 -0.12435545122E+04  0.12435545122E+04  0.00000000000E+00 0. -1.
         25    2    1    2    0    0 -0.22942818198E+02  0.39164028525E+01 -0.41766350742E+03  0.43659020174E+03  0.12500595069E+03 0.  0.
          2    1    1    2  501    0  0.36465424449E+02 -0.29012955076E+02 -0.80989732773E+03  0.81123680896E+03  0.00000000000E+00 0. -1.
          1    1    1    2  502    0 -0.13522606251E+02  0.25096552224E+02  0.28807332913E+02  0.40528511482E+02  0.00000000000E+00 0. -1.
         22    1    3    3    0    0 -0.40146025394E+02  0.38915445270E+02 -0.37354493955E+03  0.37770615179E+03  0.00000000000E+00 0.  1.
         22    1    3    3    0    0  0.17203207196E+02 -0.34999042418E+02 -0.44118567866E+02  0.58884049951E+02  0.00000000000E+00 0.  1.
</event>
<event>
 7    1  0.5676357E-006  0.2045695E+03  0.7818608E-02  0.1290096E+00
          2   -1    0    0  502    0  0.00000000000E+00  0.00000000000E+00  0.74534686974E+02  0.74534686974E+02  0.00000000000E+00 0. -1.
          1   -1    0    0  501    0 -0.00000000000E+00 -0.00000000000E+00 -0.19973690936E+04  0.19973690936E+04  0.00000000000E+00 0. -1.
         25    2    1    2    0    0 -0.10004381433E+03 -0.16148121313E+03 -0.58846591552E+03  0.63087369387E+03  0.12499814762E+03 0.  0.
          2    1    1    2  501    0  0.26507637857E+02 -0.35824549611E+02 -0.11777822634E+04  0.11786250944E+04  0.00000000000E+00 0. -1.
          1    1    1    2  502    0  0.73536176476E+02  0.19730576274E+03 -0.15658622767E+03  0.26240499225E+03  0.00000000000E+00 0. -1.
         22    1    3    3    0    0 -0.71056016503E+02 -0.20290174441E+02 -0.12188050668E+03  0.14253247549E+03  0.00000000000E+00 0. -1.
         22    1    3    3    0    0 -0.28987797831E+02 -0.14119103869E+03 -0.46658540884E+03  0.48834121838E+03  0.00000000000E+00 0. -1.
</event>
<event>
 7    1  0.5676357E-006  0.7564606E+02  0.7818608E-02  0.1415936E+00
          2   -1    0    0  502    0  0.00000000000E+00  0.00000000000E+00  0.80249514109E+03  0.80249514109E+03  0.00000000000E+00 0. -1.
          1   -1    0    0  501    0 -0.00000000000E+00 -0.00000000000E+00 -0.67620597234E+03  0.67620597234E+03  0.00000000000E+00 0. -1.
         25    2    1    2    0    0 -0.56814566236E+00 -0.55396908960E+02  0.63811812784E+03  0.65260124728E+03  0.12499801022E+03 0.  0.
          2    1    1    2  501    0 -0.39710223227E+02  0.64497625395E+02 -0.66406105156E+03  0.66836661026E+03  0.00000000000E+00 0. -1.
          1    1    1    2  502    0  0.40278368890E+02 -0.91007164352E+01  0.15223209246E+03  0.15773325590E+03  0.00000000000E+00 0. -1.
         22    1    3    3    0    0  0.54281347138E+02 -0.29191003022E+02  0.17552507028E+03  0.18603125974E+03  0.00000000000E+00 0. -1.
         22    1    3    3    0    0 -0.54849492800E+02 -0.26205905939E+02  0.46259305756E+03  0.46656998754E+03  0.00000000000E+00 0. -1.
</event>
<event>
 7    1  0.5676357E-006  0.8726205E+02  0.7818608E-02  0.1350891E+00
          2   -1    0    0  502    0  0.00000000000E+00  0.00000000000E+00  0.99168615952E+03  0.99168615952E+03  0.00000000000E+00 0. -1.
          1   -1    0    0  501    0 -0.00000000000E+00 -0.00000000000E+00 -0.48270892337E+03  0.48270892337E+03  0.00000000000E+00 0. -1.
         25    2    1    2    0    0  0.21343313576E+02 -0.17437356995E+02  0.25356068569E+03  0.28405079143E+03  0.12502892598E+03 0.  0.
          2    1    1    2  501    0 -0.71495099319E+02  0.51631111190E+02 -0.46201151197E+03  0.47035301430E+03  0.00000000000E+00 0. -1.
          1    1    1    2  502    0  0.50151785743E+02 -0.34193754195E+02  0.71742806242E+03  0.71999127716E+03  0.00000000000E+00 0. -1.
         22    1    3    3    0    0  0.12473615387E+02  0.51762936488E+02  0.72012339829E+02  0.89558750339E+02  0.00000000000E+00 0. -1.
         22    1    3    3    0    0  0.88696981896E+01 -0.69200293483E+02  0.18154834586E+03  0.19449204110E+03  0.00000000000E+00 0. -1.
</event>
<event>
 7    1  0.5676357E-006  0.2256812E+03  0.7818608E-02  0.1207614E+00
          2   -1    0    0  502    0  0.00000000000E+00  0.00000000000E+00  0.13317879062E+03  0.13317879062E+03  0.00000000000E+00 0. -1.
          1   -1    0    0  501    0 -0.00000000000E+00 -0.00000000000E+00 -0.16195987701E+04  0.16195987701E+04  0.00000000000E+00 0. -1.
         25    2    1    2    0    0  0.19520877689E+03 -0.10859695581E+03 -0.31576325199E+03  0.40648882837E+03  0.12500788335E+03 0.  0.
          2    1    1    2  501    0 -0.22868309499E+03  0.22571989064E+02 -0.12201147069E+04  0.12415656852E+04  0.00000000000E+00 0. -1.
          1    1    1    2  502    0  0.33474318101E+02  0.86024966751E+02  0.49457979427E+02  0.10472304716E+03  0.00000000000E+00 0. -1.
         22    1    3    3    0    0  0.53890376753E+02 -0.99422626170E+01 -0.10300641732E+02  0.55759523963E+02  0.00000000000E+00 0. -1.
         22    1    3    3    0    0  0.14131840013E+03 -0.98654693197E+02 -0.30546261026E+03  0.35072930441E+03  0.00000000000E+00 0. -1.
</event>
<event>
 7    1  0.5676357E-006  0.8788527E+02  0.7818608E-02  0.1412941E+00
          2   -1    0    0  502    0  0.00000000000E+00  0.00000000000E+00  0.13154219037E+04  0.13154219037E+04  0.00000000000E+00 0. -1.
          1   -1    0    0  501    0 -0.00000000000E+00 -0.00000000000E+00 -0.13553201004E+03  0.13553201004E+03  0.00000000000E+00 0. -1.
         25    2    1    2    0    0 -0.93229018788E+02  0.15320459615E+02  0.74460230119E+03  0.76091003230E+03  0.12500049558E+03 0.  0.
          2    1    1    2  501    0  0.74561708076E+02 -0.46543378158E+02 -0.11153852959E+03  0.14200907698E+03  0.00000000000E+00 0. -1.
          1    1    1    2  502    0  0.18667310713E+02  0.31222918542E+02  0.54682612206E+03  0.54803480446E+03  0.00000000000E+00 0. -1.
         22    1    3    3    0    0 -0.36031574022E+02  0.55795765060E+02  0.55155105113E+03  0.55553578078E+03  0.00000000000E+00 0. -1.
         22    1    3    3    0    0 -0.57197444766E+02 -0.40475305444E+02  0.19305125006E+03  0.20537425152E+03  0.00000000000E+00 0. -1.
</event>
<event>
 7    1  0.5676357E-006  0.8197957E+02  0.7818608E-02  0.1474223E+00
          2   -1    0    0  502    0  0.00000000000E+00  0.00000000000E+00  0.26324504581E+03  0.26324504581E+03  0.00000000000E+00 0. -1.
          1   -1    0    0  501    0 -0.00000000000E+00 -0.00000000000E+00 -0.24915488385E+03  0.24915488385E+03  0.00000000000E+00 0. -1.
         25    2    1    2    0    0 -0.87580681047E+02  0.26852099285E+02  0.54376736000E+02  0.16423490611E+03  0.12499945615E+03 0.  0.
          2    1    1    2  501    0  0.19112730938E+02  0.15680799095E+02 -0.18278521779E+03  0.18444950471E+03  0.00000000000E+00 0. -1.
          1    1    1    2  502    0  0.68467950110E+02 -0.42532898381E+02  0.14249864375E+03  0.16371551884E+03  0.00000000000E+00 0. -1.
         22    1    3    3    0    0 -0.36141499320E+02  0.28944763200E+02 -0.37055506339E+02  0.59305293522E+02  0.00000000000E+00 0. -1.
         22    1    3    3    0    0 -0.51439181728E+02 -0.20926639143E+01  0.91432242338E+02  0.10492961259E+03  0.00000000000E+00 0. -1.
</event>
<event>
 7    1  0.5676357E-006  0.7137346E+02  0.7818608E-02  0.1366947E+00
          2   -1    0    0  502    0  0.00000000000E+00  0.00000000000E+00  0.49137235427E+03  0.49137235427E+03  0.00000000000E+00 0. -1.
          1   -1    0    0  501    0 -0.00000000000E+00 -0.00000000000E+00 -0.42357522495E+03  0.42357522495E+03  0.00000000000E+00 0. -1.
         25    2    1    2    0    0  0.40330884010E+02  0.85272946931E+02 -0.13472853964E+03  0.20657850755E+03  0.12499937882E+03 0.  0.
          2    1    1    2  501    0 -0.66378502761E+02 -0.25905648321E+02 -0.24552342713E+03  0.25565398787E+03  0.00000000000E+00 0. -1.
          1    1    1    2  502    0  0.26047618750E+02 -0.59367298610E+02  0.44804909609E+03  0.45271508379E+03  0.00000000000E+00 0. -1.
         22    1    3    3    0    0  0.29405524314E+02  0.68386864812E+02 -0.15869749170E+03  0.17528930946E+03  0.00000000000E+00 0. -1.
         22    1    3    3    0    0  0.10925359697E+02  0.16886082120E+02  0.23968952064E+02  0.31289198087E+02  0.00000000000E+00 0. -1.
</event>
<event>
 7    1  0.5676357E-006  0.4809580E+02  0.7818608E-02  0.1459284E+00
          2   -1    0    0  502    0  0.00000000000E+00  0.00000000000E+00  0.23927402415E+04  0.23927402415E+04  0.00000000000E+00 0. -1.
          1   -1    0    0  501    0 -0.00000000000E+00 -0.00000000000E+00 -0.68084962960E+02  0.68084962960E+02  0.00000000000E+00 0. -1.
         25    2    1    2    0    0 -0.54025756971E+02 -0.28235052973E+01  0.44634573713E+03  0.46666458847E+03  0.12499826591E+03 0.  0.
          2    1    1    2  501    0  0.26311165022E+02  0.40685099024E+02 -0.47457762722E+02  0.67821780646E+02  0.00000000000E+00 0. -1.
          1    1    1    2  502    0  0.27714591949E+02 -0.37861593727E+02  0.19257673041E+04  0.19263388353E+04  0.00000000000E+00 0. -1.
         22    1    3    3    0    0 -0.20990465631E+02  0.57821018285E+02  0.27761916416E+03  0.28435236963E+03  0.00000000000E+00 0.  1.
         22    1    3    3    0    0 -0.33035291340E+02 -0.60644523582E+02  0.16872657297E+03  0.18231221884E+03  0.00000000000E+00 0.  1.
</event>
<event>
 7    1  0.5676357E-006  0.1201307E+03  0.7818608E-02  0.1277710E+00
          2   -1    0    0  502    0  0.00000000000E+00  0.00000000000E+00  0.70518545447E+03  0.70518545447E+03  0.00000000000E+00 0. -1.
          1   -1    0    0  501    0 -0.00000000000E+00 -0.00000000000E+00 -0.29175310493E+03  0.29175310493E+03  0.00000000000E+00 0. -1.
         25    2    1    2    0    0 -0.17543478580E+03 -0.17635554819E+02  0.22450333265E+03  0.31163074501E+03  0.12499439189E+03 0.  0.
          2    1    1    2  501    0  0.10146299024E+03  0.60151289027E+02 -0.22962396806E+03  0.25814740492E+03  0.00000000000E+00 0. -1.
          1    1    1    2  502    0  0.73971795565E+02 -0.42515734208E+02  0.41855298496E+03  0.42716040946E+03  0.00000000000E+00 0. -1.
         22    1    3    3    0    0 -0.27035791087E+02  0.13124648624E+02  0.12909362706E+03  0.13254567118E+03  0.00000000000E+00 0. -1.
         22    1    3    3    0    0 -0.14839899472E+03 -0.30760203443E+02  0.95409705585E+02  0.17908507383E+03  0.00000000000E+00 0. -1.
</event>
<event>
 7    1  0.5676357E-006  0.6978279E+02  0.7818608E-02  0.1403002E+00
          2   -1    0    0  502    0  0.00000000000E+00  0.00000000000E+00  0.28693988876E+03  0.28693988876E+03  0.00000000000E+00 0. -1.
          1   -1    0    0  501    0 -0.00000000000E+00 -0.00000000000E+00 -0.37745240768E+03  0.37745240768E+03  0.00000000000E+00 0. -1.
         25    2    1    2    0    0  0.90078922998E+02  0.18997892495E+01 -0.16989812508E+03  0.22936431801E+03  0.12499918361E+03 0.  0.
          2    1    1    2  501    0 -0.56161124048E+02 -0.37981224025E+02 -0.16882271601E+03  0.18192788317E+03  0.00000000000E+00 0. -1.
          1    1    1    2  502    0 -0.33917798950E+02  0.36081434776E+02  0.24820832217E+03  0.25310009525E+03  0.00000000000E+00 0. -1.
         22    1    3    3    0    0  0.99578649731E+02 -0.25027549306E+02 -0.17244430979E+03  0.20069709934E+03  0.00000000000E+00 0.  1.
         22    1    3    3    0    0 -0.94997267332E+01  0.26927338555E+02  0.25461847086E+01  0.28667218669E+02  0.00000000000E+00 0.  1.
</event>
<event>
 7    1  0.5676357E-006  0.1412246E+03  0.7818608E-02  0.1353444E+00
          2   -1    0    0  502    0  0.00000000000E+00  0.00000000000E+00  0.48092606514E+02  0.48092606514E+02  0.00000000000E+00 0. -1.
          1   -1    0    0  501    0 -0.00000000000E+00 -0.00000000000E+00 -0.22277194483E+04  0.22277194483E+04  0.00000000000E+00 0. -1.
         25    2    1    2    0    0  0.20687272753E+02 -0.11938986440E+03 -0.67981122238E+03  0.70175439952E+03  0.12503613956E+03 0.  0.
          2    1    1    2  501    0  0.18816556420E+01  0.14833065983E+03 -0.15232873568E+04  0.15304933508E+04  0.00000000000E+00 0. -1.
          1    1    1    2  502    0 -0.22568928395E+02 -0.28940795437E+02  0.23471737435E+02  0.43564304512E+02  0.00000000000E+00 0. -1.
         22    1    3    3    0    0 -0.44210616884E+02 -0.84587618704E+02 -0.46430917851E+03  0.47401757049E+03  0.00000000000E+00 0. -1.
         22    1    3    3    0    0  0.64897889637E+02 -0.34802245693E+02 -0.21550204387E+03  0.22773682903E+03  0.00000000000E+00 0. -1.
</event>
<event>
 7    1  0.6024096E-006  0.8759351E+02  0.7818608E-02  0.1352831E+00
          2   -1    0    0  502    0  0.00000000000E+00  0.00000000000E+00  0.48983314112E+03  0.48983314112E+03  0.00000000000E+00 0. -1.
          1   -1    0    0  501    0 -0.00000000000E+00 -0.00000000000E+00 -0.17952640376E+04  0.17952640376E+04  0.00000000000E+00 0. -1.
         25    2    1    2    0    0  0.87501903295E+02 -0.10007247628E+03 -0.47651830519E+03  0.51026027668E+03  0.12499908474E+03 0.  0.
          2    1    1    2  501    0 -0.10746562889E+02  0.58500947704E+02 -0.12971598664E+04  0.12985228409E+04  0.00000000000E+00 0. -1.
          1    1    1    2  502    0 -0.76755340406E+02  0.41571528572E+02  0.46824727504E+03  0.47631406115E+03  0.00000000000E+00 0. -1.
         22    1    3    3    0    0 -0.26204614401E+02 -0.40399446033E+02 -0.19466512729E+03  0.20053256303E+03  0.00000000000E+00 0.  1.
         22    1    3    3    0    0  0.11370651770E+03 -0.59673030243E+02 -0.28185317791E+03  0.30972771365E+03  0.00000000000E+00 0.  1.
</event>
<event>
 7    1  0.5676357E-006  0.7494647E+02  0.7818608E-02  0.1345298E+00
          2   -1    0    0  502    0  0.00000000000E+00  0.00000000000E+00  0.85574555057E+03  0.85574555057E+03  0.00000000000E+00 0. -1.
          1   -1    0    0  501    0 -0.00000000000E+00 -0.00000000000E+00 -0.42272266355E+03  0.42272266355E+03  0.00000000000E+00 0. -1.
         25    2    1    2    0    0  0.48585422239E+02  0.29957759243E+02  0.14172661678E+03  0.19740715703E+03  0.12500056460E+03 0.  0.
          2    1    1    2  501    0  0.11834408235E+02 -0.74302061097E+02 -0.38922247086E+03  0.39642777567E+03  0.00000000000E+00 0. -1.
          1    1    1    2  502    0 -0.60419830474E+02  0.44344301854E+02  0.68051874111E+03  0.68463328141E+03  0.00000000000E+00 0. -1.
         22    1    3    3    0    0 -0.41094836159E+02  0.86187734730E+01  0.65433259280E+02  0.77746898556E+02  0.00000000000E+00 0.  1.
         22    1    3    3    0    0  0.89680258398E+02  0.21338985770E+02  0.76293357500E+02  0.11966025848E+03  0.00000000000E+00 0.  1.
</event>
<event>
 7    1  0.5676357E-006  0.9242610E+02  0.7818608E-02  0.1395474E+00
          2   -1    0    0  502    0  0.00000000000E+00  0.00000000000E+00  0.79241661941E+03  0.79241661941E+03  0.00000000000E+00 0. -1.
          1   -1    0    0  501    0 -0.00000000000E+00 -0.00000000000E+00 -0.45675432529E+03  0.45675432529E+03  0.00000000000E+00 0. -1.
         25    2    1    2    0    0  0.53671262875E+02 -0.88862290296E+02 -0.86425996900E+01  0.16271366142E+03  0.12499571988E+03 0.  0.
          2    1    1    2  501    0  0.20521953557E+02  0.33969994441E+02 -0.36702530054E+03  0.36916484439E+03  0.00000000000E+00 0. -1.
          1    1    1    2  502    0 -0.74193216432E+02  0.54892295855E+02  0.71133019434E+03  0.71729243889E+03  0.00000000000E+00 0. -1.
         22    1    3    3    0    0  0.66486386177E+02 -0.74076772858E+02  0.42292148765E+02  0.10815005165E+03  0.00000000000E+00 0. -1.
         22    1    3    3    0    0 -0.12815123302E+02 -0.14785517438E+02 -0.50934748455E+02  0.54563609772E+02  0.00000000000E+00 0. -1.
</event>
<event>
 7    1  0.5676357E-006  0.4397555E+02  0.7818608E-02  0.1498081E+00
          2   -1    0    0  502    0  0.00000000000E+00  0.00000000000E+00  0.64766054893E+03  0.64766054893E+03  0.00000000000E+00 0. -1.
          1   -1    0    0  501    0 -0.00000000000E+00 -0.00000000000E+00 -0.31617936624E+02  0.31617936624E+02  0.00000000000E+00 0. -1.
         25    2    1    2    0    0 -0.48271727527E+02 -0.24580274775E+02  0.30543029355E+03  0.33443533528E+03  0.12499991872E+03 0.  0.
          2    1    1    2  501    0  0.34723474969E+02 -0.17745378676E+02  0.90601105198E+01  0.40033782995E+02  0.00000000000E+00 0. -1.
          1    1    1    2  502    0  0.13548252559E+02  0.42325653451E+02  0.30155220823E+03  0.30480936728E+03  0.00000000000E+00 0. -1.
         22    1    3    3    0    0  0.32946706678E+02  0.15926183745E+02  0.15044116999E+03  0.15482788650E+03  0.00000000000E+00 0. -1.
         22    1    3    3    0    0 -0.81218434206E+02 -0.40506458520E+02  0.15498912356E+03  0.17960744878E+03  0.00000000000E+00 0. -1.
</event>
<event>
 7    1  0.5676357E-006  0.1299371E+03  0.7818608E-02  0.1279005E+00
          2   -1    0    0  502    0  0.00000000000E+00  0.00000000000E+00  0.34845718099E+03  0.34845718099E+03  0.00000000000E+00 0. -1.
          1   -1    0    0  501    0 -0.00000000000E+00 -0.00000000000E+00 -0.36635512779E+03  0.36635512779E+03  0.00000000000E+00 0. -1.
         25    2    1    2    0    0 -0.18700655189E+03  0.64679619737E+02 -0.20248425780E+02  0.23492442943E+03  0.12499834055E+03 0.  0.
          2    1    1    2  501    0  0.11467278869E+03 -0.35730225539E+02 -0.21649818152E+03  0.24758424846E+03  0.00000000000E+00 0. -1.
          1    1    1    2  502    0  0.72333763193E+02 -0.28949394199E+02  0.21884866050E+03  0.23230363089E+03  0.00000000000E+00 0. -1.
         22    1    3    3    0    0 -0.26666101238E+02  0.49251503066E+02  0.33320722068E+02  0.65169486945E+02  0.00000000000E+00 0. -1.
         22    1    3    3    0    0 -0.16034045065E+03  0.15428116671E+02 -0.53569147847E+02  0.16975494249E+03  0.00000000000E+00 0. -1.
</event>
<event>
 7    1  0.5676357E-006  0.1362696E+03  0.7818608E-02  0.1251914E+00
          2   -1    0    0  502    0  0.00000000000E+00  0.00000000000E+00  0.15561294411E+04  0.15561294411E+04  0.00000000000E+00 0. -1.
          1   -1    0    0  501    0 -0.00000000000E+00 -0.00000000000E+00 -0.20316691799E+03  0.20316691799E+03  0.00000000000E+00 0. -1.
         25    2    1    2    0    0 -0.17575048557E+02  0.95572759897E+02  0.14259121158E+03  0.21307181627E+03  0.12499724198E+03 0.  0.
          2    1    1    2  501    0 -0.73728412280E+02 -0.12751189464E+03 -0.13355195226E+03  0.19882476205E+03  0.00000000000E+00 0. -1.
          1    1    1    2  502    0  0.91303460837E+02  0.31939134745E+02  0.13439232638E+04  0.13473997807E+04  0.00000000000E+00 0. -1.
         22    1    3    3    0    0 -0.40346648104E+02  0.10166171390E+03  0.55118112684E+02  0.12247841619E+03  0.00000000000E+00 0. -1.
         22    1    3    3    0    0  0.22771599547E+02 -0.60889540072E+01  0.87473098898E+02  0.90593400078E+02  0.00000000000E+00 0. -1.
</event>
<event>
 7    1  0.5676357E-006  0.6683159E+02  0.7818608E-02  0.1467332E+00
          2   -1    0    0  502    0  0.00000000000E+00  0.00000000000E+00  0.14411569149E+03  0.14411569149E+03  0.00000000000E+00 0. -1.
          1   -1    0    0  501    0 -0.00000000000E+00 -0.00000000000E+00 -0.15625948960E+04  0.15625948960E+04  0.00000000000E+00 0. -1.
         25    2    1    2    0    0  0.19205065548E+02  0.48206244309E+02 -0.17774620898E+03  0.22340646157E+03  0.12499622286E+03 0.  0.
          2    1    1    2  501    0  0.31676022793E+02 -0.34029693838E+01 -0.13523423212E+04  0.13527175256E+04  0.00000000000E+00 0. -1.
          1    1    1    2  502    0 -0.50881088341E+02 -0.44803274925E+02  0.11160932565E+03  0.13058660026E+03  0.00000000000E+00 0. -1.
         22    1    3    3    0    0 -0.50169834452E+02  0.55065155877E+01 -0.93273698303E+02  0.10605336769E+03  0.00000000000E+00 0.  1.
         22    1    3    3    0    0  0.69374899999E+02  0.42699728721E+02 -0.84472510676E+02  0.11735309388E+03  0.00000000000E+00 0.  1.
</event>
<event>
 7    1  0.5676357E-006  0.3667665E+02  0.7818608E-02  0.1539972E+00
          2   -1    0    0  502    0  0.00000000000E+00  0.00000000000E+00  0.88882887561E+03  0.88882887561E+03  0.00000000000E+00 0. -1.
          1   -1    0    0  501    0 -0.00000000000E+00 -0.00000000000E+00 -0.50038510815E+03  0.50038510815E+03  0.00000000000E+00 0. -1.
         25    2    1    2    0    0 -0.18651889076E+02 -0.84311621644E+01  0.39934999781E+03  0.41895624413E+03  0.12499974512E+03 0.  0.
          2    1    1    2  501    0 -0.26083564841E+01  0.36633672922E+02 -0.48924265942E+03  0.49061921009E+03  0.00000000000E+00 0. -1.
          1    1    1    2  502    0  0.21260245560E+02 -0.28202510758E+02  0.47833642906E+03  0.47963852954E+03  0.00000000000E+00 0. -1.
         22    1    3    3    0    0  0.23459849336E+01  0.56067183965E+02  0.22458321189E+03  0.23148790860E+03  0.00000000000E+00 0.  1.
         22    1    3    3    0    0 -0.20997874010E+02 -0.64498346130E+02  0.17476678592E+03  0.18746833553E+03  0.00000000000E+00 0.  1.
</event>
<event>
 7    1  0.5676357E-006  0.2296105E+03  0.7818608E-02  0.1248108E+00
          2   -1    0    0  502    0  0.00000000000E+00  0.00000000000E+00  0.40482327710E+04  0.40482327710E+04  0.00000000000E+00 0. -1.
          1   -1    0    0  501    0 -0.00000000000E+00 -0.00000000000E+00 -0.66088904359E+02  0.66088904359E+02  0.00000000000E+00 0. -1.
         25    2    1    2    0    0  0.17653479135E+03 -0.11182997939E+03  0.10732988255E+04  0.11005747945E+04  0.12499613082E+03 0.  0.
          2    1    1    2  501    0 -0.16351375530E+03  0.17002241690E+03  0.21477905167E+03  0.31902102040E+03  0.00000000000E+00 0. -1.
          1    1    1    2  502    0 -0.13021036045E+02 -0.58192437506E+02  0.26940659895E+04  0.26947258604E+04  0.00000000000E+00 0. -1.
         22    1    3    3    0    0  0.34126137398E+02 -0.93572342133E+02  0.46800838734E+03  0.47848952662E+03  0.00000000000E+00 0.  1.
         22    1    3    3    0    0  0.14240865395E+03 -0.18257637257E+02  0.60529043813E+03  0.62208526790E+03  0.00000000000E+00 0.  1.
</event>
<event>
 7    1  0.5676357E-006  0.8098503E+02  0.7818608E-02  0.1340032E+00
          2   -1    0    0  502    0  0.00000000000E+00  0.00000000000E+00  0.17840158333E+04  0.17840158333E+04  0.00000000000E+00 0. -1.
          1   -1    0    0  501    0 -0.00000000000E+00 -0.00000000000E+00 -0.12967419046E+03  0.12967419046E+03  0.00000000000E+00 0. -1.
         25    2    1    2    0    0 -0.12887976432E+03 -0.14031563938E+02  0.35041467813E+03  0.39398260857E+03  0.12499988308E+03 0.  0.
          2    1    1    2  501    0  0.73244062302E+02 -0.31352728370E+02 -0.92132166380E+02  0.12180321145E+03  0.00000000000E+00 0. -1.
          1    1    1    2  502    0  0.55635702022E+02  0.45384292308E+02  0.13960591311E+04  0.13979042037E+04  0.00000000000E+00 0. -1.
         22    1    3    3    0    0 -0.12192193730E+03  0.20107764942E+02  0.16959832285E+03  0.20984011084E+03  0.00000000000E+00 0. -1.
         22    1    3    3    0    0 -0.69578270275E+01 -0.34139328879E+02  0.18081635528E+03  0.18414249773E+03  0.00000000000E+00 0. -1.
</event>
<event>
 7    1  0.5676357E-006  0.9053151E+02  0.7818608E-02  0.1409754E+00
          2   -1    0    0  502    0  0.00000000000E+00  0.00000000000E+00  0.46167634120E+02  0.46167634120E+02  0.00000000000E+00 0. -1.
          1   -1    0    0  501    0 -0.00000000000E+00 -0.00000000000E+00 -0.12443275581E+04  0.12443275581E+04  0.00000000000E+00 0. -1.
         25    2    1    2    0    0 -0.46332233734E+02 -0.57390869081E+02 -0.25160949438E+03  0.29046974861E+03  0.12499979782E+03 0.  0.
          2    1    1    2  501    0  0.80749604998E+02  0.46164960719E+02 -0.95765283096E+03  0.96215936671E+03  0.00000000000E+00 0. -1.
          1    1    1    2  502    0 -0.34417371264E+02  0.11225908362E+02  0.11102401369E+02  0.37866076896E+02  0.00000000000E+00 0. -1.
         22    1    3    3    0    0 -0.89790144051E+02 -0.40731536942E+02 -0.17131573816E+03  0.19766236418E+03  0.00000000000E+00 0.  1.
         22    1    3    3    0    0  0.43457910317E+02 -0.16659332139E+02 -0.80293756221E+02  0.92807384429E+02  0.00000000000E+00 0.  1.
</event>
<event>
 7    1  0.5676357E-006  0.5950104E+02  0.7818608E-02  0.1505478E+00
          2   -1    0    0  502    0  0.00000000000E+00  0.00000000000E+00  0.99472349675E+03  0.99472349675E+03  0.00000000000E+00 0. -1.
          1   -1    0    0  501    0 -0.00000000000E+00 -0.00000000000E+00 -0.16936384956E+04  0.16936384956E+04  0.00000000000E+00 0. -1.
         25    2    1    2    0    0  0.67805803838E+02 -0.17762175588E+01  0.66873080342E+03  0.68368549490E+03  0.12499674600E+03 0.  0.
          2    1    1    2  501    0 -0.15265969147E+02 -0.22747509452E+02 -0.16834100929E+04  0.16836329885E+04  0.00000000000E+00 0. -1.
          1    1    1    2  502    0 -0.52539834691E+02  0.24523727011E+02  0.31576429063E+03  0.32104350897E+03  0.00000000000E+00 0. -1.
         22    1    3    3    0    0  0.13057205462E+02 -0.31167988675E+02  0.42115919437E+02  0.53997081426E+02  0.00000000000E+00 0. -1.
         22    1    3    3    0    0  0.54748598376E+02  0.29391771116E+02  0.62661488399E+03  0.62968841348E+03  0.00000000000E+00 0. -1.
</event>
<event>
 7    1  0.5676357E-006  0.1121216E+03  0.7818608E-02  0.1275178E+00
          2   -1    0    0  502    0  0.00000000000E+00  0.00000000000E+00  0.26542967829E+04  0.26542967829E+04  0.00000000000E+00 0. -1.
          1   -1    0    0  501    0 -0.00000000000E+00 -0.00000000000E+00 -0.44916111278E+02  0.44916111278E+02  0.00000000000E+00 0. -1.
         25    2    1    2    0    0 -0.82982756794E+02  0.19374787743E+02  0.42067874158E+03  0.44705030540E+03  0.12498740581E+03 0.  0.
          2    1    1    2  501    0  0.10546387762E+03  0.71543527636E+02  0.10166202279E+03  0.16302230739E+03  0.00000000000E+00 0. -1.
          1    1    1    2  502    0 -0.22481120828E+02 -0.90918315379E+02  0.20870399073E+04  0.20891402814E+04  0.00000000000E+00 0. -1.
         22    1    3    3    0    0 -0.61967776506E+02 -0.59156332344E+01  0.40650474016E+03  0.41124336325E+03  0.00000000000E+00 0. -1.
         22    1    3    3    0    0 -0.21014980287E+02  0.25290420978E+02  0.14174001418E+02  0.35806942147E+02  0.00000000000E+00 0. -1.
</event>
<event>
 7    1  0.5676357E-006  0.1930991E+03  0.7818608E-02  0.1271541E+00
          2   -1    0    0  502    0  0.00000000000E+00  0.00000000000E+00  0.14130632017E+04  0.14130632017E+04  0.00000000000E+00 0. -1.
          1   -1    0    0  501    0 -0.00000000000E+00 -0.00000000000E+00 -0.10616064417E+04  0.10616064417E+04  0.00000000000E+00 0. -1.
         25    2    1    2    0    0  0.86865033236E+02 -0.12948394988E+03 -0.49710399278E+02  0.20593034198E+03  0.12499821869E+03 0.  0.
          2    1    1    2  501    0 -0.17975508943E+02 -0.53371045687E+02 -0.92577542338E+03  0.92748677725E+03  0.00000000000E+00 0. -1.
          1    1    1    2  502    0 -0.68889524293E+02  0.18285499557E+03  0.13269425827E+04  0.13412525242E+04  0.00000000000E+00 0. -1.
         22    1    3    3    0    0  0.10311688249E+03 -0.57436017583E+02 -0.58170032784E+02  0.13158928635E+03  0.00000000000E+00 0.  1.
         22    1    3    3    0    0 -0.16251849249E+02 -0.72047932300E+02  0.84596335059E+01  0.74341055628E+02  0.00000000000E+00 0.  1.
</event>
<event>
 7    1  0.5676357E-006  0.1762172E+03  0.7818608E-02  0.1295598E+00
          2   -1    0    0  502    0  0.00000000000E+00  0.00000000000E+00  0.56894699955E+03  0.56894699955E+03  0.00000000000E+00 0. -1.
          1   -1    0    0  501    0 -0.00000000000E+00 -0.00000000000E+00 -0.95206167050E+03  0.95206167050E+03  0.00000000000E+00 0. -1.
         25    2    1    2    0    0 -0.15572529610E+03 -0.12246023121E+03  0.36636667894E+02  0.23709402385E+03  0.12499781855E+03 0.  0.
          2    1    1    2  501    0  0.47476843688E+02 -0.12709217137E+02 -0.83372900104E+03  0.83517640177E+03  0.00000000000E+00 0. -1.
          1    1    1    2  502    0  0.10824845241E+03  0.13516944834E+03  0.41397766220E+03  0.44873824443E+03  0.00000000000E+00 0. -1.
         22    1    3    3    0    0 -0.10522664881E+03 -0.13380274324E+03 -0.55633257274E+01  0.17031374669E+03  0.00000000000E+00 0. -1.
         22    1    3    3    0    0 -0.50498647285E+02  0.11342512029E+02  0.42199993621E+02  0.66780277166E+02  0.00000000000E+00 0. -1.
</event>
<event>
 7    1  0.5676357E-006  0.3016374E+02  0.7818608E-02  0.1662341E+00
          2   -1    0    0  502    0  0.00000000000E+00  0.00000000000E+00  0.23130386942E+04  0.23130386942E+04  0.00000000000E+00 0. -1.
          1   -1    0    0  501    0 -0.00000000000E+00 -0.00000000000E+00 -0.21092344754E+03  0.21092344754E+03  0.00000000000E+00 0. -1.
         25    2    1    2    0    0 -0.69972741019E+01 -0.11119126676E+02  0.17903588296E+03  0.21875032172E+03  0.12500103617E+03 0.  0.
          2    1    1    2  501    0  0.75137480909E+01 -0.19144773943E+02 -0.19040410231E+03  0.19151162095E+03  0.00000000000E+00 0. -1.
          1    1    1    2  502    0 -0.51647398902E+00  0.30263900620E+02  0.21134834660E+04  0.21137001991E+04  0.00000000000E+00 0. -1.
         22    1    3    3    0    0  0.54905359621E+01 -0.66616436888E+02  0.11568983136E+03  0.13361149924E+03  0.00000000000E+00 0.  1.
         22    1    3    3    0    0 -0.12487810064E+02  0.55497310211E+02  0.63346051598E+02  0.85138822484E+02  0.00000000000E+00 0.  1.
</event>
<event>
 7    1  0.5676357E-006  0.1560964E+03  0.7818608E-02  0.1260955E+00
          2   -1    0    0  502    0  0.00000000000E+00  0.00000000000E+00  0.15735604279E+04  0.15735604279E+04  0.00000000000E+00 0. -1.
          1   -1    0    0  501    0 -0.00000000000E+00 -0.00000000000E+00 -0.11041051402E+04  0.11041051402E+04  0.00000000000E+00 0. -1.
         25    2    1    2    0    0  0.54812505780E+02 -0.17145679961E+03  0.11939212758E+03  0.24956545815E+03  0.12500637125E+03 0.  0.
          2    1    1    2  501    0 -0.10635053634E+03  0.11394786661E+03 -0.10320890395E+04  0.10437922870E+04  0.00000000000E+00 0. -1.
          1    1    1    2  502    0  0.51538030564E+02  0.57508933002E+02  0.13821521996E+04  0.13843078230E+04  0.00000000000E+00 0. -1.
         22    1    3    3    0    0  0.69023555888E+02 -0.54738461568E+02  0.94625198227E+01  0.88600732071E+02  0.00000000000E+00 0. -1.
         22    1    3    3    0    0 -0.14211050107E+02 -0.11671833804E+03  0.10992960776E+03  0.16096472608E+03  0.00000000000E+00 0. -1.
</event>
<event>
 7    1  0.5676357E-006  0.4076921E+02  0.7818608E-02  0.1599608E+00
          2   -1    0    0  502    0  0.00000000000E+00  0.00000000000E+00  0.58057493984E+03  0.58057493984E+03  0.00000000000E+00 0. -1.
          1   -1    0    0  501    0 -0.00000000000E+00 -0.00000000000E+00 -0.23365373668E+02  0.23365373668E+02  0.00000000000E+00 0. -1.
         25    2    1    2    0    0 -0.21494841482E+02  0.53181930541E+00  0.27974208981E+03  0.30714876001E+03  0.12498965128E+03 0.  0.
          2    1    1    2  501    0 -0.21593877303E+02 -0.34916997496E+01  0.71025182681E+01  0.22998549300E+02  0.00000000000E+00 0. -1.
          1    1    1    2  502    0  0.43088718785E+02  0.29598804442E+01  0.27036495810E+03  0.27379300420E+03  0.00000000000E+00 0. -1.
         22    1    3    3    0    0 -0.56950500923E+02 -0.38067355644E+02  0.11082090642E+03  0.13028336970E+03  0.00000000000E+00 0.  1.
         22    1    3    3    0    0  0.35455659442E+02  0.38599174949E+02  0.16892118339E+03  0.17686539031E+03  0.00000000000E+00 0.  1.
</event>
<event>
 7    1  0.5676357E-006  0.1599469E+03  0.7818608E-02  0.1295862E+00
          2   -1    0    0  502    0  0.00000000000E+00  0.00000000000E+00  0.36001500198E+03  0.36001500198E+03  0.00000000000E+00 0. -1.
          1   -1    0    0  501    0 -0.00000000000E+00 -0.00000000000E+00 -0.89886763423E+03  0.89886763423E+03  0.00000000000E+00 0. -1.
         25    2    1    2    0    0  0.11545474949E+03  0.24845473120E+02  0.28970325965E+02  0.17439023963E+03  0.12500231669E+03 0.  0.
          2    1    1    2  501    0 -0.16348552195E+03 -0.13280234828E+00 -0.81512600746E+03  0.83135909302E+03  0.00000000000E+00 0. -1.
          1    1    1    2  502    0  0.48030772458E+02 -0.24712670772E+02  0.24730304924E+03  0.25313330354E+03  0.00000000000E+00 0. -1.
         22    1    3    3    0    0  0.41272728812E+02 -0.38037197197E+02  0.49686458237E+02  0.74960060341E+02  0.00000000000E+00 0.  1.
         22    1    3    3    0    0  0.74182020676E+02  0.62882670317E+02 -0.20716132272E+02  0.99430179292E+02  0.00000000000E+00 0.  1.
</event>
<event>
 7    1  0.5676357E-006  0.4129700E+02  0.7818608E-02  0.1507592E+00
          2   -1    0    0  502    0  0.00000000000E+00  0.00000000000E+00  0.34152573466E+04  0.34152573466E+04  0.00000000000E+00 0. -1.
          1   -1    0    0  501    0 -0.00000000000E+00 -0.00000000000E+00 -0.12924908949E+04  0.12924908949E+04  0.00000000000E+00 0. -1.
         25    2    1    2    0    0  0.30972669868E+02 -0.26392849249E+02  0.29150794930E+04  0.29180421936E+04  0.12500361725E+03 0.  0.
          2    1    1    2  501    0 -0.39656134781E+02 -0.11533008664E+02 -0.12899196941E+04  0.12905806586E+04  0.00000000000E+00 0. -1.
          1    1    1    2  502    0  0.86834649126E+01  0.37925857913E+02  0.49760665286E+03  0.49912538929E+03  0.00000000000E+00 0. -1.
         22    1    3    3    0    0  0.39631876816E+02  0.28915374966E+02  0.52013344479E+03  0.52244194410E+03  0.00000000000E+00 0.  1.
         22    1    3    3    0    0 -0.86592069473E+01 -0.55308224214E+02  0.23949460482E+04  0.23956002495E+04  0.00000000000E+00 0.  1.
</event>
<event>
 7    1  0.5676357E-006  0.1035805E+03  0.7818608E-02  0.1308934E+00
          2   -1    0    0  502    0  0.00000000000E+00  0.00000000000E+00  0.15322437698E+03  0.15322437698E+03  0.00000000000E+00 0. -1.
          1   -1    0    0  501    0 -0.00000000000E+00 -0.00000000000E+00 -0.16399494714E+04  0.16399494714E+04  0.00000000000E+00 0. -1.
         25    2    1    2    0    0 -0.31129416633E+01 -0.30414099316E+02 -0.88676375827E+03  0.89605224527E+03  0.12499982168E+03 0.  0.
          2    1    1    2  501    0 -0.35903016076E+02  0.12636551533E+03 -0.72382884894E+03  0.73565309256E+03  0.00000000000E+00 0. -1.
          1    1    1    2  502    0  0.39015957739E+02 -0.95951416016E+02  0.12386751276E+03  0.16146851059E+03  0.00000000000E+00 0. -1.
         22    1    3    3    0    0 -0.47279631120E+02  0.28282216939E+02 -0.35993398306E+03  0.36412596650E+03  0.00000000000E+00 0. -1.
         22    1    3    3    0    0  0.44166689456E+02 -0.58696316254E+02 -0.52682977521E+03  0.53192627877E+03  0.00000000000E+00 0. -1.
</event>
<event>
 7    1  0.5676357E-006  0.1126374E+03  0.7818608E-02  0.1335095E+00
          2   -1    0    0  502    0  0.00000000000E+00  0.00000000000E+00  0.15981506367E+04  0.15981506367E+04  0.00000000000E+00 0. -1.
          1   -1    0    0  501    0 -0.00000000000E+00 -0.00000000000E+00 -0.25026270691E+03  0.25026270691E+03  0.00000000000E+00 0. -1.
         25    2    1    2    0    0 -0.14090034638E+03 -0.18438025983E+01  0.50620811202E+03  0.54011729869E+03  0.12499494568E+03 0.  0.
          2    1    1    2  501    0  0.10424101928E+03  0.41339219254E+02 -0.21910979125E+03  0.24613862308E+03  0.00000000000E+00 0. -1.
          1    1    1    2  502    0  0.36659327092E+02 -0.39495416655E+02  0.10607896090E+04  0.10621574218E+04  0.00000000000E+00 0. -1.
         22    1    3    3    0    0 -0.60114196765E+01  0.32082429354E+00 -0.71397021332E+01  0.93389207784E+01  0.00000000000E+00 0.  1.
         22    1    3    3    0    0 -0.13488892670E+03 -0.21646268919E+01  0.51334781416E+03  0.53077837791E+03  0.00000000000E+00 0.  1.
</event>
<event>
 7    1  0.5676357E-006  0.5738601E+02  0.7818608E-02  0.1463986E+00
          2   -1    0    0  502    0  0.00000000000E+00  0.00000000000E+00  0.23721741753E+03  0.23721741753E+03  0.00000000000E+00 0. -1.
          1   -1    0    0  501    0 -0.00000000000E+00 -0.00000000000E+00 -0.11857809278E+03  0.11857809278E+03  0.00000000000E+00 0. -1.
         25    2    1    2    0    0 -0.62387304170E+02 -0.61237729235E+02  0.67758517455E+02  0.16691134024E+03  0.12500377438E+03 0.  0.
          2    1    1    2  501    0  0.15536639181E+02  0.34686906213E+02 -0.56884201418E+02  0.68413310040E+02  0.00000000000E+00 0. -1.
          1    1    1    2  502    0  0.46850664990E+02  0.26550823022E+02  0.10776500872E+03  0.12047086003E+03  0.00000000000E+00 0. -1.
         22    1    3    3    0    0  0.30503806316E+02 -0.57835171419E+01 -0.11169295517E+02  0.32995218330E+02  0.00000000000E+00 0.  1.
         22    1    3    3    0    0 -0.92891110487E+02 -0.55454212093E+02  0.78927812971E+02  0.13391612191E+03  0.00000000000E+00 0.  1.
</event>
<event>
 7    1  0.5676357E-006  0.1891536E+03  0.7818608E-02  0.1215162E+00
          2   -1    0    0  502    0  0.00000000000E+00  0.00000000000E+00  0.17866965382E+04  0.17866965382E+04  0.00000000000E+00 0. -1.
          1   -1    0    0  501    0 -0.00000000000E+00 -0.00000000000E+00 -0.66271210882E+02  0.66271210882E+02  0.00000000000E+00 0. -1.
         25    2    1    2    0    0 -0.94071361182E+02  0.38792161287E+02  0.11749026988E+04  0.11859071348E+04  0.12500051217E+03 0.  0.
          2    1    1    2  501    0  0.19117293821E+03 -0.68775633861E+02  0.13448432235E+03  0.24364567116E+03  0.00000000000E+00 0. -1.
          1    1    1    2  502    0 -0.97101577030E+02  0.29983472574E+02  0.41103830618E+03  0.42341494309E+03  0.00000000000E+00 0. -1.
         22    1    3    3    0    0 -0.40075405420E+02  0.19182284036E+02  0.10154551112E+04  0.10164266235E+04  0.00000000000E+00 0.  1.
         22    1    3    3    0    0 -0.53995955761E+02  0.19609877251E+02  0.15944758757E+03  0.16948051128E+03  0.00000000000E+00 0.  1.
</event>
<event>
 7    1  0.5676357E-006  0.7268403E+02  0.7818608E-02  0.1480526E+00
          2   -1    0    0  502    0  0.00000000000E+00  0.00000000000E+00  0.25873265509E+03  0.25873265509E+03  0.00000000000E+00 0. -1.
          1   -1    0    0  501    0 -0.00000000000E+00 -0.00000000000E+00 -0.14851153255E+04  0.14851153255E+04  0.00000000000E+00 0. -1.
         25    2    1    2    0    0  0.81331768535E+02  0.54869005723E+02 -0.31062187845E+03  0.34890740649E+03  0.12499985027E+03 0.  0.
          2    1    1    2  501    0 -0.24760321416E+02 -0.98979398211E+01 -0.11497429250E+04  0.11500521016E+04  0.00000000000E+00 0. -1.
          1    1    1    2  502    0 -0.56571447119E+02 -0.44971065902E+02  0.23398213305E+03  0.24488847254E+03  0.00000000000E+00 0. -1.
         22    1    3    3    0    0  0.12704139555E+02 -0.35574134098E+02 -0.13165274632E+03  0.13696481225E+03  0.00000000000E+00 0. -1.
         22    1    3    3    0    0  0.68627628980E+02  0.90443139821E+02 -0.17896913213E+03  0.21194259424E+03  0.00000000000E+00 0. -1.
</event>
<event>
 7    1  0.5676357E-006  0.9139035E+02  0.7818608E-02  0.1392061E+00
          2   -1    0    0  502    0  0.00000000000E+00  0.00000000000E+00  0.48704523450E+03  0.48704523450E+03  0.00000000000E+00 0. -1.
          1   -1    0    0  501    0 -0.00000000000E+00 -0.00000000000E+00 -0.23247266007E+03  0.23247266007E+03  0.00000000000E+00 0. -1.
         25    2    1    2    0    0  0.51649669152E+02  0.24372508935E+02  0.45411524534E+02  0.14472452772E+03  0.12498509851E+03 0.  0.
          2    1    1    2  501    0  0.24817588050E+02  0.32945455487E+02 -0.17455193420E+03  0.17935911866E+03  0.00000000000E+00 0. -1.
          1    1    1    2  502    0 -0.76467257202E+02 -0.57317964422E+02  0.38371298410E+03  0.39543424819E+03  0.00000000000E+00 0. -1.
         22    1    3    3    0    0  0.20034335985E+02  0.53519863552E+02 -0.24876178064E+02  0.62326355967E+02  0.00000000000E+00 0.  1.
         22    1    3    3    0    0  0.31615333167E+02 -0.29147354617E+02  0.70287702599E+02  0.82398171758E+02  0.00000000000E+00 0.  1.
</event>
<event>
 7    1  0.5676357E-006  0.1691194E+03  0.7818608E-02  0.1280766E+00
          2   -1    0    0  502    0  0.00000000000E+00  0.00000000000E+00  0.20076406226E+04  0.20076406226E+04  0.00000000000E+00 0. -1.
          1   -1    0    0  501    0 -0.00000000000E+00 -0.00000000000E+00 -0.87211900075E+03  0.87211900075E+03  0.00000000000E+00 0. -1.
         25    2    1    2    0    0  0.71076926309E+01  0.20913364354E+03  0.86955713185E+03  0.90307379627E+03  0.12500110321E+03 0.  0.
          2    1    1    2  501    0 -0.43713658058E+02 -0.16303361916E+03 -0.84624758492E+03  0.86291704113E+03  0.00000000000E+00 0. -1.
          1    1    1    2  502    0  0.36605965427E+02 -0.46100024380E+02  0.11122120750E+04  0.11137687860E+04  0.00000000000E+00 0. -1.
         22    1    3    3    0    0 -0.18459550326E+02 -0.10839922047E+02  0.57271878840E+02  0.61141859753E+02  0.00000000000E+00 0. -1.
         22    1    3    3    0    0  0.25567242957E+02  0.21997356559E+03  0.81228525301E+03  0.84193193652E+03  0.00000000000E+00 0. -1.
</event>
<event>
 7    1  0.5676357E-006  0.5541975E+02  0.7818608E-02  0.1459268E+00
          2   -1    0    0  502    0  0.00000000000E+00  0.00000000000E+00  0.14108142553E+03  0.14108142553E+03  0.00000000000E+00 0. -1.
          1   -1    0    0  501    0 -0.00000000000E+00 -0.00000000000E+00 -0.61523989470E+03  0.61523989470E+03  0.00000000000E+00 0. -1.
         25    2    1    2    0    0 -0.44929024485E+01  0.91841010795E+02 -0.17499604909E+03  0.23388780409E+03  0.12499972107E+03 0.  0.
          2    1    1    2  501    0  0.12363431795E+02 -0.51883869167E+02 -0.40527746671E+03  0.40877208240E+03  0.00000000000E+00 0. -1.
          1    1    1    2  502    0 -0.78705293464E+01 -0.39957141628E+02  0.10611504663E+03  0.11366143374E+03  0.00000000000E+00 0. -1.
         22    1    3    3    0    0 -0.45480896947E+02 -0.88659010375E+01 -0.56400088896E+02  0.72993740936E+02  0.00000000000E+00 0. -1.
         22    1    3    3    0    0  0.40987994499E+02  0.10070691183E+03 -0.11859596019E+03  0.16089406315E+03  0.00000000000E+00 0. -1.
</event>
<event>
 7    1  0.5676357E-006  0.1237916E+03  0.7818608E-02  0.1239624E+00
          2   -1    0    0  502    0  0.00000000000E+00  0.00000000000E+00  0.16153850598E+04  0.16153850598E+04  0.00000000000E+00 0. -1.
          1   -1    0    0  501    0 -0.00000000000E+00 -0.00000000000E+00 -0.66250332227E+03  0.66250332227E+03  0.00000000000E+00 0. -1.
         25    2    1    2    0    0 -0.80127553605E+01  0.12973055651E+02  0.84929089006E+02  0.15188799409E+03  0.12499803266E+03 0.  0.
          2    1    1    2  501    0 -0.12174962699E+03 -0.22391480053E+02 -0.62006727115E+03  0.63230354325E+03  0.00000000000E+00 0. -1.
          1    1    1    2  502    0  0.12976238235E+03  0.94184244014E+01  0.14880199197E+04  0.14936968447E+04  0.00000000000E+00 0. -1.
         22    1    3    3    0    0  0.53334862491E+02 -0.18100921456E+02  0.46974835443E+02  0.73340889546E+02  0.00000000000E+00 0. -1.
         22    1    3    3    0    0 -0.61347617852E+02  0.31073977107E+02  0.37954253562E+02  0.78547104548E+02  0.00000000000E+00 0. -1.
</event>
<event>
 7    1  0.5676357E-006  0.8390711E+02  0.7818608E-02  0.1377902E+00
          2   -1    0    0  502    0  0.00000000000E+00  0.00000000000E+00  0.92334336396E+03  0.92334336396E+03  0.00000000000E+00 0. -1.
          1   -1    0    0  501    0 -0.00000000000E+00 -0.00000000000E+00 -0.37517951242E+03  0.37517951242E+03  0.00000000000E+00 0. -1.
         25    2    1    2    0    0 -0.40456838505E+02 -0.27029726732E+02  0.18480579223E+03  0.22835453064E+03  0.12500099565E+03 0.  0.
          2    1    1    2  501    0 -0.47835477834E+02  0.15814843850E+02 -0.34882545832E+03  0.35244509161E+03  0.00000000000E+00 0. -1.
          1    1    1    2  502    0  0.88292316339E+02  0.11214882882E+02  0.71218351764E+03  0.71772325413E+03  0.00000000000E+00 0. -1.
         22    1    3    3    0    0  0.15450828035E+02  0.40987406075E+02  0.42621092203E+02  0.61116716570E+02  0.00000000000E+00 0.  1.
         22    1    3    3    0    0 -0.55907666540E+02 -0.68017132807E+02  0.14218470002E+03  0.16723781407E+03  0.00000000000E+00 0.  1.
</event>
<event>
 7    1  0.5676357E-006  0.1623266E+03  0.7818608E-02  0.1277893E+00
          2   -1    0    0  502    0  0.00000000000E+00  0.00000000000E+00  0.13522039319E+04  0.13522039319E+04  0.00000000000E+00 0. -1.
          1   -1    0    0  501    0 -0.00000000000E+00 -0.00000000000E+00 -0.10567645781E+04  0.10567645781E+04  0.00000000000E+00 0. -1.
         25    2    1    2    0    0 -0.15311079041E+03  0.56596303469E+02  0.19015065593E+03  0.28004577683E+03  0.12498923740E+03 0.  0.
          2    1    1    2  501    0  0.11973063935E+03 -0.11006264435E+03 -0.10043818199E+04  0.10174635383E+04  0.00000000000E+00 0. -1.
          1    1    1    2  502    0  0.33380151056E+02  0.53466340881E+02  0.11096705177E+04  0.11114591949E+04  0.00000000000E+00 0. -1.
         22    1    3    3    0    0 -0.13755714603E+03  0.35223730476E+02  0.20526821120E+03  0.24959510841E+03  0.00000000000E+00 0. -1.
         22    1    3    3    0    0 -0.15553644377E+02  0.21372572994E+02 -0.15117555275E+02  0.30450668421E+02  0.00000000000E+00 0. -1.
</event>
<event>
 7    1  0.5676357E-006  0.1271349E+03  0.7818608E-02  0.1341502E+00
          2   -1    0    0  502    0  0.00000000000E+00  0.00000000000E+00  0.17152983152E+03  0.17152983152E+03  0.00000000000E+00 0. -1.
          1   -1    0    0  501    0 -0.00000000000E+00 -0.00000000000E+00 -0.10745348051E+04  0.10745348051E+04  0.00000000000E+00 0. -1.
         25    2    1    2    0    0  0.13521072085E+03 -0.80969292829E+02 -0.16617644291E+03  0.26091638029E+03  0.12499912764E+03 0.  0.
          2    1    1    2  501    0 -0.18656942876E+02  0.41123786922E+02 -0.82967231444E+03  0.83090035306E+03  0.00000000000E+00 0. -1.
          1    1    1    2  502    0 -0.11655377798E+03  0.39845505907E+02  0.92843783722E+02  0.15424790332E+03  0.00000000000E+00 0. -1.
         22    1    3    3    0    0  0.12069370209E+03 -0.51899676598E+02 -0.50479790158E+02  0.14074358021E+03  0.00000000000E+00 0. -1.
         22    1    3    3    0    0  0.14517018765E+02 -0.29069616231E+02 -0.11569665275E+03  0.12017280008E+03  0.00000000000E+00 0. -1.
</event>
<event>
 7    1  0.5676357E-006  0.5457957E+02  0.7818608E-02  0.1537718E+00
          2   -1    0    0  502    0  0.00000000000E+00  0.00000000000E+00  0.10556889820E+04  0.10556889820E+04  0.00000000000E+00 0. -1.
          1   -1    0    0  501    0 -0.00000000000E+00 -0.00000000000E+00 -0.16870990702E+03  0.16870990702E+03  0.00000000000E+00 0. -1.
         25    2    1    2    0    0 -0.42048756554E+02  0.32314863606E+02  0.20512403555E+02  0.13732776744E+03  0.12500323465E+03 0.  0.
          2    1    1    2  501    0  0.24879436847E+02 -0.49205111070E+02 -0.10325289689E+03  0.11705250980E+03  0.00000000000E+00 0. -1.
          1    1    1    2  502    0  0.17169319708E+02  0.16890247464E+02  0.96971956836E+03  0.97001861181E+03  0.00000000000E+00 0. -1.
         22    1    3    3    0    0 -0.16868263450E+02  0.57346686577E+02 -0.36590858721E+02  0.70086173495E+02  0.00000000000E+00 0. -1.
         22    1    3    3    0    0 -0.25180493104E+02 -0.25031822971E+02  0.57103262276E+02  0.67241593949E+02  0.00000000000E+00 0. -1.
</event>
<event>
 7    1  0.5676357E-006  0.1976352E+03  0.7818608E-02  0.1319411E+00
          2   -1    0    0  502    0  0.00000000000E+00  0.00000000000E+00  0.24132962847E+04  0.24132962847E+04  0.00000000000E+00 0. -1.
          1   -1    0    0  501    0 -0.00000000000E+00 -0.00000000000E+00 -0.92169573168E+02  0.92169573168E+02  0.00000000000E+00 0. -1.
         25    2    1    2    0    0 -0.16721841323E+03  0.11084880480E+03  0.22081471728E+03  0.32347076888E+03  0.12499897482E+03 0.  0.
          2    1    1    2  501    0  0.18029082961E+03 -0.78084750188E+02  0.19656230063E+03  0.27791860226E+03  0.00000000000E+00 0. -1.
          1    1    1    2  502    0 -0.13072416386E+02 -0.32764054612E+02  0.19037496936E+04  0.19040764867E+04  0.00000000000E+00 0. -1.
         22    1    3    3    0    0 -0.30845135090E+02  0.43675642541E+02 -0.22657358622E+01  0.53517452005E+02  0.00000000000E+00 0. -1.
         22    1    3    3    0    0 -0.13637327814E+03  0.67173162258E+02  0.22308045314E+03  0.26995331688E+03  0.00000000000E+00 0. -1.
</event>
<event>
 7    1  0.5676357E-006  0.8930652E+02  0.7818608E-02  0.1403481E+00
          2   -1    0    0  502    0  0.00000000000E+00  0.00000000000E+00  0.45628353386E+03  0.45628353386E+03  0.00000000000E+00 0. -1.
          1   -1    0    0  501    0 -0.00000000000E+00 -0.00000000000E+00 -0.12135196301E+03  0.12135196301E+03  0.00000000000E+00 0. -1.
         25    2    1    2    0    0  0.11172180849E+03 -0.41126920810E+02  0.10905218253E+03  0.20420210155E+03  0.12503173059E+03 0.  0.
          2    1    1    2  501    0 -0.73211633230E+02  0.42851303187E+02 -0.47585147159E+02  0.97265223256E+02  0.00000000000E+00 0. -1.
          1    1    1    2  502    0 -0.38510175262E+02 -0.17243823770E+01  0.27346453548E+03  0.27616817206E+03  0.00000000000E+00 0. -1.
         22    1    3    3    0    0  0.63886551434E+01  0.33839721902E+02 -0.95008573924E+00  0.34450607482E+02  0.00000000000E+00 0.  1.
         22    1    3    3    0    0  0.10533315335E+03 -0.74966642712E+02  0.11000226827E+03  0.16975149407E+03  0.00000000000E+00 0.  1.
</event>
<event>
 7    1  0.5676357E-006  0.4416851E+02  0.7818608E-02  0.1490335E+00
          2   -1    0    0  502    0  0.00000000000E+00  0.00000000000E+00  0.26365980359E+04  0.26365980359E+04  0.00000000000E+00 0. -1.
          1   -1    0    0  501    0 -0.00000000000E+00 -0.00000000000E+00 -0.43070342237E+03  0.43070342237E+03  0.00000000000E+00 0. -1.
         25    2    1    2    0    0 -0.89499087911E+01  0.73246478047E+02  0.84452439964E+02  0.16793099574E+03  0.12499382906E+03 0.  0.
          2    1    1    2  501    0  0.25214616716E+02 -0.32284788331E+02 -0.38769152967E+03  0.38984972314E+03  0.00000000000E+00 0. -1.
          1    1    1    2  502    0 -0.16264707925E+02 -0.40961689716E+02  0.25091337032E+04  0.25095207394E+04  0.00000000000E+00 0. -1.
         22    1    3    3    0    0 -0.55675193565E+02  0.65410450850E+02  0.20444312193E+02  0.88296229591E+02  0.00000000000E+00 0.  1.
         22    1    3    3    0    0  0.46725284774E+02  0.78360271966E+01  0.64008127771E+02  0.79634766153E+02  0.00000000000E+00 0.  1.
</event>
<event>
 7    1  0.5676357E-006  0.6335353E+02  0.7818608E-02  0.1402947E+00
          2   -1    0    0  502    0  0.00000000000E+00  0.00000000000E+00  0.92013282395E+03  0.92013282395E+03  0.00000000000E+00 0. -1.
          1   -1    0    0  501    0 -0.00000000000E+00 -0.00000000000E+00 -0.19738742024E+03  0.19738742024E+03  0.00000000000E+00 0. -1.
         25    2    1    2    0    0 -0.59492211130E+02  0.83605365513E+02 -0.58717062485E+02  0.17205032797E+03  0.12499776638E+03 0.  0.
          2    1    1    2  501    0  0.50277858903E+02 -0.21213256077E+02 -0.71630476020E+02  0.90048822447E+02  0.00000000000E+00 0. -1.
          1    1    1    2  502    0  0.92143522270E+01 -0.62392109436E+02  0.85309294222E+03  0.85542109377E+03  0.00000000000E+00 0. -1.
         22    1    3    3    0    0  0.74129044047E+01  0.72911276711E+02 -0.72299793531E+02  0.10294787792E+03  0.00000000000E+00 0.  1.
         22    1    3    3    0    0 -0.66905115535E+02  0.10694088802E+02  0.13582731046E+02  0.69102450049E+02  0.00000000000E+00 0.  1.
</event>
<event>
 7    1  0.5676357E-006  0.1267846E+03  0.7818608E-02  0.1344813E+00
          2   -1    0    0  502    0  0.00000000000E+00  0.00000000000E+00  0.18250525208E+03  0.18250525208E+03  0.00000000000E+00 0. -1.
          1   -1    0    0  501    0 -0.00000000000E+00 -0.00000000000E+00 -0.19995457590E+04  0.19995457590E+04  0.00000000000E+00 0. -1.
         25    2    1    2    0    0  0.12277367400E+03 -0.22645368731E+02 -0.14301555614E+04  0.14410261979E+04  0.12500154220E+03 0.  0.
          2    1    1    2  501    0 -0.13241423284E+03 -0.20294127028E+02 -0.55309538408E+03  0.56908688664E+03  0.00000000000E+00 0. -1.
          1    1    1    2  502    0  0.96405588391E+01  0.42939495759E+02  0.16621043858E+03  0.17193792649E+03  0.00000000000E+00 0. -1.
         22    1    3    3    0    0  0.11719416852E+03 -0.63777708540E+02 -0.11694720566E+04  0.11770586054E+04  0.00000000000E+00 0.  1.
         22    1    3    3    0    0  0.55795054811E+01  0.41132339809E+02 -0.26068350477E+03  0.26396759255E+03  0.00000000000E+00 0.  1.
</event>
<event>
 7    1  0.5676357E-006  0.6959440E+02  0.7818608E-02  0.1374808E+00
          2   -1    0    0  502    0  0.00000000000E+00  0.00000000000E+00  0.38496014030E+04  0.38496014030E+04  0.00000000000E+00 0. -1.
          1   -1    0    0  501    0 -0.00000000000E+00 -0.00000000000E+00 -0.86822645684E+03  0.86822645684E+03  0.00000000000E+00 0. -1.
         25    2    1    2    0    0  0.34397400431E+02 -0.23351532206E+02  0.79837969011E+02  0.15403592357E+03  0.12499795695E+03 0.  0.
          2    1    1    2  501    0  0.70490835416E+01  0.69870293424E+02 -0.82938353203E+03  0.83235124237E+03  0.00000000000E+00 0. -1.
          1    1    1    2  502    0 -0.41446483973E+02 -0.46518761217E+02  0.37309205092E+04  0.37314406939E+04  0.00000000000E+00 0. -1.
         22    1    3    3    0    0  0.23299494941E+02 -0.66094127868E+02  0.91326209558E+01  0.70673226675E+02  0.00000000000E+00 0.  1.
         22    1    3    3    0    0  0.11097905490E+02  0.42742595662E+02  0.70705348055E+02  0.83362696896E+02  0.00000000000E+00 0.  1.
</event>
<event>
 7    1  0.5676357E-006  0.1099383E+03  0.7818608E-02  0.1294496E+00
          2   -1    0    0  502    0  0.00000000000E+00  0.00000000000E+00  0.20039090395E+04  0.20039090395E+04  0.00000000000E+00 0. -1.
          1   -1    0    0  501    0 -0.00000000000E+00 -0.00000000000E+00 -0.88788856575E+03  0.88788856575E+03  0.00000000000E+00 0. -1.
         25    2    1    2    0    0  0.71586883713E+02 -0.69873113425E+02  0.27477428539E+03  0.31801239424E+03  0.12499616426E+03 0.  0.
          2    1    1    2  501    0  0.41406972742E+02  0.67970194522E+02 -0.86256559541E+03  0.86622969882E+03  0.00000000000E+00 0. -1.
          1    1    1    2  502    0 -0.11299385646E+03  0.19029189034E+01  0.17038117837E+04  0.17075555122E+04  0.00000000000E+00 0. -1.
         22    1    3    3    0    0 -0.49377863621E+01  0.29226269001E+02  0.25665953071E+02  0.39208387890E+02  0.00000000000E+00 0. -1.
         22    1    3    3    0    0  0.76524670075E+02 -0.99099382426E+02  0.24910833232E+03  0.27880400635E+03  0.00000000000E+00 0. -1.
</event>
<event>
 7    1  0.5676357E-006  0.7938890E+02  0.7818608E-02  0.1482739E+00
          2   -1    0    0  502    0  0.00000000000E+00  0.00000000000E+00  0.19338298642E+04  0.19338298642E+04  0.00000000000E+00 0. -1.
          1   -1    0    0  501    0 -0.00000000000E+00 -0.00000000000E+00 -0.29054964256E+03  0.29054964256E+03  0.00000000000E+00 0. -1.
         25    2    1    2    0    0 -0.98534710795E+02 -0.13761303558E+02  0.59501347787E+03  0.61608792708E+03  0.12499932938E+03 0.  0.
          2    1    1    2  501    0  0.79210688170E+02 -0.53142254592E+00 -0.27429895412E+03  0.28550749861E+03  0.00000000000E+00 0. -1.
          1    1    1    2  502    0  0.19324022625E+02  0.14292726104E+02  0.13225656979E+04  0.13227840811E+04  0.00000000000E+00 0. -1.
         22    1    3    3    0    0 -0.97218350266E+02 -0.49142314986E+02  0.53844087883E+03  0.54934957427E+03  0.00000000000E+00 0. -1.
         22    1    3    3    0    0 -0.13163605288E+01  0.35381011428E+02  0.56572599040E+02  0.66738352818E+02  0.00000000000E+00 0. -1.
</event>
<event>
 7    1  0.5676357E-006  0.7210271E+02  0.7818608E-02  0.1491070E+00
          2   -1    0    0  502    0  0.00000000000E+00  0.00000000000E+00  0.78257936333E+03  0.78257936333E+03  0.00000000000E+00 0. -1.
          1   -1    0    0  501    0 -0.00000000000E+00 -0.00000000000E+00 -0.62454073920E+03  0.62454073920E+03  0.00000000000E+00 0. -1.
         25    2    1    2    0    0  0.66332320015E+02  0.78982388232E+01  0.54548340214E+03  0.56359586753E+03  0.12500320411E+03 0.  0.
          2    1    1    2  501    0 -0.70161774641E+02  0.16772176324E+02 -0.61267864332E+03  0.61691093400E+03  0.00000000000E+00 0. -1.
          1    1    1    2  502    0  0.38294546260E+01 -0.24670415147E+02  0.22523386531E+03  0.22661330100E+03  0.00000000000E+00 0. -1.
         22    1    3    3    0    0  0.87296267272E+00 -0.10174268778E+01 -0.70250364786E+01  0.71518080795E+01  0.00000000000E+00 0. -1.
         22    1    3    3    0    0  0.65459357342E+02  0.89156657010E+01  0.55250843862E+03  0.55644405945E+03  0.00000000000E+00 0. -1.
</event>
<event>
 7    1  0.5676357E-006  0.7525402E+02  0.7818608E-02  0.1386593E+00
          2   -1    0    0  502    0  0.00000000000E+00  0.00000000000E+00  0.53530693046E+03  0.53530693046E+03  0.00000000000E+00 0. -1.
          1   -1    0    0  501    0 -0.00000000000E+00 -0.00000000000E+00 -0.87040611741E+02  0.87040611741E+02  0.00000000000E+00 0. -1.
         25    2    1    2    0    0  0.53402641876E+02  0.20554424640E+02  0.17707814858E+03  0.22417756184E+03  0.12499832797E+03 0.  0.
          2    1    1    2  501    0 -0.13245627944E+02  0.50640001523E+02 -0.46573408405E+02  0.70063819367E+02  0.00000000000E+00 0. -1.
          1    1    1    2  502    0 -0.40157013933E+02 -0.71194426162E+02  0.31776157854E+03  0.32810616099E+03  0.00000000000E+00 0. -1.
         22    1    3    3    0    0  0.61025773360E+02 -0.30247775577E+02  0.42883862344E+02  0.80486636102E+02  0.00000000000E+00 0. -1.
         22    1    3    3    0    0 -0.76231314839E+01  0.50802200216E+02  0.13419428624E+03  0.14369092574E+03  0.00000000000E+00 0. -1.
</event>
<event>
 7    1  0.5676357E-006  0.1520634E+03  0.7818608E-02  0.1262567E+00
          2   -1    0    0  502    0  0.00000000000E+00  0.00000000000E+00  0.78410019819E+02  0.78410019819E+02  0.00000000000E+00 0. -1.
          1   -1    0    0  501    0 -0.00000000000E+00 -0.00000000000E+00 -0.10436796224E+04  0.10436796224E+04  0.00000000000E+00 0. -1.
         25    2    1    2    0    0  0.13157743630E+03  0.16234622602E+03 -0.44441309490E+03  0.50674967792E+03  0.12499327301E+03 0.  0.
          2    1    1    2  501    0 -0.68145790919E+02 -0.38010661115E+02 -0.45384923112E+03  0.46050817992E+03  0.00000000000E+00 0. -1.
          1    1    1    2  502    0 -0.63431645385E+02 -0.12433556491E+03 -0.67007276515E+02  0.15483178435E+03  0.00000000000E+00 0. -1.
         22    1    3    3    0    0  0.10824476348E+02  0.71155673673E+02 -0.25135728502E+03  0.26145895264E+03  0.00000000000E+00 0. -1.
         22    1    3    3    0    0  0.12075295996E+03  0.91190552351E+02 -0.19305580988E+03  0.24529072528E+03  0.00000000000E+00 0. -1.
</event>
<event>
 7    1  0.5676357E-006  0.1000837E+03  0.7818608E-02  0.1455808E+00
          2   -1    0    0  502    0  0.00000000000E+00  0.00000000000E+00  0.56166070340E+03  0.56166070340E+03  0.00000000000E+00 0. -1.
          1   -1    0    0  501    0 -0.00000000000E+00 -0.00000000000E+00 -0.11169914408E+03  0.11169914408E+03  0.00000000000E+00 0. -1.
         25    2    1    2    0    0 -0.12000872418E+02  0.10614421797E+03  0.33056622576E+03  0.36920167271E+03  0.12500091830E+03 0.  0.
          2    1    1    2  501    0  0.21046932368E+02 -0.95849955863E+01 -0.79544432263E+02  0.82838168778E+02  0.00000000000E+00 0. -1.
          1    1    1    2  502    0 -0.90460599497E+01 -0.96559222380E+02  0.19893976582E+03  0.22132000599E+03  0.00000000000E+00 0. -1.
         22    1    3    3    0    0  0.49065208207E+02  0.61265388993E+02  0.23168509682E+03  0.24461975929E+03  0.00000000000E+00 0.  1.
         22    1    3    3    0    0 -0.61066080625E+02  0.44878828974E+02  0.98881128940E+02  0.12458191343E+03  0.00000000000E+00 0.  1.
</event>
<event>
 7    1  0.5676357E-006  0.1273103E+03  0.7818608E-02  0.1363620E+00
          2   -1    0    0  502    0  0.00000000000E+00  0.00000000000E+00  0.23745277549E+04  0.23745277549E+04  0.00000000000E+00 0. -1.
          1   -1    0    0  501    0 -0.00000000000E+00 -0.00000000000E+00 -0.48748929607E+03  0.48748929607E+03  0.00000000000E+00 0. -1.
         25    2    1    2    0    0  0.43195473758E+02 -0.83014779154E+02  0.89723783162E+03  0.91072387219E+03  0.12499976951E+03 0.  0.
          2    1    1    2  501    0 -0.42433958639E+02  0.12037488107E+03 -0.47203170675E+03  0.48898331773E+03  0.00000000000E+00 0. -1.
          1    1    1    2  502    0 -0.76151511892E+00 -0.37360101917E+02  0.14618323340E+04  0.14623098610E+04  0.00000000000E+00 0. -1.
         22    1    3    3    0    0  0.87707265194E+00 -0.64927486515E+02  0.80527074168E+03  0.80788446895E+03  0.00000000000E+00 0. -1.
         22    1    3    3    0    0  0.42318401106E+02 -0.18087292639E+02  0.91967089931E+02  0.10283940323E+03  0.00000000000E+00 0. -1.
</event>
<event>
 7    1  0.5676357E-006  0.1540337E+03  0.7818608E-02  0.1350345E+00
          2   -1    0    0  502    0  0.00000000000E+00  0.00000000000E+00  0.14877088581E+03  0.14877088581E+03  0.00000000000E+00 0. -1.
          1   -1    0    0  501    0 -0.00000000000E+00 -0.00000000000E+00 -0.64187101884E+03  0.64187101884E+03  0.00000000000E+00 0. -1.
         25    2    1    2    0    0  0.95753922089E+02  0.80478531243E+02 -0.45322255253E+03  0.48650304724E+03  0.12501570008E+03 0.  0.
          2    1    1    2  501    0  0.14414009861E+02  0.31396594459E+02 -0.12210480682E+03  0.12689796559E+03  0.00000000000E+00 0. -1.
          1    1    1    2  502    0 -0.11016793195E+03 -0.11187512570E+03  0.82227226316E+02  0.17724089181E+03  0.00000000000E+00 0. -1.
         22    1    3    3    0    0  0.12485462713E+03  0.49428599391E+02 -0.34216242833E+03  0.36756902987E+03  0.00000000000E+00 0. -1.
         22    1    3    3    0    0 -0.29100705045E+02  0.31049931852E+02 -0.11106012419E+03  0.11893401737E+03  0.00000000000E+00 0. -1.
</event>
<event>
 7    1  0.5676357E-006  0.1273666E+03  0.7818608E-02  0.1244255E+00
          2   -1    0    0  502    0  0.00000000000E+00  0.00000000000E+00  0.79410360117E+03  0.79410360117E+03  0.00000000000E+00 0. -1.
          1   -1    0    0  501    0 -0.00000000000E+00 -0.00000000000E+00 -0.74980977564E+03  0.74980977564E+03  0.00000000000E+00 0. -1.
         25    2    1    2    0    0 -0.66010316408E+02 -0.74324577527E+02  0.22302793565E+03  0.27431101463E+03  0.12499427174E+03 0.  0.
          2    1    1    2  501    0 -0.83537128121E+02  0.74221235044E+02 -0.70946132793E+03  0.71820792208E+03  0.00000000000E+00 0. -1.
          1    1    1    2  502    0  0.14954744453E+03  0.10334248320E+00  0.53072721781E+03  0.55139444010E+03  0.00000000000E+00 0. -1.
         22    1    3    3    0    0 -0.54523156101E+02 -0.92670330713E+02  0.22801901960E+03  0.25209767560E+03  0.00000000000E+00 0.  1.
         22    1    3    3    0    0 -0.11487160307E+02  0.18345753186E+02 -0.49910839426E+01  0.22213339028E+02  0.00000000000E+00 0.  1.
</event>
<event>
 7    1  0.5676357E-006  0.1172743E+03  0.7818608E-02  0.1249873E+00
          2   -1    0    0  502    0  0.00000000000E+00  0.00000000000E+00  0.40600900169E+03  0.40600900169E+03  0.00000000000E+00 0. -1.
          1   -1    0    0  501    0 -0.00000000000E+00 -0.00000000000E+00 -0.18380229950E+04  0.18380229950E+04  0.00000000000E+00 0. -1.
         25    2    1    2    0    0 -0.52903128726E+02 -0.20295766680E+02 -0.20062766658E+03  0.24307765954E+03  0.12499851517E+03 0.  0.
          2    1    1    2  501    0  0.94555264846E+02 -0.86582979679E+02 -0.16050079836E+04  0.16101204731E+04  0.00000000000E+00 0. -1.
          1    1    1    2  502    0 -0.41652136120E+02  0.10687874636E+03  0.37362165683E+03  0.39083386409E+03  0.00000000000E+00 0. -1.
         22    1    3    3    0    0 -0.68168264237E+02 -0.30094704166E+02 -0.46388007901E+02  0.87775000684E+02  0.00000000000E+00 0. -1.
         22    1    3    3    0    0  0.15265135511E+02  0.97989374859E+01 -0.15423965868E+03  0.15530265885E+03  0.00000000000E+00 0. -1.
</event>
<event>
 7    1  0.5676357E-006  0.7310344E+02  0.7818608E-02  0.1495563E+00
          2   -1    0    0  502    0  0.00000000000E+00  0.00000000000E+00  0.14948482198E+04  0.14948482198E+04  0.00000000000E+00 0. -1.
          1   -1    0    0  501    0 -0.00000000000E+00 -0.00000000000E+00 -0.19066821202E+03  0.19066821202E+03  0.00000000000E+00 0. -1.
         25    2    1    2    0    0  0.30952177637E+02  0.39054314099E+02  0.33506573214E+03  0.36107716381E+03  0.12499758645E+03 0.  0.
          2    1    1    2  501    0 -0.47637770059E+02 -0.56122160053E+02 -0.16990660404E+03  0.18516832364E+03  0.00000000000E+00 0. -1.
          1    1    1    2  502    0  0.16685592422E+02  0.17067845954E+02  0.11390208797E+04  0.11392709444E+04  0.00000000000E+00 0. -1.
         22    1    3    3    0    0  0.67043881950E+02 -0.15763989493E+02  0.17694295231E+03  0.18987415265E+03  0.00000000000E+00 0.  1.
         22    1    3    3    0    0 -0.36091704313E+02  0.54818303592E+02  0.15812277984E+03  0.17120301117E+03  0.00000000000E+00 0.  1.
</event>
<event>
 7    1  0.5676357E-006  0.5482092E+02  0.7818608E-02  0.1503357E+00
          2   -1    0    0  502    0  0.00000000000E+00  0.00000000000E+00  0.23246490408E+04  0.23246490408E+04  0.00000000000E+00 0. -1.
          1   -1    0    0  501    0 -0.00000000000E+00 -0.00000000000E+00 -0.43373804209E+03  0.43373804209E+03  0.00000000000E+00 0. -1.
         25    2    1    2    0    0 -0.77524718963E+01 -0.84529312647E+02 -0.40133534221E+02  0.15633556539E+03  0.12499921167E+03 0.  0.
          2    1    1    2  501    0  0.31323675782E+01  0.30004878646E+02 -0.33449429525E+03  0.33585195849E+03  0.00000000000E+00 0. -1.
          1    1    1    2  502    0  0.46201043181E+01  0.54524434001E+02  0.22655388282E+04  0.22661995590E+04  0.00000000000E+00 0. -1.
         22    1    3    3    0    0  0.24624765867E+02  0.14078158563E+02 -0.44143591710E+02  0.52471233372E+02  0.00000000000E+00 0.  1.
         22    1    3    3    0    0 -0.32377237764E+02 -0.98607471210E+02  0.40100574883E+01  0.10386433201E+03  0.00000000000E+00 0.  1.
</event>
<event>
 7    1  0.5676357E-006  0.8118570E+02  0.7818608E-02  0.1407294E+00
          2   -1    0    0  502    0  0.00000000000E+00  0.00000000000E+00  0.16600944811E+04  0.16600944811E+04  0.00000000000E+00 0. -1.
          1   -1    0    0  501    0 -0.00000000000E+00 -0.00000000000E+00 -0.22933160781E+03  0.22933160781E+03  0.00000000000E+00 0. -1.
         25    2    1    2    0    0 -0.36859792207E+02  0.26269901596E+02  0.58815370966E+02  0.14537168851E+03  0.12499971179E+03 0.  0.
          2    1    1    2  501    0  0.77073333328E+02 -0.35015037477E+02 -0.17613639741E+03  0.19542359646E+03  0.00000000000E+00 0. -1.
          1    1    1    2  502    0 -0.40213541121E+02  0.87451358810E+01  0.15480838997E+04  0.15486308039E+04  0.00000000000E+00 0. -1.
         22    1    3    3    0    0 -0.61304250975E+02 -0.54193468679E+01  0.79326100380E+02  0.10040025254E+03  0.00000000000E+00 0.  1.
         22    1    3    3    0    0  0.24444458768E+02  0.31689248464E+02 -0.20510729413E+02  0.44971435976E+02  0.00000000000E+00 0.  1.
</event>
<event>
 7    1  0.5676357E-006  0.5654145E+02  0.7818608E-02  0.1462198E+00
          2   -1    0    0  502    0  0.00000000000E+00  0.00000000000E+00  0.85138461676E+03  0.85138461676E+03  0.00000000000E+00 0. -1.
          1   -1    0    0  501    0 -0.00000000000E+00 -0.00000000000E+00 -0.36596558040E+03  0.36596558040E+03  0.00000000000E+00 0. -1.
         25    2    1    2    0    0 -0.31116768070E+02 -0.73259640319E+02  0.41066766514E+03  0.43658683322E+03  0.12499961436E+03 0.  0.
          2    1    1    2  501    0  0.34167795460E+02  0.18963204914E+02 -0.35018636329E+03  0.35235994441E+03  0.00000000000E+00 0. -1.
          1    1    1    2  502    0 -0.30510273899E+01  0.54296435405E+02  0.42493773450E+03  0.42840341954E+03  0.00000000000E+00 0. -1.
         22    1    3    3    0    0  0.19580763191E+02 -0.68639350418E+02  0.10661880190E+03  0.12830563367E+03  0.00000000000E+00 0. -1.
         22    1    3    3    0    0 -0.50697531261E+02 -0.46202899010E+01  0.30404886324E+03  0.30828119954E+03  0.00000000000E+00 0. -1.
</event>
<event>
 7    1  0.5676357E-006  0.8369097E+02  0.7818608E-02  0.1322669E+00
          2   -1    0    0  502    0  0.00000000000E+00  0.00000000000E+00  0.20769276980E+03  0.20769276980E+03  0.00000000000E+00 0. -1.
          1   -1    0    0  501    0 -0.00000000000E+00 -0.00000000000E+00 -0.38068467343E+03  0.38068467343E+03  0.00000000000E+00 0. -1.
         25    2    1    2    0    0  0.37544021793E+02  0.73619589025E+02  0.35098967215E+01  0.14988977550E+03  0.12500091185E+03 0.  0.
          2    1    1    2  501    0  0.43359511872E+02 -0.75114123496E+02 -0.28796928443E+03  0.30074655042E+03  0.00000000000E+00 0. -1.
          1    1    1    2  502    0 -0.80903533665E+02  0.14945344713E+01  0.11146748408E+03  0.13774111731E+03  0.00000000000E+00 0. -1.
         22    1    3    3    0    0  0.82895622488E+02  0.52350059523E+02  0.13022611912E+02  0.98902989746E+02  0.00000000000E+00 0. -1.
         22    1    3    3    0    0 -0.45351600695E+02  0.21269529502E+02 -0.95127151900E+01  0.50986785750E+02  0.00000000000E+00 0. -1.
</event>
<event>
 7    1  0.5676357E-006  0.1153576E+03  0.7818608E-02  0.1346146E+00
          2   -1    0    0  502    0  0.00000000000E+00  0.00000000000E+00  0.15417031215E+03  0.15417031215E+03  0.00000000000E+00 0. -1.
          1   -1    0    0  501    0 -0.00000000000E+00 -0.00000000000E+00 -0.24125232901E+04  0.24125232901E+04  0.00000000000E+00 0. -1.
         25    2    1    2    0    0 -0.36995715244E+00  0.11041938987E+03 -0.43233075625E+03  0.46338695469E+03  0.12500003383E+03 0.  0.
          2    1    1    2  501    0  0.47620112783E+02 -0.43370638769E+01 -0.19399999876E+04  0.19405891985E+04  0.00000000000E+00 0. -1.
          1    1    1    2  502    0 -0.47250155631E+02 -0.10608232599E+03  0.11397776595E+03  0.16271744905E+03  0.00000000000E+00 0. -1.
         22    1    3    3    0    0 -0.24156732555E+02  0.94581911961E+02 -0.14596681669E+03  0.17560067589E+03  0.00000000000E+00 0.  1.
         22    1    3    3    0    0  0.23786775402E+02  0.15837477907E+02 -0.28636393955E+03  0.28778627880E+03  0.00000000000E+00 0.  1.
</event>
<event>
 7    1  0.5676357E-006  0.9035190E+02  0.7818608E-02  0.1372308E+00
          2   -1    0    0  502    0  0.00000000000E+00  0.00000000000E+00  0.34190525887E+04  0.34190525887E+04  0.00000000000E+00 0. -1.
          1   -1    0    0  501    0 -0.00000000000E+00 -0.00000000000E+00 -0.81773528158E+03  0.81773528158E+03  0.00000000000E+00 0. -1.
         25    2    1    2    0    0  0.17411421388E+02  0.10318084901E+03  0.15297067580E+03  0.22354899914E+03  0.12499872866E+03 0.  0.
          2    1    1    2  501    0 -0.45778274881E+02 -0.17442141046E+02 -0.78104746432E+03  0.78258227698E+03  0.00000000000E+00 0. -1.
          1    1    1    2  502    0  0.28366853493E+02 -0.85738707967E+02  0.32293940956E+04  0.32306565942E+04  0.00000000000E+00 0. -1.
         22    1    3    3    0    0 -0.33955952558E+02  0.70786966950E+02  0.25830838075E+02  0.82650067149E+02  0.00000000000E+00 0. -1.
         22    1    3    3    0    0  0.51367373946E+02  0.32393882063E+02  0.12713983772E+03  0.14089893199E+03  0.00000000000E+00 0. -1.
</event>
<event>
 7    1  0.5676357E-006  0.6209505E+02  0.7818608E-02  0.1526314E+00
          2   -1    0    0  502    0  0.00000000000E+00  0.00000000000E+00  0.29700271081E+03  0.29700271081E+03  0.00000000000E+00 0. -1.
          1   -1    0    0  501    0 -0.00000000000E+00 -0.00000000000E+00 -0.23772774257E+03  0.23772774257E+03  0.00000000000E+00 0. -1.
         25    2    1    2    0    0 -0.53524753488E+02  0.11061967979E+02 -0.15163713621E+03  0.20398055797E+03  0.12500792207E+03 0.  0.
          2    1    1    2  501    0  0.11984329356E+01  0.22787580377E+02 -0.53990823826E+02  0.58615007620E+02  0.00000000000E+00 0. -1.
          1    1    1    2  502    0  0.52326320552E+02 -0.33849548356E+02  0.26490292827E+03  0.27213488779E+03  0.00000000000E+00 0. -1.
         22    1    3    3    0    0 -0.90637342865E+02 -0.61659620339E+01 -0.77992960207E+02  0.11973324038E+03  0.00000000000E+00 0. -1.
         22    1    3    3    0    0  0.37112589377E+02  0.17227930013E+02 -0.73644176003E+02  0.84247317595E+02  0.00000000000E+00 0. -1.
</event>
<event>
 7    1  0.5676357E-006  0.4193361E+02  0.7818608E-02  0.1505327E+00
          2   -1    0    0  502    0  0.00000000000E+00  0.00000000000E+00  0.17329492035E+04  0.17329492035E+04  0.00000000000E+00 0. -1.
          1   -1    0    0  501    0 -0.00000000000E+00 -0.00000000000E+00 -0.33658937832E+03  0.33658937832E+03  0.00000000000E+00 0. -1.
         25    2    1    2    0    0  0.78953056707E+02  0.96097611505E+01  0.10308576329E+04  0.10414501049E+04  0.12499971596E+03 0.  0.
          2    1    1    2  501    0 -0.41835678825E+02  0.20720604697E+01 -0.32942267569E+03  0.33207501670E+03  0.00000000000E+00 0. -1.
          1    1    1    2  502    0 -0.37117377882E+02 -0.11681821620E+02  0.69492486800E+03  0.69601346026E+03  0.00000000000E+00 0. -1.
         22    1    3    3    0    0  0.11163310365E+03  0.70956518375E+01  0.87946338869E+03  0.88654844772E+03  0.00000000000E+00 0.  1.
         22    1    3    3    0    0 -0.32680046943E+02  0.25141093129E+01  0.15139424421E+03  0.15490165717E+03  0.00000000000E+00 0.  1.
</event>
<event>
 7    1  0.5676357E-006  0.1181669E+03  0.7818608E-02  0.1364360E+00
          2   -1    0    0  502    0  0.00000000000E+00  0.00000000000E+00  0.55999216702E+03  0.55999216702E+03  0.00000000000E+00 0. -1.
          1   -1    0    0  501    0 -0.00000000000E+00 -0.00000000000E+00 -0.64504058241E+03  0.64504058241E+03  0.00000000000E+00 0. -1.
         25    2    1    2    0    0  0.19515602351E+02  0.12650509802E+03 -0.11636795681E+03  0.21342538453E+03  0.12499797930E+03 0.  0.
          2    1    1    2  501    0 -0.38723904633E+02 -0.10066663834E+02 -0.47247972823E+03  0.47417082586E+03  0.00000000000E+00 0. -1.
          1    1    1    2  502    0  0.19208302282E+02 -0.11643843419E+03  0.50379926964E+03  0.51743653903E+03  0.00000000000E+00 0. -1.
         22    1    3    3    0    0 -0.49417070223E+02  0.38080797535E+02 -0.19804128007E+02  0.65455308849E+02  0.00000000000E+00 0.  1.
         22    1    3    3    0    0  0.68932672575E+02  0.88424300487E+02 -0.96563828804E+02  0.14797007568E+03  0.00000000000E+00 0.  1.
</event>
<event>
 7    1  0.5676357E-006  0.1028512E+03  0.7818608E-02  0.1421091E+00
          2   -1    0    0  502    0  0.00000000000E+00  0.00000000000E+00  0.86892785428E+03  0.86892785428E+03  0.00000000000E+00 0. -1.
          1   -1    0    0  501    0 -0.00000000000E+00 -0.00000000000E+00 -0.11987210338E+03  0.11987210338E+03  0.00000000000E+00 0. -1.
         25    2    1    2    0    0 -0.12847879672E+03 -0.23869181686E+02  0.45912675795E+02  0.18657118759E+03  0.12499718076E+03 0.  0.
          2    1    1    2  501    0  0.28706880959E+02  0.52777499493E+01 -0.41480610000E+02  0.50720613807E+02  0.00000000000E+00 0. -1.
          1    1    1    2  502    0  0.99771915765E+02  0.18591431737E+02  0.74462368510E+03  0.75150815626E+03  0.00000000000E+00 0. -1.
         22    1    3    3    0    0 -0.25392384542E+02  0.17766625167E+02  0.66626045478E+02  0.73480991410E+02  0.00000000000E+00 0.  1.
         22    1    3    3    0    0 -0.10308641218E+03 -0.41635806853E+02 -0.20713369683E+02  0.11309019618E+03  0.00000000000E+00 0.  1.
</event>
<event>
 7    1  0.5676357E-006  0.2139877E+03  0.7818608E-02  0.1293274E+00
          2   -1    0    0  502    0  0.00000000000E+00  0.00000000000E+00  0.84631218386E+03  0.84631218386E+03  0.00000000000E+00 0. -1.
          1   -1    0    0  501    0 -0.00000000000E+00 -0.00000000000E+00 -0.17125359433E+04  0.17125359433E+04  0.00000000000E+00 0. -1.
         25    2    1    2    0    0 -0.24140022820E+03 -0.54951691101E+02 -0.16231598407E+03  0.32134943557E+03  0.12500089012E+03 0.  0.
          2    1    1    2  501    0  0.31223818324E+02  0.27120884879E+02 -0.14557492186E+04  0.14563365877E+04  0.00000000000E+00 0. -1.
          1    1    1    2  502    0  0.21017640987E+03  0.27830806222E+02  0.75184144315E+03  0.78116210397E+03  0.00000000000E+00 0. -1.
         22    1    3    3    0    0  0.36782383600E+01  0.12200298590E+02  0.83595205226E+01  0.15240023178E+02  0.00000000000E+00 0. -1.
         22    1    3    3    0    0 -0.24507846656E+03 -0.67151989690E+02 -0.17067550459E+03  0.30610941240E+03  0.00000000000E+00 0. -1.
</event>
<event>
 7    1  0.5676357E-006  0.5950107E+02  0.7818608E-02  0.1486145E+00
          2   -1    0    0  502    0  0.00000000000E+00  0.00000000000E+00  0.83110642549E+03  0.83110642549E+03  0.00000000000E+00 0. -1.
          1   -1    0    0  501    0 -0.00000000000E+00 -0.00000000000E+00 -0.15443747102E+04  0.15443747102E+04  0.00000000000E+00 0. -1.
         25    2    1    2    0    0 -0.55676863897E+02  0.70410693171E+02  0.20207227898E+03  0.25397430346E+03  0.12494863745E+03 0.  0.
          2    1    1    2  501    0  0.31716681938E+02 -0.50253387238E+02 -0.15174353179E+04  0.15185984640E+04  0.00000000000E+00 0. -1.
          1    1    1    2  502    0  0.23960181959E+02 -0.20157305934E+02  0.60209475427E+03  0.60290836818E+03  0.00000000000E+00 0. -1.
         22    1    3    3    0    0 -0.15813999058E+02 -0.21942917141E+02  0.12324392609E+03  0.12617701652E+03  0.00000000000E+00 0.  1.
         22    1    3    3    0    0 -0.39862864839E+02  0.92353610312E+02  0.78828352891E+02  0.12779728694E+03  0.00000000000E+00 0.  1.
</event>
<event>
 7    1  0.5676357E-006  0.6004390E+02  0.7818608E-02  0.1451267E+00
          2   -1    0    0  502    0  0.00000000000E+00  0.00000000000E+00  0.23609252797E+04  0.23609252797E+04  0.00000000000E+00 0. -1.
          1   -1    0    0  501    0 -0.00000000000E+00 -0.00000000000E+00 -0.39949042457E+03  0.39949042457E+03  0.00000000000E+00 0. -1.
         25    2    1    2    0    0 -0.21330477255E+02 -0.14683334410E+02 -0.12736011961E+03  0.18030639650E+03  0.12497682579E+03 0.  0.
          2    1    1    2  501    0 -0.38614427129E+02  0.98601093033E+01 -0.24365065613E+03  0.24688851324E+03  0.00000000000E+00 0. -1.
          1    1    1    2  502    0  0.59944904384E+02  0.48232251068E+01  0.23324456309E+04  0.23332207946E+04  0.00000000000E+00 0. -1.
         22    1    3    3    0    0 -0.27558601734E+02 -0.47759899690E+02 -0.13496990722E+03  0.14579904116E+03  0.00000000000E+00 0. -1.
         22    1    3    3    0    0  0.62281244791E+01  0.33076565280E+02  0.76097876161E+01  0.34507355343E+02  0.00000000000E+00 0. -1.
</event>
<event>
 7    1  0.5676357E-006  0.1022918E+03  0.7818608E-02  0.1308765E+00
          2   -1    0    0  502    0  0.00000000000E+00  0.00000000000E+00  0.43849852002E+02  0.43849852002E+02  0.00000000000E+00 0. -1.
          1   -1    0    0  501    0 -0.00000000000E+00 -0.00000000000E+00 -0.11411387863E+04  0.11411387863E+04  0.00000000000E+00 0. -1.
         25    2    1    2    0    0 -0.20387940081E+02  0.67091423889E+02 -0.23927498986E+03  0.27891661241E+03  0.12500011459E+03 0.  0.
          2    1    1    2  501    0  0.94928823964E+02 -0.58613623248E+02 -0.80855169183E+03  0.81621251939E+03  0.00000000000E+00 0. -1.
          1    1    1    2  502    0 -0.74540883883E+02 -0.84778006414E+01 -0.49462252591E+02  0.89859506482E+02  0.00000000000E+00 0. -1.
         22    1    3    3    0    0 -0.64911497229E+02  0.80831015819E+01 -0.80110923684E+02  0.10342436414E+03  0.00000000000E+00 0. -1.
         22    1    3    3    0    0  0.44523557148E+02  0.59008322308E+02 -0.15916406617E+03  0.17549224827E+03  0.00000000000E+00 0. -1.
</event>
<event>
 7    1  0.5676357E-006  0.4591254E+02  0.7818608E-02  0.1583747E+00
          2   -1    0    0  502    0  0.00000000000E+00  0.00000000000E+00  0.23013182180E+03  0.23013182180E+03  0.00000000000E+00 0. -1.
          1   -1    0    0  501    0 -0.00000000000E+00 -0.00000000000E+00 -0.29800338924E+03  0.29800338924E+03  0.00000000000E+00 0. -1.
         25    2    1    2    0    0 -0.50059523081E+02 -0.19269798359E+02 -0.14611390748E+03  0.19963012990E+03  0.12500253527E+03 0.  0.
          2    1    1    2  501    0  0.32519476220E+02  0.31513649094E+02 -0.12044145397E+03  0.12867311392E+03  0.00000000000E+00 0. -1.
          1    1    1    2  502    0  0.17540046861E+02 -0.12243850734E+02  0.19868379400E+03  0.19983196722E+03  0.00000000000E+00 0. -1.
         22    1    3    3    0    0 -0.17022641259E+02  0.33202551741E+02  0.36964812796E+01  0.37494582695E+02  0.00000000000E+00 0.  1.
         22    1    3    3    0    0 -0.33036881822E+02 -0.52472350101E+02 -0.14981038876E+03  0.16213554720E+03  0.00000000000E+00 0.  1.
</event>
<event>
 7    1  0.5676357E-006  0.6257688E+02  0.7818608E-02  0.1457647E+00
          2   -1    0    0  502    0  0.00000000000E+00  0.00000000000E+00  0.13656288204E+04  0.13656288204E+04  0.00000000000E+00 0. -1.
          1   -1    0    0  501    0 -0.00000000000E+00 -0.00000000000E+00 -0.49366693472E+02  0.49366693472E+02  0.00000000000E+00 0. -1.
         25    2    1    2    0    0  0.48690670865E+02  0.47995150847E+01  0.73125601077E+03  0.74347381767E+03  0.12499658998E+03 0.  0.
          2    1    1    2  501    0 -0.55103078020E+02  0.31128129154E+02 -0.19260934311E+02  0.66153557897E+02  0.00000000000E+00 0. -1.
          1    1    1    2  502    0  0.64124071553E+01 -0.35927644238E+02  0.60426705051E+03  0.60536813834E+03  0.00000000000E+00 0. -1.
         22    1    3    3    0    0  0.20290283163E+02 -0.77794981902E+00  0.70209263491E+03  0.70238619633E+03  0.00000000000E+00 0. -1.
         22    1    3    3    0    0  0.28400387702E+02  0.55774649037E+01  0.29163375857E+02  0.41087621345E+02  0.00000000000E+00 0. -1.
</event>
<event>
 7    1  0.5676357E-006  0.3160618E+03  0.7818608E-02  0.1165099E+00
          2   -1    0    0  502    0  0.00000000000E+00  0.00000000000E+00  0.78566283327E+03  0.78566283327E+03  0.00000000000E+00 0. -1.
          1   -1    0    0  501    0 -0.00000000000E+00 -0.00000000000E+00 -0.10403596854E+04  0.10403596854E+04  0.00000000000E+00 0. -1.
         25    2    1    2    0    0  0.20012945385E+03 -0.21037661734E+03  0.32186912924E+03  0.45114851227E+03  0.12500049738E+03 0.  0.
          2    1    1    2  501    0 -0.32024300110E+02 -0.10078620454E+03 -0.89364382253E+03  0.89987926766E+03  0.00000000000E+00 0. -1.
          1    1    1    2  502    0 -0.16810515374E+03  0.31116282188E+03  0.31707784119E+03  0.47499473871E+03  0.00000000000E+00 0. -1.
         22    1    3    3    0    0  0.11652138313E+03 -0.34926136830E+02  0.11766510591E+03  0.16923990342E+03  0.00000000000E+00 0.  1.
         22    1    3    3    0    0  0.83608070715E+02 -0.17545048051E+03  0.20420402333E+03  0.28190860885E+03  0.00000000000E+00 0.  1.
</event>
<event>
 7    1  0.5676357E-006  0.7385630E+02  0.7818608E-02  0.1350559E+00
          2   -1    0    0  502    0  0.00000000000E+00  0.00000000000E+00  0.81120078179E+03  0.81120078179E+03  0.00000000000E+00 0. -1.
          1   -1    0    0  501    0 -0.00000000000E+00 -0.00000000000E+00 -0.11118748570E+04  0.11118748570E+04  0.00000000000E+00 0. -1.
         25    2    1    2    0    0 -0.98587427140E+02 -0.13759356253E+02  0.47456398368E+03  0.50074476529E+03  0.12500217874E+03 0.  0.
          2    1    1    2  501    0  0.43346790775E+02  0.59813138665E+02 -0.10935262609E+04  0.10960183571E+04  0.00000000000E+00 0. -1.
          1    1    1    2  502    0  0.55240636365E+02 -0.46053782413E+02  0.31828820204E+03  0.32631251637E+03  0.00000000000E+00 0. -1.
         22    1    3    3    0    0 -0.69131045891E+02 -0.44736118191E+02  0.43424683481E+03  0.44198499445E+03  0.00000000000E+00 0. -1.
         22    1    3    3    0    0 -0.29456381248E+02  0.30976761938E+02  0.40317148863E+02  0.58759770838E+02  0.00000000000E+00 0. -1.
</event>
<event>
 7    1  0.5676357E-006  0.2132304E+03  0.7818608E-02  0.1286042E+00
          2   -1    0    0  502    0  0.00000000000E+00  0.00000000000E+00  0.13858904426E+04  0.13858904426E+04  0.00000000000E+00 0. -1.
          1   -1    0    0  501    0 -0.00000000000E+00 -0.00000000000E+00 -0.11062961721E+04  0.11062961721E+04  0.00000000000E+00 0. -1.
         25    2    1    2    0    0  0.37406389322E+02 -0.18277295722E+03 -0.90553323510E+02  0.24213617498E+03  0.12499932392E+03 0.  0.
          2    1    1    2  501    0 -0.76298367257E+02  0.20422256320E+03 -0.92692504656E+03  0.95221758969E+03  0.00000000000E+00 0. -1.
          1    1    1    2  502    0  0.38891977935E+02 -0.21449605980E+02  0.12970726406E+04  0.12978328500E+04  0.00000000000E+00 0. -1.
         22    1    3    3    0    0 -0.68918305256E+01 -0.26218595838E+02  0.29404304204E+02  0.39994064578E+02  0.00000000000E+00 0.  1.
         22    1    3    3    0    0  0.44298219848E+02 -0.15655436138E+03 -0.11995762771E+03  0.20214211040E+03  0.00000000000E+00 0.  1.
</event>
<event>
 7    1  0.5676357E-006  0.2226905E+03  0.7818608E-02  0.1253370E+00
          2   -1    0    0  502    0  0.00000000000E+00  0.00000000000E+00  0.18085240394E+04  0.18085240394E+04  0.00000000000E+00 0. -1.
          1   -1    0    0  501    0 -0.00000000000E+00 -0.00000000000E+00 -0.35104583266E+04  0.35104583266E+04  0.00000000000E+00 0. -1.
         25    2    1    2    0    0 -0.36691733136E+02  0.27237031882E+03 -0.60737255218E+01  0.30198318618E+03  0.12500032296E+03 0.  0.
          2    1    1    2  501    0 -0.10900287196E+02 -0.57312519702E+02 -0.33488707417E+04  0.33493788656E+04  0.00000000000E+00 0. -1.
          1    1    1    2  502    0  0.47592020332E+02 -0.21505779912E+03  0.16530101799E+04  0.16676203142E+04  0.00000000000E+00 0. -1.
         22    1    3    3    0    0  0.19930831926E+02  0.20418335349E+03  0.27942648930E+02  0.20704799330E+03  0.00000000000E+00 0.  1.
         22    1    3    3    0    0 -0.56622565063E+02  0.68186965335E+02 -0.34016374451E+02  0.94935192877E+02  0.00000000000E+00 0.  1.
</event>
<event>
 7    1  0.5676357E-006  0.4323204E+02  0.7818608E-02  0.1525771E+00
          2   -1    0    0  502    0  0.00000000000E+00  0.00000000000E+00  0.50290005097E+03  0.50290005097E+03  0.00000000000E+00 0. -1.
          1   -1    0    0  501    0 -0.00000000000E+00 -0.00000000000E+00 -0.44492721698E+02  0.44492721698E+02  0.00000000000E+00 0. -1.
         25    2    1    2    0    0 -0.46353709731E+02  0.11265934333E+02  0.11952302487E+03  0.17940399402E+03  0.12499780764E+03 0.  0.
          2    1    1    2  501    0  0.79790780126E+01 -0.31911240243E+02  0.74819558384E+01  0.33733849512E+02  0.00000000000E+00 0. -1.
          1    1    1    2  502    0  0.38374631718E+02  0.20645305909E+02  0.33140234856E+03  0.33425492913E+03  0.00000000000E+00 0. -1.
         22    1    3    3    0    0 -0.86630833401E+02  0.11592304826E+02  0.54769592998E+02  0.10314548533E+03  0.00000000000E+00 0. -1.
         22    1    3    3    0    0  0.40277123670E+02 -0.32637049331E+00  0.64753431869E+02  0.76258508690E+02  0.00000000000E+00 0. -1.
</event>
<event>
 7    1  0.5676357E-006  0.8960031E+02  0.7818608E-02  0.1382032E+00
          2   -1    0    0  502    0  0.00000000000E+00  0.00000000000E+00  0.36749745787E+04  0.36749745787E+04  0.00000000000E+00 0. -1.
          1   -1    0    0  501    0 -0.00000000000E+00 -0.00000000000E+00 -0.21453126653E+02  0.21453126653E+02  0.00000000000E+00 0. -1.
         25    2    1    2    0    0 -0.65106393086E+02  0.21511885209E+02  0.21971876038E+04  0.22018079400E+04  0.12499293903E+03 0.  0.
          2    1    1    2  501    0 -0.44034859161E+02 -0.11912819981E+02  0.13417968415E+02  0.47550246872E+02  0.00000000000E+00 0. -1.
          1    1    1    2  502    0  0.10914125225E+03 -0.95990652284E+01  0.14429158798E+04  0.14470695184E+04  0.00000000000E+00 0. -1.
         22    1    3    3    0    0 -0.70977278279E+02  0.12612667387E+02  0.21823335809E+04  0.21835239206E+04  0.00000000000E+00 0.  1.
         22    1    3    3    0    0  0.58708851924E+01  0.88992178223E+01  0.14854022930E+02  0.18284019471E+02  0.00000000000E+00 0.  1.
</event>
<event>
 7    1  0.5676357E-006  0.5280404E+02  0.7818608E-02  0.1481584E+00
          2   -1    0    0  502    0  0.00000000000E+00  0.00000000000E+00  0.34391201440E+04  0.34391201440E+04  0.00000000000E+00 0. -1.
          1   -1    0    0  501    0 -0.00000000000E+00 -0.00000000000E+00 -0.54200560554E+02  0.54200560554E+02  0.00000000000E+00 0. -1.
         25    2    1    2    0    0 -0.29121426017E+02 -0.74219183624E+02  0.53700599216E+03  0.55709704283E+03  0.12500053941E+03 0.  0.
          2    1    1    2  501    0  0.29095386809E+02  0.21925116394E+02 -0.36362739540E+02  0.51473304628E+02  0.00000000000E+00 0. -1.
          1    1    1    2  502    0  0.26039207732E-01  0.52294067230E+02  0.28842763309E+04  0.28847503571E+04  0.00000000000E+00 0. -1.
         22    1    3    3    0    0  0.33515656852E+02 -0.94126926601E+01  0.44947344908E+02  0.56852105076E+02  0.00000000000E+00 0.  1.
         22    1    3    3    0    0 -0.62637082869E+02 -0.64806490964E+02  0.49205864725E+03  0.50024493776E+03  0.00000000000E+00 0.  1.
</event>
<event>
 7    1  0.5676357E-006  0.5411946E+02  0.7818608E-02  0.1508380E+00
          2   -1    0    0  502    0  0.00000000000E+00  0.00000000000E+00  0.25611881535E+02  0.25611881535E+02  0.00000000000E+00 0. -1.
          1   -1    0    0  501    0 -0.00000000000E+00 -0.00000000000E+00 -0.12836287148E+04  0.12836287148E+04  0.00000000000E+00 0. -1.
         25    2    1    2    0    0  0.18371507741E+02  0.56848849674E+02 -0.22694275369E+03  0.26589066623E+03  0.12500211571E+03 0.  0.
          2    1    1    2  501    0  0.21308339903E+02 -0.20444910764E+02 -0.91409270520E+03  0.91456957824E+03  0.00000000000E+00 0. -1.
          1    1    1    2  502    0 -0.39679847644E+02 -0.36403938910E+02 -0.11698137437E+03  0.12878035187E+03  0.00000000000E+00 0. -1.
         22    1    3    3    0    0 -0.42094262080E+02 -0.11792933744E+02 -0.10259788739E+03  0.11152276307E+03  0.00000000000E+00 0.  1.
         22    1    3    3    0    0  0.60465769821E+02  0.68641783418E+02 -0.12434486630E+03  0.15436790316E+03  0.00000000000E+00 0.  1.
</event>
<event>
 7    1  0.5676357E-006  0.6385732E+02  0.7818608E-02  0.1415964E+00
          2   -1    0    0  502    0  0.00000000000E+00  0.00000000000E+00  0.34052278212E+03  0.34052278212E+03  0.00000000000E+00 0. -1.
          1   -1    0    0  501    0 -0.00000000000E+00 -0.00000000000E+00 -0.60571345582E+03  0.60571345582E+03  0.00000000000E+00 0. -1.
         25    2    1    2    0    0 -0.21813841514E+02  0.83960230472E+02  0.13661708416E+03  0.20448578627E+03  0.12500018049E+03 0.  0.
          2    1    1    2  501    0 -0.20948935621E+02 -0.60229274086E+02 -0.56643462130E+03  0.57001281000E+03  0.00000000000E+00 0. -1.
          1    1    1    2  502    0  0.42762777135E+02 -0.23730956386E+02  0.16462686344E+03  0.17173764167E+03  0.00000000000E+00 0. -1.
         22    1    3    3    0    0 -0.29797043356E+02  0.32788086731E+02  0.14535990547E+03  0.15196191807E+03  0.00000000000E+00 0.  1.
         22    1    3    3    0    0  0.79832018413E+01  0.51172143741E+02 -0.87428213146E+01  0.52523868205E+02  0.00000000000E+00 0.  1.
</event>
<event>
 7    1  0.5676357E-006  0.4247971E+02  0.7818608E-02  0.1560033E+00
          2   -1    0    0  502    0  0.00000000000E+00  0.00000000000E+00  0.20208207162E+04  0.20208207162E+04  0.00000000000E+00 0. -1.
          1   -1    0    0  501    0 -0.00000000000E+00 -0.00000000000E+00 -0.12638941439E+04  0.12638941439E+04  0.00000000000E+00 0. -1.
         25    2    1    2    0    0 -0.36879941929E+02 -0.26608120927E+02  0.41426455739E+03  0.43509547342E+03  0.12499930105E+03 0.  0.
          2    1    1    2  501    0 -0.57376066533E+01  0.26185590298E+02 -0.12530508015E+04  0.12533375110E+04  0.00000000000E+00 0. -1.
          1    1    1    2  502    0  0.42617548583E+02  0.42253062870E+00  0.15957128165E+04  0.15962818757E+04  0.00000000000E+00 0. -1.
         22    1    3    3    0    0 -0.30721114790E+02  0.27466749397E+02  0.34279306837E+03  0.34526120103E+03  0.00000000000E+00 0. -1.
         22    1    3    3    0    0 -0.61588271390E+01 -0.54074870324E+02  0.71471489019E+02  0.89834272384E+02  0.00000000000E+00 0. -1.
</event>
<event>
 7    1  0.5676357E-006  0.6634569E+02  0.7818608E-02  0.1461939E+00
          2   -1    0    0  502    0  0.00000000000E+00  0.00000000000E+00  0.53559943594E+02  0.53559943594E+02  0.00000000000E+00 0. -1.
          1   -1    0    0  501    0 -0.00000000000E+00 -0.00000000000E+00 -0.15236789407E+04  0.15236789407E+04  0.00000000000E+00 0. -1.
         25    2    1    2    0    0  0.45024931692E+02  0.85332921126E+02 -0.28048445078E+03  0.32187858318E+03  0.12500137312E+03 0.  0.
          2    1    1    2  501    0 -0.17896099572E+02 -0.28159749043E+02 -0.11915803028E+04  0.11920473396E+04  0.00000000000E+00 0. -1.
          1    1    1    2  502    0 -0.27128832120E+02 -0.57173172083E+02  0.19457563797E+01  0.63312961596E+02  0.00000000000E+00 0. -1.
         22    1    3    3    0    0  0.27243733443E+02  0.66063738020E+02 -0.28624779066E+03  0.29503294079E+03  0.00000000000E+00 0. -1.
         22    1    3    3    0    0  0.17781198249E+02  0.19269183106E+02  0.57633398835E+01  0.26845642391E+02  0.00000000000E+00 0. -1.
</event>
<event>
 7    1  0.5676357E-006  0.6784574E+02  0.7818608E-02  0.1376020E+00
          2   -1    0    0  502    0  0.00000000000E+00  0.00000000000E+00  0.49431526720E+03  0.49431526720E+03  0.00000000000E+00 0. -1.
          1   -1    0    0  501    0 -0.00000000000E+00 -0.00000000000E+00 -0.47750425569E+03  0.47750425569E+03  0.00000000000E+00 0. -1.
         25    2    1    2    0    0 -0.21075189177E+02 -0.28894671999E+02  0.97013324306E+02  0.16222280360E+03  0.12500234897E+03 0.  0.
          2    1    1    2  501    0 -0.34061229465E+02  0.59942811689E+02 -0.43944668172E+03  0.44482209264E+03  0.00000000000E+00 0. -1.
          1    1    1    2  502    0  0.55136418642E+02 -0.31048139690E+02  0.35924436893E+03  0.36477462665E+03  0.00000000000E+00 0. -1.
         22    1    3    3    0    0 -0.49794668058E+02 -0.65385812192E+02  0.73086607815E+02  0.10998393358E+03  0.00000000000E+00 0.  1.
         22    1    3    3    0    0  0.28719478881E+02  0.36491140193E+02  0.23926716491E+02  0.52238870028E+02  0.00000000000E+00 0.  1.
</event>
<event>
 7    1  0.5676357E-006  0.7872851E+02  0.7818608E-02  0.1371490E+00
          2   -1    0    0  502    0  0.00000000000E+00  0.00000000000E+00  0.12759518015E+03  0.12759518015E+03  0.00000000000E+00 0. -1.
          1   -1    0    0  501    0 -0.00000000000E+00 -0.00000000000E+00 -0.11865754827E+04  0.11865754827E+04  0.00000000000E+00 0. -1.
         25    2    1    2    0    0  0.13116367366E+03  0.20521448693E+02 -0.15870831116E+03  0.24174015303E+03  0.12499973765E+03 0.  0.
          2    1    1    2  501    0 -0.74612584333E+02 -0.18117117887E+02 -0.97537174444E+03  0.97838913913E+03  0.00000000000E+00 0. -1.
          1    1    1    2  502    0 -0.56551089325E+02 -0.24043308056E+01  0.75099753006E+02  0.94041370747E+02  0.00000000000E+00 0. -1.
         22    1    3    3    0    0  0.99314353899E+02 -0.30812321070E+02 -0.45669959263E+02  0.11357149818E+03  0.00000000000E+00 0.  1.
         22    1    3    3    0    0  0.31849319758E+02  0.51333769763E+02 -0.11303835189E+03  0.12816865485E+03  0.00000000000E+00 0.  1.
</event>
<event>
 7    1  0.5676357E-006  0.2488376E+03  0.7818608E-02  0.1127955E+00
          2   -1    0    0  502    0  0.00000000000E+00  0.00000000000E+00  0.27852801132E+04  0.27852801132E+04  0.00000000000E+00 0. -1.
          1   -1    0    0  501    0 -0.00000000000E+00 -0.00000000000E+00 -0.20743124837E+03  0.20743124837E+03  0.00000000000E+00 0. -1.
         25    2    1    2    0    0  0.12592742171E+03 -0.31378191134E+02  0.31924467652E+03  0.36658378097E+03  0.12499679424E+03 0.  0.
          2    1    1    2  501    0 -0.10738478908E+03 -0.22447417324E+03 -0.89206600896E+02  0.26434440607E+03  0.00000000000E+00 0. -1.
          1    1    1    2  502    0 -0.18542632629E+02  0.25585236437E+03  0.23478107892E+04  0.23617831745E+04  0.00000000000E+00 0. -1.
         22    1    3    3    0    0  0.16232738071E+02 -0.54074713644E+02  0.51775109087E+02  0.76604427822E+02  0.00000000000E+00 0.  1.
         22    1    3    3    0    0  0.10969468364E+03  0.22696522510E+02  0.26746956743E+03  0.28997935315E+03  0.00000000000E+00 0.  1.
</event>
<event>
 7    1  0.5676357E-006  0.1070765E+03  0.7818608E-02  0.1342101E+00
          2   -1    0    0  502    0  0.00000000000E+00  0.00000000000E+00  0.18584070833E+03  0.18584070833E+03  0.00000000000E+00 0. -1.
          1   -1    0    0  501    0 -0.00000000000E+00 -0.00000000000E+00 -0.56940799418E+03  0.56940799418E+03  0.00000000000E+00 0. -1.
         25    2    1    2    0    0 -0.13468722906E+02  0.12737287080E+03 -0.46635960865E+03  0.49952103321E+03  0.12499889331E+03 0.  0.
          2    1    1    2  501    0 -0.13710839891E+02 -0.81476534600E+02 -0.60777936892E+02  0.10256885704E+03  0.00000000000E+00 0. -1.
          1    1    1    2  502    0  0.27179562796E+02 -0.45896336196E+02  0.14357025968E+03  0.15315881227E+03  0.00000000000E+00 0. -1.
         22    1    3    3    0    0 -0.58882315844E+01  0.32274165896E+02 -0.33801662656E+03  0.33960496593E+03  0.00000000000E+00 0.  1.
         22    1    3    3    0    0 -0.75804913214E+01  0.95098704900E+02 -0.12834298209E+03  0.15991606728E+03  0.00000000000E+00 0.  1.
</event>
<event>
 7    1  0.5676357E-006  0.6411503E+02  0.7818608E-02  0.1414664E+00
          2   -1    0    0  502    0  0.00000000000E+00  0.00000000000E+00  0.39779629670E+03  0.39779629670E+03  0.00000000000E+00 0. -1.
          1   -1    0    0  501    0 -0.00000000000E+00 -0.00000000000E+00 -0.11106051430E+04  0.11106051430E+04  0.00000000000E+00 0. -1.
         25    2    1    2    0    0 -0.20033911673E+02  0.35138087336E+02 -0.85630044854E+02  0.15681322195E+03  0.12498735615E+03 0.  0.
          2    1    1    2  501    0  0.63946900607E+02 -0.12945203339E+02 -0.98663015395E+03  0.98878503481E+03  0.00000000000E+00 0. -1.
          1    1    1    2  502    0 -0.43912988934E+02 -0.22192883997E+02  0.35945135253E+03  0.36280318291E+03  0.00000000000E+00 0. -1.
         22    1    3    3    0    0 -0.15123578521E+02 -0.45365192610E+02 -0.48204830863E+02  0.67900140253E+02  0.00000000000E+00 0. -1.
         22    1    3    3    0    0 -0.49103331517E+01  0.80503279946E+02 -0.37425213991E+02  0.88913081692E+02  0.00000000000E+00 0. -1.
</event>
<event>
 7    1  0.5676357E-006  0.1148717E+03  0.7818608E-02  0.1388409E+00
          2   -1    0    0  502    0  0.00000000000E+00  0.00000000000E+00  0.38973217602E+03  0.38973217602E+03  0.00000000000E+00 0. -1.
          1   -1    0    0  501    0 -0.00000000000E+00 -0.00000000000E+00 -0.42213890742E+03  0.42213890742E+03  0.00000000000E+00 0. -1.
         25    2    1    2    0    0  0.97471497816E+02 -0.43546749048E+02 -0.95010374698E+02  0.18986595539E+03  0.12500038990E+03 0.  0.
          2    1    1    2  501    0 -0.10035125785E+02 -0.32268006610E+02 -0.26883115009E+03  0.27094670187E+03  0.00000000000E+00 0. -1.
          1    1    1    2  502    0 -0.87436372031E+02  0.75814755658E+02  0.33143479338E+03  0.35105842618E+03  0.00000000000E+00 0. -1.
         22    1    3    3    0    0  0.10500197763E+02 -0.51551643611E+02  0.97161315800E+01  0.53499806775E+02  0.00000000000E+00 0. -1.
         22    1    3    3    0    0  0.86971300053E+02  0.80048945632E+01 -0.10472650628E+03  0.13636614861E+03  0.00000000000E+00 0. -1.
</event>
<event>
 7    1  0.5676357E-006  0.7506456E+02  0.7818608E-02  0.1391815E+00
          2   -1    0    0  502    0  0.00000000000E+00  0.00000000000E+00  0.96459009500E+03  0.96459009500E+03  0.00000000000E+00 0. -1.
          1   -1    0    0  501    0 -0.00000000000E+00 -0.00000000000E+00 -0.46609940594E+03  0.46609940594E+03  0.00000000000E+00 0. -1.
         25    2    1    2    0    0  0.57955350568E+02  0.33057867708E+01  0.30796331863E+03  0.33739537362E+03  0.12499792652E+03 0.  0.
          2    1    1    2  501    0  0.13010013280E+01  0.50300253671E+02 -0.44748118341E+03  0.45030125209E+03  0.00000000000E+00 0. -1.
          1    1    1    2  502    0 -0.59256351896E+02 -0.53606040442E+02  0.63800855385E+03  0.64299287523E+03  0.00000000000E+00 0. -1.
         22    1    3    3    0    0  0.72408982045E+02  0.50523807044E+02  0.18997576387E+03  0.20949106572E+03  0.00000000000E+00 0. -1.
         22    1    3    3    0    0 -0.14453631477E+02 -0.47218020273E+02  0.11798755476E+03  0.12790430790E+03  0.00000000000E+00 0. -1.
</event>
<event>
 7    1  0.5676357E-006  0.1155334E+03  0.7818608E-02  0.1385917E+00
          2   -1    0    0  502    0  0.00000000000E+00  0.00000000000E+00  0.87756668119E+03  0.87756668119E+03  0.00000000000E+00 0. -1.
          1   -1    0    0  501    0 -0.00000000000E+00 -0.00000000000E+00 -0.55124598751E+03  0.55124598751E+03  0.00000000000E+00 0. -1.
         25    2    1    2    0    0 -0.55994588690E+02 -0.13151606182E+03  0.63958801276E+03  0.66718043519E+03  0.12500015426E+03 0.  0.
          2    1    1    2  501    0  0.27906959914E+02  0.11186161586E+03 -0.52990359397E+03  0.54230032124E+03  0.00000000000E+00 0. -1.
          1    1    1    2  502    0  0.28087628775E+02  0.19654445962E+02  0.21663627489E+03  0.21933191226E+03  0.00000000000E+00 0. -1.
         22    1    3    3    0    0 -0.98735721314E+01 -0.13282392579E+03  0.55572305601E+03  0.57146110775E+03  0.00000000000E+00 0. -1.
         22    1    3    3    0    0 -0.46121016558E+02  0.13078639721E+01  0.83864956750E+02  0.95719327449E+02  0.00000000000E+00 0. -1.
</event>
<event>
 7    1  0.5676357E-006  0.3266298E+02  0.7818608E-02  0.1635141E+00
          2   -1    0    0  502    0  0.00000000000E+00  0.00000000000E+00  0.15721032839E+04  0.15721032839E+04  0.00000000000E+00 0. -1.
          1   -1    0    0  501    0 -0.00000000000E+00 -0.00000000000E+00 -0.58005051852E+02  0.58005051852E+02  0.00000000000E+00 0. -1.
         25    2    1    2    0    0 -0.48151597262E+02 -0.25030491458E+02  0.27525357751E+03  0.30714119193E+03  0.12500431203E+03 0.  0.
          2    1    1    2  501    0  0.27841841144E+02  0.16187745725E+02 -0.35785988434E+02  0.48144035956E+02  0.00000000000E+00 0. -1.
          1    1    1    2  502    0  0.20309756119E+02  0.88427457328E+01  0.12746306430E+04  0.12748231079E+04  0.00000000000E+00 0. -1.
         22    1    3    3    0    0  0.25492191929E+02  0.33176761662E+02  0.72365521484E+02  0.83590179228E+02  0.00000000000E+00 0.  1.
         22    1    3    3    0    0 -0.73643789191E+02 -0.58207253119E+02  0.20288805602E+03  0.22355101270E+03  0.00000000000E+00 0.  1.
</event>
<event>
 7    1  0.5676357E-006  0.3884644E+02  0.7818608E-02  0.1528247E+00
          2   -1    0    0  502    0  0.00000000000E+00  0.00000000000E+00  0.19476425820E+04  0.19476425820E+04  0.00000000000E+00 0. -1.
          1   -1    0    0  501    0 -0.00000000000E+00 -0.00000000000E+00 -0.64529879771E+02  0.64529879771E+02  0.00000000000E+00 0. -1.
         25    2    1    2    0    0 -0.22376772741E+02 -0.39355654020E+02  0.23727208348E+03  0.27198100393E+03  0.12500414968E+03 0.  0.
          2    1    1    2  501    0  0.38482520268E+02  0.71460961431E+01 -0.38831261032E+02  0.55134724899E+02  0.00000000000E+00 0. -1.
          1    1    1    2  502    0 -0.16105747527E+02  0.32209557877E+02  0.16846718798E+04  0.16850567329E+04  0.00000000000E+00 0. -1.
         22    1    3    3    0    0 -0.48929974635E+02  0.26594924321E+02  0.64875445930E+02  0.85500034514E+02  0.00000000000E+00 0. -1.
         22    1    3    3    0    0  0.26553201894E+02 -0.65950578341E+02  0.17239663755E+03  0.18648096942E+03  0.00000000000E+00 0. -1.
</event>
<event>
 7    1  0.5676357E-006  0.8236999E+02  0.7818608E-02  0.1349436E+00
          2   -1    0    0  502    0  0.00000000000E+00  0.00000000000E+00  0.59931946707E+03  0.59931946707E+03  0.00000000000E+00 0. -1.
          1   -1    0    0  501    0 -0.00000000000E+00 -0.00000000000E+00 -0.10234377710E+04  0.10234377710E+04  0.00000000000E+00 0. -1.
         25    2    1    2    0    0 -0.11495952579E+03 -0.84681722784E+02  0.50195322627E+02  0.19629453998E+03  0.12500115708E+03 0.  0.
          2    1    1    2  501    0  0.58607291690E+02  0.28356905227E+02 -0.94592777966E+03  0.94816575188E+03  0.00000000000E+00 0. -1.
          1    1    1    2  502    0  0.56352234101E+02  0.56324817557E+02  0.47161415309E+03  0.47829694621E+03  0.00000000000E+00 0. -1.
         22    1    3    3    0    0 -0.12016979889E+03 -0.86973156592E+02  0.26039972114E+01  0.14836405001E+03  0.00000000000E+00 0.  1.
         22    1    3    3    0    0  0.52102731002E+01  0.22914338080E+01  0.47591325416E+02  0.47930489978E+02  0.00000000000E+00 0.  1.
</event>
<event>
 7    1  0.5676357E-006  0.1125237E+03  0.7818608E-02  0.1343374E+00
          2   -1    0    0  502    0  0.00000000000E+00  0.00000000000E+00  0.24791569874E+03  0.24791569874E+03  0.00000000000E+00 0. -1.
          1   -1    0    0  501    0 -0.00000000000E+00 -0.00000000000E+00 -0.14210100249E+04  0.14210100249E+04  0.00000000000E+00 0. -1.
         25    2    1    2    0    0 -0.71333988090E+01 -0.16066337464E+03 -0.14463496224E+02  0.20420114671E+03  0.12500124106E+03 0.  0.
          2    1    1    2  501    0  0.11903350194E+02  0.11068671801E+03 -0.13051262341E+04  0.13098655375E+04  0.00000000000E+00 0. -1.
          1    1    1    2  502    0 -0.47699513849E+01  0.49976656626E+02  0.14649540420E+03  0.15485903944E+03  0.00000000000E+00 0. -1.
         22    1    3    3    0    0  0.55345164039E+02 -0.90231551590E+02 -0.26942405789E+02  0.10922780468E+03  0.00000000000E+00 0.  1.
         22    1    3    3    0    0 -0.62478562848E+02 -0.70431823049E+02  0.12478909565E+02  0.94973342036E+02  0.00000000000E+00 0.  1.
</event>
<event>
 7    1  0.5676357E-006  0.5510583E+02  0.7818608E-02  0.1446616E+00
          2   -1    0    0  502    0  0.00000000000E+00  0.00000000000E+00  0.45239325442E+02  0.45239325442E+02  0.00000000000E+00 0. -1.
          1   -1    0    0  501    0 -0.00000000000E+00 -0.00000000000E+00 -0.18255932035E+04  0.18255932035E+04  0.00000000000E+00 0. -1.
         25    2    1    2    0    0  0.74243585146E+02  0.17201351767E+02 -0.10883172476E+04  0.10981198807E+04  0.12499937832E+03 0.  0.
          2    1    1    2  501    0 -0.35312146014E+02 -0.39651728549E+02 -0.71856641226E+03  0.72052543055E+03  0.00000000000E+00 0. -1.
          1    1    1    2  502    0 -0.38931439132E+02  0.22450376783E+02  0.26529781773E+02  0.52187217702E+02  0.00000000000E+00 0. -1.
         22    1    3    3    0    0 -0.25546926534E+02  0.19828576235E+02 -0.10812625376E+03  0.11285878186E+03  0.00000000000E+00 0.  1.
         22    1    3    3    0    0  0.99790511679E+02 -0.26272244681E+01 -0.98019099386E+03  0.98526109888E+03  0.00000000000E+00 0.  1.
</event>
<event>
 7    1  0.5676357E-006  0.1994294E+03  0.7818608E-02  0.1172631E+00
          2   -1    0    0  502    0  0.00000000000E+00  0.00000000000E+00  0.90437739883E+02  0.90437739883E+02  0.00000000000E+00 0. -1.
          1   -1    0    0  501    0 -0.00000000000E+00 -0.00000000000E+00 -0.15481075342E+04  0.15481075342E+04  0.00000000000E+00 0. -1.
         25    2    1    2    0    0 -0.18917615498E+03  0.66811968939E+02 -0.58102442576E+03  0.62726873720E+03  0.12500091413E+03 0.  0.
          2    1    1    2  501    0  0.10369834362E+03 -0.19459899171E+03 -0.81722896936E+03  0.84645454834E+03  0.00000000000E+00 0. -1.
          1    1    1    2  502    0  0.85477811365E+02  0.12778702277E+03 -0.59416399249E+02  0.16482198859E+03  0.00000000000E+00 0. -1.
         22    1    3    3    0    0 -0.17690282217E+03  0.46994139546E+02 -0.34909201075E+03  0.39416784447E+03  0.00000000000E+00 0. -1.
         22    1    3    3    0    0 -0.12273332808E+02  0.19817829393E+02 -0.23193241501E+03  0.23310089273E+03  0.00000000000E+00 0. -1.
</event>
<event>
 7    1  0.5676357E-006  0.8435315E+02  0.7818608E-02  0.1329143E+00
          2   -1    0    0  502    0  0.00000000000E+00  0.00000000000E+00  0.16033270695E+04  0.16033270695E+04  0.00000000000E+00 0. -1.
          1   -1    0    0  501    0 -0.00000000000E+00 -0.00000000000E+00 -0.51656663150E+03  0.51656663150E+03  0.00000000000E+00 0. -1.
         25    2    1    2    0    0 -0.41965309335E+02  0.69421499750E+02  0.21320097447E+03  0.26011610309E+03  0.12500119902E+03 0.  0.
          2    1    1    2  501    0 -0.33346853280E+02 -0.78098302438E+02 -0.48839102526E+03  0.49571882254E+03  0.00000000000E+00 0. -1.
          1    1    1    2  502    0  0.75312162615E+02  0.86768026876E+01  0.13619504888E+04  0.13640587753E+04  0.00000000000E+00 0. -1.
         22    1    3    3    0    0 -0.66626375626E+02  0.88605850801E+02  0.12782146872E+03  0.16919928662E+03  0.00000000000E+00 0. -1.
         22    1    3    3    0    0  0.24661066291E+02 -0.19184351051E+02  0.85379505749E+02  0.90916816475E+02  0.00000000000E+00 0. -1.
</event>
<event>
 7    1  0.5676357E-006  0.2112045E+03  0.7818608E-02  0.1263997E+00
          2   -1    0    0  502    0  0.00000000000E+00  0.00000000000E+00  0.12366371719E+04  0.12366371719E+04  0.00000000000E+00 0. -1.
          1   -1    0    0  501    0 -0.00000000000E+00 -0.00000000000E+00 -0.83341181538E+03  0.83341181538E+03  0.00000000000E+00 0. -1.
         25    2    1    2    0    0 -0.17794717564E+03 -0.61648014244E+02  0.34433563561E+02  0.22864198098E+03  0.12500324071E+03 0.  0.
          2    1    1    2  501    0  0.17979848880E+03  0.11701701720E+03 -0.71996293700E+03  0.75124370849E+03  0.00000000000E+00 0. -1.
          1    1    1    2  502    0 -0.18513131581E+01 -0.55369002957E+02  0.10887547300E+04  0.10901632978E+04  0.00000000000E+00 0. -1.
         22    1    3    3    0    0 -0.17772225199E+03 -0.84532334924E+02  0.47274630054E+02  0.20240011153E+03  0.00000000000E+00 0.  1.
         22    1    3    3    0    0 -0.22492365205E+00  0.22884320680E+02 -0.12841066493E+02  0.26241869451E+02  0.00000000000E+00 0.  1.
</event>
<event>
 7    1  0.5676357E-006  0.8732115E+02  0.7818608E-02  0.1331921E+00
          2   -1    0    0  502    0  0.00000000000E+00  0.00000000000E+00  0.13890299293E+03  0.13890299293E+03  0.00000000000E+00 0. -1.
          1   -1    0    0  501    0 -0.00000000000E+00 -0.00000000000E+00 -0.91063789430E+03  0.91063789430E+03  0.00000000000E+00 0. -1.
         25    2    1    2    0    0  0.11233509678E+03  0.10489169058E+02 -0.77614194462E+02  0.18540591859E+03  0.12498877883E+03 0.  0.
          2    1    1    2  501    0 -0.62091433886E+02 -0.61313514397E+02 -0.76116027236E+03  0.76614597397E+03  0.00000000000E+00 0. -1.
          1    1    1    2  502    0 -0.50243662891E+02  0.50824345339E+02  0.67039565451E+02  0.97988994666E+02  0.00000000000E+00 0. -1.
         22    1    3    3    0    0  0.37616430312E+02 -0.12327118971E+02 -0.97124888553E+02  0.10488182716E+03  0.00000000000E+00 0. -1.
         22    1    3    3    0    0  0.74718666465E+02  0.22816288029E+02  0.19510694091E+02  0.80524091436E+02  0.00000000000E+00 0. -1.
</event>
<event>
 7    1  0.5676357E-006  0.8691035E+02  0.7818608E-02  0.1370849E+00
          2   -1    0    0  502    0  0.00000000000E+00  0.00000000000E+00  0.33422731258E+04  0.33422731258E+04  0.00000000000E+00 0. -1.
          1   -1    0    0  501    0 -0.00000000000E+00 -0.00000000000E+00 -0.18145320888E+04  0.18145320888E+04  0.00000000000E+00 0. -1.
         25    2    1    2    0    0 -0.10933826907E+03  0.36607311316E+02  0.13997972035E+04  0.14100910788E+04  0.12501874749E+03 0.  0.
          2    1    1    2  501    0  0.86371989043E+02  0.95391544418E+01 -0.18079985803E+04  0.18100856284E+04  0.00000000000E+00 0. -1.
          1    1    1    2  502    0  0.22966280028E+02 -0.46146465758E+02  0.19359424138E+04  0.19366285074E+04  0.00000000000E+00 0. -1.
         22    1    3    3    0    0  0.21836975193E+02  0.11745582206E+01  0.69175890965E+02  0.72550237514E+02  0.00000000000E+00 0. -1.
         22    1    3    3    0    0 -0.13117524426E+03  0.35432753096E+02  0.13306213125E+04  0.13375408412E+04  0.00000000000E+00 0. -1.
</event>
<event>
 7    1  0.5676357E-006  0.6249181E+02  0.7818608E-02  0.1414634E+00
          2   -1    0    0  502    0  0.00000000000E+00  0.00000000000E+00  0.13012850927E+03  0.13012850927E+03  0.00000000000E+00 0. -1.
          1   -1    0    0  501    0 -0.00000000000E+00 -0.00000000000E+00 -0.48870456841E+03  0.48870456841E+03  0.00000000000E+00 0. -1.
         25    2    1    2    0    0  0.13637560665E+02  0.14733719888E+02 -0.39945842258E+02  0.13274727839E+03  0.12499241594E+03 0.  0.
          2    1    1    2  501    0  0.21338580529E+02  0.45761760710E+02 -0.38584086527E+03  0.38913062984E+03  0.00000000000E+00 0. -1.
          1    1    1    2  502    0 -0.34976141194E+02 -0.60495480598E+02  0.67210648396E+02  0.96955169452E+02  0.00000000000E+00 0. -1.
         22    1    3    3    0    0 -0.12645635297E+02  0.24142417234E+02 -0.79665606985E+02  0.84198440237E+02  0.00000000000E+00 0.  1.
         22    1    3    3    0    0  0.26283195962E+02 -0.94086973460E+01  0.39719764727E+02  0.48548838150E+02  0.00000000000E+00 0.  1.
</event>
<event>
 7    1  0.5676357E-006  0.5021440E+02  0.7818608E-02  0.1505326E+00
          2   -1    0    0  502    0  0.00000000000E+00  0.00000000000E+00  0.17658709060E+04  0.17658709060E+04  0.00000000000E+00 0. -1.
          1   -1    0    0  501    0 -0.00000000000E+00 -0.00000000000E+00 -0.20907843066E+03  0.20907843066E+03  0.00000000000E+00 0. -1.
         25    2    1    2    0    0  0.20231126831E+02  0.66747183572E+01  0.30664544560E+02  0.13045698206E+03  0.12499943807E+03 0.  0.
          2    1    1    2  501    0 -0.51778171830E+02  0.11188649045E+01 -0.15480850129E+03  0.16324185434E+03  0.00000000000E+00 0. -1.
          1    1    1    2  502    0  0.31547044999E+02 -0.77935832617E+01  0.16809364320E+04  0.16812505002E+04  0.00000000000E+00 0. -1.
         22    1    3    3    0    0 -0.14127085144E+02  0.59937379366E+02  0.40492226209E+01  0.61712723030E+02  0.00000000000E+00 0. -1.
         22    1    3    3    0    0  0.34358211975E+02 -0.53262661009E+02  0.26615321939E+02  0.68744259032E+02  0.00000000000E+00 0. -1.
</event>
<event>
 7    1  0.5676357E-006  0.1158673E+03  0.7818608E-02  0.1279706E+00
          2   -1    0    0  502    0  0.00000000000E+00  0.00000000000E+00  0.28254934531E+04  0.28254934531E+04  0.00000000000E+00 0. -1.
          1   -1    0    0  501    0 -0.00000000000E+00 -0.00000000000E+00 -0.17026558987E+04  0.17026558987E+04  0.00000000000E+00 0. -1.
         25    2    1    2    0    0 -0.15965366974E+03  0.78473461698E+02  0.60963223903E+03  0.64724298087E+03  0.12499852382E+03 0.  0.
          2    1    1    2  501    0  0.47690913590E+02 -0.72514376145E+02 -0.16813000082E+04  0.16835386765E+04  0.00000000000E+00 0. -1.
          1    1    1    2  502    0  0.11196275615E+03 -0.59590855528E+01  0.21945053235E+04  0.21973676944E+04  0.00000000000E+00 0. -1.
         22    1    3    3    0    0 -0.69460566520E+01  0.30363109617E+02  0.26970250349E+03  0.27149513166E+03  0.00000000000E+00 0.  1.
         22    1    3    3    0    0 -0.15270761309E+03  0.48110352081E+02  0.33992973555E+03  0.37574784920E+03  0.00000000000E+00 0.  1.
</event>
<event>
 7    1  0.5676357E-006  0.4516990E+02  0.7818608E-02  0.1526105E+00
          2   -1    0    0  502    0  0.00000000000E+00  0.00000000000E+00  0.77451006788E+03  0.77451006788E+03  0.00000000000E+00 0. -1.
          1   -1    0    0  501    0 -0.00000000000E+00 -0.00000000000E+00 -0.12824805150E+03  0.12824805150E+03  0.00000000000E+00 0. -1.
         25    2    1    2    0    0  0.52542178323E+02 -0.49238317711E+02  0.24856418466E+03  0.28739202592E+03  0.12499972094E+03 0.  0.
          2    1    1    2  501    0 -0.23079526905E+02  0.38342537228E+02 -0.10372114224E+03  0.11296410966E+03  0.00000000000E+00 0. -1.
          1    1    1    2  502    0 -0.29462651417E+02  0.10895780483E+02  0.50141897397E+03  0.50240198379E+03  0.00000000000E+00 0. -1.
         22    1    3    3    0    0  0.14219072586E+02  0.78226641460E+01 -0.10523095432E+02  0.19341965697E+02  0.00000000000E+00 0.  1.
         22    1    3    3    0    0  0.38323105736E+02 -0.57060981857E+02  0.25908728009E+03  0.26805006023E+03  0.00000000000E+00 0.  1.
</event>
<event>
 7    1  0.5676357E-006  0.5301012E+02  0.7818608E-02  0.1432732E+00
          2   -1    0    0  502    0  0.00000000000E+00  0.00000000000E+00  0.11173456688E+04  0.11173456688E+04  0.00000000000E+00 0. -1.
          1   -1    0    0  501    0 -0.00000000000E+00 -0.00000000000E+00 -0.77025150738E+02  0.77025150738E+02  0.00000000000E+00 0. -1.
         25    2    1    2    0    0 -0.10074481847E+02 -0.20357752647E+02  0.24721447310E+03  0.27794945449E+03  0.12499988107E+03 0.  0.
          2    1    1    2  501    0 -0.43411274468E+02  0.30422598911E+02 -0.49220972013E+02  0.72337938603E+02  0.00000000000E+00 0. -1.
          1    1    1    2  502    0  0.53485756315E+02 -0.10064846264E+02  0.84232701701E+03  0.84408342648E+03  0.00000000000E+00 0. -1.
         22    1    3    3    0    0  0.37610727229E+02  0.29922168980E+02  0.15700629627E+03  0.16419768594E+03  0.00000000000E+00 0. -1.
         22    1    3    3    0    0 -0.47685209076E+02 -0.50279921627E+02  0.90208176826E+02  0.11375176856E+03  0.00000000000E+00 0. -1.
</event>
<event>
 7    1  0.5676357E-006  0.1480380E+03  0.7818608E-02  0.1247916E+00
          2   -1    0    0  502    0  0.00000000000E+00  0.00000000000E+00  0.15108329398E+04  0.15108329398E+04  0.00000000000E+00 0. -1.
          1   -1    0    0  501    0 -0.00000000000E+00 -0.00000000000E+00 -0.54859743187E+03  0.54859743187E+03  0.00000000000E+00 0. -1.
         25    2    1    2    0    0 -0.13946735189E+03  0.17007660973E+03 -0.37569183608E+02  0.25575899303E+03  0.12499609409E+03 0.  0.
          2    1    1    2  501    0  0.86354672444E+02 -0.33618902569E+02 -0.39270166309E+03  0.40348724423E+03  0.00000000000E+00 0. -1.
          1    1    1    2  502    0  0.53112679451E+02 -0.13645770716E+03  0.13925063546E+04  0.14001841344E+04  0.00000000000E+00 0. -1.
         22    1    3    3    0    0 -0.50353239510E+02  0.35155344671E+02 -0.67567315701E+02  0.91305471573E+02  0.00000000000E+00 0.  1.
         22    1    3    3    0    0 -0.89114112385E+02  0.13492126506E+03  0.29998132094E+02  0.16445352146E+03  0.00000000000E+00 0.  1.
</event>
<event>
 7    1  0.5676357E-006  0.1342520E+03  0.7818608E-02  0.1349745E+00
          2   -1    0    0  502    0  0.00000000000E+00  0.00000000000E+00  0.25602654552E+03  0.25602654552E+03  0.00000000000E+00 0. -1.
          1   -1    0    0  501    0 -0.00000000000E+00 -0.00000000000E+00 -0.61254251422E+03  0.61254251422E+03  0.00000000000E+00 0. -1.
         25    2    1    2    0    0 -0.10443854278E+03  0.20694492061E+02 -0.12080395836E+03  0.20384788212E+03  0.12499876588E+03 0.  0.
          2    1    1    2  501    0  0.13382278154E+03 -0.47599705743E+02 -0.43701286988E+03  0.45951552453E+03  0.00000000000E+00 0. -1.
          1    1    1    2  502    0 -0.29384238762E+02  0.26905213683E+02  0.20130085953E+03  0.20520565309E+03  0.00000000000E+00 0. -1.
         22    1    3    3    0    0  0.18617316023E+02  0.16127866208E+02  0.77596159565E+01  0.25824874910E+02  0.00000000000E+00 0. -1.
         22    1    3    3    0    0 -0.12305585880E+03  0.45666258522E+01 -0.12856357431E+03  0.17802300721E+03  0.00000000000E+00 0. -1.
</event>
<event>
 7    1  0.5676357E-006  0.1909396E+03  0.7818608E-02  0.1269325E+00
          2   -1    0    0  502    0  0.00000000000E+00  0.00000000000E+00  0.90968508628E+03  0.90968508628E+03  0.00000000000E+00 0. -1.
          1   -1    0    0  501    0 -0.00000000000E+00 -0.00000000000E+00 -0.12885511271E+04  0.12885511271E+04  0.00000000000E+00 0. -1.
         25    2    1    2    0    0 -0.82650406140E+02 -0.18177601537E+03  0.80373301995E+01  0.23571951534E+03  0.12500192733E+03 0.  0.
          2    1    1    2  501    0  0.57709050877E+02 -0.74357190664E+01 -0.11624132539E+04  0.11638686341E+04  0.00000000000E+00 0. -1.
          1    1    1    2  502    0  0.24941355264E+02  0.18921173444E+03  0.77550988289E+03  0.79864806399E+03  0.00000000000E+00 0. -1.
         22    1    3    3    0    0  0.23914277544E+02 -0.38065067505E+02  0.32044308790E+02  0.55205794628E+02  0.00000000000E+00 0. -1.
         22    1    3    3    0    0 -0.10656468368E+03 -0.14371094787E+03 -0.24006978591E+02  0.18051372072E+03  0.00000000000E+00 0. -1.
</event>
<event>
 7    1  0.5676357E-006  0.5156863E+02  0.7818608E-02  0.1521559E+00
          2   -1    0    0  502    0  0.00000000000E+00  0.00000000000E+00  0.10116860650E+04  0.10116860650E+04  0.00000000000E+00 0. -1.
          1   -1    0    0  501    0 -0.00000000000E+00 -0.00000000000E+00 -0.57673027097E+02  0.57673027097E+02  0.00000000000E+00 0. -1.
         25    2    1    2    0    0 -0.70977056498E+02 -0.33085994277E+02  0.25478270673E+03  0.29439957496E+03  0.12499782606E+03 0.  0.
          2    1    1    2  501    0  0.45401935532E+02  0.20830419561E+02 -0.20988422702E+02  0.54182617292E+02  0.00000000000E+00 0. -1.
          1    1    1    2  502    0  0.25575120966E+02  0.12255574716E+02  0.72021875391E+03  0.72077689988E+03  0.00000000000E+00 0. -1.
         22    1    3    3    0    0  0.35721488066E+02 -0.52852942900E+01  0.48114746988E+02  0.60158024594E+02  0.00000000000E+00 0. -1.
         22    1    3    3    0    0 -0.10669854456E+03 -0.27800699987E+02  0.20666795974E+03  0.23424155036E+03  0.00000000000E+00 0. -1.
</event>
<event>
 7    1  0.5676357E-006  0.2700320E+03  0.7818608E-02  0.1324448E+00
          2   -1    0    0  502    0  0.00000000000E+00  0.00000000000E+00  0.11884377727E+04  0.11884377727E+04  0.00000000000E+00 0. -1.
          1   -1    0    0  501    0 -0.00000000000E+00 -0.00000000000E+00 -0.13368446468E+04  0.13368446468E+04  0.00000000000E+00 0. -1.
         25    2    1    2    0    0 -0.12566970394E+03  0.26036242310E+03  0.63869786605E+03  0.71213874698E+03  0.12500065998E+03 0.  0.
          2    1    1    2  501    0  0.10383170149E+03 -0.24885301945E+03 -0.12858345164E+04  0.13138033533E+04  0.00000000000E+00 0. -1.
          1    1    1    2  502    0  0.21838002455E+02 -0.11509403653E+02  0.49872977625E+03  0.49934031927E+03  0.00000000000E+00 0. -1.
         22    1    3    3    0    0  0.56413391890E+01  0.28245391265E+01  0.10490151464E+03  0.10509105815E+03  0.00000000000E+00 0.  1.
         22    1    3    3    0    0 -0.13131104313E+03  0.25753788398E+03  0.53379635141E+03  0.60704768883E+03  0.00000000000E+00 0.  1.
</event>
<event>
 7    1  0.5676357E-006  0.7605188E+02  0.7818608E-02  0.1441682E+00
          2   -1    0    0  502    0  0.00000000000E+00  0.00000000000E+00  0.11397835498E+03  0.11397835498E+03  0.00000000000E+00 0. -1.
          1   -1    0    0  501    0 -0.00000000000E+00 -0.00000000000E+00 -0.69097329930E+03  0.69097329930E+03  0.00000000000E+00 0. -1.
         25    2    1    2    0    0 -0.68961965281E+02  0.98448693020E+01 -0.71241349285E+02  0.15985190738E+03  0.12499851334E+03 0.  0.
          2    1    1    2  501    0  0.36819096068E+01  0.33577790907E+02 -0.55268994296E+03  0.55372122729E+03  0.00000000000E+00 0. -1.
          1    1    1    2  502    0  0.65280055674E+02 -0.43422660209E+02  0.46936347928E+02  0.91378519605E+02  0.00000000000E+00 0. -1.
         22    1    3    3    0    0 -0.79293214228E+01 -0.11025045098E+02  0.33890372711E+02  0.36510041360E+02  0.00000000000E+00 0.  1.
         22    1    3    3    0    0 -0.61032643858E+02  0.20869914400E+02 -0.10513172200E+03  0.12334186602E+03  0.00000000000E+00 0.  1.
</event>
<event>
 7    1  0.5676357E-006  0.8648543E+02  0.7818608E-02  0.1444164E+00
          2   -1    0    0  502    0  0.00000000000E+00  0.00000000000E+00  0.11215778054E+04  0.11215778054E+04  0.00000000000E+00 0. -1.
          1   -1    0    0  501    0 -0.00000000000E+00 -0.00000000000E+00 -0.32729879784E+03  0.32729879784E+03  0.00000000000E+00 0. -1.
         25    2    1    2    0    0 -0.29135773665E+02  0.51332203628E+02  0.98697073763E+02  0.16985587625E+03  0.12500407150E+03 0.  0.
          2    1    1    2  501    0 -0.10812246820E+02  0.27081708529E+02 -0.28902323644E+03  0.29049054171E+03  0.00000000000E+00 0. -1.
          1    1    1    2  502    0  0.39948020485E+02 -0.78413912156E+02  0.98460517025E+03  0.98853018530E+03  0.00000000000E+00 0. -1.
         22    1    3    3    0    0 -0.17970025312E+02  0.15779643902E+02  0.12304145272E+03  0.12534399889E+03  0.00000000000E+00 0. -1.
         22    1    3    3    0    0 -0.11165748353E+02  0.35552559726E+02 -0.24344378957E+02  0.44511877360E+02  0.00000000000E+00 0. -1.
</event>
<event>
 7    1  0.5676357E-006  0.4030321E+02  0.7818608E-02  0.1534123E+00
          2   -1    0    0  502    0  0.00000000000E+00  0.00000000000E+00  0.10462058853E+04  0.10462058853E+04  0.00000000000E+00 0. -1.
          1   -1    0    0  501    0 -0.00000000000E+00 -0.00000000000E+00 -0.39753455140E+03  0.39753455140E+03  0.00000000000E+00 0. -1.
         25    2    1    2    0    0 -0.23694969549E+02 -0.25513897264E+02 -0.32454998881E+02  0.13375502405E+03  0.12499867587E+03 0.  0.
          2    1    1    2  501    0  0.30145048573E+02 -0.14364093727E+02 -0.31313166390E+03  0.31490711341E+03  0.00000000000E+00 0. -1.
          1    1    1    2  502    0 -0.64500790235E+01  0.39877990991E+02  0.99425799672E+03  0.99507829929E+03  0.00000000000E+00 0. -1.
         22    1    3    3    0    0  0.21279134375E+02  0.91615558620E+01 -0.64509472614E+02  0.68543473231E+02  0.00000000000E+00 0. -1.
         22    1    3    3    0    0 -0.44974103924E+02 -0.34675453126E+02  0.32054473733E+02  0.65211550814E+02  0.00000000000E+00 0. -1.
</event>
<event>
 7    1  0.5676357E-006  0.1664957E+03  0.7818608E-02  0.1278386E+00
          2   -1    0    0  502    0  0.00000000000E+00  0.00000000000E+00  0.38440577425E+03  0.38440577425E+03  0.00000000000E+00 0. -1.
          1   -1    0    0  501    0 -0.00000000000E+00 -0.00000000000E+00 -0.17318961232E+04  0.17318961232E+04  0.00000000000E+00 0. -1.
         25    2    1    2    0    0 -0.49631199429E+02  0.20174862959E+03 -0.18635239238E+03  0.30583101866E+03  0.12505851564E+03 0.  0.
          2    1    1    2  501    0 -0.24466616127E+02 -0.56057892390E+02 -0.14645534661E+04  0.14658301258E+04  0.00000000000E+00 0. -1.
          1    1    1    2  502    0  0.74097815557E+02 -0.14569073720E+03  0.30341550956E+03  0.34464075298E+03  0.00000000000E+00 0. -1.
         22    1    3    3    0    0  0.34302043067E+02  0.64026629561E+02 -0.22796174768E+02  0.76129528013E+02  0.00000000000E+00 0. -1.
         22    1    3    3    0    0 -0.83933242496E+02  0.13772200002E+03 -0.16355621761E+03  0.22970149065E+03  0.00000000000E+00 0. -1.
</event>
<event>
 7    1  0.5676357E-006  0.7678402E+02  0.7818608E-02  0.1505989E+00
          2   -1    0    0  502    0  0.00000000000E+00  0.00000000000E+00  0.53367290958E+03  0.53367290958E+03  0.00000000000E+00 0. -1.
          1   -1    0    0  501    0 -0.00000000000E+00 -0.00000000000E+00 -0.61016587772E+03  0.61016587772E+03  0.00000000000E+00 0. -1.
         25    2    1    2    0    0 -0.52176694352E+02 -0.71061441818E+02  0.97889770940E+02  0.18160536507E+03  0.12500386162E+03 0.  0.
          2    1    1    2  501    0  0.31046243102E+02  0.70038240054E+02 -0.56543899362E+03  0.57060536256E+03  0.00000000000E+00 0. -1.
          1    1    1    2  502    0  0.21130451250E+02  0.10232017644E+01  0.39105625454E+03  0.39162805967E+03  0.00000000000E+00 0. -1.
         22    1    3    3    0    0 -0.51725028034E+02  0.24591010571E+02  0.34711510703E+02  0.66970779459E+02  0.00000000000E+00 0. -1.
         22    1    3    3    0    0 -0.45166631836E+00 -0.95652452390E+02  0.63178260237E+02  0.11463458561E+03  0.00000000000E+00 0. -1.
</event>
<event>
 7    1  0.5676357E-006  0.7673563E+02  0.7818608E-02  0.1340998E+00
          2   -1    0    0  502    0  0.00000000000E+00  0.00000000000E+00  0.48851048707E+03  0.48851048707E+03  0.00000000000E+00 0. -1.
          1   -1    0    0  501    0 -0.00000000000E+00 -0.00000000000E+00 -0.66335865102E+02  0.66335865102E+02  0.00000000000E+00 0. -1.
         25    2    1    2    0    0  0.96204487847E+01 -0.27542074772E+02  0.14044111586E+03  0.19025785698E+03  0.12499290460E+03 0.  0.
          2    1    1    2  501    0  0.76582587707E+02 -0.48439908990E+01  0.96448603991E+01  0.77339384015E+02  0.00000000000E+00 0. -1.
          1    1    1    2  502    0 -0.86203036492E+02  0.32386065671E+02  0.27208864570E+03  0.28724911118E+03  0.00000000000E+00 0. -1.
         22    1    3    3    0    0  0.65284845578E+02 -0.12365477346E+02  0.50740321961E+02  0.83603805923E+02  0.00000000000E+00 0.  1.
         22    1    3    3    0    0 -0.55664396793E+02 -0.15176597426E+02  0.89700793902E+02  0.10665405105E+03  0.00000000000E+00 0.  1.
</event>
<event>
 7    1  0.5676357E-006  0.5587845E+02  0.7818608E-02  0.1556692E+00
          2   -1    0    0  502    0  0.00000000000E+00  0.00000000000E+00  0.14310524886E+04  0.14310524886E+04  0.00000000000E+00 0. -1.
          1   -1    0    0  501    0 -0.00000000000E+00 -0.00000000000E+00 -0.45243638144E+03  0.45243638144E+03  0.00000000000E+00 0. -1.
         25    2    1    2    0    0  0.36081538158E+02  0.78979515601E+01  0.34307113531E+02  0.13478198159E+03  0.12499979795E+03 0.  0.
          2    1    1    2  501    0  0.19985652440E+02 -0.58212500965E+01 -0.40134465256E+03  0.40188411687E+03  0.00000000000E+00 0. -1.
          1    1    1    2  502    0 -0.56067190598E+02 -0.20767014636E+01  0.13456536462E+04  0.13468227716E+04  0.00000000000E+00 0. -1.
         22    1    3    3    0    0  0.25347423377E+02  0.63328375919E+02 -0.94680492401E+00  0.68219289852E+02  0.00000000000E+00 0. -1.
         22    1    3    3    0    0  0.10734114782E+02 -0.55430424359E+02  0.35253918455E+02  0.66562691736E+02  0.00000000000E+00 0. -1.
</event>
<event>
 7    1  0.5676357E-006  0.7846558E+02  0.7818608E-02  0.1409916E+00
          2   -1    0    0  502    0  0.00000000000E+00  0.00000000000E+00  0.91941346534E+03  0.91941346534E+03  0.00000000000E+00 0. -1.
          1   -1    0    0  501    0 -0.00000000000E+00 -0.00000000000E+00 -0.26660887382E+02  0.26660887382E+02  0.00000000000E+00 0. -1.
         25    2    1    2    0    0  0.54164164091E+02 -0.53022671892E+02  0.56458446671E+03  0.58320154147E+03  0.12499302985E+03 0.  0.
          2    1    1    2  501    0 -0.20693277282E+02  0.77921274291E+02  0.88972788078E+02  0.12006703848E+03  0.00000000000E+00 0. -1.
          1    1    1    2  502    0 -0.33470886809E+02 -0.24898602399E+02  0.23919532317E+03  0.24280577277E+03  0.00000000000E+00 0. -1.
         22    1    3    3    0    0 -0.41572861801E+01  0.19731639013E+02  0.33214519097E+03  0.33275674072E+03  0.00000000000E+00 0. -1.
         22    1    3    3    0    0  0.58321450271E+02 -0.72754310905E+02  0.23243927574E+03  0.25044480075E+03  0.00000000000E+00 0. -1.
</event>
<event>
 7    1  0.5676357E-006  0.9232716E+02  0.7818608E-02  0.1325175E+00
          2   -1    0    0  502    0  0.00000000000E+00  0.00000000000E+00  0.73808447527E+03  0.73808447527E+03  0.00000000000E+00 0. -1.
          1   -1    0    0  501    0 -0.00000000000E+00 -0.00000000000E+00 -0.95581799476E+03  0.95581799476E+03  0.00000000000E+00 0. -1.
         25    2    1    2    0    0 -0.16189403842E+03  0.12358931470E+02  0.60916415231E+02  0.21377142612E+03  0.12499996047E+03 0.  0.
          2    1    1    2  501    0  0.91124657333E+02 -0.63287622934E+00 -0.87487403626E+03  0.87960711856E+03  0.00000000000E+00 0. -1.
          1    1    1    2  502    0  0.70769381085E+02 -0.11726055241E+02  0.59622410153E+03  0.60052392535E+03  0.00000000000E+00 0. -1.
         22    1    3    3    0    0 -0.43510861401E+02  0.13922965977E+02  0.81663953198E+02  0.93573742543E+02  0.00000000000E+00 0. -1.
         22    1    3    3    0    0 -0.11838317702E+03 -0.15640345074E+01 -0.20747537968E+02  0.12019768357E+03  0.00000000000E+00 0. -1.
</event>
<event>
 7    1  0.5676357E-006  0.6311370E+02  0.7818608E-02  0.1488873E+00
          2   -1    0    0  502    0  0.00000000000E+00  0.00000000000E+00  0.22590265578E+04  0.22590265578E+04  0.00000000000E+00 0. -1.
          1   -1    0    0  501    0 -0.00000000000E+00 -0.00000000000E+00 -0.10355986574E+02  0.10355986574E+02  0.00000000000E+00 0. -1.
         25    2    1    2    0    0 -0.28878051485E+01 -0.42965371858E+02  0.11323295539E+04  0.11400215964E+04  0.12499863598E+03 0.  0.
          2    1    1    2  501    0 -0.16553711675E+02  0.64431740065E+02  0.16964626841E+03  0.18222329951E+03  0.00000000000E+00 0. -1.
          1    1    1    2  502    0  0.19441516824E+02 -0.21466368207E+02  0.94669474892E+03  0.94713764848E+03  0.00000000000E+00 0. -1.
         22    1    3    3    0    0 -0.12354960391E+02  0.43429353526E+02  0.41274866696E+03  0.41521104980E+03  0.00000000000E+00 0.  1.
         22    1    3    3    0    0  0.94671552423E+01 -0.86394725385E+02  0.71958088696E+03  0.72481054661E+03  0.00000000000E+00 0.  1.
</event>
<event>
 7    1  0.5676357E-006  0.5393426E+02  0.7818608E-02  0.1445706E+00
          2   -1    0    0  502    0  0.00000000000E+00  0.00000000000E+00  0.36106721531E+02  0.36106721531E+02  0.00000000000E+00 0. -1.
          1   -1    0    0  501    0 -0.00000000000E+00 -0.00000000000E+00 -0.58188147409E+03  0.58188147409E+03  0.00000000000E+00 0. -1.
         25    2    1    2    0    0 -0.23166113092E+02 -0.21707702115E+02 -0.14816550388E+03  0.19643682891E+03  0.12500607220E+03 0.  0.
          2    1    1    2  501    0 -0.29327758680E+01 -0.46134583222E+02 -0.27622776392E+03  0.28006923877E+03  0.00000000000E+00 0. -1.
          1    1    1    2  502    0  0.26098888960E+02  0.67842285337E+02 -0.12138148476E+03  0.14148212794E+03  0.00000000000E+00 0. -1.
         22    1    3    3    0    0 -0.60432337139E+02 -0.10649111304E+02 -0.14498314360E+03  0.15743437639E+03  0.00000000000E+00 0. -1.
         22    1    3    3    0    0  0.37266224047E+02 -0.11058590811E+02 -0.31823602864E+01  0.39002452519E+02  0.00000000000E+00 0. -1.
</event>
<event>
 7    1  0.5676357E-006  0.1083508E+03  0.7818608E-02  0.1276125E+00
          2   -1    0    0  502    0  0.00000000000E+00  0.00000000000E+00  0.73539103807E+03  0.73539103807E+03  0.00000000000E+00 0. -1.
          1   -1    0    0  501    0 -0.00000000000E+00 -0.00000000000E+00 -0.46005265453E+03  0.46005265453E+03  0.00000000000E+00 0. -1.
         25    2    1    2    0    0  0.81732137617E+02  0.18584042528E+01 -0.27675476989E+02  0.15189306988E+03  0.12498790608E+03 0.  0.
          2    1    1    2  501    0 -0.66112631505E+02 -0.96620579988E+02 -0.35745322932E+03  0.37613724579E+03  0.00000000000E+00 0. -1.
          1    1    1    2  502    0 -0.15619506112E+02  0.94762175735E+02  0.66046708985E+03  0.66741337692E+03  0.00000000000E+00 0. -1.
         22    1    3    3    0    0 -0.16755517705E+02 -0.26800399064E+02 -0.37275707864E+02  0.48872151173E+02  0.00000000000E+00 0. -1.
         22    1    3    3    0    0  0.98487655322E+02  0.28658803317E+02  0.96002308745E+01  0.10302091871E+03  0.00000000000E+00 0. -1.
</event>
<event>
 7    1  0.5676357E-006  0.1910966E+03  0.7818608E-02  0.1222833E+00
          2   -1    0    0  502    0  0.00000000000E+00  0.00000000000E+00  0.59295273746E+03  0.59295273746E+03  0.00000000000E+00 0. -1.
          1   -1    0    0  501    0 -0.00000000000E+00 -0.00000000000E+00 -0.31294742300E+03  0.31294742300E+03  0.00000000000E+00 0. -1.
         25    2    1    2    0    0 -0.11880158878E+03 -0.21317875017E+03  0.24871855521E+03  0.37019634557E+03  0.12500167019E+03 0.  0.
          2    1    1    2  501    0  0.79914228639E+02  0.47168111718E+02 -0.21613983620E+03  0.23521807646E+03  0.00000000000E+00 0. -1.
          1    1    1    2  502    0  0.38887360143E+02  0.16601063845E+03  0.24742659545E+03  0.30048573842E+03  0.00000000000E+00 0. -1.
         22    1    3    3    0    0 -0.44686200914E+02 -0.90129295806E+02  0.23890275732E+02  0.10339676876E+03  0.00000000000E+00 0. -1.
         22    1    3    3    0    0 -0.74115387868E+02 -0.12304945436E+03  0.22482827947E+03  0.26679957682E+03  0.00000000000E+00 0. -1.
</event>
<event>
 7    1  0.5676357E-006  0.5365545E+02  0.7818608E-02  0.1467700E+00
          2   -1    0    0  502    0  0.00000000000E+00  0.00000000000E+00  0.19404276231E+04  0.19404276231E+04  0.00000000000E+00 0. -1.
          1   -1    0    0  501    0 -0.00000000000E+00 -0.00000000000E+00 -0.16352023544E+03  0.16352023544E+03  0.00000000000E+00 0. -1.
         25    2    1    2    0    0 -0.37154758844E+02 -0.46190182232E+02  0.93105087135E+03  0.94127305374E+03  0.12500091043E+03 0.  0.
          2    1    1    2  501    0  0.52789502529E+02  0.98324129472E+01 -0.15345559446E+03  0.16257929570E+03  0.00000000000E+00 0. -1.
          1    1    1    2  502    0 -0.15634743685E+02  0.36357769285E+02  0.99931211080E+03  0.10000955091E+04  0.00000000000E+00 0. -1.
         22    1    3    3    0    0 -0.54363071643E+02  0.20095762017E+02  0.62358809056E+03  0.62627572993E+03  0.00000000000E+00 0. -1.
         22    1    3    3    0    0  0.17208312799E+02 -0.66285944249E+02  0.30746278079E+03  0.31499732380E+03  0.00000000000E+00 0. -1.
</event>
<event>
 7    1  0.5676357E-006  0.6938918E+02  0.7818608E-02  0.1402509E+00
          2   -1    0    0  502    0  0.00000000000E+00  0.00000000000E+00  0.30071222233E+04  0.30071222233E+04  0.00000000000E+00 0. -1.
          1   -1    0    0  501    0 -0.00000000000E+00 -0.00000000000E+00 -0.18851687889E+02  0.18851687889E+02  0.00000000000E+00 0. -1.
         25    2    1    2    0    0 -0.20263837877E+02 -0.10570912800E+03  0.95565290021E+03  0.96978461203E+03  0.12499874073E+03 0.  0.
          2    1    1    2  501    0  0.32899697381E+02  0.57336712376E+02  0.83820433806E+02  0.10675089600E+03  0.00000000000E+00 0. -1.
          1    1    1    2  502    0 -0.12635859504E+02  0.48372415621E+02  0.19487972014E+04  0.19494384031E+04  0.00000000000E+00 0. -1.
         22    1    3    3    0    0 -0.65844330377E+02 -0.21699818073E+02  0.39027845147E+03  0.39638822842E+03  0.00000000000E+00 0. -1.
         22    1    3    3    0    0  0.45580492500E+02 -0.84009309924E+02  0.56537444874E+03  0.57339638362E+03  0.00000000000E+00 0. -1.
</event>
<event>
 7    1  0.5676357E-006  0.1124078E+03  0.7818608E-02  0.1289344E+00
          2   -1    0    0  502    0  0.00000000000E+00  0.00000000000E+00  0.14853296680E+04  0.14853296680E+04  0.00000000000E+00 0. -1.
          1   -1    0    0  501    0 -0.00000000000E+00 -0.00000000000E+00 -0.21721928099E+04  0.21721928099E+04  0.00000000000E+00 0. -1.
         25    2    1    2    0    0 -0.10817983951E+03 -0.81131635402E+02 -0.24762963055E+03  0.30859496550E+03  0.12500079547E+03 0.  0.
          2    1    1    2  501    0  0.11257154030E+03 -0.42742329806E+00 -0.18912591583E+04  0.18946064864E+04  0.00000000000E+00 0. -1.
          1    1    1    2  502    0 -0.43917007954E+01  0.81559058700E+02  0.14520256470E+04  0.14543210260E+04  0.00000000000E+00 0. -1.
         22    1    3    3    0    0 -0.12553258138E+03 -0.33253332177E+02 -0.20242749303E+03  0.24050177343E+03  0.00000000000E+00 0.  1.
         22    1    3    3    0    0  0.17352741870E+02 -0.47878303225E+02 -0.45202137521E+02  0.68093192072E+02  0.00000000000E+00 0.  1.
</event>
<event>
 7    1  0.5676357E-006  0.5179577E+02  0.7818608E-02  0.1447839E+00
          2   -1    0    0  502    0  0.00000000000E+00  0.00000000000E+00  0.80251283249E+02  0.80251283249E+02  0.00000000000E+00 0. -1.
          1   -1    0    0  501    0 -0.00000000000E+00 -0.00000000000E+00 -0.17732128355E+04  0.17732128355E+04  0.00000000000E+00 0. -1.
         25    2    1    2    0    0  0.40313816241E+01  0.47916746741E+02 -0.75172623375E+03  0.76356389694E+03  0.12500091018E+03 0.  0.
          2    1    1    2  501    0 -0.46944164450E+02 -0.27827815022E+02 -0.10072025321E+04  0.10086798711E+04  0.00000000000E+00 0. -1.
          1    1    1    2  502    0  0.42912782826E+02 -0.20088931719E+02  0.65967213524E+02  0.81220350699E+02  0.00000000000E+00 0. -1.
         22    1    3    3    0    0 -0.40346462932E+02 -0.57230491524E+01 -0.52029607809E+03  0.52188945117E+03  0.00000000000E+00 0.  1.
         22    1    3    3    0    0  0.44377844556E+02  0.53639795893E+02 -0.23143015566E+03  0.24167444577E+03  0.00000000000E+00 0.  1.
</event>
<event>
 7    1  0.5676357E-006  0.4048197E+02  0.7818608E-02  0.1530624E+00
          2   -1    0    0  502    0  0.00000000000E+00  0.00000000000E+00  0.12466225830E+04  0.12466225830E+04  0.00000000000E+00 0. -1.
          1   -1    0    0  501    0 -0.00000000000E+00 -0.00000000000E+00 -0.56456603594E+02  0.56456603594E+02  0.00000000000E+00 0. -1.
         25    2    1    2    0    0 -0.32091410024E+01 -0.73368479664E+02  0.30481978629E+03  0.33754119822E+03  0.12500290392E+03 0.  0.
          2    1    1    2  501    0  0.26400205178E+00  0.39477488914E+02 -0.29985150595E+02  0.49574702059E+02  0.00000000000E+00 0. -1.
          1    1    1    2  502    0  0.29451389506E+01  0.33890990750E+02  0.91533134374E+03  0.91596328634E+03  0.00000000000E+00 0. -1.
         22    1    3    3    0    0 -0.14905262346E+02  0.33886265849E+02  0.73398694430E+02  0.82205925594E+02  0.00000000000E+00 0.  1.
         22    1    3    3    0    0  0.11696121343E+02 -0.10725474551E+03  0.23142109186E+03  0.25533527263E+03  0.00000000000E+00 0.  1.
</event>
<event>
 7    1  0.5676357E-006  0.4940323E+02  0.7818608E-02  0.1568121E+00
          2   -1    0    0  502    0  0.00000000000E+00  0.00000000000E+00  0.21120536748E+04  0.21120536748E+04  0.00000000000E+00 0. -1.
          1   -1    0    0  501    0 -0.00000000000E+00 -0.00000000000E+00 -0.16539123956E+03  0.16539123956E+03  0.00000000000E+00 0. -1.
         25    2    1    2    0    0  0.24510120632E+02  0.14488785676E+02  0.24022975050E+03  0.27229659935E+03  0.12499773626E+03 0.  0.
          2    1    1    2  501    0  0.14828961376E+02  0.16121210224E+02 -0.14821807428E+03  0.14982786475E+03  0.00000000000E+00 0. -1.
          1    1    1    2  502    0 -0.39339082007E+02 -0.30609995901E+02  0.18546507590E+04  0.18553204502E+04  0.00000000000E+00 0. -1.
         22    1    3    3    0    0  0.37195757416E+02 -0.44524110560E+02  0.65831534359E+02  0.87748001157E+02  0.00000000000E+00 0. -1.
         22    1    3    3    0    0 -0.12685636784E+02  0.59012896237E+02  0.17439821614E+03  0.18454859819E+03  0.00000000000E+00 0. -1.
</event>
<event>
 7    1  0.5676357E-006  0.8019030E+02  0.7818608E-02  0.1398416E+00
          2   -1    0    0  502    0  0.00000000000E+00  0.00000000000E+00  0.21505898538E+04  0.21505898538E+04  0.00000000000E+00 0. -1.
          1   -1    0    0  501    0 -0.00000000000E+00 -0.00000000000E+00 -0.16664648923E+04  0.16664648923E+04  0.00000000000E+00 0. -1.
         25    2    1    2    0    0  0.48141085755E+02 -0.94933820616E+02  0.85606231194E+03  0.87166965005E+03  0.12504120305E+03 0.  0.
          2    1    1    2  501    0  0.95735463632E+01  0.43647734994E+02 -0.16572015587E+04  0.16578039038E+04  0.00000000000E+00 0. -1.
          1    1    1    2  502    0 -0.57714632118E+02  0.51286085621E+02  0.12852642083E+04  0.12875811921E+04  0.00000000000E+00 0. -1.
         22    1    3    3    0    0  0.59358395742E+02 -0.38302538101E+02  0.18341075590E+03  0.19654518297E+03  0.00000000000E+00 0. -1.
         22    1    3    3    0    0 -0.11217309987E+02 -0.56631282515E+02  0.67265155604E+03  0.67512446708E+03  0.00000000000E+00 0. -1.
</event>
<event>
 7    1  0.5676357E-006  0.1738496E+03  0.7818608E-02  0.1227751E+00
          2   -1    0    0  502    0  0.00000000000E+00  0.00000000000E+00  0.35990366939E+03  0.35990366939E+03  0.00000000000E+00 0. -1.
          1   -1    0    0  501    0 -0.00000000000E+00 -0.00000000000E+00 -0.13716682389E+04  0.13716682389E+04  0.00000000000E+00 0. -1.
         25    2    1    2    0    0  0.97224323697E+02 -0.22662527349E+03 -0.72502138168E+02  0.28582092746E+03  0.12500183531E+03 0.  0.
          2    1    1    2  501    0  0.29768577872E+01  0.96867350595E+02 -0.11637467454E+04  0.11677750780E+04  0.00000000000E+00 0. -1.
          1    1    1    2  502    0 -0.10020118148E+03  0.12975792289E+03  0.22448431405E+03  0.27797590287E+03  0.00000000000E+00 0. -1.
         22    1    3    3    0    0  0.32126011930E+02 -0.20262127678E+02  0.28045056814E+02  0.47213977510E+02  0.00000000000E+00 0. -1.
         22    1    3    3    0    0  0.65098311767E+02 -0.20636314581E+03 -0.10054719498E+03  0.23860694995E+03  0.00000000000E+00 0. -1.
</event>
<event>
 7    1  0.5676357E-006  0.1172107E+03  0.7818608E-02  0.1322906E+00
          2   -1    0    0  502    0  0.00000000000E+00  0.00000000000E+00  0.30373358104E+04  0.30373358104E+04  0.00000000000E+00 0. -1.
          1   -1    0    0  501    0 -0.00000000000E+00 -0.00000000000E+00 -0.57851970760E+03  0.57851970760E+03  0.00000000000E+00 0. -1.
         25    2    1    2    0    0 -0.39283951352E+02 -0.68555299396E+02 -0.54502059859E+02  0.15760304941E+03  0.12500075497E+03 0.  0.
          2    1    1    2  501    0  0.19015734789E+02  0.12253029685E+03 -0.46404762626E+03  0.48032850348E+03  0.00000000000E+00 0. -1.
          1    1    1    2  502    0  0.20268216564E+02 -0.53974997458E+02  0.29773657890E+04  0.29779239652E+04  0.00000000000E+00 0. -1.
         22    1    3    3    0    0 -0.38268002607E+02  0.19780654627E+02 -0.54234220335E+02  0.69260847355E+02  0.00000000000E+00 0. -1.
         22    1    3    3    0    0 -0.10159487454E+01 -0.88335954024E+02 -0.26783952329E+00  0.88342202050E+02  0.00000000000E+00 0. -1.
</event>
<event>
 7    1  0.5676357E-006  0.3490535E+02  0.7818608E-02  0.1578327E+00
          2   -1    0    0  502    0  0.00000000000E+00  0.00000000000E+00  0.10259908518E+04  0.10259908518E+04  0.00000000000E+00 0. -1.
          1   -1    0    0  501    0 -0.00000000000E+00 -0.00000000000E+00 -0.63938766012E+03  0.63938766012E+03  0.00000000000E+00 0. -1.
         25    2    1    2    0    0 -0.23781838207E+02 -0.47483731589E+02  0.14761349238E+03  0.20058623697E+03  0.12499925895E+03 0.  0.
          2    1    1    2  501    0  0.26122995652E+02  0.12804701671E+02 -0.61220117308E+03  0.61289203585E+03  0.00000000000E+00 0. -1.
          1    1    1    2  502    0 -0.23411574451E+01  0.34679029918E+02  0.85119087243E+03  0.85190023914E+03  0.00000000000E+00 0. -1.
         22    1    3    3    0    0  0.89332386000E+01 -0.61722317721E+02  0.15232465579E+03  0.16459722968E+03  0.00000000000E+00 0.  1.
         22    1    3    3    0    0 -0.32715076807E+02  0.14238586132E+02 -0.47111634119E+01  0.35989007297E+02  0.00000000000E+00 0.  1.
</event>
<event>
 7    1  0.5676357E-006  0.5716741E+02  0.7818608E-02  0.1466344E+00
          2   -1    0    0  502    0  0.00000000000E+00  0.00000000000E+00  0.93224824858E+03  0.93224824858E+03  0.00000000000E+00 0. -1.
          1   -1    0    0  501    0 -0.00000000000E+00 -0.00000000000E+00 -0.11360383930E+04  0.11360383930E+04  0.00000000000E+00 0. -1.
         25    2    1    2    0    0  0.39878324197E+02  0.40026062027E+02  0.53654554992E+03  0.55380402642E+03  0.12500162461E+03 0.  0.
          2    1    1    2  501    0 -0.56807806149E+02 -0.65541924057E+01 -0.11257730041E+04  0.11272244413E+04  0.00000000000E+00 0. -1.
          1    1    1    2  502    0  0.16929481952E+02 -0.33471869622E+02  0.38543730980E+03  0.38725817383E+03  0.00000000000E+00 0. -1.
         22    1    3    3    0    0 -0.38307686180E+02 -0.88905374788E+01  0.24146569315E+03  0.24464709572E+03  0.00000000000E+00 0. -1.
         22    1    3    3    0    0  0.78186010377E+02  0.48916599506E+02  0.29507985677E+03  0.30915693070E+03  0.00000000000E+00 0. -1.
</event>
<event>
 7    1  0.5676357E-006  0.1366577E+03  0.7818608E-02  0.1330585E+00
          2   -1    0    0  502    0  0.00000000000E+00  0.00000000000E+00  0.34760699378E+03  0.34760699378E+03  0.00000000000E+00 0. -1.
          1   -1    0    0  501    0 -0.00000000000E+00 -0.00000000000E+00 -0.13465151054E+04  0.13465151054E+04  0.00000000000E+00 0. -1.
         25    2    1    2    0    0 -0.24217426377E+02 -0.94755991798E+02 -0.41701350722E+03  0.44619469871E+03  0.12499704888E+03 0.  0.
          2    1    1    2  501    0 -0.35375615209E+02 -0.29722597923E+02 -0.89999459775E+03  0.90117986160E+03  0.00000000000E+00 0. -1.
          1    1    1    2  502    0  0.59593041586E+02  0.12447858972E+03  0.31809999338E+03  0.34674753884E+03  0.00000000000E+00 0. -1.
         22    1    3    3    0    0 -0.23826565511E+02 -0.12554082107E+03 -0.32833272490E+03  0.35232170132E+03  0.00000000000E+00 0. -1.
         22    1    3    3    0    0 -0.39086086553E+00  0.30784829275E+02 -0.88680782318E+02  0.93872997386E+02  0.00000000000E+00 0. -1.
</event>
<event>
 7    1  0.5676357E-006  0.9938643E+02  0.7818608E-02  0.1302364E+00
          2   -1    0    0  502    0  0.00000000000E+00  0.00000000000E+00  0.29909775203E+03  0.29909775203E+03  0.00000000000E+00 0. -1.
          1   -1    0    0  501    0 -0.00000000000E+00 -0.00000000000E+00 -0.40440139586E+03  0.40440139586E+03  0.00000000000E+00 0. -1.
         25    2    1    2    0    0 -0.67297677135E+01 -0.14631611591E+03 -0.84691998274E+02  0.21036511235E+03  0.12500820123E+03 0.  0.
          2    1    1    2  501    0  0.53171259041E+02  0.78898015054E+02 -0.24042767791E+03  0.25856826541E+03  0.00000000000E+00 0. -1.
          1    1    1    2  502    0 -0.46441491328E+02  0.67418100853E+02  0.21981603235E+03  0.23456577013E+03  0.00000000000E+00 0. -1.
         22    1    3    3    0    0 -0.39254273309E+02 -0.15389604167E+03 -0.74647868591E+02  0.17549129294E+03  0.00000000000E+00 0.  1.
         22    1    3    3    0    0  0.32524505596E+02  0.75799257592E+01 -0.10044129683E+02  0.34873819404E+02  0.00000000000E+00 0.  1.
</event>
<event>
 7    1  0.5676357E-006  0.1608698E+03  0.7818608E-02  0.1317746E+00
          2   -1    0    0  502    0  0.00000000000E+00  0.00000000000E+00  0.32555654558E+03  0.32555654558E+03  0.00000000000E+00 0. -1.
          1   -1    0    0  501    0 -0.00000000000E+00 -0.00000000000E+00 -0.61849008692E+03  0.61849008692E+03  0.00000000000E+00 0. -1.
         25    2    1    2    0    0  0.13170139099E+03 -0.12860294616E+01 -0.13941461405E+03  0.22892179248E+03  0.12498736817E+03 0.  0.
          2    1    1    2  501    0  0.29870949481E+02 -0.32291148173E+02 -0.40879393176E+03  0.41115382829E+03  0.00000000000E+00 0. -1.
          1    1    1    2  502    0 -0.16157234047E+03  0.33577177634E+02  0.25527500447E+03  0.30397101173E+03  0.00000000000E+00 0. -1.
         22    1    3    3    0    0 -0.97395093668E+01 -0.27153791923E+02 -0.29454173305E+00  0.28849145799E+02  0.00000000000E+00 0.  1.
         22    1    3    3    0    0  0.14144090035E+03  0.25867762462E+02 -0.13912007232E+03  0.20007264668E+03  0.00000000000E+00 0.  1.
</event>
<event>
 7    1  0.5676357E-006  0.6847514E+02  0.7818608E-02  0.1486352E+00
          2   -1    0    0  502    0  0.00000000000E+00  0.00000000000E+00  0.65391793431E+03  0.65391793431E+03  0.00000000000E+00 0. -1.
          1   -1    0    0  501    0 -0.00000000000E+00 -0.00000000000E+00 -0.13317116343E+03  0.13317116343E+03  0.00000000000E+00 0. -1.
         25    2    1    2    0    0 -0.89567796264E+02  0.87697453750E+01 -0.57254051032E+02  0.16432324310E+03  0.12499921321E+03 0.  0.
          2    1    1    2  501    0  0.21842458503E+02 -0.16156629590E+02 -0.11383654439E+02  0.29457040951E+02  0.00000000000E+00 0. -1.
          1    1    1    2  502    0  0.67725337760E+02  0.73868842154E+01  0.58938447635E+03  0.59330881369E+03  0.00000000000E+00 0. -1.
         22    1    3    3    0    0 -0.92354188130E+02 -0.40354413186E+02 -0.20353518245E+02  0.10282042810E+03  0.00000000000E+00 0. -1.
         22    1    3    3    0    0  0.27863918665E+01  0.49124158561E+02 -0.36900532787E+02  0.61502815008E+02  0.00000000000E+00 0. -1.
</event>
<event>
 7    1  0.5676357E-006  0.8262569E+02  0.7818608E-02  0.1423282E+00
          2   -1    0    0  502    0  0.00000000000E+00  0.00000000000E+00  0.10474262030E+04  0.10474262030E+04  0.00000000000E+00 0. -1.
          1   -1    0    0  501    0 -0.00000000000E+00 -0.00000000000E+00 -0.65536161439E+03  0.65536161439E+03  0.00000000000E+00 0. -1.
         25    2    1    2    0    0  0.11460920677E+03 -0.23254096331E+02  0.16793807080E+02  0.17199622982E+03  0.12499859137E+03 0.  0.
          2    1    1    2  501    0 -0.33461970413E+02  0.12520770974E+02 -0.57544778706E+03  0.57655583320E+03  0.00000000000E+00 0. -1.
          1    1    1    2  502    0 -0.81147236355E+02  0.10733325357E+02  0.95071856855E+03  0.95423575432E+03  0.00000000000E+00 0. -1.
         22    1    3    3    0    0  0.25596256679E+02 -0.28036206258E+02  0.61499310313E+02  0.72272832975E+02  0.00000000000E+00 0.  1.
         22    1    3    3    0    0  0.89012950089E+02  0.47821099265E+01 -0.44705503233E+02  0.99723396844E+02  0.00000000000E+00 0.  1.
</event>
<event>
 7    1  0.5676357E-006  0.1387246E+03  0.7818608E-02  0.1417742E+00
          2   -1    0    0  502    0  0.00000000000E+00  0.00000000000E+00  0.11988529702E+03  0.11988529702E+03  0.00000000000E+00 0. -1.
          1   -1    0    0  501    0 -0.00000000000E+00 -0.00000000000E+00 -0.47638275608E+03  0.47638275608E+03  0.00000000000E+00 0. -1.
         25    2    1    2    0    0  0.15879807149E+01  0.15552558029E+03 -0.77862029533E+02  0.21419223089E+03  0.12500035329E+03 0.  0.
          2    1    1    2  501    0  0.72001531036E+01 -0.13513338719E+03 -0.31309102612E+03  0.34108483575E+03  0.00000000000E+00 0. -1.
          1    1    1    2  502    0 -0.87881338186E+01 -0.20392193095E+02  0.34455596585E+02  0.40990986464E+02  0.00000000000E+00 0. -1.
         22    1    3    3    0    0 -0.19994498519E+02  0.13515728003E+03 -0.63597376909E+01  0.13677615501E+03  0.00000000000E+00 0. -1.
         22    1    3    3    0    0  0.21582479234E+02  0.20368300256E+02 -0.71502291842E+02  0.77416075875E+02  0.00000000000E+00 0. -1.
</event>
<event>
 7    1  0.5676357E-006  0.1249054E+03  0.7818608E-02  0.1279179E+00
          2   -1    0    0  502    0  0.00000000000E+00  0.00000000000E+00  0.19199496867E+04  0.19199496867E+04  0.00000000000E+00 0. -1.
          1   -1    0    0  501    0 -0.00000000000E+00 -0.00000000000E+00 -0.10167526608E+03  0.10167526608E+03  0.00000000000E+00 0. -1.
         25    2    1    2    0    0 -0.18113568852E+03  0.77245729949E+02  0.55837407491E+03  0.60513081535E+03  0.12499862278E+03 0.  0.
          2    1    1    2  501    0  0.10153583865E+03 -0.62708669389E+02 -0.30807977811E+02  0.12325191781E+03  0.00000000000E+00 0. -1.
          1    1    1    2  502    0  0.79599849875E+02 -0.14537060559E+02  0.12907083235E+04  0.12932422196E+04  0.00000000000E+00 0. -1.
         22    1    3    3    0    0 -0.88786593139E+02 -0.79025959856E+01  0.35560313212E+03  0.36660482501E+03  0.00000000000E+00 0. -1.
         22    1    3    3    0    0 -0.92349095382E+02  0.85148325934E+02  0.20277094279E+03  0.23852599034E+03  0.00000000000E+00 0. -1.
</event>
<event>
 7    1  0.5676357E-006  0.5623063E+02  0.7818608E-02  0.1430826E+00
          2   -1    0    0  502    0  0.00000000000E+00  0.00000000000E+00  0.24463629366E+02  0.24463629366E+02  0.00000000000E+00 0. -1.
          1   -1    0    0  501    0 -0.00000000000E+00 -0.00000000000E+00 -0.13066996722E+04  0.13066996722E+04  0.00000000000E+00 0. -1.
         25    2    1    2    0    0  0.31962490776E+02 -0.85932533893E+02 -0.85990696773E+03  0.87376835780E+03  0.12500059498E+03 0.  0.
          2    1    1    2  501    0 -0.38280038504E+02  0.31490670943E+02 -0.39127330973E+03  0.39440059154E+03  0.00000000000E+00 0. -1.
          1    1    1    2  502    0  0.63175477280E+01  0.54441862950E+02 -0.31055765410E+02  0.62994352255E+02  0.00000000000E+00 0. -1.
         22    1    3    3    0    0 -0.47192695938E+02 -0.35291825337E+02 -0.40428229761E+03  0.40855457365E+03  0.00000000000E+00 0. -1.
         22    1    3    3    0    0  0.79155186714E+02 -0.50640708556E+02 -0.45562467012E+03  0.46521378416E+03  0.00000000000E+00 0. -1.
</event>
<event>
 7    1  0.5676357E-006  0.1030483E+03  0.7818608E-02  0.1339128E+00
          2   -1    0    0  502    0  0.00000000000E+00  0.00000000000E+00  0.35436623771E+03  0.35436623771E+03  0.00000000000E+00 0. -1.
          1   -1    0    0  501    0 -0.00000000000E+00 -0.00000000000E+00 -0.34111650774E+04  0.34111650774E+04  0.00000000000E+00 0. -1.
         25    2    1    2    0    0 -0.79182405249E+02  0.92912333966E+02 -0.10968864998E+03  0.20629926269E+03  0.12500092299E+03 0.  0.
          2    1    1    2  501    0  0.95513777788E+02 -0.38437695643E+02 -0.32497069913E+04  0.32513375506E+04  0.00000000000E+00 0. -1.
          1    1    1    2  502    0 -0.16331372539E+02 -0.54474638323E+02  0.30259680159E+03  0.30789450187E+03  0.00000000000E+00 0. -1.
         22    1    3    3    0    0 -0.71582055162E+02 -0.19992824438E+01 -0.78148036499E+02  0.10599577048E+03  0.00000000000E+00 0. -1.
         22    1    3    3    0    0 -0.76003500875E+01  0.94911616410E+02 -0.31540613479E+02  0.10030349221E+03  0.00000000000E+00 0. -1.
</event>
<event>
 7    1  0.5676357E-006  0.1714974E+03  0.7818608E-02  0.1400138E+00
          2   -1    0    0  502    0  0.00000000000E+00  0.00000000000E+00  0.26463420898E+03  0.26463420898E+03  0.00000000000E+00 0. -1.
          1   -1    0    0  501    0 -0.00000000000E+00 -0.00000000000E+00 -0.19009038746E+04  0.19009038746E+04  0.00000000000E+00 0. -1.
         25    2    1    2    0    0  0.18469267993E+03 -0.48033971040E+02 -0.63039028076E+02  0.23667951756E+03  0.12499850631E+03 0.  0.
          2    1    1    2  501    0 -0.16414839622E+03  0.46375497914E+02 -0.17462775756E+04  0.17545884857E+04  0.00000000000E+00 0. -1.
          1    1    1    2  502    0 -0.20544283714E+02  0.16584731260E+01  0.17304693809E+03  0.17427008036E+03  0.00000000000E+00 0. -1.
         22    1    3    3    0    0  0.15148305332E+03 -0.55850821430E+02 -0.97156875737E+02  0.18843006183E+03  0.00000000000E+00 0.  1.
         22    1    3    3    0    0  0.33209626617E+02  0.78168503902E+01  0.34117847661E+02  0.48249455739E+02  0.00000000000E+00 0.  1.
</event>
<event>
 7    1  0.5676357E-006  0.6011799E+02  0.7818608E-02  0.1439178E+00
          2   -1    0    0  502    0  0.00000000000E+00  0.00000000000E+00  0.56564365312E+03  0.56564365312E+03  0.00000000000E+00 0. -1.
          1   -1    0    0  501    0 -0.00000000000E+00 -0.00000000000E+00 -0.68323544836E+03  0.68323544836E+03  0.00000000000E+00 0. -1.
         25    2    1    2    0    0  0.60583260626E+02 -0.53428515735E+02  0.39867965304E+03  0.42554874139E+03  0.12498531029E+03 0.  0.
          2    1    1    2  501    0 -0.43528798996E+02  0.92820185165E+00 -0.66410311077E+03  0.66552878198E+03  0.00000000000E+00 0. -1.
          1    1    1    2  502    0 -0.17054461631E+02  0.52500313883E+02  0.14783166249E+03  0.15780157811E+03  0.00000000000E+00 0. -1.
         22    1    3    3    0    0  0.55143245810E+02  0.15160753675E+02  0.73281967232E+02  0.92956294740E+02  0.00000000000E+00 0.  1.
         22    1    3    3    0    0  0.54400148163E+01 -0.68589269410E+02  0.32539768581E+03  0.33259244665E+03  0.00000000000E+00 0.  1.
</event>
<event>
 7    1  0.5676357E-006  0.1926572E+03  0.7818608E-02  0.1266787E+00
          2   -1    0    0  502    0  0.00000000000E+00  0.00000000000E+00  0.78662261038E+03  0.78662261038E+03  0.00000000000E+00 0. -1.
          1   -1    0    0  501    0 -0.00000000000E+00 -0.00000000000E+00 -0.89115399030E+03  0.89115399030E+03  0.00000000000E+00 0. -1.
         25    2    1    2    0    0  0.15657410995E+03 -0.99906045567E+02 -0.39752067190E+02  0.22738009810E+03  0.12499924927E+03 0.  0.
          2    1    1    2  501    0 -0.18811163143E+03  0.49918338706E+02 -0.74378341854E+03  0.76882481757E+03  0.00000000000E+00 0. -1.
          1    1    1    2  502    0  0.31537521474E+02  0.49987706861E+02  0.67900410581E+03  0.68157168500E+03  0.00000000000E+00 0. -1.
         22    1    3    3    0    0 -0.11983800389E+02 -0.77641603672E+01 -0.32095916470E+02  0.35128926997E+02  0.00000000000E+00 0. -1.
         22    1    3    3    0    0  0.16855791034E+03 -0.92141885199E+02 -0.76561507202E+01  0.19225117110E+03  0.00000000000E+00 0. -1.
</event>
<event>
 7    1  0.5676357E-006  0.6735260E+02  0.7818608E-02  0.1475645E+00
          2   -1    0    0  502    0  0.00000000000E+00  0.00000000000E+00  0.23780041993E+03  0.23780041993E+03  0.00000000000E+00 0. -1.
          1   -1    0    0  501    0 -0.00000000000E+00 -0.00000000000E+00 -0.63170365366E+03  0.63170365366E+03  0.00000000000E+00 0. -1.
         25    2    1    2    0    0  0.45646771289E+02 -0.56936959210E+02 -0.26777990090E+03  0.30439451057E+03  0.12499799073E+03 0.  0.
          2    1    1    2  501    0 -0.17004647167E+02  0.65119980002E+02 -0.34130408083E+03  0.34787676757E+03  0.00000000000E+00 0. -1.
          1    1    1    2  502    0 -0.28642124122E+02 -0.81830207920E+01  0.21518074801E+03  0.21723279544E+03  0.00000000000E+00 0. -1.
         22    1    3    3    0    0  0.63023676267E+02  0.15312967941E+02 -0.83743875338E+02  0.10592217621E+03  0.00000000000E+00 0.  1.
         22    1    3    3    0    0 -0.17376904978E+02 -0.72249927151E+02 -0.18403602557E+03  0.19847233436E+03  0.00000000000E+00 0.  1.
</event>
<event>
 7    1  0.5676357E-006  0.7247928E+02  0.7818608E-02  0.1470916E+00
          2   -1    0    0  502    0  0.00000000000E+00  0.00000000000E+00  0.14019820663E+04  0.14019820663E+04  0.00000000000E+00 0. -1.
          1   -1    0    0  501    0 -0.00000000000E+00 -0.00000000000E+00 -0.13423178771E+03  0.13423178771E+03  0.00000000000E+00 0. -1.
         25    2    1    2    0    0  0.66610030824E+02 -0.52934897285E+01  0.11577789570E+04  0.11664226597E+04  0.12499916230E+03 0.  0.
          2    1    1    2  501    0 -0.64212831742E+02  0.33823342549E+02 -0.11881113952E+03  0.13922425484E+03  0.00000000000E+00 0. -1.
          1    1    1    2  502    0 -0.23971990817E+01 -0.28529852821E+02  0.22878246108E+03  0.23056693944E+03  0.00000000000E+00 0. -1.
         22    1    3    3    0    0  0.68138949176E+02  0.69064320172E+01  0.11496384735E+04  0.11516767059E+04  0.00000000000E+00 0. -1.
         22    1    3    3    0    0 -0.15289183523E+01 -0.12199921746E+02  0.81404835159E+01  0.14745953811E+02  0.00000000000E+00 0. -1.
</event>
<event>
 7    1  0.5676357E-006  0.7030049E+02  0.7818608E-02  0.1484145E+00
          2   -1    0    0  502    0  0.00000000000E+00  0.00000000000E+00  0.40886380596E+03  0.40886380596E+03  0.00000000000E+00 0. -1.
          1   -1    0    0  501    0 -0.00000000000E+00 -0.00000000000E+00 -0.43427014239E+03  0.43427014239E+03  0.00000000000E+00 0. -1.
         25    2    1    2    0    0  0.70634076154E+02 -0.59947371553E+02  0.18107087796E+03  0.23873654070E+03  0.12500245178E+03 0.  0.
          2    1    1    2  501    0 -0.44398281611E+02  0.54117458262E+02 -0.40148742829E+03  0.40754393846E+03  0.00000000000E+00 0. -1.
          1    1    1    2  502    0 -0.26235794543E+02  0.58299132910E+01  0.19501021390E+03  0.19685346918E+03  0.00000000000E+00 0. -1.
         22    1    3    3    0    0  0.43860883748E+00 -0.79622168016E+02  0.11793113201E+03  0.14229418089E+03  0.00000000000E+00 0.  1.
         22    1    3    3    0    0  0.70195467316E+02  0.19674796463E+02  0.63139745955E+02  0.96442359816E+02  0.00000000000E+00 0.  1.
</event>
<event>
 7    1  0.5676357E-006  0.8919476E+02  0.7818608E-02  0.1445645E+00
          2   -1    0    0  502    0  0.00000000000E+00  0.00000000000E+00  0.13584429413E+04  0.13584429413E+04  0.00000000000E+00 0. -1.
          1   -1    0    0  501    0 -0.00000000000E+00 -0.00000000000E+00 -0.68592818508E+03  0.68592818508E+03  0.00000000000E+00 0. -1.
         25    2    1    2    0    0  0.62754429561E+02 -0.95772072856E+02  0.65177639042E+03  0.67345941731E+03  0.12499886114E+03 0.  0.
          2    1    1    2  501    0 -0.39904681535E+02  0.79648625672E+02 -0.67186427311E+03  0.67774470758E+03  0.00000000000E+00 0. -1.
          1    1    1    2  502    0 -0.22849748027E+02  0.16123447185E+02  0.69260263887E+03  0.69316700146E+03  0.00000000000E+00 0. -1.
         22    1    3    3    0    0  0.97877798352E+02 -0.49386159681E+02  0.37848502808E+03  0.39404311016E+03  0.00000000000E+00 0. -1.
         22    1    3    3    0    0 -0.35123368791E+02 -0.46385913175E+02  0.27329136234E+03  0.27941630716E+03  0.00000000000E+00 0. -1.
</event>
<event>
 7    1  0.5676357E-006  0.1704773E+03  0.7818608E-02  0.1213934E+00
          2   -1    0    0  502    0  0.00000000000E+00  0.00000000000E+00  0.90648032052E+03  0.90648032052E+03  0.00000000000E+00 0. -1.
          1   -1    0    0  501    0 -0.00000000000E+00 -0.00000000000E+00 -0.53908416595E+03  0.53908416595E+03  0.00000000000E+00 0. -1.
         25    2    1    2    0    0 -0.20033387488E+03  0.14151398760E+03 -0.19987244411E+03  0.34019704352E+03  0.12500065756E+03 0.  0.
          2    1    1    2  501    0  0.14454208082E+03 -0.41828785547E+02 -0.24368949586E+03  0.28640291692E+03  0.00000000000E+00 0. -1.
          1    1    1    2  502    0  0.55791794058E+02 -0.99685202057E+02  0.81095809455E+03  0.81896452603E+03  0.00000000000E+00 0. -1.
         22    1    3    3    0    0  0.38256496974E+01 -0.14308383638E+02 -0.26399084222E+02  0.30270069140E+02  0.00000000000E+00 0.  1.
         22    1    3    3    0    0 -0.20415952457E+03  0.15582237124E+03 -0.17347335989E+03  0.30992697438E+03  0.00000000000E+00 0.  1.
</event>
<event>
 7    1  0.5676357E-006  0.7254306E+02  0.7818608E-02  0.1411841E+00
          2   -1    0    0  502    0  0.00000000000E+00  0.00000000000E+00  0.65581136655E+03  0.65581136655E+03  0.00000000000E+00 0. -1.
          1   -1    0    0  501    0 -0.00000000000E+00 -0.00000000000E+00 -0.56172727915E+03  0.56172727915E+03  0.00000000000E+00 0. -1.
         25    2    1    2    0    0 -0.88987113385E+02 -0.59200430991E+01 -0.13163221226E+03  0.20225196229E+03  0.12500025474E+03 0.  0.
          2    1    1    2  501    0  0.64781893491E+02 -0.31361342537E+02 -0.39069783266E+03  0.39727197734E+03  0.00000000000E+00 0. -1.
          1    1    1    2  502    0  0.24205219894E+02  0.37281385636E+02  0.61641413233E+03  0.61801470607E+03  0.00000000000E+00 0. -1.
         22    1    3    3    0    0 -0.29724346043E+02 -0.57241632829E+02 -0.23405889549E+02  0.68614699170E+02  0.00000000000E+00 0. -1.
         22    1    3    3    0    0 -0.59262767342E+02  0.51321589730E+02 -0.10822632271E+03  0.13363726312E+03  0.00000000000E+00 0. -1.
</event>
<event>
 7    1  0.5676357E-006  0.6192897E+02  0.7818608E-02  0.1443793E+00
          2   -1    0    0  502    0  0.00000000000E+00  0.00000000000E+00  0.12228166100E+03  0.12228166100E+03  0.00000000000E+00 0. -1.
          1   -1    0    0  501    0 -0.00000000000E+00 -0.00000000000E+00 -0.33394008086E+03  0.33394008086E+03  0.00000000000E+00 0. -1.
         25    2    1    2    0    0  0.36344861456E+02 -0.11176138792E+02 -0.30733481576E+02  0.13421851953E+03  0.12499683621E+03 0.  0.
          2    1    1    2  501    0 -0.60768304455E+02 -0.21550534659E+02 -0.24093723202E+03  0.24941524040E+03  0.00000000000E+00 0. -1.
          1    1    1    2  502    0  0.24423442999E+02  0.32726673452E+02  0.60012293732E+02  0.72587981940E+02  0.00000000000E+00 0. -1.
         22    1    3    3    0    0  0.19269574140E+02 -0.67823223598E+02 -0.85163618832E+01  0.71019958931E+02  0.00000000000E+00 0.  1.
         22    1    3    3    0    0  0.17075287315E+02  0.56647084806E+02 -0.22217119693E+02  0.63198560596E+02  0.00000000000E+00 0.  1.
</event>
<event>
 7    1  0.5676357E-006  0.3974318E+02  0.7818608E-02  0.1525895E+00
          2   -1    0    0  502    0  0.00000000000E+00  0.00000000000E+00  0.18307767661E+03  0.18307767661E+03  0.00000000000E+00 0. -1.
          1   -1    0    0  501    0 -0.00000000000E+00 -0.00000000000E+00 -0.28284375226E+03  0.28284375226E+03  0.00000000000E+00 0. -1.
         25    2    1    2    0    0  0.60382683003E+02 -0.60740127886E+01  0.42543050722E+01  0.13898324527E+03  0.12496111922E+03 0.  0.
          2    1    1    2  501    0 -0.30262109303E+02  0.25333791870E+02 -0.21073251424E+03  0.21439633586E+03  0.00000000000E+00 0. -1.
          1    1    1    2  502    0 -0.30120573700E+02 -0.19259779081E+02  0.10671213353E+03  0.11254184774E+03  0.00000000000E+00 0. -1.
         22    1    3    3    0    0  0.97515959559E+02  0.86902970547E+01  0.10776318959E+02  0.98493718997E+02  0.00000000000E+00 0. -1.
         22    1    3    3    0    0 -0.37133276556E+02 -0.14764309843E+02 -0.65220138872E+01  0.40489526276E+02  0.00000000000E+00 0. -1.
</event>
<event>
 7    1  0.5676357E-006  0.4463801E+02  0.7818608E-02  0.1484703E+00
          2   -1    0    0  502    0  0.00000000000E+00  0.00000000000E+00  0.41399086288E+03  0.41399086288E+03  0.00000000000E+00 0. -1.
          1   -1    0    0  501    0 -0.00000000000E+00 -0.00000000000E+00 -0.61421368927E+03  0.61421368927E+03  0.00000000000E+00 0. -1.
         25    2    1    2    0    0 -0.53045493291E+02  0.55135970519E+02  0.19199258574E+03  0.24153736987E+03  0.12500139383E+03 0.  0.
          2    1    1    2  501    0  0.39350454024E+02 -0.15136544971E+02 -0.58640991203E+03  0.58792359891E+03  0.00000000000E+00 0. -1.
          1    1    1    2  502    0  0.13695039267E+02 -0.39999425548E+02  0.19419449990E+03  0.19874358338E+03  0.00000000000E+00 0. -1.
         22    1    3    3    0    0 -0.14237837084E+02 -0.15652220433E+02 -0.10445235573E+02  0.23596842067E+02  0.00000000000E+00 0.  1.
         22    1    3    3    0    0 -0.38807656207E+02  0.70788190952E+02  0.20243782132E+03  0.21794052780E+03  0.00000000000E+00 0.  1.
</event>
<event>
 7    1  0.5676357E-006  0.5420781E+02  0.7818608E-02  0.1461026E+00
          2   -1    0    0  502    0  0.00000000000E+00  0.00000000000E+00  0.26565943297E+04  0.26565943297E+04  0.00000000000E+00 0. -1.
          1   -1    0    0  501    0 -0.00000000000E+00 -0.00000000000E+00 -0.11342134993E+02  0.11342134993E+02  0.00000000000E+00 0. -1.
         25    2    1    2    0    0 -0.80466346935E+02  0.12316402008E+02  0.11876413095E+04  0.11969724740E+04  0.12499878738E+03 0.  0.
          2    1    1    2  501    0  0.43194241723E+02 -0.29654247304E+02  0.10145367341E+03  0.11418390758E+03  0.00000000000E+00 0. -1.
          1    1    1    2  502    0  0.37272105212E+02  0.17337845295E+02  0.13561572118E+04  0.13567800831E+04  0.00000000000E+00 0. -1.
         22    1    3    3    0    0 -0.68944506772E+01 -0.50259599549E+02  0.32404735816E+03  0.32799428520E+03  0.00000000000E+00 0. -1.
         22    1    3    3    0    0 -0.73571896258E+02  0.62576001557E+02  0.86359395133E+03  0.86897818883E+03  0.00000000000E+00 0. -1.
</event>
<event>
 7    1  0.5676357E-006  0.7862807E+02  0.7818608E-02  0.1506788E+00
          2   -1    0    0  502    0  0.00000000000E+00  0.00000000000E+00  0.33535734047E+02  0.33535734047E+02  0.00000000000E+00 0. -1.
          1   -1    0    0  501    0 -0.00000000000E+00 -0.00000000000E+00 -0.22244653200E+04  0.22244653200E+04  0.00000000000E+00 0. -1.
         25    2    1    2    0    0 -0.78747525235E+02 -0.24417067584E+02 -0.77320909196E+03  0.78757021033E+03  0.12496867760E+03 0.  0.
          2    1    1    2  501    0  0.32134278659E+00  0.20544449308E+02 -0.13853436683E+04  0.13854960328E+04  0.00000000000E+00 0. -1.
          1    1    1    2  502    0  0.78426182448E+02  0.38726182752E+01 -0.32376825736E+02  0.84934810946E+02  0.00000000000E+00 0. -1.
         22    1    3    3    0    0 -0.46127940172E+02  0.34767018797E+02 -0.58028357090E+03  0.58315139982E+03  0.00000000000E+00 0.  1.
         22    1    3    3    0    0 -0.32619585063E+02 -0.59184086380E+02 -0.19292552107E+03  0.20441881051E+03  0.00000000000E+00 0.  1.
</event>
<event>
 7    1  0.5676357E-006  0.9701809E+02  0.7818608E-02  0.1405192E+00
          2   -1    0    0  502    0  0.00000000000E+00  0.00000000000E+00  0.32657252044E+04  0.32657252044E+04  0.00000000000E+00 0. -1.
          1   -1    0    0  501    0 -0.00000000000E+00 -0.00000000000E+00 -0.41201301740E+03  0.41201301740E+03  0.00000000000E+00 0. -1.
         25    2    1    2    0    0 -0.11799481078E+03  0.44363893625E+02 -0.94171499804E+02  0.20095871838E+03  0.12500081876E+03 0.  0.
          2    1    1    2  501    0  0.22751640440E+02 -0.26609844307E+02 -0.26255517569E+03  0.26487910683E+03  0.00000000000E+00 0. -1.
          1    1    1    2  502    0  0.95243170337E+02 -0.17754049319E+02  0.32104388625E+04  0.32119003966E+04  0.00000000000E+00 0. -1.
         22    1    3    3    0    0 -0.85178452653E+02 -0.30649756116E+02 -0.25372322613E+02  0.94013462340E+02  0.00000000000E+00 0. -1.
         22    1    3    3    0    0 -0.32816358123E+02  0.75013649741E+02 -0.68799177191E+02  0.10694525604E+03  0.00000000000E+00 0. -1.
</event>
<event>
 7    1  0.5676357E-006  0.6155615E+02  0.7818608E-02  0.1422314E+00
          2   -1    0    0  502    0  0.00000000000E+00  0.00000000000E+00  0.34511919936E+03  0.34511919936E+03  0.00000000000E+00 0. -1.
          1   -1    0    0  501    0 -0.00000000000E+00 -0.00000000000E+00 -0.20777028000E+04  0.20777028000E+04  0.00000000000E+00 0. -1.
         25    2    1    2    0    0 -0.49194443351E+01  0.20573001436E+02 -0.40627331309E+03  0.42559449370E+03  0.12500087526E+03 0.  0.
          2    1    1    2  501    0 -0.22543653241E+02 -0.60321717018E+02 -0.16594015793E+04  0.16606506337E+04  0.00000000000E+00 0. -1.
          1    1    1    2  502    0  0.27463097576E+02  0.39748715582E+02  0.33309129174E+03  0.33657687198E+03  0.00000000000E+00 0. -1.
         22    1    3    3    0    0  0.48490937210E+02 -0.18803848188E+02 -0.10593961001E+03  0.11801761168E+03  0.00000000000E+00 0. -1.
         22    1    3    3    0    0 -0.53410381546E+02  0.39376849623E+02 -0.30033370308E+03  0.30757688202E+03  0.00000000000E+00 0. -1.
</event>
<event>
 7    1  0.5676357E-006  0.1570771E+03  0.7818608E-02  0.1339395E+00
          2   -1    0    0  502    0  0.00000000000E+00  0.00000000000E+00  0.21328151344E+04  0.21328151344E+04  0.00000000000E+00 0. -1.
          1   -1    0    0  501    0 -0.00000000000E+00 -0.00000000000E+00 -0.50172029942E+02  0.50172029942E+02  0.00000000000E+00 0. -1.
         25    2    1    2    0    0 -0.11455767462E+03 -0.12772118202E+03  0.63238878427E+03  0.66706579775E+03  0.12500017163E+03 0.  0.
          2    1    1    2  501    0  0.12351517613E+03  0.91592475162E+02  0.14894217839E+03  0.21407697855E+03  0.00000000000E+00 0. -1.
          1    1    1    2  502    0 -0.89575015098E+01  0.36128706861E+02  0.13013121418E+04  0.13018443880E+04  0.00000000000E+00 0. -1.
         22    1    3    3    0    0 -0.21998068601E+02 -0.92790114075E+02  0.17699883310E+03  0.20105349341E+03  0.00000000000E+00 0.  1.
         22    1    3    3    0    0 -0.92559606016E+02 -0.34931067947E+02  0.45538995117E+03  0.46601230434E+03  0.00000000000E+00 0.  1.
</event>
<event>
 7    1  0.5676357E-006  0.9882847E+02  0.7818608E-02  0.1325867E+00
          2   -1    0    0  502    0  0.00000000000E+00  0.00000000000E+00  0.10621888900E+04  0.10621888900E+04  0.00000000000E+00 0. -1.
          1   -1    0    0  501    0 -0.00000000000E+00 -0.00000000000E+00 -0.28996709992E+03  0.28996709992E+03  0.00000000000E+00 0. -1.
         25    2    1    2    0    0  0.33053722642E+01 -0.11167988795E+03  0.12325494790E+03  0.20808829505E+03  0.12500253397E+03 0.  0.
          2    1    1    2  501    0  0.56229809558E+02  0.81816140905E+02 -0.23629562629E+03  0.25630313185E+03  0.00000000000E+00 0. -1.
          1    1    1    2  502    0 -0.59535181822E+02  0.29863747041E+02  0.88526246847E+03  0.88776456301E+03  0.00000000000E+00 0. -1.
         22    1    3    3    0    0 -0.21941873907E+02 -0.29696962821E+02  0.11630426394E+03  0.12202474029E+03  0.00000000000E+00 0. -1.
         22    1    3    3    0    0  0.25247246172E+02 -0.81982925124E+02  0.69506839607E+01  0.86063554764E+02  0.00000000000E+00 0. -1.
</event>
<event>
 7    1  0.5676357E-006  0.1203319E+03  0.7818608E-02  0.1353958E+00
          2   -1    0    0  502    0  0.00000000000E+00  0.00000000000E+00  0.74105605004E+03  0.74105605004E+03  0.00000000000E+00 0. -1.
          1   -1    0    0  501    0 -0.00000000000E+00 -0.00000000000E+00 -0.60259818664E+03  0.60259818664E+03  0.00000000000E+00 0. -1.
         25    2    1    2    0    0  0.23921879550E+02  0.14106287365E+03 -0.10388959694E+02  0.19025257815E+03  0.12496848549E+03 0.  0.
          2    1    1    2  501    0 -0.36586771767E+02 -0.22372350329E+02 -0.49587367288E+03  0.49772463610E+03  0.00000000000E+00 0. -1.
          1    1    1    2  502    0  0.12664892216E+02 -0.11869052332E+03  0.64472049597E+03  0.65567702244E+03  0.00000000000E+00 0. -1.
         22    1    3    3    0    0 -0.38076286947E+01  0.15474080637E+03  0.66854375832E+01  0.15493195367E+03  0.00000000000E+00 0. -1.
         22    1    3    3    0    0  0.27729508245E+02 -0.13677932723E+02 -0.17074397278E+02  0.35320624478E+02  0.00000000000E+00 0. -1.
</event>
<event>
 7    1  0.5676357E-006  0.7357765E+02  0.7818608E-02  0.1396748E+00
          2   -1    0    0  502    0  0.00000000000E+00  0.00000000000E+00  0.22648036978E+03  0.22648036978E+03  0.00000000000E+00 0. -1.
          1   -1    0    0  501    0 -0.00000000000E+00 -0.00000000000E+00 -0.84107076577E+03  0.84107076577E+03  0.00000000000E+00 0. -1.
         25    2    1    2    0    0  0.51598120047E+02 -0.84812467480E+01 -0.24154952533E+03  0.27695736837E+03  0.12499965268E+03 0.  0.
          2    1    1    2  501    0  0.11511275182E+02  0.47989986308E+02 -0.57408645457E+03  0.57620378822E+03  0.00000000000E+00 0. -1.
          1    1    1    2  502    0 -0.63109395229E+02 -0.39508739560E+02  0.20104558391E+03  0.21438997896E+03  0.00000000000E+00 0. -1.
         22    1    3    3    0    0  0.32129916279E+02  0.42792082500E+02 -0.20296256119E+03  0.20989829701E+03  0.00000000000E+00 0. -1.
         22    1    3    3    0    0  0.19468203768E+02 -0.51273329248E+02 -0.38586964143E+02  0.67059071362E+02  0.00000000000E+00 0. -1.
</event>
<event>
 7    1  0.5676357E-006  0.6527860E+02  0.7818608E-02  0.1474590E+00
          2   -1    0    0  502    0  0.00000000000E+00  0.00000000000E+00  0.56477054674E+03  0.56477054674E+03  0.00000000000E+00 0. -1.
          1   -1    0    0  501    0 -0.00000000000E+00 -0.00000000000E+00 -0.34922203138E+03  0.34922203138E+03  0.00000000000E+00 0. -1.
         25    2    1    2    0    0  0.90225746678E+01 -0.72176443727E+02 -0.16111536909E+02  0.14551967169E+03  0.12500218936E+03 0.  0.
          2    1    1    2  501    0  0.25865414696E+02  0.17025665849E+02 -0.26537319049E+03  0.26717376968E+03  0.00000000000E+00 0. -1.
          1    1    1    2  502    0 -0.34887989364E+02  0.55150777879E+02  0.49703324275E+03  0.50129913675E+03  0.00000000000E+00 0. -1.
         22    1    3    3    0    0  0.32795233662E+02  0.18227952285E+02  0.23198185339E+02  0.44112825782E+02  0.00000000000E+00 0.  1.
         22    1    3    3    0    0 -0.23772658995E+02 -0.90404396012E+02 -0.39309722248E+02  0.10140684591E+03  0.00000000000E+00 0.  1.
</event>
<event>
 7    1  0.5676357E-006  0.7128123E+02  0.7818608E-02  0.1486956E+00
          2   -1    0    0  502    0  0.00000000000E+00  0.00000000000E+00  0.20686725457E+04  0.20686725457E+04  0.00000000000E+00 0. -1.
          1   -1    0    0  501    0 -0.00000000000E+00 -0.00000000000E+00 -0.18601156166E+03  0.18601156166E+03  0.00000000000E+00 0. -1.
         25    2    1    2    0    0  0.54598927367E+02 -0.58568298504E+02  0.12524163695E+03  0.19422185136E+03  0.12500148583E+03 0.  0.
          2    1    1    2  501    0 -0.25219313730E+02 -0.62776533022E+01 -0.14973801823E+03  0.15197663248E+03  0.00000000000E+00 0. -1.
          1    1    1    2  502    0 -0.29379613637E+02  0.64845951807E+02  0.19071573653E+04  0.19084856235E+04  0.00000000000E+00 0. -1.
         22    1    3    3    0    0  0.13200857408E+02 -0.73787258973E+02  0.16328574845E+02  0.76716651254E+02  0.00000000000E+00 0. -1.
         22    1    3    3    0    0  0.41398069958E+02  0.15218960469E+02  0.10891306211E+03  0.11750520011E+03  0.00000000000E+00 0. -1.
</event>
<event>
 7    1  0.5676357E-006  0.7198245E+02  0.7818608E-02  0.1468412E+00
          2   -1    0    0  502    0  0.00000000000E+00  0.00000000000E+00  0.31911137970E+03  0.31911137970E+03  0.00000000000E+00 0. -1.
          1   -1    0    0  501    0 -0.00000000000E+00 -0.00000000000E+00 -0.19027751781E+03  0.19027751781E+03  0.00000000000E+00 0. -1.
         25    2    1    2    0    0  0.68060374092E+01  0.83250739697E+02  0.13406925129E+03  0.20143746583E+03  0.12500192276E+03 0.  0.
          2    1    1    2  501    0 -0.29884431656E+02 -0.65117724020E+02 -0.14681334986E+03  0.16336326678E+03  0.00000000000E+00 0. -1.
          1    1    1    2  502    0  0.23078394247E+02 -0.18133015678E+02  0.14157796046E+03  0.14458816489E+03  0.00000000000E+00 0. -1.
         22    1    3    3    0    0  0.13087099564E+02  0.65349994380E+02  0.15765818951E+03  0.17116658161E+03  0.00000000000E+00 0.  1.
         22    1    3    3    0    0 -0.62810621544E+01  0.17900745317E+02 -0.23588938224E+02  0.30270884216E+02  0.00000000000E+00 0.  1.
</event>
<event>
 7    1  0.5676357E-006  0.1223929E+03  0.7818608E-02  0.1291028E+00
          2   -1    0    0  502    0  0.00000000000E+00  0.00000000000E+00  0.17106380005E+04  0.17106380005E+04  0.00000000000E+00 0. -1.
          1   -1    0    0  501    0 -0.00000000000E+00 -0.00000000000E+00 -0.98674779858E+02  0.98674779858E+02  0.00000000000E+00 0. -1.
         25    2    1    2    0    0  0.40032744729E+02  0.93913165138E+02  0.33842969267E+03  0.37494280980E+03  0.12500060203E+03 0.  0.
          2    1    1    2  501    0  0.69143023156E+02 -0.25916026541E+02 -0.59694795131E+02  0.94951917561E+02  0.00000000000E+00 0. -1.
          1    1    1    2  502    0 -0.10917576789E+03 -0.67997138598E+02  0.13332283231E+04  0.13394180530E+04  0.00000000000E+00 0. -1.
         22    1    3    3    0    0  0.25759028098E+02  0.84648589766E+02  0.34540054584E+03  0.35655357009E+03  0.00000000000E+00 0.  1.
         22    1    3    3    0    0  0.14273716631E+02  0.92645753716E+01 -0.69708531725E+01  0.18389239713E+02  0.00000000000E+00 0.  1.
</event>
<event>
 7    1  0.5676357E-006  0.3240280E+02  0.7818608E-02  0.1645471E+00
          2   -1    0    0  502    0  0.00000000000E+00  0.00000000000E+00  0.43606351376E+03  0.43606351376E+03  0.00000000000E+00 0. -1.
          1   -1    0    0  501    0 -0.00000000000E+00 -0.00000000000E+00 -0.45180257948E+03  0.45180257948E+03  0.00000000000E+00 0. -1.
         25    2    1    2    0    0 -0.96599727314E+00  0.11443541095E+02  0.76471638290E+02  0.14698640389E+03  0.12500081472E+03 0.  0.
          2    1    1    2  501    0  0.38951185367E+01 -0.32287681988E+02 -0.41556770651E+03  0.41683832003E+03  0.00000000000E+00 0. -1.
          1    1    1    2  502    0 -0.29291212636E+01  0.20844140893E+02  0.32335700250E+03  0.32404136932E+03  0.00000000000E+00 0. -1.
         22    1    3    3    0    0  0.42609390265E+02 -0.28806168852E+02  0.70639918965E+02  0.87380510722E+02  0.00000000000E+00 0.  1.
         22    1    3    3    0    0 -0.43575387538E+02  0.40249709947E+02  0.58317193255E+01  0.59605893167E+02  0.00000000000E+00 0.  1.
</event>
<event>
 7    1  0.5676357E-006  0.4631524E+02  0.7818608E-02  0.1487772E+00
          2   -1    0    0  502    0  0.00000000000E+00  0.00000000000E+00  0.11451603413E+04  0.11451603413E+04  0.00000000000E+00 0. -1.
          1   -1    0    0  501    0 -0.00000000000E+00 -0.00000000000E+00 -0.17558853327E+04  0.17558853327E+04  0.00000000000E+00 0. -1.
         25    2    1    2    0    0 -0.12730357828E+02  0.43626867081E+02 -0.50196667805E+02  0.14215007719E+03  0.12498629302E+03 0.  0.
          2    1    1    2  501    0  0.39370093141E+02 -0.56288634170E+01 -0.16589837355E+04  0.16594603710E+04  0.00000000000E+00 0. -1.
          1    1    1    2  502    0 -0.26639735313E+02 -0.37998003664E+02  0.10984554119E+04  0.10994352258E+04  0.00000000000E+00 0. -1.
         22    1    3    3    0    0  0.53365604133E+02  0.20912238540E+02 -0.21863255280E+01  0.57358429586E+02  0.00000000000E+00 0.  1.
         22    1    3    3    0    0 -0.66095961961E+02  0.22714628541E+02 -0.48010342277E+02  0.84791647601E+02  0.00000000000E+00 0.  1.
</event>
<event>
 7    1  0.5676357E-006  0.3635349E+02  0.7818608E-02  0.1581717E+00
          2   -1    0    0  502    0  0.00000000000E+00  0.00000000000E+00  0.79688237217E+03  0.79688237217E+03  0.00000000000E+00 0. -1.
          1   -1    0    0  501    0 -0.00000000000E+00 -0.00000000000E+00 -0.56282846595E+03  0.56282846595E+03  0.00000000000E+00 0. -1.
         25    2    1    2    0    0 -0.56167743469E+02  0.29499046567E+02  0.90714277461E+02  0.16694280199E+03  0.12496323398E+03 0.  0.
          2    1    1    2  501    0  0.31065952962E+02 -0.18627212557E+02 -0.52380844470E+03  0.52505938066E+03  0.00000000000E+00 0. -1.
          1    1    1    2  502    0  0.25101790506E+02 -0.10871834010E+02  0.66714807346E+03  0.66770865547E+03  0.00000000000E+00 0. -1.
         22    1    3    3    0    0 -0.38956378133E+01  0.20246391500E+02  0.10889610109E+03  0.11083074120E+03  0.00000000000E+00 0. -1.
         22    1    3    3    0    0 -0.52272105655E+02  0.92526550675E+01 -0.18181823629E+02  0.56112060788E+02  0.00000000000E+00 0. -1.
</event>
<event>
 7    1  0.5676357E-006  0.9779523E+02  0.7818608E-02  0.1397730E+00
          2   -1    0    0  502    0  0.00000000000E+00  0.00000000000E+00  0.20929855634E+03  0.20929855634E+03  0.00000000000E+00 0. -1.
          1   -1    0    0  501    0 -0.00000000000E+00 -0.00000000000E+00 -0.27931060457E+03  0.27931060457E+03  0.00000000000E+00 0. -1.
         25    2    1    2    0    0  0.93512619268E+02  0.91381545547E+02 -0.12251047070E+03  0.21846850650E+03  0.12499790428E+03 0.  0.
          2    1    1    2  501    0 -0.31198276332E+02 -0.19594918104E+02 -0.90907648317E+02  0.98089213393E+02  0.00000000000E+00 0. -1.
          1    1    1    2  502    0 -0.62314342936E+02 -0.71786627443E+02  0.14340607078E+03  0.17205144101E+03  0.00000000000E+00 0. -1.
         22    1    3    3    0    0  0.68159497149E+02  0.11166997237E+03 -0.13075470973E+03  0.18496673727E+03  0.00000000000E+00 0.  1.
         22    1    3    3    0    0  0.25353122118E+02 -0.20288426822E+02  0.82442390379E+01  0.33501769227E+02  0.00000000000E+00 0.  1.
</event>
<event>
 7    1  0.5676357E-006  0.8359934E+02  0.7818608E-02  0.1439263E+00
          2   -1    0    0  502    0  0.00000000000E+00  0.00000000000E+00  0.10436468273E+03  0.10436468273E+03  0.00000000000E+00 0. -1.
          1   -1    0    0  501    0 -0.00000000000E+00 -0.00000000000E+00 -0.26723947853E+03  0.26723947853E+03  0.00000000000E+00 0. -1.
         25    2    1    2    0    0  0.79227140009E+02 -0.71617448595E+02 -0.10806367281E+03  0.19673910440E+03  0.12499007626E+03 0.  0.
          2    1    1    2  501    0 -0.51820693105E+02  0.56520076293E+02 -0.96173441708E+02  0.12300095182E+03  0.00000000000E+00 0. -1.
          1    1    1    2  502    0 -0.27406446904E+02  0.15097372303E+02  0.41362318717E+02  0.51864105044E+02  0.00000000000E+00 0. -1.
         22    1    3    3    0    0 -0.32334762458E+02 -0.13223963947E+02 -0.41706820836E+02  0.54404678015E+02  0.00000000000E+00 0. -1.
         22    1    3    3    0    0  0.11156190247E+03 -0.58393484649E+02 -0.66356851974E+02  0.14233442639E+03  0.00000000000E+00 0. -1.
</event>
<event>
 7    1  0.5676357E-006  0.8007990E+02  0.7818608E-02  0.1478013E+00
          2   -1    0    0  502    0  0.00000000000E+00  0.00000000000E+00  0.35211219246E+03  0.35211219246E+03  0.00000000000E+00 0. -1.
          1   -1    0    0  501    0 -0.00000000000E+00 -0.00000000000E+00 -0.84901099412E+03  0.84901099412E+03  0.00000000000E+00 0. -1.
         25    2    1    2    0    0 -0.16837984889E+02 -0.77845586944E+02 -0.15789287091E+03  0.21656029160E+03  0.12499899228E+03 0.  0.
          2    1    1    2  501    0  0.24557458724E+02 -0.19716042441E+01 -0.65656933240E+03  0.65703138757E+03  0.00000000000E+00 0. -1.
          1    1    1    2  502    0 -0.77194738350E+01  0.79817191189E+02  0.31756340165E+03  0.32753150742E+03  0.00000000000E+00 0. -1.
         22    1    3    3    0    0  0.35567694011E+02 -0.34562498298E+02 -0.57519853730E+01  0.49927071630E+02  0.00000000000E+00 0.  1.
         22    1    3    3    0    0 -0.52405678901E+02 -0.43283088647E+02 -0.15214088554E+03  0.16663321997E+03  0.00000000000E+00 0.  1.
</event>
<event>
 7    1  0.5676357E-006  0.6412836E+02  0.7818608E-02  0.1462635E+00
          2   -1    0    0  502    0  0.00000000000E+00  0.00000000000E+00  0.12946951435E+04  0.12946951435E+04  0.00000000000E+00 0. -1.
          1   -1    0    0  501    0 -0.00000000000E+00 -0.00000000000E+00 -0.11745449935E+02  0.11745449935E+02  0.00000000000E+00 0. -1.
         25    2    1    2    0    0  0.51366672457E+02 -0.12794657132E+02  0.71224797593E+03  0.72506822347E+03  0.12499804468E+03 0.  0.
          2    1    1    2  501    0  0.17422065531E+02  0.29598636298E+02  0.10931847819E+03  0.11458681125E+03  0.00000000000E+00 0. -1.
          1    1    1    2  502    0 -0.68788737988E+02 -0.16803979166E+02  0.46138323947E+03  0.46678555875E+03  0.00000000000E+00 0. -1.
         22    1    3    3    0    0  0.54570752316E+02  0.40604453094E+02  0.55089761996E+03  0.55508096373E+03  0.00000000000E+00 0. -1.
         22    1    3    3    0    0 -0.32040798598E+01 -0.53399110226E+02  0.16135035597E+03  0.16998725973E+03  0.00000000000E+00 0. -1.
</event>
<event>
 7    1  0.5676357E-006  0.9370425E+02  0.7818608E-02  0.1412208E+00
          2   -1    0    0  502    0  0.00000000000E+00  0.00000000000E+00  0.31481384993E+03  0.31481384993E+03  0.00000000000E+00 0. -1.
          1   -1    0    0  501    0 -0.00000000000E+00 -0.00000000000E+00 -0.79669797772E+03  0.79669797772E+03  0.00000000000E+00 0. -1.
         25    2    1    2    0    0  0.32875290737E+02 -0.10013587840E+03  0.15822311275E+03  0.22750800693E+03  0.12496943996E+03 0.  0.
          2    1    1    2  501    0  0.81169991459E+00  0.93607531759E+02 -0.75669910825E+03  0.76246742179E+03  0.00000000000E+00 0. -1.
          1    1    1    2  502    0 -0.33686990652E+02  0.65283466404E+01  0.11659186771E+03  0.12153639893E+03  0.00000000000E+00 0. -1.
         22    1    3    3    0    0 -0.46435748804E+02 -0.41799004317E+02  0.81480308255E+02  0.10267656092E+03  0.00000000000E+00 0.  1.
         22    1    3    3    0    0  0.79311039541E+02 -0.58336874082E+02  0.76742804492E+02  0.12483144601E+03  0.00000000000E+00 0.  1.
</event>
<event>
 7    1  0.5676357E-006  0.2367553E+03  0.7818608E-02  0.1207417E+00
          2   -1    0    0  502    0  0.00000000000E+00  0.00000000000E+00  0.89704170262E+03  0.89704170262E+03  0.00000000000E+00 0. -1.
          1   -1    0    0  501    0 -0.00000000000E+00 -0.00000000000E+00 -0.10584278866E+04  0.10584278866E+04  0.00000000000E+00 0. -1.
         25    2    1    2    0    0  0.91943289869E+02 -0.13949568047E+03 -0.17290557626E+03  0.27098766873E+03  0.12500145951E+03 0.  0.
          2    1    1    2  501    0 -0.74841286356E+01 -0.87857757672E+02 -0.81671788792E+03  0.82146400177E+03  0.00000000000E+00 0. -1.
          1    1    1    2  502    0 -0.84459161233E+02  0.22735343814E+03  0.82823728019E+03  0.86301791872E+03  0.00000000000E+00 0. -1.
         22    1    3    3    0    0  0.57607860849E+02 -0.38852944215E+02 -0.14539886599E+03  0.16114914563E+03  0.00000000000E+00 0.  1.
         22    1    3    3    0    0  0.34335429020E+02 -0.10064273625E+03 -0.27506710266E+02  0.10983852310E+03  0.00000000000E+00 0.  1.
</event>
<event>
 7    1  0.5676357E-006  0.7453323E+02  0.7818608E-02  0.1399204E+00
          2   -1    0    0  502    0  0.00000000000E+00  0.00000000000E+00  0.46639886765E+03  0.46639886765E+03  0.00000000000E+00 0. -1.
          1   -1    0    0  501    0 -0.00000000000E+00 -0.00000000000E+00 -0.39990055845E+03  0.39990055845E+03  0.00000000000E+00 0. -1.
         25    2    1    2    0    0 -0.56636182296E+02  0.37600938773E+02 -0.15523418533E+02  0.14313512433E+03  0.12500079821E+03 0.  0.
          2    1    1    2  501    0  0.23679782357E+02 -0.72192169113E+02 -0.31461579556E+03  0.32365960543E+03  0.00000000000E+00 0. -1.
          1    1    1    2  502    0  0.32956399939E+02  0.34591230340E+02  0.39663752328E+03  0.39950469633E+03  0.00000000000E+00 0. -1.
         22    1    3    3    0    0 -0.59277265128E+01 -0.22800610634E+02  0.40183100025E+02  0.46579902474E+02  0.00000000000E+00 0. -1.
         22    1    3    3    0    0 -0.50708455783E+02  0.60401549407E+02 -0.55706518558E+02  0.96555221860E+02  0.00000000000E+00 0. -1.
</event>
<event>
 7    1  0.5676357E-006  0.4554171E+02  0.7818608E-02  0.1471465E+00
          2   -1    0    0  502    0  0.00000000000E+00  0.00000000000E+00  0.28751077499E+03  0.28751077499E+03  0.00000000000E+00 0. -1.
          1   -1    0    0  501    0 -0.00000000000E+00 -0.00000000000E+00 -0.12622179780E+04  0.12622179780E+04  0.00000000000E+00 0. -1.
         25    2    1    2    0    0  0.15778414140E+02 -0.11344840913E+01 -0.17345766655E+03  0.21439897634E+03  0.12501645318E+03 0.  0.
          2    1    1    2  501    0 -0.13670432269E+02 -0.44358411919E+02 -0.10658391516E+04  0.10668494019E+04  0.00000000000E+00 0. -1.
          1    1    1    2  502    0 -0.21079818706E+01  0.45492896010E+02  0.26458961510E+03  0.26848037469E+03  0.00000000000E+00 0. -1.
         22    1    3    3    0    0  0.62882235139E+02 -0.26172793283E+02 -0.12489466550E+03  0.14225986108E+03  0.00000000000E+00 0.  1.
         22    1    3    3    0    0 -0.47103820999E+02  0.25038309192E+02 -0.48563001049E+02  0.72139115262E+02  0.00000000000E+00 0.  1.
</event>
<event>
 7    1  0.5676357E-006  0.1315274E+03  0.7818608E-02  0.1256284E+00
          2   -1    0    0  502    0  0.00000000000E+00  0.00000000000E+00  0.13287051437E+03  0.13287051437E+03  0.00000000000E+00 0. -1.
          1   -1    0    0  501    0 -0.00000000000E+00 -0.00000000000E+00 -0.91948528561E+03  0.91948528561E+03  0.00000000000E+00 0. -1.
         25    2    1    2    0    0  0.18621995368E+02 -0.20717827271E+03 -0.23742367533E+03  0.33950759685E+03  0.12500316522E+03 0.  0.
          2    1    1    2  501    0  0.23058939438E+02  0.12073839336E+03 -0.59425141414E+03  0.60683129247E+03  0.00000000000E+00 0. -1.
          1    1    1    2  502    0 -0.41680934806E+02  0.86439879350E+02  0.45060318232E+02  0.10601691067E+03  0.00000000000E+00 0. -1.
         22    1    3    3    0    0 -0.45094762910E+02 -0.29780664915E+02 -0.48024202792E+02  0.72296263379E+02  0.00000000000E+00 0.  1.
         22    1    3    3    0    0  0.63716758278E+02 -0.17739760779E+03 -0.18939947254E+03  0.26721133347E+03  0.00000000000E+00 0.  1.
</event>
<event>
 7    1  0.5676357E-006  0.1435669E+03  0.7818608E-02  0.1233852E+00
          2   -1    0    0  502    0  0.00000000000E+00  0.00000000000E+00  0.70786719704E+03  0.70786719704E+03  0.00000000000E+00 0. -1.
          1   -1    0    0  501    0 -0.00000000000E+00 -0.00000000000E+00 -0.25586150268E+04  0.25586150268E+04  0.00000000000E+00 0. -1.
         25    2    1    2    0    0  0.11699211454E+03 -0.17007497240E+03 -0.18846258668E+03  0.30619712961E+03  0.12500353796E+03 0.  0.
          2    1    1    2  501    0  0.11943950025E+02  0.10955171576E+03 -0.23021362822E+04  0.23047723745E+04  0.00000000000E+00 0. -1.
          1    1    1    2  502    0 -0.12893606457E+03  0.60523256644E+02  0.63985103918E+03  0.65551271969E+03  0.00000000000E+00 0. -1.
         22    1    3    3    0    0  0.81656368537E+02 -0.16344539373E+03 -0.94728933024E+02  0.20580507770E+03  0.00000000000E+00 0. -1.
         22    1    3    3    0    0  0.35335746004E+02 -0.66295786676E+01 -0.93733653658E+02  0.10039205191E+03  0.00000000000E+00 0. -1.
</event>
<event>
 7    1  0.5676357E-006  0.6046276E+02  0.7818608E-02  0.1405497E+00
          2   -1    0    0  502    0  0.00000000000E+00  0.00000000000E+00  0.15845171585E+04  0.15845171585E+04  0.00000000000E+00 0. -1.
          1   -1    0    0  501    0 -0.00000000000E+00 -0.00000000000E+00 -0.43939529048E+02  0.43939529048E+02  0.00000000000E+00 0. -1.
         25    2    1    2    0    0  0.62112096217E+01  0.28796304337E+02  0.10898240616E+04  0.10973647918E+04  0.12500077941E+03 0.  0.
          2    1    1    2  501    0 -0.24020881822E+02  0.55486419670E+02 -0.10928027985E+02  0.61442390310E+02  0.00000000000E+00 0. -1.
          1    1    1    2  502    0  0.17809672200E+02 -0.84282724007E+02  0.46168159584E+03  0.46964950541E+03  0.00000000000E+00 0. -1.
         22    1    3    3    0    0  0.16676132800E+02 -0.39731908268E+02  0.70720660344E+03  0.70851809990E+03  0.00000000000E+00 0. -1.
         22    1    3    3    0    0 -0.10464923178E+02  0.68528212605E+02  0.38261745814E+03  0.38884669191E+03  0.00000000000E+00 0. -1.
</event>
<event>
 7    1  0.5676357E-006  0.9716723E+02  0.7818608E-02  0.1303241E+00
          2   -1    0    0  502    0  0.00000000000E+00  0.00000000000E+00  0.30476159501E+03  0.30476159501E+03  0.00000000000E+00 0. -1.
          1   -1    0    0  501    0 -0.00000000000E+00 -0.00000000000E+00 -0.11643393735E+04  0.11643393735E+04  0.00000000000E+00 0. -1.
         25    2    1    2    0    0  0.22903064897E+02 -0.27911573974E+02  0.78103426097E+01  0.13034544505E+03  0.12500130900E+03 0.  0.
          2    1    1    2  501    0 -0.83502825790E+01 -0.82643655851E+02 -0.10882103005E+04  0.10913759019E+04  0.00000000000E+00 0. -1.
          1    1    1    2  502    0 -0.14552782318E+02  0.11055522983E+03  0.22082217934E+03  0.24737962164E+03  0.00000000000E+00 0. -1.
         22    1    3    3    0    0  0.73536623846E+02 -0.56322175089E+01 -0.36900114290E+01  0.73844248964E+02  0.00000000000E+00 0.  1.
         22    1    3    3    0    0 -0.50633558950E+02 -0.22279356465E+02  0.11500354039E+02  0.56501196088E+02  0.00000000000E+00 0.  1.
</event>
<event>
 7    1  0.5676357E-006  0.6892214E+02  0.7818608E-02  0.1429671E+00
          2   -1    0    0  502    0  0.00000000000E+00  0.00000000000E+00  0.15224961760E+04  0.15224961760E+04  0.00000000000E+00 0. -1.
          1   -1    0    0  501    0 -0.00000000000E+00 -0.00000000000E+00 -0.51367190137E+03  0.51367190137E+03  0.00000000000E+00 0. -1.
         25    2    1    2    0    0 -0.28805882730E+01  0.81420560044E+02  0.96713958110E+02  0.17780806314E+03  0.12499804894E+03 0.  0.
          2    1    1    2  501    0  0.36554464776E+02 -0.58390146495E+02 -0.47031473483E+03  0.47533313361E+03  0.00000000000E+00 0. -1.
          1    1    1    2  502    0 -0.33673876503E+02 -0.23030413549E+02  0.13824250514E+04  0.13830268806E+04  0.00000000000E+00 0. -1.
         22    1    3    3    0    0 -0.60061500785E+02  0.49213763728E+02  0.27366907859E+02  0.82330590078E+02  0.00000000000E+00 0. -1.
         22    1    3    3    0    0  0.57180912512E+02  0.32206796317E+02  0.69347050251E+02  0.95477473067E+02  0.00000000000E+00 0. -1.
</event>
<event>
 7    1  0.5676357E-006  0.6578966E+02  0.7818608E-02  0.1532388E+00
          2   -1    0    0  502    0  0.00000000000E+00  0.00000000000E+00  0.11805819184E+04  0.11805819184E+04  0.00000000000E+00 0. -1.
          1   -1    0    0  501    0 -0.00000000000E+00 -0.00000000000E+00 -0.30241363477E+03  0.30241363477E+03  0.00000000000E+00 0. -1.
         25    2    1    2    0    0 -0.47689621663E+02 -0.34627593662E+01  0.23837609190E+03  0.27337673517E+03  0.12500154969E+03 0.  0.
          2    1    1    2  501    0  0.64080169764E+02  0.16090594992E+02 -0.28096525927E+03  0.28862891803E+03  0.00000000000E+00 0. -1.
          1    1    1    2  502    0 -0.16390548101E+02 -0.12627835626E+02  0.92075745099E+03  0.92098989997E+03  0.00000000000E+00 0. -1.
         22    1    3    3    0    0 -0.79347801473E+02 -0.33628377593E+02  0.12471647048E+03  0.15159531453E+03  0.00000000000E+00 0.  1.
         22    1    3    3    0    0  0.31658179810E+02  0.30165618227E+02  0.11365962142E+03  0.12178142064E+03  0.00000000000E+00 0.  1.
</event>
<event>
 7    1  0.5676357E-006  0.2340397E+03  0.7818608E-02  0.1150059E+00
          2   -1    0    0  502    0  0.00000000000E+00  0.00000000000E+00  0.20444080626E+04  0.20444080626E+04  0.00000000000E+00 0. -1.
          1   -1    0    0  501    0 -0.00000000000E+00 -0.00000000000E+00 -0.74148259732E+02  0.74148259732E+02  0.00000000000E+00 0. -1.
         25    2    1    2    0    0 -0.52784564438E+00 -0.16255302293E+03  0.55569160663E+03  0.59231917317E+03  0.12500030935E+03 0.  0.
          2    1    1    2  501    0  0.98511904688E+02 -0.13887280207E+03  0.16499742830E+03  0.23709576518E+03  0.00000000000E+00 0. -1.
          1    1    1    2  502    0 -0.97984059044E+02  0.30142582501E+03  0.12495707679E+04  0.12891413839E+04  0.00000000000E+00 0. -1.
         22    1    3    3    0    0 -0.11002627020E+02 -0.12184736501E+03  0.52799183953E+03  0.54198083063E+03  0.00000000000E+00 0. -1.
         22    1    3    3    0    0  0.10474781376E+02 -0.40705657925E+02  0.27699767100E+02  0.50338342537E+02  0.00000000000E+00 0. -1.
</event>
<event>
 7    1  0.5676357E-006  0.1337774E+03  0.7818608E-02  0.1305603E+00
          2   -1    0    0  502    0  0.00000000000E+00  0.00000000000E+00  0.94663295523E+03  0.94663295523E+03  0.00000000000E+00 0. -1.
          1   -1    0    0  501    0 -0.00000000000E+00 -0.00000000000E+00 -0.91681523674E+03  0.91681523674E+03  0.00000000000E+00 0. -1.
         25    2    1    2    0    0  0.17781151177E+03 -0.70821708785E+02 -0.21804934998E+03  0.31591652174E+03  0.12500032611E+03 0.  0.
          2    1    1    2  501    0 -0.56637600922E+02  0.16678365349E+02 -0.64356809011E+03  0.64627074227E+03  0.00000000000E+00 0. -1.
          1    1    1    2  502    0 -0.12117391085E+03  0.54143343436E+02  0.89143515858E+03  0.90126092796E+03  0.00000000000E+00 0. -1.
         22    1    3    3    0    0  0.17366754765E+02 -0.31308368023E+02  0.72387222875E+01  0.36526937727E+02  0.00000000000E+00 0.  1.
         22    1    3    3    0    0  0.16044475700E+03 -0.39513340762E+02 -0.22528807226E+03  0.27938958401E+03  0.00000000000E+00 0.  1.
</event>
<event>
 7    1  0.5676357E-006  0.2851317E+02  0.7818608E-02  0.1616920E+00
          2   -1    0    0  502    0  0.00000000000E+00  0.00000000000E+00  0.68621232517E+02  0.68621232517E+02  0.00000000000E+00 0. -1.
          1   -1    0    0  501    0 -0.00000000000E+00 -0.00000000000E+00 -0.60435548920E+03  0.60435548920E+03  0.00000000000E+00 0. -1.
         25    2    1    2    0    0 -0.38273125401E+02  0.75345886578E+01 -0.16556846821E+03  0.21109130666E+03  0.12500007970E+03 0.  0.
          2    1    1    2  501    0  0.15388172545E+02 -0.24036155467E+02 -0.41114415774E+03  0.41213353548E+03  0.00000000000E+00 0. -1.
          1    1    1    2  502    0  0.22884952856E+02  0.16501566810E+02  0.40978369266E+02  0.49751879583E+02  0.00000000000E+00 0. -1.
         22    1    3    3    0    0 -0.25094053264E+02  0.48328081801E+02 -0.15856314496E+03  0.16765317158E+03  0.00000000000E+00 0. -1.
         22    1    3    3    0    0 -0.13179072137E+02 -0.40793493143E+02 -0.70053232501E+01  0.43438135078E+02  0.00000000000E+00 0. -1.
</event>
<event>
 7    1  0.5676357E-006  0.7390628E+02  0.7818608E-02  0.1426491E+00
          2   -1    0    0  502    0  0.00000000000E+00  0.00000000000E+00  0.16850356989E+03  0.16850356989E+03  0.00000000000E+00 0. -1.
          1   -1    0    0  501    0 -0.00000000000E+00 -0.00000000000E+00 -0.11219950335E+04  0.11219950335E+04  0.00000000000E+00 0. -1.
         25    2    1    2    0    0  0.10887442992E+03  0.47124284601E+01 -0.12078911871E+03  0.20516624237E+03  0.12500930901E+03 0.  0.
          2    1    1    2  501    0 -0.72278020103E+02  0.86973586932E+01 -0.95459143608E+03  0.95736334068E+03  0.00000000000E+00 0. -1.
          1    1    1    2  502    0 -0.36596409814E+02 -0.13409787153E+02  0.12188909121E+03  0.12796902031E+03  0.00000000000E+00 0. -1.
         22    1    3    3    0    0  0.95756120012E+02  0.46950987318E+02 -0.12052794482E+03  0.16093668075E+03  0.00000000000E+00 0.  1.
         22    1    3    3    0    0  0.13118309906E+02 -0.42238558857E+02 -0.26117388863E+00  0.44229561618E+02  0.00000000000E+00 0.  1.
</event>
<event>
 7    1  0.5676357E-006  0.1211065E+03  0.7818608E-02  0.1325667E+00
          2   -1    0    0  502    0  0.00000000000E+00  0.00000000000E+00  0.64985164135E+03  0.64985164135E+03  0.00000000000E+00 0. -1.
          1   -1    0    0  501    0 -0.00000000000E+00 -0.00000000000E+00 -0.11397292020E+04  0.11397292020E+04  0.00000000000E+00 0. -1.
         25    2    1    2    0    0 -0.97630914727E+02 -0.81487770889E+01  0.28179494408E+02  0.16129936802E+03  0.12500081656E+03 0.  0.
          2    1    1    2  501    0 -0.19190709218E+02  0.50955909090E+02 -0.10654938928E+04  0.10668842597E+04  0.00000000000E+00 0. -1.
          1    1    1    2  502    0  0.11682162394E+03 -0.42807132001E+02  0.54743683776E+03  0.56139721562E+03  0.00000000000E+00 0. -1.
         22    1    3    3    0    0 -0.44992550590E+02 -0.26542969736E+02 -0.45240803787E+02  0.69105637819E+02  0.00000000000E+00 0.  1.
         22    1    3    3    0    0 -0.52638364137E+02  0.18394192648E+02  0.73420298195E+02  0.92193730206E+02  0.00000000000E+00 0.  1.
</event>
<event>
 7    1  0.5676357E-006  0.7543217E+02  0.7818608E-02  0.1447428E+00
          2   -1    0    0  502    0  0.00000000000E+00  0.00000000000E+00  0.11703021429E+04  0.11703021429E+04  0.00000000000E+00 0. -1.
          1   -1    0    0  501    0 -0.00000000000E+00 -0.00000000000E+00 -0.65800546492E+02  0.65800546492E+02  0.00000000000E+00 0. -1.
         25    2    1    2    0    0 -0.53731504077E+02 -0.32427450474E+02  0.16638966857E+03  0.21736830743E+03  0.12499938077E+03 0.  0.
          2    1    1    2  501    0  0.45961655363E+02  0.64123221448E+02 -0.11532799929E+01  0.78902416613E+02  0.00000000000E+00 0. -1.
          1    1    1    2  502    0  0.77698487139E+01 -0.31695770974E+02  0.93926520778E+03  0.93983196530E+03  0.00000000000E+00 0. -1.
         22    1    3    3    0    0 -0.48294816509E+02 -0.28296338113E+01  0.10009557123E+00  0.48377744349E+02  0.00000000000E+00 0. -1.
         22    1    3    3    0    0 -0.54366875674E+01 -0.29597816663E+02  0.16628957300E+03  0.16899056308E+03  0.00000000000E+00 0. -1.
</event>
<event>
 7    1  0.5676357E-006  0.1202426E+03  0.7818608E-02  0.1447239E+00
          2   -1    0    0  502    0  0.00000000000E+00  0.00000000000E+00  0.18964552770E+04  0.18964552770E+04  0.00000000000E+00 0. -1.
          1   -1    0    0  501    0 -0.00000000000E+00 -0.00000000000E+00 -0.43098692003E+02  0.43098692003E+02  0.00000000000E+00 0. -1.
         25    2    1    2    0    0 -0.12530812221E+03 -0.51940692986E+02  0.86554913182E+03  0.88498602472E+03  0.12500001312E+03 0.  0.
          2    1    1    2  501    0  0.11297797202E+03  0.35561950652E+02  0.72164084207E+02  0.13869509560E+03  0.00000000000E+00 0. -1.
          1    1    1    2  502    0  0.12330150197E+02  0.16378742334E+02  0.91564336898E+03  0.91587284868E+03  0.00000000000E+00 0. -1.
         22    1    3    3    0    0 -0.13068401705E+03 -0.39631924171E+02  0.47591035520E+03  0.49511581263E+03  0.00000000000E+00 0. -1.
         22    1    3    3    0    0  0.53758948358E+01 -0.12308768816E+02  0.38963877661E+03  0.38987021209E+03  0.00000000000E+00 0. -1.
</event>
<event>
 7    1  0.5676357E-006  0.1095857E+03  0.7818608E-02  0.1275568E+00
          2   -1    0    0  502    0  0.00000000000E+00  0.00000000000E+00  0.25323809728E+04  0.25323809728E+04  0.00000000000E+00 0. -1.
          1   -1    0    0  501    0 -0.00000000000E+00 -0.00000000000E+00 -0.78381029245E+02  0.78381029245E+02  0.00000000000E+00 0. -1.
         25    2    1    2    0    0 -0.49114547469E+01  0.12363923361E+03  0.98318344855E+03  0.99879262958E+03  0.12500496361E+03 0.  0.
          2    1    1    2  501    0  0.85478349756E+02 -0.42510591087E+02 -0.35103540006E+02  0.10171507829E+03  0.00000000000E+00 0. -1.
          1    1    1    2  502    0 -0.80566895009E+02 -0.81128642518E+02  0.15059200350E+04  0.15102542941E+04  0.00000000000E+00 0. -1.
         22    1    3    3    0    0  0.45135849268E+02  0.58724752279E+02  0.70226736837E+03  0.70616237374E+03  0.00000000000E+00 0.  1.
         22    1    3    3    0    0 -0.50047304015E+02  0.64914481326E+02  0.28091608018E+03  0.29263025584E+03  0.00000000000E+00 0.  1.
</event>
<event>
 7    1  0.5676357E-006  0.8955025E+02  0.7818608E-02  0.1428219E+00
          2   -1    0    0  502    0  0.00000000000E+00  0.00000000000E+00  0.43509003411E+03  0.43509003411E+03  0.00000000000E+00 0. -1.
          1   -1    0    0  501    0 -0.00000000000E+00 -0.00000000000E+00 -0.72284134066E+03  0.72284134066E+03  0.00000000000E+00 0. -1.
         25    2    1    2    0    0 -0.66831992999E+02  0.53497334915E+02 -0.40979519650E+03  0.43690438543E+03  0.12499943518E+03 0.  0.
          2    1    1    2  501    0  0.21168418844E+02  0.23659164902E+02 -0.29385965040E+03  0.29556953865E+03  0.00000000000E+00 0. -1.
          1    1    1    2  502    0  0.45663574155E+02 -0.77156499817E+02  0.41590354036E+03  0.42545745069E+03  0.00000000000E+00 0. -1.
         22    1    3    3    0    0 -0.43141967227E+02  0.87054730158E+02 -0.35715198929E+03  0.37013146155E+03  0.00000000000E+00 0.  1.
         22    1    3    3    0    0 -0.23690025772E+02 -0.33557395244E+02 -0.52643207213E+02  0.66772923871E+02  0.00000000000E+00 0.  1.
</event>
<event>
 7    1  0.5676357E-006  0.1367946E+03  0.7818608E-02  0.1349607E+00
          2   -1    0    0  502    0  0.00000000000E+00  0.00000000000E+00  0.58951344260E+02  0.58951344260E+02  0.00000000000E+00 0. -1.
          1   -1    0    0  501    0 -0.00000000000E+00 -0.00000000000E+00 -0.16214466988E+04  0.16214466988E+04  0.00000000000E+00 0. -1.
         25    2    1    2    0    0  0.88753231694E+02  0.51834096079E+02 -0.17508453623E+03  0.23841864472E+03  0.12499978269E+03 0.  0.
          2    1    1    2  501    0 -0.11512015441E+03 -0.80769476704E+02 -0.13950281516E+04  0.14020983925E+04  0.00000000000E+00 0. -1.
          1    1    1    2  502    0  0.26366922711E+02  0.28935380625E+02  0.76173332902E+01  0.39881005900E+02  0.00000000000E+00 0. -1.
         22    1    3    3    0    0 -0.23624656906E+02 -0.17393294754E+02 -0.24921639484E+02  0.38493366063E+02  0.00000000000E+00 0.  1.
         22    1    3    3    0    0  0.11237788860E+03  0.69227390833E+02 -0.15016289674E+03  0.19992527866E+03  0.00000000000E+00 0.  1.
</event>
