<event>
 7    1  0.6386201E-006  0.1193406E+03  0.7818608E-02  0.1337293E+00
          2   -1    0    0  502    0  0.00000000000E+00  0.00000000000E+00  0.64802467871E+03  0.64802467871E+03  0.00000000000E+00 0. -1.
          1   -1    0    0  501    0 -0.00000000000E+00 -0.00000000000E+00 -0.69973210595E+03  0.69973210595E+03  0.00000000000E+00 0. -1.
         25    2    1    2    0    0 -0.39554541266E+02  0.11199814425E+03  0.31663362120E+03  0.36053661126E+03  0.12498660702E+03 0.  0.
          2    1    1    2  501    0  0.82450272586E+02 -0.86512910247E+02 -0.67045025994E+03  0.68101841542E+03  0.00000000000E+00 0. -1.
          1    1    1    2  502    0 -0.42895731320E+02 -0.25485234004E+02  0.30210921150E+03  0.30620175798E+03  0.00000000000E+00 0. -1.
         22    1    3    3    0    0  0.12416230275E+02 -0.83948026381E+01  0.13867726659E+03  0.13948483700E+03  0.00000000000E+00 0.  1.
         22    1    3    3    0    0 -0.51970771542E+02  0.12039294689E+03  0.17795635461E+03  0.22105177426E+03  0.00000000000E+00 0.  1.
</event>
<event>
 7    1  0.6386201E-006  0.6711196E+02  0.7818608E-02  0.1421918E+00
          2   -1    0    0  502    0  0.00000000000E+00  0.00000000000E+00  0.87987093944E+02  0.87987093944E+02  0.00000000000E+00 0. -1.
          1   -1    0    0  501    0 -0.00000000000E+00 -0.00000000000E+00 -0.12406705702E+04  0.12406705702E+04  0.00000000000E+00 0. -1.
         25    2    1    2    0    0  0.19610916885E+01  0.54478915430E+02 -0.22060107942E+03  0.25934440549E+03  0.12499154496E+03 0.  0.
          2    1    1    2  501    0  0.44317277437E+02 -0.34160784951E+01 -0.98276456273E+03  0.98376921909E+03  0.00000000000E+00 0. -1.
          1    1    1    2  502    0 -0.46278369125E+02 -0.51062836935E+02  0.50682165895E+02  0.85544039562E+02  0.00000000000E+00 0. -1.
         22    1    3    3    0    0  0.58212513337E+02  0.91012979798E+00 -0.10520421912E+03  0.12023914822E+03  0.00000000000E+00 0.  1.
         22    1    3    3    0    0 -0.56251421649E+02  0.53568785632E+02 -0.11539686030E+03  0.13910525726E+03  0.00000000000E+00 0.  1.
</event>
<event>
 7    1  0.6386201E-006  0.1280325E+03  0.7818608E-02  0.1326380E+00
          2   -1    0    0  502    0  0.00000000000E+00  0.00000000000E+00  0.30625564891E+04  0.30625564891E+04  0.00000000000E+00 0. -1.
          1   -1    0    0  501    0 -0.00000000000E+00 -0.00000000000E+00 -0.33023246060E+02  0.33023246060E+02  0.00000000000E+00 0. -1.
         25    2    1    2    0    0  0.16220910506E+03  0.43920223865E+02  0.12247265956E+04  0.12425057773E+04  0.12499837131E+03 0.  0.
          2    1    1    2  501    0 -0.11165359237E+03 -0.51891395053E+02  0.13588761523E+03  0.18337035077E+03  0.00000000000E+00 0. -1.
          1    1    1    2  502    0 -0.50555512691E+02  0.79711711877E+01  0.16689190323E+04  0.16697036072E+04  0.00000000000E+00 0. -1.
         22    1    3    3    0    0  0.12971180025E+03 -0.14893517104E+02  0.98230133676E+03  0.99094040394E+03  0.00000000000E+00 0.  1.
         22    1    3    3    0    0  0.32497304816E+02  0.58813740969E+02  0.24242525881E+03  0.25156537333E+03  0.00000000000E+00 0.  1.
</event>
<event>
 7    1  0.6386201E-006  0.9386072E+02  0.7818608E-02  0.1315900E+00
          2   -1    0    0  502    0  0.00000000000E+00  0.00000000000E+00  0.13121786997E+04  0.13121786997E+04  0.00000000000E+00 0. -1.
          1   -1    0    0  501    0 -0.00000000000E+00 -0.00000000000E+00 -0.15488572942E+03  0.15488572942E+03  0.00000000000E+00 0. -1.
         25    2    1    2    0    0 -0.29313952971E+02 -0.60921894709E+02  0.52525187438E+03  0.54413644180E+03  0.12499660262E+03 0.  0.
          2    1    1    2  501    0  0.93503544077E+02  0.19024486519E+02 -0.12765430773E+03  0.15937523686E+03  0.00000000000E+00 0. -1.
          1    1    1    2  502    0 -0.64189591107E+02  0.41897408189E+02  0.75969540363E+03  0.76355275045E+03  0.00000000000E+00 0. -1.
         22    1    3    3    0    0 -0.77404818725E+02 -0.47563867363E+02  0.37334945520E+03  0.38424424933E+03  0.00000000000E+00 0. -1.
         22    1    3    3    0    0  0.48090865755E+02 -0.13358027346E+02  0.15190241917E+03  0.15989219247E+03  0.00000000000E+00 0. -1.
</event>
<event>
 7    1  0.6386201E-006  0.9480118E+02  0.7818608E-02  0.1342866E+00
          2   -1    0    0  502    0  0.00000000000E+00  0.00000000000E+00  0.11282591724E+03  0.11282591724E+03  0.00000000000E+00 0. -1.
          1   -1    0    0  501    0 -0.00000000000E+00 -0.00000000000E+00 -0.32198827148E+03  0.32198827148E+03  0.00000000000E+00 0. -1.
         25    2    1    2    0    0  0.48206427639E+02  0.14820687891E+02 -0.54838190407E+02  0.14551911761E+03  0.12500029603E+03 0.  0.
          2    1    1    2  501    0 -0.98288439435E+02 -0.47591176512E+02 -0.19034092457E+03  0.21944294242E+03  0.00000000000E+00 0. -1.
          1    1    1    2  502    0  0.50082011796E+02  0.32770488621E+02  0.36016760739E+02  0.69852128701E+02  0.00000000000E+00 0. -1.
         22    1    3    3    0    0 -0.41539859454E+02  0.16591329891E+02 -0.13732566462E+02  0.46791190759E+02  0.00000000000E+00 0. -1.
         22    1    3    3    0    0  0.89746287093E+02 -0.17706419999E+01 -0.41105623945E+02  0.98727926849E+02  0.00000000000E+00 0. -1.
</event>
<event>
 7    1  0.6386201E-006  0.6693373E+02  0.7818608E-02  0.1429447E+00
          2   -1    0    0  502    0  0.00000000000E+00  0.00000000000E+00  0.31371781220E+04  0.31371781220E+04  0.00000000000E+00 0. -1.
          1   -1    0    0  501    0 -0.00000000000E+00 -0.00000000000E+00 -0.11198770238E+03  0.11198770238E+03  0.00000000000E+00 0. -1.
         25    2    1    2    0    0  0.26951062590E+02 -0.55815755901E+02  0.63629395739E+02  0.15334454411E+03  0.12499636325E+03 0.  0.
          2    1    1    2  501    0 -0.61713213177E+02  0.32102872871E+02 -0.48922132177E+02  0.85044048257E+02  0.00000000000E+00 0. -1.
          1    1    1    2  502    0  0.34762150587E+02  0.23712883030E+02  0.30104831561E+04  0.30107772320E+04  0.00000000000E+00 0. -1.
         22    1    3    3    0    0  0.29737679011E+02 -0.63030422747E+02 -0.17492279759E+02  0.71855017888E+02  0.00000000000E+00 0. -1.
         22    1    3    3    0    0 -0.27866164210E+01  0.72146668457E+01  0.81121675499E+02  0.81489526226E+02  0.00000000000E+00 0. -1.
</event>
<event>
 7    1  0.6386201E-006  0.1154503E+03  0.7818608E-02  0.1382068E+00
          2   -1    0    0  502    0  0.00000000000E+00  0.00000000000E+00  0.88708348771E+03  0.88708348771E+03  0.00000000000E+00 0. -1.
          1   -1    0    0  501    0 -0.00000000000E+00 -0.00000000000E+00 -0.77599859217E+03  0.77599859217E+03  0.00000000000E+00 0. -1.
         25    2    1    2    0    0 -0.22477499269E+02 -0.14482117438E+03 -0.43598320093E+01  0.19267326822E+03  0.12500227850E+03 0.  0.
          2    1    1    2  501    0  0.54826652457E+01  0.11377481433E+03 -0.67229400617E+03  0.68187535424E+03  0.00000000000E+00 0. -1.
          1    1    1    2  502    0  0.16994834023E+02  0.31046360048E+02  0.78773873372E+03  0.78853345742E+03  0.00000000000E+00 0. -1.
         22    1    3    3    0    0 -0.59599736761E+02 -0.26148459075E+02  0.15110745462E+02  0.66814707680E+02  0.00000000000E+00 0. -1.
         22    1    3    3    0    0  0.37122237492E+02 -0.11867271530E+03 -0.19470577472E+02  0.12585856054E+03  0.00000000000E+00 0. -1.
</event>
<event>
 7    1  0.6386201E-006  0.2265845E+03  0.7818608E-02  0.1238460E+00
          2   -1    0    0  502    0  0.00000000000E+00  0.00000000000E+00  0.37066623822E+03  0.37066623822E+03  0.00000000000E+00 0. -1.
          1   -1    0    0  501    0 -0.00000000000E+00 -0.00000000000E+00 -0.54966909901E+03  0.54966909901E+03  0.00000000000E+00 0. -1.
         25    2    1    2    0    0  0.19615857732E+03  0.12191410222E+03 -0.32281141096E+03  0.41614330906E+03  0.12500724319E+03 0.  0.
          2    1    1    2  501    0 -0.21785410227E+03 -0.58933723884E+02 -0.10334350800E+03  0.24822061626E+03  0.00000000000E+00 0. -1.
          1    1    1    2  502    0  0.21695524951E+02 -0.62980378334E+02  0.24715205817E+03  0.25597141191E+03  0.00000000000E+00 0. -1.
         22    1    3    3    0    0  0.84266576394E+02  0.79854903166E+02 -0.67639453957E+02  0.13436054923E+03  0.00000000000E+00 0.  1.
         22    1    3    3    0    0  0.11189200093E+03  0.42059199053E+02 -0.25517195701E+03  0.28178275983E+03  0.00000000000E+00 0.  1.
</event>
<event>
 7    1  0.6386201E-006  0.1277786E+03  0.7818608E-02  0.1295785E+00
          2   -1    0    0  502    0  0.00000000000E+00  0.00000000000E+00  0.13197510142E+04  0.13197510142E+04  0.00000000000E+00 0. -1.
          1   -1    0    0  501    0 -0.00000000000E+00 -0.00000000000E+00 -0.63508404767E+03  0.63508404767E+03  0.00000000000E+00 0. -1.
         25    2    1    2    0    0 -0.68007091360E+02  0.29496830772E+02  0.51742558962E+02  0.15427178553E+03  0.12500985522E+03 0.  0.
          2    1    1    2  501    0  0.95163195239E+02 -0.91470500795E+02 -0.57540010823E+03  0.59034580611E+03  0.00000000000E+00 0. -1.
          1    1    1    2  502    0 -0.27156103878E+02  0.61973670023E+02  0.12083245158E+04  0.12102174702E+04  0.00000000000E+00 0. -1.
         22    1    3    3    0    0 -0.10298390946E+03  0.35112080972E+02  0.47032931136E+02  0.11853539745E+03  0.00000000000E+00 0. -1.
         22    1    3    3    0    0  0.34976818095E+02 -0.56152502001E+01  0.47096278259E+01  0.35736388082E+02  0.00000000000E+00 0. -1.
</event>
<event>
 7    1  0.6386201E-006  0.6693526E+02  0.7818608E-02  0.1440047E+00
          2   -1    0    0  502    0  0.00000000000E+00  0.00000000000E+00  0.61254759793E+03  0.61254759793E+03  0.00000000000E+00 0. -1.
          1   -1    0    0  501    0 -0.00000000000E+00 -0.00000000000E+00 -0.32333360398E+02  0.32333360398E+02  0.00000000000E+00 0. -1.
         25    2    1    2    0    0  0.31214958207E+02  0.45252766405E+02  0.28755564154E+03  0.31833273041E+03  0.12500117514E+03 0.  0.
          2    1    1    2  501    0  0.35370388317E+02 -0.16072718384E+02  0.18717243775E+02  0.43124608525E+02  0.00000000000E+00 0. -1.
          1    1    1    2  502    0 -0.66585346524E+02 -0.29180048021E+02  0.27394135222E+03  0.28342361939E+03  0.00000000000E+00 0. -1.
         22    1    3    3    0    0 -0.35957823543E+02  0.21618129439E+02  0.31239673932E+02  0.52308945906E+02  0.00000000000E+00 0. -1.
         22    1    3    3    0    0  0.67172781749E+02  0.23634636966E+02  0.25631596761E+03  0.26602378451E+03  0.00000000000E+00 0. -1.
</event>
<event>
 7    1  0.6386201E-006  0.4700958E+02  0.7818608E-02  0.1478899E+00
          2   -1    0    0  502    0  0.00000000000E+00  0.00000000000E+00  0.85416387305E+03  0.85416387305E+03  0.00000000000E+00 0. -1.
          1   -1    0    0  501    0 -0.00000000000E+00 -0.00000000000E+00 -0.35981630938E+03  0.35981630938E+03  0.00000000000E+00 0. -1.
         25    2    1    2    0    0 -0.30950368791E+02  0.19177415960E+02 -0.50788461484E+02  0.13975085355E+03  0.12500053855E+03 0.  0.
          2    1    1    2  501    0  0.43768138752E+02  0.20509432063E+02 -0.26179581179E+03  0.26622046098E+03  0.00000000000E+00 0. -1.
          1    1    1    2  502    0 -0.12817769961E+02 -0.39686848023E+02  0.80693183694E+03  0.80800886790E+03  0.00000000000E+00 0. -1.
         22    1    3    3    0    0 -0.51967030561E+02  0.15600012330E+02  0.25922610353E+02  0.60132473569E+02  0.00000000000E+00 0.  1.
         22    1    3    3    0    0  0.21016661770E+02  0.35774036303E+01 -0.76711071837E+02  0.79618379982E+02  0.00000000000E+00 0.  1.
</event>
<event>
 7    1  0.6386201E-006  0.1455514E+03  0.7818608E-02  0.1305488E+00
          2   -1    0    0  502    0  0.00000000000E+00  0.00000000000E+00  0.17132059914E+04  0.17132059914E+04  0.00000000000E+00 0. -1.
          1   -1    0    0  501    0 -0.00000000000E+00 -0.00000000000E+00 -0.10638677893E+03  0.10638677893E+03  0.00000000000E+00 0. -1.
         25    2    1    2    0    0 -0.18449014369E+03  0.57557088844E+02  0.48782083698E+03  0.53939062339E+03  0.12499457595E+03 0.  0.
          2    1    1    2  501    0  0.13071317882E+03 -0.49873029992E+02 -0.18752080139E+02  0.14115556931E+03  0.00000000000E+00 0. -1.
          1    1    1    2  502    0  0.53776964866E+02 -0.76840588523E+01  0.11377504556E+04  0.11390465776E+04  0.00000000000E+00 0. -1.
         22    1    3    3    0    0 -0.36008880614E+02  0.20974559197E+02  0.27031138411E+03  0.27350469099E+03  0.00000000000E+00 0. -1.
         22    1    3    3    0    0 -0.14848126307E+03  0.36582529648E+02  0.21750945287E+03  0.26588593240E+03  0.00000000000E+00 0. -1.
</event>
<event>
 7    1  0.6386201E-006  0.7429418E+02  0.7818608E-02  0.1507205E+00
          2   -1    0    0  502    0  0.00000000000E+00  0.00000000000E+00  0.16281223534E+04  0.16281223534E+04  0.00000000000E+00 0. -1.
          1   -1    0    0  501    0 -0.00000000000E+00 -0.00000000000E+00 -0.12022894678E+03  0.12022894678E+03  0.00000000000E+00 0. -1.
         25    2    1    2    0    0 -0.52153469948E+02 -0.40935551834E+02  0.23522742217E+02  0.14343868059E+03  0.12500252740E+03 0.  0.
          2    1    1    2  501    0  0.89920661884E+01 -0.19731563522E+02 -0.57392792522E+02  0.61352461131E+02  0.00000000000E+00 0. -1.
          1    1    1    2  502    0  0.43161403759E+02  0.60667115356E+02  0.15417634570E+04  0.15435601585E+04  0.00000000000E+00 0. -1.
         22    1    3    3    0    0 -0.55343835988E+02 -0.52385388208E+02 -0.34901978008E+02  0.83817164999E+02  0.00000000000E+00 0.  1.
         22    1    3    3    0    0  0.31903660409E+01  0.11449836374E+02  0.58424720224E+02  0.59621515594E+02  0.00000000000E+00 0.  1.
</event>
<event>
 7    1  0.6386201E-006  0.6940814E+02  0.7818608E-02  0.1422747E+00
          2   -1    0    0  502    0  0.00000000000E+00  0.00000000000E+00  0.37928763749E+03  0.37928763749E+03  0.00000000000E+00 0. -1.
          1   -1    0    0  501    0 -0.00000000000E+00 -0.00000000000E+00 -0.20101964923E+03  0.20101964923E+03  0.00000000000E+00 0. -1.
         25    2    1    2    0    0  0.65023492270E+02  0.27699332073E+02  0.13309506754E+03  0.19579215902E+03  0.12499985994E+03 0.  0.
          2    1    1    2  501    0 -0.36592406155E+02 -0.59565668423E+02 -0.16017902340E+03  0.17476954134E+03  0.00000000000E+00 0. -1.
          1    1    1    2  502    0 -0.28431086115E+02  0.31866336350E+02  0.20535194410E+03  0.20974558636E+03  0.00000000000E+00 0. -1.
         22    1    3    3    0    0  0.15770609456E+02  0.72521566868E+02  0.89175006456E+02  0.11601841044E+03  0.00000000000E+00 0. -1.
         22    1    3    3    0    0  0.49252882814E+02 -0.44822234794E+02  0.43920061089E+02  0.79773748587E+02  0.00000000000E+00 0. -1.
</event>
<event>
 7    1  0.6386201E-006  0.6727924E+02  0.7818608E-02  0.1493137E+00
          2   -1    0    0  502    0  0.00000000000E+00  0.00000000000E+00  0.39256616710E+03  0.39256616710E+03  0.00000000000E+00 0. -1.
          1   -1    0    0  501    0 -0.00000000000E+00 -0.00000000000E+00 -0.14804438829E+04  0.14804438829E+04  0.00000000000E+00 0. -1.
         25    2    1    2    0    0  0.81050832426E+01  0.40812847229E+02 -0.26867584276E+03  0.29923813956E+03  0.12500149922E+03 0.  0.
          2    1    1    2  501    0  0.10920986821E+02  0.24007018240E+02 -0.11933160338E+04  0.11936074570E+04  0.00000000000E+00 0. -1.
          1    1    1    2  502    0 -0.19026070063E+02 -0.64819865469E+02  0.37411416082E+03  0.38016445340E+03  0.00000000000E+00 0. -1.
         22    1    3    3    0    0  0.10057968117E+02  0.47696765428E+02 -0.23778286675E+02  0.54236068000E+02  0.00000000000E+00 0. -1.
         22    1    3    3    0    0 -0.19528848744E+01 -0.68839181989E+01 -0.24489755609E+03  0.24500207156E+03  0.00000000000E+00 0. -1.
</event>
<event>
 7    1  0.6386201E-006  0.1019866E+03  0.7818608E-02  0.1353908E+00
          2   -1    0    0  502    0  0.00000000000E+00  0.00000000000E+00  0.18477403461E+04  0.18477403461E+04  0.00000000000E+00 0. -1.
          1   -1    0    0  501    0 -0.00000000000E+00 -0.00000000000E+00 -0.45261814948E+03  0.45261814948E+03  0.00000000000E+00 0. -1.
         25    2    1    2    0    0 -0.32803575897E+01  0.13395632010E+03  0.17199047848E+03  0.25131745273E+03  0.12499872368E+03 0.  0.
          2    1    1    2  501    0  0.33804954072E+02 -0.37678878127E+02 -0.40983722494E+03  0.41295159973E+03  0.00000000000E+00 0. -1.
          1    1    1    2  502    0 -0.30524596482E+02 -0.96277441973E+02  0.16329689430E+04  0.16360894431E+04  0.00000000000E+00 0. -1.
         22    1    3    3    0    0  0.17977860763E+02  0.15085192017E+03  0.12368083857E+03  0.19589909425E+03  0.00000000000E+00 0.  1.
         22    1    3    3    0    0 -0.21258218353E+02 -0.16895600073E+02  0.48309639907E+02  0.55418358486E+02  0.00000000000E+00 0.  1.
</event>
<event>
 7    1  0.6386201E-006  0.1798499E+03  0.7818608E-02  0.1308249E+00
          2   -1    0    0  502    0  0.00000000000E+00  0.00000000000E+00  0.11716412168E+04  0.11716412168E+04  0.00000000000E+00 0. -1.
          1   -1    0    0  501    0 -0.00000000000E+00 -0.00000000000E+00 -0.25651041292E+03  0.25651041292E+03  0.00000000000E+00 0. -1.
         25    2    1    2    0    0  0.14520514166E+03  0.32212189410E+02  0.15757610992E+03  0.25015246439E+03  0.12499546676E+03 0.  0.
          2    1    1    2  501    0 -0.18552846646E+03 -0.17655884111E+02 -0.16832402056E+03  0.25112848904E+03  0.00000000000E+00 0. -1.
          1    1    1    2  502    0  0.40323324797E+02 -0.14556305300E+02  0.92587871451E+03  0.92687067627E+03  0.00000000000E+00 0. -1.
         22    1    3    3    0    0 -0.74421201782E+01 -0.28502684225E+02  0.17518035705E+02  0.34273455264E+02  0.00000000000E+00 0.  1.
         22    1    3    3    0    0  0.15264726184E+03  0.60714873636E+02  0.14005807422E+03  0.21587900913E+03  0.00000000000E+00 0.  1.
</event>
<event>
 7    1  0.6386201E-006  0.2064256E+03  0.7818608E-02  0.1339160E+00
          2   -1    0    0  502    0  0.00000000000E+00  0.00000000000E+00  0.68931721782E+03  0.68931721782E+03  0.00000000000E+00 0. -1.
          1   -1    0    0  501    0 -0.00000000000E+00 -0.00000000000E+00 -0.17287953700E+03  0.17287953700E+03  0.00000000000E+00 0. -1.
         25    2    1    2    0    0 -0.19033114718E+03  0.97133984040E+01  0.35156832222E+03  0.41898201076E+03  0.12500137782E+03 0.  0.
          2    1    1    2  501    0  0.20736236021E+03 -0.32417246603E+02 -0.58633360597E+02  0.21791717988E+03  0.00000000000E+00 0. -1.
          1    1    1    2  502    0 -0.17031213037E+02  0.22703848199E+02  0.22350271919E+03  0.22529756418E+03  0.00000000000E+00 0. -1.
         22    1    3    3    0    0 -0.16892180568E+03  0.11745127045E+00  0.18400735369E+03  0.24978650172E+03  0.00000000000E+00 0. -1.
         22    1    3    3    0    0 -0.21409341497E+02  0.95959471335E+01  0.16756096853E+03  0.16919550904E+03  0.00000000000E+00 0. -1.
</event>
<event>
 7    1  0.8747764E-006  0.7593784E+02  0.7818608E-02  0.1393700E+00
          2   -1    0    0  502    0  0.00000000000E+00  0.00000000000E+00  0.15594424564E+04  0.15594424564E+04  0.00000000000E+00 0. -1.
          1   -1    0    0  501    0 -0.00000000000E+00 -0.00000000000E+00 -0.45509735654E+03  0.45509735654E+03  0.00000000000E+00 0. -1.
         25    2    1    2    0    0  0.44580229413E+02  0.31656204928E+02 -0.66056026747E+02  0.15158436229E+03  0.12499963222E+03 0.  0.
          2    1    1    2  501    0  0.31425167938E+02 -0.37587751957E+02 -0.34358024388E+03  0.34705585179E+03  0.00000000000E+00 0. -1.
          1    1    1    2  502    0 -0.76005397351E+02  0.59315470291E+01  0.15139813705E+04  0.15158995989E+04  0.00000000000E+00 0. -1.
         22    1    3    3    0    0  0.40729896333E+02 -0.19123990474E+02 -0.85865799513E+02  0.96941152216E+02  0.00000000000E+00 0.  1.
         22    1    3    3    0    0  0.38503330798E+01  0.50780195402E+02  0.19809772766E+02  0.54643210072E+02  0.00000000000E+00 0.  1.
</event>
<event>
 7    1  0.6386201E-006  0.9633130E+02  0.7818608E-02  0.1454509E+00
          2   -1    0    0  502    0  0.00000000000E+00  0.00000000000E+00  0.98688187696E+03  0.98688187696E+03  0.00000000000E+00 0. -1.
          1   -1    0    0  501    0 -0.00000000000E+00 -0.00000000000E+00 -0.29165436604E+02  0.29165436604E+02  0.00000000000E+00 0. -1.
         25    2    1    2    0    0  0.24357040124E+02  0.10804517178E+03  0.55555952769E+03  0.58011921524E+03  0.12499956217E+03 0.  0.
          2    1    1    2  501    0 -0.52609331161E+01 -0.93087048160E+02  0.11636987934E+03  0.14911346274E+03  0.00000000000E+00 0. -1.
          1    1    1    2  502    0 -0.19096107008E+02 -0.14958123619E+02  0.28578703333E+03  0.28681463558E+03  0.00000000000E+00 0. -1.
         22    1    3    3    0    0  0.46165456102E+02  0.79816975191E+02  0.52533312212E+03  0.53336374836E+03  0.00000000000E+00 0. -1.
         22    1    3    3    0    0 -0.21808415978E+02  0.28228196588E+02  0.30226405563E+02  0.46755466882E+02  0.00000000000E+00 0. -1.
</event>
<event>
 7    1  0.6386201E-006  0.9918641E+02  0.7818608E-02  0.1397752E+00
          2   -1    0    0  502    0  0.00000000000E+00  0.00000000000E+00  0.14132989766E+04  0.14132989766E+04  0.00000000000E+00 0. -1.
          1   -1    0    0  501    0 -0.00000000000E+00 -0.00000000000E+00 -0.12928387511E+04  0.12928387511E+04  0.00000000000E+00 0. -1.
         25    2    1    2    0    0  0.12448695424E+03  0.47799252511E+02  0.21185452188E+03  0.27979982729E+03  0.12499533830E+03 0.  0.
          2    1    1    2  501    0 -0.32894209591E+02 -0.15394737638E+02 -0.12565819665E+04  0.12571067041E+04  0.00000000000E+00 0. -1.
          1    1    1    2  502    0 -0.91592744649E+02 -0.32404514873E+02  0.11651876702E+04  0.11692311962E+04  0.00000000000E+00 0. -1.
         22    1    3    3    0    0  0.13969158675E+03  0.38038694678E+02  0.12557905864E+03  0.19165276327E+03  0.00000000000E+00 0.  1.
         22    1    3    3    0    0 -0.15204632507E+02  0.97605578327E+01  0.86275463234E+02  0.88147064018E+02  0.00000000000E+00 0.  1.
</event>
<event>
 7    1  0.6386201E-006  0.5142557E+02  0.7818608E-02  0.1439148E+00
          2   -1    0    0  502    0  0.00000000000E+00  0.00000000000E+00  0.90329210192E+03  0.90329210192E+03  0.00000000000E+00 0. -1.
          1   -1    0    0  501    0 -0.00000000000E+00 -0.00000000000E+00 -0.12420172414E+04  0.12420172414E+04  0.00000000000E+00 0. -1.
         25    2    1    2    0    0 -0.97069288762E+01 -0.42537240039E+02  0.57303017323E+02  0.14425596828E+03  0.12499002893E+03 0.  0.
          2    1    1    2  501    0  0.50248637188E+02  0.11745891681E+02 -0.11971770050E+04  0.11982886434E+04  0.00000000000E+00 0. -1.
          1    1    1    2  502    0 -0.40541708312E+02  0.30791348358E+02  0.80114884826E+03  0.80276473161E+03  0.00000000000E+00 0. -1.
         22    1    3    3    0    0  0.53432043209E+02  0.15456650851E+00  0.38193928459E+02  0.65679397862E+02  0.00000000000E+00 0. -1.
         22    1    3    3    0    0 -0.63138972085E+02 -0.42691806547E+02  0.19109088864E+02  0.78576570423E+02  0.00000000000E+00 0. -1.
</event>
<event>
 7    1  0.6386201E-006  0.1081091E+03  0.7818608E-02  0.1340146E+00
          2   -1    0    0  502    0  0.00000000000E+00  0.00000000000E+00  0.18160857023E+03  0.18160857023E+03  0.00000000000E+00 0. -1.
          1   -1    0    0  501    0 -0.00000000000E+00 -0.00000000000E+00 -0.29522768898E+04  0.29522768898E+04  0.00000000000E+00 0. -1.
         25    2    1    2    0    0  0.75446456363E+02  0.14739838225E+02 -0.98110185068E+02  0.17652951785E+03  0.12501052616E+03 0.  0.
          2    1    1    2  501    0  0.36089795819E+02 -0.39807587618E+02 -0.27917129196E+04  0.27922299588E+04  0.00000000000E+00 0. -1.
          1    1    1    2  502    0 -0.11153625218E+03  0.25067749393E+02  0.11915478503E+03  0.16512598344E+03  0.00000000000E+00 0. -1.
         22    1    3    3    0    0  0.40113927852E+02  0.25207451948E+02  0.21019786767E+02  0.51830244810E+02  0.00000000000E+00 0.  1.
         22    1    3    3    0    0  0.35332528511E+02 -0.10467613723E+02 -0.11912997183E+03  0.12469927304E+03  0.00000000000E+00 0.  1.
</event>
<event>
 7    1  0.6386201E-006  0.8289388E+02  0.7818608E-02  0.1477532E+00
          2   -1    0    0  502    0  0.00000000000E+00  0.00000000000E+00  0.20894380779E+04  0.20894380779E+04  0.00000000000E+00 0. -1.
          1   -1    0    0  501    0 -0.00000000000E+00 -0.00000000000E+00 -0.22545787823E+02  0.22545787823E+02  0.00000000000E+00 0. -1.
         25    2    1    2    0    0  0.26123662583E+02 -0.92793621651E+02  0.10571108782E+04  0.10688316810E+04  0.12499860697E+03 0.  0.
          2    1    1    2  501    0 -0.38321890288E+02  0.72262615624E+02  0.84647307544E+02  0.11770989579E+03  0.00000000000E+00 0. -1.
          1    1    1    2  502    0  0.12198227705E+02  0.20531006027E+02  0.92513410438E+03  0.92544228888E+03  0.00000000000E+00 0. -1.
         22    1    3    3    0    0  0.34467420198E+02 -0.22993360499E+02  0.83129519779E+03  0.83232710129E+03  0.00000000000E+00 0.  1.
         22    1    3    3    0    0 -0.83437576147E+01 -0.69800261152E+02  0.22581568036E+03  0.23650457976E+03  0.00000000000E+00 0.  1.
</event>
<event>
 7    1  0.6386201E-006  0.3448948E+03  0.7818608E-02  0.1283097E+00
          2   -1    0    0  502    0  0.00000000000E+00  0.00000000000E+00  0.28379167362E+04  0.28379167362E+04  0.00000000000E+00 0. -1.
          1   -1    0    0  501    0 -0.00000000000E+00 -0.00000000000E+00 -0.98039017422E+03  0.98039017422E+03  0.00000000000E+00 0. -1.
         25    2    1    2    0    0  0.34670583627E+03 -0.11475344680E+02 -0.33640988817E+03  0.49913073305E+03  0.12499302130E+03 0.  0.
          2    1    1    2  501    0 -0.40930820739E+01 -0.27935462094E+02 -0.55147060358E+03  0.55219287390E+03  0.00000000000E+00 0. -1.
          1    1    1    2  502    0 -0.34261275419E+03  0.39410806774E+02  0.27454070537E+04  0.27669833035E+04  0.00000000000E+00 0. -1.
         22    1    3    3    0    0  0.15364295938E+03  0.55293611268E+02 -0.12994770094E+03  0.20868624151E+03  0.00000000000E+00 0.  1.
         22    1    3    3    0    0  0.19306287689E+03 -0.66768955948E+02 -0.20646218723E+03  0.29044449154E+03  0.00000000000E+00 0.  1.
</event>
<event>
 7    1  0.6386201E-006  0.1169710E+03  0.7818608E-02  0.1357458E+00
          2   -1    0    0  502    0  0.00000000000E+00  0.00000000000E+00  0.10181794372E+04  0.10181794372E+04  0.00000000000E+00 0. -1.
          1   -1    0    0  501    0 -0.00000000000E+00 -0.00000000000E+00 -0.15499259491E+04  0.15499259491E+04  0.00000000000E+00 0. -1.
         25    2    1    2    0    0 -0.47457945340E+02 -0.12630580881E+03  0.69447228905E+03  0.71841455462E+03  0.12498919195E+03 0.  0.
          2    1    1    2  501    0  0.72624068246E+02  0.91648587894E+02 -0.15342482243E+04  0.15386979342E+04  0.00000000000E+00 0. -1.
          1    1    1    2  502    0 -0.25166122906E+02  0.34657220919E+02  0.30802942325E+03  0.31099289749E+03  0.00000000000E+00 0. -1.
         22    1    3    3    0    0 -0.85505166140E+02 -0.11589068881E+03  0.56497036728E+03  0.58303799283E+03  0.00000000000E+00 0. -1.
         22    1    3    3    0    0  0.38047220800E+02 -0.10415120004E+02  0.12950192178E+03  0.13537656178E+03  0.00000000000E+00 0. -1.
</event>
<event>
 7    1  0.6386201E-006  0.7650168E+02  0.7818608E-02  0.1406784E+00
          2   -1    0    0  502    0  0.00000000000E+00  0.00000000000E+00  0.11936547809E+04  0.11936547809E+04  0.00000000000E+00 0. -1.
          1   -1    0    0  501    0 -0.00000000000E+00 -0.00000000000E+00 -0.26302378769E+03  0.26302378769E+03  0.00000000000E+00 0. -1.
         25    2    1    2    0    0 -0.86916655682E+02 -0.57947694410E+01  0.32399946047E+03  0.35803416710E+03  0.12499892013E+03 0.  0.
          2    1    1    2  501    0  0.63419364742E+02  0.42815705446E+02 -0.23947470645E+03  0.25140273564E+03  0.00000000000E+00 0. -1.
          1    1    1    2  502    0  0.23497290940E+02 -0.37020936005E+02  0.84610623916E+03  0.84724166584E+03  0.00000000000E+00 0. -1.
         22    1    3    3    0    0 -0.25269583360E+02 -0.11248917213E+02  0.28173963986E+03  0.28309417983E+03  0.00000000000E+00 0.  1.
         22    1    3    3    0    0 -0.61647072322E+02  0.54541477722E+01  0.42259820608E+02  0.74939987268E+02  0.00000000000E+00 0.  1.
</event>
<event>
 7    1  0.6386201E-006  0.1632396E+03  0.7818608E-02  0.1276278E+00
          2   -1    0    0  502    0  0.00000000000E+00  0.00000000000E+00  0.26571858664E+03  0.26571858664E+03  0.00000000000E+00 0. -1.
          1   -1    0    0  501    0 -0.00000000000E+00 -0.00000000000E+00 -0.10337945181E+04  0.10337945181E+04  0.00000000000E+00 0. -1.
         25    2    1    2    0    0  0.21084943018E+03 -0.32492009913E+02 -0.23894058049E+03  0.34385610350E+03  0.12502482152E+03 0.  0.
          2    1    1    2  501    0 -0.14868585713E+03  0.46184677701E+02 -0.72923838743E+03  0.74567361109E+03  0.00000000000E+00 0. -1.
          1    1    1    2  502    0 -0.62163573048E+02 -0.13692667788E+02  0.20010303643E+03  0.20998339019E+03  0.00000000000E+00 0. -1.
         22    1    3    3    0    0  0.11837342654E+03  0.40020038179E+02 -0.89287575886E+02  0.15357780691E+03  0.00000000000E+00 0. -1.
         22    1    3    3    0    0  0.92476003637E+02 -0.72512048092E+02 -0.14965300460E+03  0.19027829659E+03  0.00000000000E+00 0. -1.
</event>
<event>
 7    1  0.6947744E-006  0.6103445E+02  0.7818608E-02  0.1426011E+00
          2   -1    0    0  502    0  0.00000000000E+00  0.00000000000E+00  0.15938349589E+04  0.15938349589E+04  0.00000000000E+00 0. -1.
          1   -1    0    0  501    0 -0.00000000000E+00 -0.00000000000E+00 -0.58162226761E+03  0.58162226761E+03  0.00000000000E+00 0. -1.
         25    2    1    2    0    0  0.20552134124E+02 -0.14414014640E+02 -0.17368089250E+02  0.12867111746E+03  0.12499780762E+03 0.  0.
          2    1    1    2  501    0  0.39805215094E+02  0.25677605990E+02 -0.50688525569E+03  0.50909376056E+03  0.00000000000E+00 0. -1.
          1    1    1    2  502    0 -0.60357349218E+02 -0.11263591350E+02  0.15364660363E+04  0.15376923485E+04  0.00000000000E+00 0. -1.
         22    1    3    3    0    0 -0.50530394170E+01 -0.29302022349E+02  0.48250948884E+02  0.56677118745E+02  0.00000000000E+00 0. -1.
         22    1    3    3    0    0  0.25605173541E+02  0.14888007709E+02 -0.65619038135E+02  0.71993998717E+02  0.00000000000E+00 0. -1.
</event>
<event>
 7    1  0.1100887E-005  0.1050245E+03  0.7818608E-02  0.1276900E+00
          2   -1    0    0  502    0  0.00000000000E+00  0.00000000000E+00  0.14224342708E+04  0.14224342708E+04  0.00000000000E+00 0. -1.
          1   -1    0    0  501    0 -0.00000000000E+00 -0.00000000000E+00 -0.18163497099E+04  0.18163497099E+04  0.00000000000E+00 0. -1.
         25    2    1    2    0    0 -0.37412259515E+02  0.54045556315E+02 -0.46486472794E+03  0.48584472133E+03  0.12500111456E+03 0.  0.
          2    1    1    2  501    0  0.11221297553E+03  0.19676924892E+02 -0.13366154389E+04  0.13414618015E+04  0.00000000000E+00 0. -1.
          1    1    1    2  502    0 -0.74800716015E+02 -0.73722481207E+02  0.14075647278E+04  0.14114774579E+04  0.00000000000E+00 0. -1.
         22    1    3    3    0    0  0.19464926426E+02  0.87323965234E+00 -0.32647148750E+03  0.32705240874E+03  0.00000000000E+00 0.  1.
         22    1    3    3    0    0 -0.56877185941E+02  0.53172316662E+02 -0.13839324044E+03  0.15879231260E+03  0.00000000000E+00 0.  1.
</event>
<event>
 7    1  0.6386201E-006  0.5535176E+02  0.7818608E-02  0.1421931E+00
          2   -1    0    0  502    0  0.00000000000E+00  0.00000000000E+00  0.47105533256E+02  0.47105533256E+02  0.00000000000E+00 0. -1.
          1   -1    0    0  501    0 -0.00000000000E+00 -0.00000000000E+00 -0.10957603270E+04  0.10957603270E+04  0.00000000000E+00 0. -1.
         25    2    1    2    0    0  0.13878472779E+01 -0.57084479745E+02 -0.45340053575E+03  0.47377313720E+03  0.12501350233E+03 0.  0.
          2    1    1    2  501    0 -0.47783081677E+02  0.24911065741E+02 -0.60867876323E+03  0.61105942501E+03  0.00000000000E+00 0. -1.
          1    1    1    2  502    0  0.46395234400E+02  0.32173414004E+02  0.13424505217E+02  0.58033298063E+02  0.00000000000E+00 0. -1.
         22    1    3    3    0    0 -0.61313837295E+02 -0.34726334696E+02 -0.21497794589E+03  0.22623178862E+03  0.00000000000E+00 0.  1.
         22    1    3    3    0    0  0.62701684573E+02 -0.22358145049E+02 -0.23842258986E+03  0.24754134858E+03  0.00000000000E+00 0.  1.
</event>
<event>
 7    1  0.6386201E-006  0.1442080E+03  0.7818608E-02  0.1290822E+00
          2   -1    0    0  502    0  0.00000000000E+00  0.00000000000E+00  0.22944792541E+04  0.22944792541E+04  0.00000000000E+00 0. -1.
          1   -1    0    0  501    0 -0.00000000000E+00 -0.00000000000E+00 -0.58708458289E+03  0.58708458289E+03  0.00000000000E+00 0. -1.
         25    2    1    2    0    0  0.20966099053E+02  0.11369210216E+03  0.85238231763E+02  0.19040984039E+03  0.12499951905E+03 0.  0.
          2    1    1    2  501    0 -0.83316378632E+02 -0.12111716923E+03 -0.52392283348E+03  0.54415634065E+03  0.00000000000E+00 0. -1.
          1    1    1    2  502    0  0.62350279579E+02  0.74250670713E+01  0.21460792729E+04  0.21469976559E+04  0.00000000000E+00 0. -1.
         22    1    3    3    0    0  0.53061749088E+02  0.11782032502E+03  0.40934327589E+02  0.13554629238E+03  0.00000000000E+00 0. -1.
         22    1    3    3    0    0 -0.32095650036E+02 -0.41282228582E+01  0.44303904174E+02  0.54863548010E+02  0.00000000000E+00 0. -1.
</event>
<event>
 7    1  0.6386201E-006  0.9914647E+02  0.7818608E-02  0.1286345E+00
          2   -1    0    0  502    0  0.00000000000E+00  0.00000000000E+00  0.19591165344E+03  0.19591165344E+03  0.00000000000E+00 0. -1.
          1   -1    0    0  501    0 -0.00000000000E+00 -0.00000000000E+00 -0.14715987241E+04  0.14715987241E+04  0.00000000000E+00 0. -1.
         25    2    1    2    0    0  0.68785483516E+01 -0.90704251314E+01 -0.10861985729E+03  0.16598381168E+03  0.12499106089E+03 0.  0.
          2    1    1    2  501    0 -0.94176766529E+02 -0.37930048189E+02 -0.13174747274E+04  0.13213809478E+04  0.00000000000E+00 0. -1.
          1    1    1    2  502    0  0.87298218178E+02  0.47000473321E+02  0.15040751409E+03  0.18014561800E+03  0.00000000000E+00 0. -1.
         22    1    3    3    0    0  0.30941035012E+02 -0.23992956469E+01  0.18703985826E+02  0.36234560202E+02  0.00000000000E+00 0.  1.
         22    1    3    3    0    0 -0.24062486661E+02 -0.66711294845E+01 -0.12732384312E+03  0.12974925148E+03  0.00000000000E+00 0.  1.
</event>
<event>
 7    1  0.6386201E-006  0.4986151E+02  0.7818608E-02  0.1457203E+00
          2   -1    0    0  502    0  0.00000000000E+00  0.00000000000E+00  0.79122483410E+03  0.79122483410E+03  0.00000000000E+00 0. -1.
          1   -1    0    0  501    0 -0.00000000000E+00 -0.00000000000E+00 -0.50382472454E+02  0.50382472454E+02  0.00000000000E+00 0. -1.
         25    2    1    2    0    0  0.56355280784E+02 -0.60356304214E+02  0.16248556331E+03  0.22101071306E+03  0.12500150348E+03 0.  0.
          2    1    1    2  501    0 -0.44108362226E+02  0.12880233677E+02  0.62278764012E+01  0.46370620896E+02  0.00000000000E+00 0. -1.
          1    1    1    2  502    0 -0.12246918558E+02  0.47476070537E+02  0.57212892194E+03  0.57422597260E+03  0.00000000000E+00 0. -1.
         22    1    3    3    0    0 -0.16813495745E+02 -0.68029716438E+02  0.48055245077E+02  0.84970833450E+02  0.00000000000E+00 0. -1.
         22    1    3    3    0    0  0.73168776529E+02  0.76734122237E+01  0.11443031823E+03  0.13603987961E+03  0.00000000000E+00 0. -1.
</event>
<event>
 7    1  0.6386201E-006  0.3073211E+03  0.7818608E-02  0.1200547E+00
          2   -1    0    0  502    0  0.00000000000E+00  0.00000000000E+00  0.56574879861E+03  0.56574879861E+03  0.00000000000E+00 0. -1.
          1   -1    0    0  501    0 -0.00000000000E+00 -0.00000000000E+00 -0.15296550011E+04  0.15296550011E+04  0.00000000000E+00 0. -1.
         25    2    1    2    0    0  0.40042796747E+02 -0.24821454385E+03 -0.39547465475E+01  0.28080843430E+03  0.12499540552E+03 0.  0.
          2    1    1    2  501    0 -0.89993591225E+02  0.30166040647E+03 -0.13661051143E+04  0.14019062132E+04  0.00000000000E+00 0. -1.
          1    1    1    2  502    0  0.49950794479E+02 -0.53445862626E+02  0.40615365839E+03  0.41268915218E+03  0.00000000000E+00 0. -1.
         22    1    3    3    0    0  0.65883874655E+02 -0.54937212703E+02 -0.13123307509E+01  0.85793382561E+02  0.00000000000E+00 0. -1.
         22    1    3    3    0    0 -0.25841077909E+02 -0.19327733115E+03 -0.26424157965E+01  0.19501505174E+03  0.00000000000E+00 0. -1.
</event>
<event>
 7    1  0.6386201E-006  0.6372504E+02  0.7818608E-02  0.1422922E+00
          2   -1    0    0  502    0  0.00000000000E+00  0.00000000000E+00  0.13923500099E+04  0.13923500099E+04  0.00000000000E+00 0. -1.
          1   -1    0    0  501    0 -0.00000000000E+00 -0.00000000000E+00 -0.63128433756E+03  0.63128433756E+03  0.00000000000E+00 0. -1.
         25    2    1    2    0    0  0.64881946139E+02  0.61538177260E+02  0.32407527520E+02  0.15707090811E+03  0.12499763254E+03 0.  0.
          2    1    1    2  501    0 -0.46446750219E+02 -0.72302104208E+00 -0.56722458860E+03  0.56912349915E+03  0.00000000000E+00 0. -1.
          1    1    1    2  502    0 -0.18435195920E+02 -0.60815156218E+02  0.12958827334E+04  0.12974399402E+04  0.00000000000E+00 0. -1.
         22    1    3    3    0    0  0.82077588196E+02  0.65837175951E+02 -0.15161600344E+02  0.10630681232E+03  0.00000000000E+00 0. -1.
         22    1    3    3    0    0 -0.17195642057E+02 -0.42989986911E+01  0.47569127864E+02  0.50764095789E+02  0.00000000000E+00 0. -1.
</event>
<event>
 7    1  0.6386201E-006  0.1293744E+03  0.7818608E-02  0.1268555E+00
          2   -1    0    0  502    0  0.00000000000E+00  0.00000000000E+00  0.97438591084E+03  0.97438591084E+03  0.00000000000E+00 0. -1.
          1   -1    0    0  501    0 -0.00000000000E+00 -0.00000000000E+00 -0.32300874331E+03  0.32300874331E+03  0.00000000000E+00 0. -1.
         25    2    1    2    0    0  0.16573681067E+03 -0.72771966369E+02 -0.73523295262E+02  0.23193761134E+03  0.12499972443E+03 0.  0.
          2    1    1    2  501    0 -0.37504783427E+02  0.77966915772E+02 -0.15432057520E+03  0.17691887595E+03  0.00000000000E+00 0. -1.
          1    1    1    2  502    0 -0.12823202724E+03 -0.51949494029E+01  0.87922103800E+03  0.88853816687E+03  0.00000000000E+00 0. -1.
         22    1    3    3    0    0  0.58053456675E+02  0.29662143561E+02  0.20094501902E+01  0.65223343081E+02  0.00000000000E+00 0.  1.
         22    1    3    3    0    0  0.10768335399E+03 -0.10243410993E+03 -0.75532745452E+02  0.16671426825E+03  0.00000000000E+00 0.  1.
</event>
<event>
 7    1  0.6386201E-006  0.5557293E+02  0.7818608E-02  0.1477612E+00
          2   -1    0    0  502    0  0.00000000000E+00  0.00000000000E+00  0.40561493548E+03  0.40561493548E+03  0.00000000000E+00 0. -1.
          1   -1    0    0  501    0 -0.00000000000E+00 -0.00000000000E+00 -0.24641415625E+03  0.24641415625E+03  0.00000000000E+00 0. -1.
         25    2    1    2    0    0 -0.62513269723E+01  0.23873993130E+02  0.10228356129E+03  0.16338778847E+03  0.12499838348E+03 0.  0.
          2    1    1    2  501    0  0.64496741612E+01  0.35012763093E+02 -0.21117647849E+03  0.21415647770E+03  0.00000000000E+00 0. -1.
          1    1    1    2  502    0 -0.19834718885E+00 -0.58886756223E+02  0.26809369642E+03  0.27448482556E+03  0.00000000000E+00 0. -1.
         22    1    3    3    0    0 -0.61126237660E+02 -0.10613999187E+02  0.42400122770E+02  0.75145487690E+02  0.00000000000E+00 0.  1.
         22    1    3    3    0    0  0.54874910688E+02  0.34487992317E+02  0.59883438522E+02  0.88242300776E+02  0.00000000000E+00 0.  1.
</event>
<event>
 7    1  0.6386201E-006  0.6360514E+02  0.7818608E-02  0.1535682E+00
          2   -1    0    0  502    0  0.00000000000E+00  0.00000000000E+00  0.87305709164E+02  0.87305709164E+02  0.00000000000E+00 0. -1.
          1   -1    0    0  501    0 -0.00000000000E+00 -0.00000000000E+00 -0.23619344405E+04  0.23619344405E+04  0.00000000000E+00 0. -1.
         25    2    1    2    0    0  0.15966142079E+02  0.70644402919E+02 -0.90632826502E+03  0.91776961822E+03  0.12499839523E+03 0.  0.
          2    1    1    2  501    0 -0.30084888868E+02 -0.55174663181E+02 -0.14478484066E+04  0.14492116313E+04  0.00000000000E+00 0. -1.
          1    1    1    2  502    0  0.14118746789E+02 -0.15469739738E+02  0.79547940218E+02  0.82258900135E+02  0.00000000000E+00 0. -1.
         22    1    3    3    0    0  0.31896069794E+02  0.27581864046E+02 -0.80959790500E+03  0.81069531038E+03  0.00000000000E+00 0. -1.
         22    1    3    3    0    0 -0.15929927716E+02  0.43062538873E+02 -0.96730360014E+02  0.10707430784E+03  0.00000000000E+00 0. -1.
</event>
<event>
 7    1  0.6386201E-006  0.7298023E+02  0.7818608E-02  0.1361988E+00
          2   -1    0    0  502    0  0.00000000000E+00  0.00000000000E+00  0.44637882128E+03  0.44637882128E+03  0.00000000000E+00 0. -1.
          1   -1    0    0  501    0 -0.00000000000E+00 -0.00000000000E+00 -0.10509856017E+03  0.10509856017E+03  0.00000000000E+00 0. -1.
         25    2    1    2    0    0 -0.53154132995E+02  0.38483594739E+02  0.28360905751E+02  0.14399051656E+03  0.12499031549E+03 0.  0.
          2    1    1    2  501    0 -0.92839085900E+01 -0.76267258077E+02 -0.90395085776E+01  0.77360185681E+02  0.00000000000E+00 0. -1.
          1    1    1    2  502    0  0.62438041585E+02  0.37783663338E+02  0.32195886394E+03  0.33012667920E+03  0.00000000000E+00 0. -1.
         22    1    3    3    0    0  0.30470214504E+02 -0.22215065190E+02  0.10328552570E+02  0.39097597004E+02  0.00000000000E+00 0.  1.
         22    1    3    3    0    0 -0.83624347499E+02  0.60698659929E+02  0.18032353181E+02  0.10489291956E+03  0.00000000000E+00 0.  1.
</event>
<event>
 7    1  0.6386201E-006  0.5901778E+02  0.7818608E-02  0.1510380E+00
          2   -1    0    0  502    0  0.00000000000E+00  0.00000000000E+00  0.93540139861E+03  0.93540139861E+03  0.00000000000E+00 0. -1.
          1   -1    0    0  501    0 -0.00000000000E+00 -0.00000000000E+00 -0.62746979720E+02  0.62746979720E+02  0.00000000000E+00 0. -1.
         25    2    1    2    0    0 -0.74540069878E+01 -0.42091522306E+02  0.18525916499E+03  0.22753866945E+03  0.12500251763E+03 0.  0.
          2    1    1    2  501    0  0.20976718831E+02 -0.16542151398E+02 -0.35937117991E+02  0.44778811454E+02  0.00000000000E+00 0. -1.
          1    1    1    2  502    0 -0.13522711843E+02  0.58633673703E+02  0.72333237189E+03  0.72583089742E+03  0.00000000000E+00 0. -1.
         22    1    3    3    0    0 -0.31029394939E+02  0.10982466904E+02  0.16145311267E+03  0.16477422590E+03  0.00000000000E+00 0. -1.
         22    1    3    3    0    0  0.23575387951E+02 -0.53073989210E+02  0.23806052319E+02  0.62764443555E+02  0.00000000000E+00 0. -1.
</event>
<event>
 7    1  0.6386201E-006  0.1137894E+03  0.7818608E-02  0.1367618E+00
          2   -1    0    0  502    0  0.00000000000E+00  0.00000000000E+00  0.16255340139E+04  0.16255340139E+04  0.00000000000E+00 0. -1.
          1   -1    0    0  501    0 -0.00000000000E+00 -0.00000000000E+00 -0.51447053739E+03  0.51447053739E+03  0.00000000000E+00 0. -1.
         25    2    1    2    0    0 -0.57783815044E+02 -0.84143694064E+02 -0.67304884770E+02  0.17485288972E+03  0.12499781997E+03 0.  0.
          2    1    1    2  501    0 -0.35780822829E+02  0.18840787756E+02 -0.39027483739E+03  0.39236423291E+03  0.00000000000E+00 0. -1.
          1    1    1    2  502    0  0.93564637873E+02  0.65302906308E+02  0.15686431987E+04  0.15727874287E+04  0.00000000000E+00 0. -1.
         22    1    3    3    0    0 -0.14400928168E+02  0.27082400810E+02  0.10419376573E+02  0.32394545434E+02  0.00000000000E+00 0.  1.
         22    1    3    3    0    0 -0.43382886876E+02 -0.11122609487E+03 -0.77724261343E+02  0.14245834428E+03  0.00000000000E+00 0.  1.
</event>
<event>
 7    1  0.6386201E-006  0.6332299E+02  0.7818608E-02  0.1385395E+00
          2   -1    0    0  502    0  0.00000000000E+00  0.00000000000E+00  0.28112977512E+03  0.28112977512E+03  0.00000000000E+00 0. -1.
          1   -1    0    0  501    0 -0.00000000000E+00 -0.00000000000E+00 -0.27277769325E+03  0.27277769325E+03  0.00000000000E+00 0. -1.
         25    2    1    2    0    0  0.50967906256E+01 -0.31949624100E+02 -0.11631485469E+03  0.17377767636E+03  0.12499111818E+03 0.  0.
          2    1    1    2  501    0  0.58972888674E+02  0.21621056150E+02 -0.11543211357E+03  0.13141478041E+03  0.00000000000E+00 0. -1.
          1    1    1    2  502    0 -0.64069679300E+02  0.10328567950E+02  0.24009905013E+03  0.24871501160E+03  0.00000000000E+00 0. -1.
         22    1    3    3    0    0  0.18970757639E+02 -0.15308376635E+02  0.22565162620E+02  0.33217805537E+02  0.00000000000E+00 0.  1.
         22    1    3    3    0    0 -0.13873967013E+02 -0.16641247465E+02 -0.13888001731E+03  0.14055987083E+03  0.00000000000E+00 0.  1.
</event>
<event>
 7    1  0.6386201E-006  0.1862282E+03  0.7818608E-02  0.1277969E+00
          2   -1    0    0  502    0  0.00000000000E+00  0.00000000000E+00  0.21138294304E+04  0.21138294304E+04  0.00000000000E+00 0. -1.
          1   -1    0    0  501    0 -0.00000000000E+00 -0.00000000000E+00 -0.10253265848E+04  0.10253265848E+04  0.00000000000E+00 0. -1.
         25    2    1    2    0    0  0.99505979515E+02 -0.12782622438E+03 -0.14289123295E+03  0.24956219665E+03  0.12498960734E+03 0.  0.
          2    1    1    2  501    0 -0.75088196209E+02  0.17699893196E+03 -0.81758053841E+03  0.83988379905E+03  0.00000000000E+00 0. -1.
          1    1    1    2  502    0 -0.24417783306E+02 -0.49172707585E+02  0.20489746170E+04  0.20497100196E+04  0.00000000000E+00 0. -1.
         22    1    3    3    0    0  0.29200725861E+02 -0.71796481328E+02  0.37041781565E+01  0.77595992536E+02  0.00000000000E+00 0.  1.
         22    1    3    3    0    0  0.70305253654E+02 -0.56029743050E+02 -0.14659541111E+03  0.17196620411E+03  0.00000000000E+00 0.  1.
</event>
<event>
 7    1  0.6386201E-006  0.4078425E+02  0.7818608E-02  0.1514911E+00
          2   -1    0    0  502    0  0.00000000000E+00  0.00000000000E+00  0.12593659593E+04  0.12593659593E+04  0.00000000000E+00 0. -1.
          1   -1    0    0  501    0 -0.00000000000E+00 -0.00000000000E+00 -0.19288939404E+03  0.19288939404E+03  0.00000000000E+00 0. -1.
         25    2    1    2    0    0  0.69199623614E+02  0.10329328146E+02 -0.16336424125E+02  0.14417704204E+03  0.12499943108E+03 0.  0.
          2    1    1    2  501    0 -0.35406990487E+02  0.12330951391E+02 -0.10915579708E+03  0.11541531690E+03  0.00000000000E+00 0. -1.
          1    1    1    2  502    0 -0.33792633128E+02 -0.22660279536E+02  0.11919687865E+04  0.11926629944E+04  0.00000000000E+00 0. -1.
         22    1    3    3    0    0  0.61524501709E+02 -0.13433965163E+02 -0.64362921762E+02  0.90046218290E+02  0.00000000000E+00 0. -1.
         22    1    3    3    0    0  0.76751219053E+01  0.23763293309E+02  0.48026497637E+02  0.54130823755E+02  0.00000000000E+00 0. -1.
</event>
<event>
 7    1  0.6386201E-006  0.7153031E+02  0.7818608E-02  0.1362537E+00
          2   -1    0    0  502    0  0.00000000000E+00  0.00000000000E+00  0.19057100865E+04  0.19057100865E+04  0.00000000000E+00 0. -1.
          1   -1    0    0  501    0 -0.00000000000E+00 -0.00000000000E+00 -0.24356530185E+02  0.24356530185E+02  0.00000000000E+00 0. -1.
         25    2    1    2    0    0 -0.22124513073E+02 -0.39095881747E+02  0.38510921103E+03  0.40737779019E+03  0.12501830854E+03 0.  0.
          2    1    1    2  501    0 -0.42576248738E+02  0.69598291228E+02  0.12310211732E+03  0.14768476694E+03  0.00000000000E+00 0. -1.
          1    1    1    2  502    0  0.64700761811E+02 -0.30502409480E+02  0.13731422280E+04  0.13750040596E+04  0.00000000000E+00 0. -1.
         22    1    3    3    0    0 -0.44019807105E+02 -0.77127654460E+02  0.26683212463E+03  0.28122197858E+03  0.00000000000E+00 0. -1.
         22    1    3    3    0    0  0.21895294032E+02  0.38031772713E+02  0.11827708639E+03  0.12615581161E+03  0.00000000000E+00 0. -1.
</event>
<event>
 7    1  0.6386201E-006  0.1178648E+03  0.7818608E-02  0.1338873E+00
          2   -1    0    0  502    0  0.00000000000E+00  0.00000000000E+00  0.11571229475E+04  0.11571229475E+04  0.00000000000E+00 0. -1.
          1   -1    0    0  501    0 -0.00000000000E+00 -0.00000000000E+00 -0.30585852517E+03  0.30585852517E+03  0.00000000000E+00 0. -1.
         25    2    1    2    0    0 -0.13668455892E+03  0.49112393445E+02 -0.22858862899E+02  0.19297792425E+03  0.12499302300E+03 0.  0.
          2    1    1    2  501    0  0.44212703471E+02  0.22986766573E+02 -0.19153625156E+03  0.19791232970E+03  0.00000000000E+00 0. -1.
          1    1    1    2  502    0  0.92471855447E+02 -0.72099160018E+02  0.10656595368E+04  0.10720912188E+04  0.00000000000E+00 0. -1.
         22    1    3    3    0    0 -0.34692190874E+02  0.11381227901E+02  0.50122531680E+02  0.62010875160E+02  0.00000000000E+00 0.  1.
         22    1    3    3    0    0 -0.10199236804E+03  0.37731165544E+02 -0.72981394578E+02  0.13096704909E+03  0.00000000000E+00 0.  1.
</event>
<event>
 7    1  0.6386201E-006  0.3608731E+02  0.7818608E-02  0.1562593E+00
          2   -1    0    0  502    0  0.00000000000E+00  0.00000000000E+00  0.16218742564E+03  0.16218742564E+03  0.00000000000E+00 0. -1.
          1   -1    0    0  501    0 -0.00000000000E+00 -0.00000000000E+00 -0.47890553908E+03  0.47890553908E+03  0.00000000000E+00 0. -1.
         25    2    1    2    0    0  0.63973338382E+01 -0.20659899357E+02  0.85306865082E+02  0.15287104482E+03  0.12499815115E+03 0.  0.
          2    1    1    2  501    0  0.29975567702E+02  0.20093769733E+02 -0.43656795831E+03  0.43805693290E+03  0.00000000000E+00 0. -1.
          1    1    1    2  502    0 -0.36372901540E+02  0.56612962403E+00  0.34542979788E+02  0.50164987011E+02  0.00000000000E+00 0. -1.
         22    1    3    3    0    0 -0.11900289749E+02  0.35488174110E+02 -0.11775019046E+02  0.39238736872E+02  0.00000000000E+00 0.  1.
         22    1    3    3    0    0  0.18297623587E+02 -0.56148073467E+02  0.97081884127E+02  0.11363230794E+03  0.00000000000E+00 0.  1.
</event>
<event>
 7    1  0.6386201E-006  0.7148557E+02  0.7818608E-02  0.1389987E+00
          2   -1    0    0  502    0  0.00000000000E+00  0.00000000000E+00  0.20544195640E+04  0.20544195640E+04  0.00000000000E+00 0. -1.
          1   -1    0    0  501    0 -0.00000000000E+00 -0.00000000000E+00 -0.66678347161E+03  0.66678347161E+03  0.00000000000E+00 0. -1.
         25    2    1    2    0    0  0.44637426439E+02 -0.12590986971E+02  0.35601744976E+03  0.38016363098E+03  0.12499971595E+03 0.  0.
          2    1    1    2  501    0 -0.60386986843E+02 -0.38660728025E+02 -0.65231924015E+03  0.65624814754E+03  0.00000000000E+00 0. -1.
          1    1    1    2  502    0  0.15749560404E+02  0.51251714997E+02  0.16839378827E+04  0.16847912571E+04  0.00000000000E+00 0. -1.
         22    1    3    3    0    0 -0.15103583633E+02  0.45549551736E+02  0.10004610034E+03  0.11095991211E+03  0.00000000000E+00 0. -1.
         22    1    3    3    0    0  0.59741010072E+02 -0.58140538707E+02  0.25597134943E+03  0.26920371887E+03  0.00000000000E+00 0. -1.
</event>
<event>
 7    1  0.6386201E-006  0.1053086E+03  0.7818608E-02  0.1411170E+00
          2   -1    0    0  502    0  0.00000000000E+00  0.00000000000E+00  0.25201737906E+03  0.25201737906E+03  0.00000000000E+00 0. -1.
          1   -1    0    0  501    0 -0.00000000000E+00 -0.00000000000E+00 -0.65959348267E+03  0.65959348267E+03  0.00000000000E+00 0. -1.
         25    2    1    2    0    0 -0.49352832268E+01 -0.84461967698E+02  0.33557801309E+02  0.15462335483E+03  0.12499629924E+03 0.  0.
          2    1    1    2  501    0 -0.16809125961E+02 -0.25785161012E+02 -0.57861064848E+03  0.57942877369E+03  0.00000000000E+00 0. -1.
          1    1    1    2  502    0  0.21744409188E+02  0.11024712871E+03  0.13747674356E+03  0.17755873321E+03  0.00000000000E+00 0. -1.
         22    1    3    3    0    0  0.79946660666E+01  0.24649919456E+02 -0.19670376563E+02  0.32533935035E+02  0.00000000000E+00 0. -1.
         22    1    3    3    0    0 -0.12929949293E+02 -0.10911188715E+03  0.53228177872E+02  0.12208941980E+03  0.00000000000E+00 0. -1.
</event>
<event>
 7    1  0.6386201E-006  0.2069988E+03  0.7818608E-02  0.1335002E+00
          2   -1    0    0  502    0  0.00000000000E+00  0.00000000000E+00  0.44205219268E+03  0.44205219268E+03  0.00000000000E+00 0. -1.
          1   -1    0    0  501    0 -0.00000000000E+00 -0.00000000000E+00 -0.22786312569E+04  0.22786312569E+04  0.00000000000E+00 0. -1.
         25    2    1    2    0    0 -0.20099648763E+03 -0.99253222452E+02 -0.11975598279E+04  0.12247548907E+04  0.12499684279E+03 0.  0.
          2    1    1    2  501    0  0.17240692173E+03  0.92632692125E+02 -0.10579853936E+04  0.10759358974E+04  0.00000000000E+00 0. -1.
          1    1    1    2  502    0  0.28589565901E+02  0.66205303271E+01  0.41896615729E+03  0.41999266143E+03  0.00000000000E+00 0. -1.
         22    1    3    3    0    0 -0.91165722438E+02 -0.11266133548E+03 -0.62258633323E+03  0.63923196711E+03  0.00000000000E+00 0. -1.
         22    1    3    3    0    0 -0.10983076519E+03  0.13408113030E+02 -0.57497349466E+03  0.58552292358E+03  0.00000000000E+00 0. -1.
</event>
<event>
 7    1  0.6386201E-006  0.4797407E+02  0.7818608E-02  0.1484912E+00
          2   -1    0    0  502    0  0.00000000000E+00  0.00000000000E+00  0.19544004022E+04  0.19544004022E+04  0.00000000000E+00 0. -1.
          1   -1    0    0  501    0 -0.00000000000E+00 -0.00000000000E+00 -0.68850587015E+03  0.68850587015E+03  0.00000000000E+00 0. -1.
         25    2    1    2    0    0  0.15624335996E+02 -0.71448539933E+02  0.22900375835E+03  0.27095731407E+03  0.12500452382E+03 0.  0.
          2    1    1    2  501    0 -0.31855895407E+02  0.35797873916E+02 -0.66644362692E+03  0.66816419667E+03  0.00000000000E+00 0. -1.
          1    1    1    2  502    0  0.16231559411E+02  0.35650666017E+02  0.17033344006E+04  0.17037847616E+04  0.00000000000E+00 0. -1.
         22    1    3    3    0    0  0.69456472187E+02 -0.50603672423E+02  0.11980098020E+03  0.14743543688E+03  0.00000000000E+00 0.  1.
         22    1    3    3    0    0 -0.53832136191E+02 -0.20844867510E+02  0.10920277815E+03  0.12352187719E+03  0.00000000000E+00 0.  1.
</event>
<event>
 7    1  0.6386201E-006  0.4306204E+02  0.7818608E-02  0.1492804E+00
          2   -1    0    0  502    0  0.00000000000E+00  0.00000000000E+00  0.16352932822E+03  0.16352932822E+03  0.00000000000E+00 0. -1.
          1   -1    0    0  501    0 -0.00000000000E+00 -0.00000000000E+00 -0.25571452333E+04  0.25571452333E+04  0.00000000000E+00 0. -1.
         25    2    1    2    0    0  0.56391258487E+02 -0.21665941909E+02 -0.16725293665E+04  0.16782807709E+04  0.12498990716E+03 0.  0.
          2    1    1    2  501    0 -0.37604959421E+02 -0.17080090615E+02 -0.87836079746E+03  0.87933131013E+03  0.00000000000E+00 0. -1.
          1    1    1    2  502    0 -0.18786299066E+02  0.38746032524E+02  0.15727425886E+03  0.16306248057E+03  0.00000000000E+00 0. -1.
         22    1    3    3    0    0  0.29311191252E+02 -0.31604510679E+02 -0.15946227929E+04  0.15952052666E+04  0.00000000000E+00 0.  1.
         22    1    3    3    0    0  0.27080067235E+02  0.99385687699E+01 -0.77906573608E+02  0.83075504223E+02  0.00000000000E+00 0.  1.
</event>
<event>
 7    1  0.6386201E-006  0.6647913E+02  0.7818608E-02  0.1375751E+00
          2   -1    0    0  502    0  0.00000000000E+00  0.00000000000E+00  0.12735365004E+04  0.12735365004E+04  0.00000000000E+00 0. -1.
          1   -1    0    0  501    0 -0.00000000000E+00 -0.00000000000E+00 -0.23108664276E+03  0.23108664276E+03  0.00000000000E+00 0. -1.
         25    2    1    2    0    0  0.17684577492E+02 -0.31191819307E+02  0.12290727933E+03  0.17893293268E+03  0.12500048485E+03 0.  0.
          2    1    1    2  501    0 -0.64446793195E+02 -0.16312136775E+02 -0.19661197375E+03  0.20754696620E+03  0.00000000000E+00 0. -1.
          1    1    1    2  502    0  0.46762215703E+02  0.47503956082E+02  0.11161545521E+04  0.11181432443E+04  0.00000000000E+00 0. -1.
         22    1    3    3    0    0  0.64258995629E+02 -0.41237211294E+02  0.48097389171E+02  0.90239043432E+02  0.00000000000E+00 0.  1.
         22    1    3    3    0    0 -0.46574418137E+02  0.10045391988E+02  0.74809890155E+02  0.88693889248E+02  0.00000000000E+00 0.  1.
</event>
<event>
 7    1  0.6386201E-006  0.5141337E+02  0.7818608E-02  0.1443425E+00
          2   -1    0    0  502    0  0.00000000000E+00  0.00000000000E+00  0.53039912752E+03  0.53039912752E+03  0.00000000000E+00 0. -1.
          1   -1    0    0  501    0 -0.00000000000E+00 -0.00000000000E+00 -0.38591481013E+03  0.38591481013E+03  0.00000000000E+00 0. -1.
         25    2    1    2    0    0 -0.54119245415E+02  0.32285141155E+02  0.26924770209E+03  0.30346536709E+03  0.12500272349E+03 0.  0.
          2    1    1    2  501    0  0.83997855425E+01 -0.50790361221E+02 -0.36448647239E+03  0.36810406918E+03  0.00000000000E+00 0. -1.
          1    1    1    2  502    0  0.45719459873E+02  0.18505220066E+02  0.23972308769E+03  0.24474450138E+03  0.00000000000E+00 0. -1.
         22    1    3    3    0    0  0.30489547109E+02  0.19618451258E+02  0.23385204401E+02  0.43143526717E+02  0.00000000000E+00 0.  1.
         22    1    3    3    0    0 -0.84608792524E+02  0.12666689897E+02  0.24586249769E+03  0.26032184038E+03  0.00000000000E+00 0.  1.
</event>
<event>
 7    1  0.6386201E-006  0.1542508E+03  0.7818608E-02  0.1291350E+00
          2   -1    0    0  502    0  0.00000000000E+00  0.00000000000E+00  0.44835679785E+04  0.44835679785E+04  0.00000000000E+00 0. -1.
          1   -1    0    0  501    0 -0.00000000000E+00 -0.00000000000E+00 -0.27659387842E+02  0.27659387842E+02  0.00000000000E+00 0. -1.
         25    2    1    2    0    0 -0.68927253249E+02  0.80186066198E+02  0.69511781321E+03  0.71413895346E+03  0.12499959663E+03 0.  0.
          2    1    1    2  501    0 -0.45963930143E+02  0.36048467939E+02  0.35794474379E+02  0.68508534585E+02  0.00000000000E+00 0. -1.
          1    1    1    2  502    0  0.11489118339E+03 -0.11623453414E+03  0.37249963031E+04  0.37285798783E+04  0.00000000000E+00 0. -1.
         22    1    3    3    0    0 -0.37553140325E+02  0.10698678626E+03  0.38693392099E+03  0.40320499748E+03  0.00000000000E+00 0. -1.
         22    1    3    3    0    0 -0.31374112924E+02 -0.26800720058E+02  0.30818389222E+03  0.31093395598E+03  0.00000000000E+00 0. -1.
</event>
<event>
 7    1  0.6386201E-006  0.1004302E+03  0.7818608E-02  0.1295781E+00
          2   -1    0    0  502    0  0.00000000000E+00  0.00000000000E+00  0.30426658435E+03  0.30426658435E+03  0.00000000000E+00 0. -1.
          1   -1    0    0  501    0 -0.00000000000E+00 -0.00000000000E+00 -0.20560547206E+04  0.20560547206E+04  0.00000000000E+00 0. -1.
         25    2    1    2    0    0 -0.86309657058E+01 -0.50597560570E+02 -0.19387866313E+03  0.23631835558E+03  0.12499128954E+03 0.  0.
          2    1    1    2  501    0 -0.73869931445E+02  0.75199508327E+02 -0.18328603059E+04  0.18358890582E+04  0.00000000000E+00 0. -1.
          1    1    1    2  502    0  0.82500897151E+02 -0.24601947756E+02  0.27495083279E+03  0.28811389122E+03  0.00000000000E+00 0. -1.
         22    1    3    3    0    0  0.74209634089E+01 -0.37354683915E+02 -0.20781323085E+03  0.21127418684E+03  0.00000000000E+00 0. -1.
         22    1    3    3    0    0 -0.16051929115E+02 -0.13242876656E+02  0.13934567719E+02  0.25044168741E+02  0.00000000000E+00 0. -1.
</event>
<event>
 7    1  0.6386201E-006  0.6629995E+02  0.7818608E-02  0.1463795E+00
          2   -1    0    0  502    0  0.00000000000E+00  0.00000000000E+00  0.74898433832E+02  0.74898433832E+02  0.00000000000E+00 0. -1.
          1   -1    0    0  501    0 -0.00000000000E+00 -0.00000000000E+00 -0.23672859916E+03  0.23672859916E+03  0.00000000000E+00 0. -1.
         25    2    1    2    0    0 -0.91406009771E+01  0.42996394877E+02 -0.12532690864E+03  0.18238372901E+03  0.12499900008E+03 0.  0.
          2    1    1    2  501    0 -0.95984519068E+01  0.31513645651E+02  0.15561616170E+02  0.36433556498E+02  0.00000000000E+00 0. -1.
          1    1    1    2  502    0  0.18739052884E+02 -0.74510040528E+02 -0.52064872860E+02  0.92809747486E+02  0.00000000000E+00 0. -1.
         22    1    3    3    0    0 -0.40993629063E+02 -0.30481624798E+02 -0.61677583536E+02  0.80085775172E+02  0.00000000000E+00 0.  1.
         22    1    3    3    0    0  0.31853028086E+02  0.73478019674E+02 -0.63649325107E+02  0.10229795384E+03  0.00000000000E+00 0.  1.
</event>
<event>
 7    1  0.6386201E-006  0.5439786E+02  0.7818608E-02  0.1455518E+00
          2   -1    0    0  502    0  0.00000000000E+00  0.00000000000E+00  0.43192794159E+03  0.43192794159E+03  0.00000000000E+00 0. -1.
          1   -1    0    0  501    0 -0.00000000000E+00 -0.00000000000E+00 -0.64688962503E+03  0.64688962503E+03  0.00000000000E+00 0. -1.
         25    2    1    2    0    0  0.11381741675E+02  0.23795354638E+02  0.12927610259E+03  0.18175125160E+03  0.12500177523E+03 0.  0.
          2    1    1    2  501    0  0.42617997121E+02 -0.13736466828E+01 -0.61681573937E+03  0.61828782692E+03  0.00000000000E+00 0. -1.
          1    1    1    2  502    0 -0.53999738796E+02 -0.22421707956E+02  0.27257795334E+03  0.27877848810E+03  0.00000000000E+00 0. -1.
         22    1    3    3    0    0  0.23163591515E+02 -0.12495889516E+02  0.13973173847E+03  0.14218881096E+03  0.00000000000E+00 0. -1.
         22    1    3    3    0    0 -0.11781849840E+02  0.36291244154E+02 -0.10455635877E+02  0.39562440641E+02  0.00000000000E+00 0. -1.
</event>
<event>
 7    1  0.6386201E-006  0.3956972E+02  0.7818608E-02  0.1619201E+00
          2   -1    0    0  502    0  0.00000000000E+00  0.00000000000E+00  0.13754894574E+04  0.13754894574E+04  0.00000000000E+00 0. -1.
          1   -1    0    0  501    0 -0.00000000000E+00 -0.00000000000E+00 -0.11556874697E+03  0.11556874697E+03  0.00000000000E+00 0. -1.
         25    2    1    2    0    0  0.83798138693E+01  0.52963003994E+02  0.28252353714E+03  0.31355770513E+03  0.12499433721E+03 0.  0.
          2    1    1    2  501    0 -0.17721151839E+02 -0.35211178632E+02 -0.96071659455E+02  0.10384425874E+03  0.00000000000E+00 0. -1.
          1    1    1    2  502    0  0.93413379694E+01 -0.17751825362E+02  0.10734688328E+04  0.10736562406E+04  0.00000000000E+00 0. -1.
         22    1    3    3    0    0  0.48241893546E+02 -0.17983119271E+02  0.78216739459E+02  0.93640435727E+02  0.00000000000E+00 0.  1.
         22    1    3    3    0    0 -0.39862079676E+02  0.70946123266E+02  0.20430679768E+03  0.21991726940E+03  0.00000000000E+00 0.  1.
</event>
<event>
 7    1  0.6386201E-006  0.8226608E+02  0.7818608E-02  0.1361763E+00
          2   -1    0    0  502    0  0.00000000000E+00  0.00000000000E+00  0.23683213356E+04  0.23683213356E+04  0.00000000000E+00 0. -1.
          1   -1    0    0  501    0 -0.00000000000E+00 -0.00000000000E+00 -0.26467672885E+03  0.26467672885E+03  0.00000000000E+00 0. -1.
         25    2    1    2    0    0 -0.68628014606E+02 -0.63644193744E+02 -0.41749103599E+02  0.16164226186E+03  0.12499938152E+03 0.  0.
          2    1    1    2  501    0  0.12923107564E+02  0.82262921660E+02 -0.15194464904E+03  0.17326676358E+03  0.00000000000E+00 0. -1.
          1    1    1    2  502    0  0.55704907042E+02 -0.18618727916E+02  0.22973383594E+04  0.22980890390E+04  0.00000000000E+00 0. -1.
         22    1    3    3    0    0  0.27427998273E+02  0.15026061253E+02 -0.22698041241E+01  0.31356492419E+02  0.00000000000E+00 0.  1.
         22    1    3    3    0    0 -0.96056012879E+02 -0.78670254997E+02 -0.39479299475E+02  0.13028576944E+03  0.00000000000E+00 0.  1.
</event>
<event>
 7    1  0.6386201E-006  0.6403725E+02  0.7818608E-02  0.1434776E+00
          2   -1    0    0  502    0  0.00000000000E+00  0.00000000000E+00  0.22012219058E+04  0.22012219058E+04  0.00000000000E+00 0. -1.
          1   -1    0    0  501    0 -0.00000000000E+00 -0.00000000000E+00 -0.23001645992E+03  0.23001645992E+03  0.00000000000E+00 0. -1.
         25    2    1    2    0    0  0.81748632536E+01 -0.24043218553E+02  0.49316705612E+03  0.50939493536E+03  0.12499820074E+03 0.  0.
          2    1    1    2  501    0  0.41710965058E+01 -0.42040441329E+02 -0.21922024207E+03  0.22325391662E+03  0.00000000000E+00 0. -1.
          1    1    1    2  502    0 -0.12345959759E+02  0.66083659882E+02  0.16972586318E+04  0.16985895137E+04  0.00000000000E+00 0. -1.
         22    1    3    3    0    0  0.25220195827E+02 -0.52554286962E+02  0.45532699429E+03  0.45904322573E+03  0.00000000000E+00 0.  1.
         22    1    3    3    0    0 -0.17045332573E+02  0.28511068409E+02  0.37840061821E+02  0.50351709633E+02  0.00000000000E+00 0.  1.
</event>
<event>
 7    1  0.6386201E-006  0.3851324E+03  0.7818608E-02  0.1237529E+00
          2   -1    0    0  502    0  0.00000000000E+00  0.00000000000E+00  0.68504304442E+03  0.68504304442E+03  0.00000000000E+00 0. -1.
          1   -1    0    0  501    0 -0.00000000000E+00 -0.00000000000E+00 -0.19921779697E+04  0.19921779697E+04  0.00000000000E+00 0. -1.
         25    2    1    2    0    0 -0.34269900221E+03 -0.84668332414E+02 -0.26821013400E+03  0.46062242022E+03  0.12500002160E+03 0.  0.
          2    1    1    2  501    0 -0.33706193179E+02 -0.20716525194E+02 -0.15626156470E+04  0.15631164199E+04  0.00000000000E+00 0. -1.
          1    1    1    2  502    0  0.37640519539E+03  0.10538485761E+03  0.52369085574E+03  0.65348217398E+03  0.00000000000E+00 0. -1.
         22    1    3    3    0    0 -0.30282281419E+02  0.23546405997E+02 -0.55551942575E+02  0.67509022561E+02  0.00000000000E+00 0. -1.
         22    1    3    3    0    0 -0.31241672079E+03 -0.10821473841E+03 -0.21265819142E+03  0.39311339766E+03  0.00000000000E+00 0. -1.
</event>
<event>
 7    1  0.6386201E-006  0.3464131E+02  0.7818608E-02  0.1552074E+00
          2   -1    0    0  502    0  0.00000000000E+00  0.00000000000E+00  0.26138492264E+04  0.26138492264E+04  0.00000000000E+00 0. -1.
          1   -1    0    0  501    0 -0.00000000000E+00 -0.00000000000E+00 -0.31452850073E+03  0.31452850073E+03  0.00000000000E+00 0. -1.
         25    2    1    2    0    0  0.44415367840E+02 -0.47558759518E+02  0.14619854158E+04  0.14687617639E+04  0.12500081100E+03 0.  0.
          2    1    1    2  501    0 -0.13614143758E+02  0.31834975589E+02 -0.30991572633E+03  0.31184381990E+03  0.00000000000E+00 0. -1.
          1    1    1    2  502    0 -0.30801224082E+02  0.15723783929E+02  0.11472510363E+04  0.11477721433E+04  0.00000000000E+00 0. -1.
         22    1    3    3    0    0  0.16793482367E+02 -0.95870481834E+01  0.28117153932E+02  0.34124871987E+02  0.00000000000E+00 0.  1.
         22    1    3    3    0    0  0.27621885474E+02 -0.37971711335E+02  0.14338682618E+04  0.14346368919E+04  0.00000000000E+00 0.  1.
</event>
<event>
 7    1  0.7618382E-006  0.5238892E+02  0.7818608E-02  0.1441060E+00
          2   -1    0    0  502    0  0.00000000000E+00  0.00000000000E+00  0.12275035005E+04  0.12275035005E+04  0.00000000000E+00 0. -1.
          1   -1    0    0  501    0 -0.00000000000E+00 -0.00000000000E+00 -0.23747609581E+04  0.23747609581E+04  0.00000000000E+00 0. -1.
         25    2    1    2    0    0 -0.21925241392E+02 -0.53439069294E+02 -0.19250508351E+04  0.19299681168E+04  0.12497905435E+03 0.  0.
          2    1    1    2  501    0  0.48556964649E+02  0.83182980950E+01 -0.44533234221E+03  0.44804895706E+03  0.00000000000E+00 0. -1.
          1    1    1    2  502    0 -0.26631723258E+02  0.45120771199E+02  0.12231257197E+04  0.12242473847E+04  0.00000000000E+00 0. -1.
         22    1    3    3    0    0 -0.53770920558E+02  0.16952406001E+02 -0.10502492021E+04  0.10517614190E+04  0.00000000000E+00 0. -1.
         22    1    3    3    0    0  0.31845679167E+02 -0.70391475295E+02 -0.87480163299E+03  0.87820669786E+03  0.00000000000E+00 0. -1.
</event>
<event>
 7    1  0.6386201E-006  0.9264994E+02  0.7818608E-02  0.1479024E+00
          2   -1    0    0  502    0  0.00000000000E+00  0.00000000000E+00  0.65712612813E+03  0.65712612813E+03  0.00000000000E+00 0. -1.
          1   -1    0    0  501    0 -0.00000000000E+00 -0.00000000000E+00 -0.91352954750E+02  0.91352954750E+02  0.00000000000E+00 0. -1.
         25    2    1    2    0    0 -0.17359349194E+02  0.72726461764E+02  0.83028256670E+02  0.16766114025E+03  0.12500432513E+03 0.  0.
          2    1    1    2  501    0 -0.12888597565E+02  0.16759265367E+02 -0.42328934262E+02  0.47315194162E+02  0.00000000000E+00 0. -1.
          1    1    1    2  502    0  0.30247946760E+02 -0.89485727131E+02  0.52507385097E+03  0.53350274846E+03  0.00000000000E+00 0. -1.
         22    1    3    3    0    0 -0.34791899966E+01  0.10766806405E+03  0.56457303794E+02  0.12162213586E+03  0.00000000000E+00 0. -1.
         22    1    3    3    0    0 -0.13880159198E+02 -0.34941602281E+02  0.26570952875E+02  0.46039004398E+02  0.00000000000E+00 0. -1.
</event>
<event>
 7    1  0.6386201E-006  0.1516729E+03  0.7818608E-02  0.1251522E+00
          2   -1    0    0  502    0  0.00000000000E+00  0.00000000000E+00  0.22003156362E+04  0.22003156362E+04  0.00000000000E+00 0. -1.
          1   -1    0    0  501    0 -0.00000000000E+00 -0.00000000000E+00 -0.30163940472E+03  0.30163940472E+03  0.00000000000E+00 0. -1.
         25    2    1    2    0    0 -0.83348004481E+02  0.55311151164E+01 -0.63583528317E+02  0.16322826970E+03  0.12499247926E+03 0.  0.
          2    1    1    2  501    0 -0.58212937574E+02 -0.64985127349E+02 -0.17522017664E+03  0.19573942674E+03  0.00000000000E+00 0. -1.
          1    1    1    2  502    0  0.14156094206E+03  0.59454012233E+02  0.21374799365E+04  0.21429873445E+04  0.00000000000E+00 0. -1.
         22    1    3    3    0    0  0.25925700149E+02  0.28065002397E+02 -0.10219322909E+02  0.39550231965E+02  0.00000000000E+00 0. -1.
         22    1    3    3    0    0 -0.10927370463E+03 -0.22533887280E+02 -0.53364205407E+02  0.12367803774E+03  0.00000000000E+00 0. -1.
</event>
<event>
 7    1  0.6386201E-006  0.3677668E+02  0.7818608E-02  0.1549964E+00
          2   -1    0    0  502    0  0.00000000000E+00  0.00000000000E+00  0.81158818815E+03  0.81158818815E+03  0.00000000000E+00 0. -1.
          1   -1    0    0  501    0 -0.00000000000E+00 -0.00000000000E+00 -0.13410510428E+02  0.13410510428E+02  0.00000000000E+00 0. -1.
         25    2    1    2    0    0 -0.16608567898E+01  0.16159326802E+02  0.59105942884E+03  0.60435453563E+03  0.12501709497E+03 0.  0.
          2    1    1    2  501    0 -0.34885932627E+02 -0.12053651716E+02  0.76360980909E+02  0.84813431839E+02  0.00000000000E+00 0. -1.
          1    1    1    2  502    0  0.36546789417E+02 -0.41056750861E+01  0.13075726798E+03  0.13583073111E+03  0.00000000000E+00 0. -1.
         22    1    3    3    0    0 -0.15729059943E+02  0.35572017512E+02  0.52890847458E+02  0.65652216272E+02  0.00000000000E+00 0.  1.
         22    1    3    3    0    0  0.14068203153E+02 -0.19412690710E+02  0.53816858138E+03  0.53870231936E+03  0.00000000000E+00 0.  1.
</event>
<event>
 7    1  0.6386201E-006  0.1977085E+03  0.7818608E-02  0.1281015E+00
          2   -1    0    0  502    0  0.00000000000E+00  0.00000000000E+00  0.11814446088E+04  0.11814446088E+04  0.00000000000E+00 0. -1.
          1   -1    0    0  501    0 -0.00000000000E+00 -0.00000000000E+00 -0.33512002177E+03  0.33512002177E+03  0.00000000000E+00 0. -1.
         25    2    1    2    0    0  0.37262859325E+02  0.14619268280E+03  0.77310675222E+03  0.79754511327E+03  0.12499334454E+03 0.  0.
          2    1    1    2  501    0 -0.62871468556E+02 -0.18941025293E+03 -0.29017010448E+03  0.35217574449E+03  0.00000000000E+00 0. -1.
          1    1    1    2  502    0  0.25608609231E+02  0.43217570138E+02  0.36338793930E+03  0.36684377283E+03  0.00000000000E+00 0. -1.
         22    1    3    3    0    0 -0.40575358367E+00  0.13540918117E+03  0.39814189725E+03  0.42053867994E+03  0.00000000000E+00 0. -1.
         22    1    3    3    0    0  0.37668612909E+02  0.10783501625E+02  0.37496485497E+03  0.37700643332E+03  0.00000000000E+00 0. -1.
</event>
<event>
 7    1  0.6386201E-006  0.1413054E+03  0.7818608E-02  0.1224354E+00
          2   -1    0    0  502    0  0.00000000000E+00  0.00000000000E+00  0.21231353419E+04  0.21231353419E+04  0.00000000000E+00 0. -1.
          1   -1    0    0  501    0 -0.00000000000E+00 -0.00000000000E+00 -0.21139579047E+04  0.21139579047E+04  0.00000000000E+00 0. -1.
         25    2    1    2    0    0  0.13445814641E+03  0.15100892338E+03 -0.23402429767E+02  0.23886409013E+03  0.12500276701E+03 0.  0.
          2    1    1    2  501    0 -0.11400603230E+02 -0.14034870322E+03 -0.19784274423E+04  0.19834320953E+04  0.00000000000E+00 0. -1.
          1    1    1    2  502    0 -0.12305754318E+03 -0.10660220161E+02  0.20110073094E+04  0.20147970611E+04  0.00000000000E+00 0. -1.
         22    1    3    3    0    0  0.15090380317E+03  0.13055625143E+03  0.57682725883E+01  0.19962506247E+03  0.00000000000E+00 0. -1.
         22    1    3    3    0    0 -0.16445656760E+02  0.20452671953E+02 -0.29170702355E+02  0.39239027666E+02  0.00000000000E+00 0. -1.
</event>
<event>
 7    1  0.6386201E-006  0.7350134E+02  0.7818608E-02  0.1354945E+00
          2   -1    0    0  502    0  0.00000000000E+00  0.00000000000E+00  0.14169363383E+04  0.14169363383E+04  0.00000000000E+00 0. -1.
          1   -1    0    0  501    0 -0.00000000000E+00 -0.00000000000E+00 -0.56498650597E+03  0.56498650597E+03  0.00000000000E+00 0. -1.
         25    2    1    2    0    0  0.10149425569E+02  0.73545221590E+02  0.88888449513E+02  0.17040243416E+03  0.12499569054E+03 0.  0.
          2    1    1    2  501    0  0.55191083841E+02 -0.49501614246E+02 -0.52066024202E+03  0.52591211544E+03  0.00000000000E+00 0. -1.
          1    1    1    2  502    0 -0.65340509411E+02 -0.24043607344E+02  0.12837216248E+04  0.12856082946E+04  0.00000000000E+00 0. -1.
         22    1    3    3    0    0  0.37132204629E+02 -0.22721436495E+02  0.39972845728E+02  0.59100699595E+02  0.00000000000E+00 0. -1.
         22    1    3    3    0    0 -0.26982779060E+02  0.96266658084E+02  0.48915603786E+02  0.11130173457E+03  0.00000000000E+00 0. -1.
</event>
<event>
 7    1  0.6386201E-006  0.4627588E+02  0.7818608E-02  0.1557315E+00
          2   -1    0    0  502    0  0.00000000000E+00  0.00000000000E+00  0.13973397955E+04  0.13973397955E+04  0.00000000000E+00 0. -1.
          1   -1    0    0  501    0 -0.00000000000E+00 -0.00000000000E+00 -0.11572415298E+03  0.11572415298E+03  0.00000000000E+00 0. -1.
         25    2    1    2    0    0 -0.31793408213E+02  0.41222319493E+02  0.11427381887E+03  0.17718264992E+03  0.12500034129E+03 0.  0.
          2    1    1    2  501    0  0.42411908796E+02 -0.18549444029E+02 -0.77777267388E+02  0.90510525376E+02  0.00000000000E+00 0. -1.
          1    1    1    2  502    0 -0.10618500583E+02 -0.22672875464E+02  0.12451190911E+04  0.12453707732E+04  0.00000000000E+00 0. -1.
         22    1    3    3    0    0 -0.47243084233E+02  0.10140655246E+02 -0.89697002617E+01  0.49144658097E+02  0.00000000000E+00 0. -1.
         22    1    3    3    0    0  0.15449676021E+02  0.31081664247E+02  0.12324351913E+03  0.12803799182E+03  0.00000000000E+00 0. -1.
</event>
<event>
 7    1  0.6386201E-006  0.1779103E+03  0.7818608E-02  0.1255984E+00
          2   -1    0    0  502    0  0.00000000000E+00  0.00000000000E+00  0.33728263263E+03  0.33728263263E+03  0.00000000000E+00 0. -1.
          1   -1    0    0  501    0 -0.00000000000E+00 -0.00000000000E+00 -0.36475741976E+03  0.36475741976E+03  0.00000000000E+00 0. -1.
         25    2    1    2    0    0 -0.43860013348E+02  0.18563405985E+03  0.17183561196E+03  0.28554597348E+03  0.12500128195E+03 0.  0.
          2    1    1    2  501    0  0.68793508346E+02 -0.18183790076E+02 -0.23322138091E+03  0.24383479966E+03  0.00000000000E+00 0. -1.
          1    1    1    2  502    0 -0.24933494998E+02 -0.16745026977E+03  0.33910981823E+02  0.17265927924E+03  0.00000000000E+00 0. -1.
         22    1    3    3    0    0  0.15205054482E+01  0.15398064122E+02  0.89939892514E+02  0.91261144968E+02  0.00000000000E+00 0.  1.
         22    1    3    3    0    0 -0.45380518797E+02  0.17023599573E+03  0.81895719442E+02  0.19428482851E+03  0.00000000000E+00 0.  1.
</event>
<event>
 7    1  0.6386201E-006  0.5478381E+02  0.7818608E-02  0.1528708E+00
          2   -1    0    0  502    0  0.00000000000E+00  0.00000000000E+00  0.15785422798E+04  0.15785422798E+04  0.00000000000E+00 0. -1.
          1   -1    0    0  501    0 -0.00000000000E+00 -0.00000000000E+00 -0.85634772988E+03  0.85634772988E+03  0.00000000000E+00 0. -1.
         25    2    1    2    0    0 -0.28877666181E+02  0.69087944524E+02  0.75517115549E+03  0.76909956820E+03  0.12499443203E+03 0.  0.
          2    1    1    2  501    0  0.18331218492E+02 -0.17665243753E+02 -0.84834858661E+03  0.84873047478E+03  0.00000000000E+00 0. -1.
          1    1    1    2  502    0  0.10546447689E+02 -0.51422700771E+02  0.81537198104E+03  0.81705996669E+03  0.00000000000E+00 0. -1.
         22    1    3    3    0    0 -0.38568818788E+01  0.89343095347E+02  0.30661586038E+03  0.31939059169E+03  0.00000000000E+00 0. -1.
         22    1    3    3    0    0 -0.25020784302E+02 -0.20255150823E+02  0.44855529511E+03  0.44970897651E+03  0.00000000000E+00 0. -1.
</event>
<event>
 7    1  0.6386201E-006  0.1805127E+03  0.7818608E-02  0.1395415E+00
          2   -1    0    0  502    0  0.00000000000E+00  0.00000000000E+00  0.19893146568E+04  0.19893146568E+04  0.00000000000E+00 0. -1.
          1   -1    0    0  501    0 -0.00000000000E+00 -0.00000000000E+00 -0.15642607635E+03  0.15642607635E+03  0.00000000000E+00 0. -1.
         25    2    1    2    0    0  0.16714671028E+03 -0.15547005683E+02  0.29078549725E+03  0.35827328918E+03  0.12499524865E+03 0.  0.
          2    1    1    2  501    0  0.12567417523E+02 -0.15980752376E+02 -0.11680215676E+03  0.11855829053E+03  0.00000000000E+00 0. -1.
          1    1    1    2  502    0 -0.17971412781E+03  0.31527758058E+02  0.16589052400E+04  0.16689091535E+04  0.00000000000E+00 0. -1.
         22    1    3    3    0    0  0.18354459578E+03 -0.43456204223E+01  0.22979558703E+03  0.29413179848E+03  0.00000000000E+00 0.  1.
         22    1    3    3    0    0 -0.16397885501E+02 -0.11201385260E+02  0.60989910219E+02  0.64141490700E+02  0.00000000000E+00 0.  1.
</event>
<event>
 7    1  0.6386201E-006  0.7397307E+02  0.7818608E-02  0.1430866E+00
          2   -1    0    0  502    0  0.00000000000E+00  0.00000000000E+00  0.22761907840E+04  0.22761907840E+04  0.00000000000E+00 0. -1.
          1   -1    0    0  501    0 -0.00000000000E+00 -0.00000000000E+00 -0.26146656109E+03  0.26146656109E+03  0.00000000000E+00 0. -1.
         25    2    1    2    0    0  0.92512075906E+01  0.72374473604E+02  0.22752293548E+03  0.26965811170E+03  0.12500064705E+03 0.  0.
          2    1    1    2  501    0 -0.44586633008E+02 -0.59324905726E+02 -0.23449198134E+03  0.24595508044E+03  0.00000000000E+00 0. -1.
          1    1    1    2  502    0  0.35335425417E+02 -0.13049567877E+02  0.20216932688E+04  0.20220441530E+04  0.00000000000E+00 0. -1.
         22    1    3    3    0    0 -0.25424271106E+02  0.90672809791E+02  0.10513250313E+03  0.14114104723E+03  0.00000000000E+00 0.  1.
         22    1    3    3    0    0  0.34675478697E+02 -0.18298336188E+02  0.12239043235E+03  0.12851706447E+03  0.00000000000E+00 0.  1.
</event>
<event>
 7    1  0.6386201E-006  0.1053638E+03  0.7818608E-02  0.1382075E+00
          2   -1    0    0  502    0  0.00000000000E+00  0.00000000000E+00  0.87578440014E+03  0.87578440014E+03  0.00000000000E+00 0. -1.
          1   -1    0    0  501    0 -0.00000000000E+00 -0.00000000000E+00 -0.48867093238E+02  0.48867093238E+02  0.00000000000E+00 0. -1.
         25    2    1    2    0    0 -0.76366890708E+02 -0.29234805522E+02  0.20246594715E+03  0.25160105352E+03  0.12499621804E+03 0.  0.
          2    1    1    2  501    0 -0.12319921245E+02 -0.36770375173E+02 -0.11051285907E+00  0.38779545678E+02  0.00000000000E+00 0. -1.
          1    1    1    2  502    0  0.88686811953E+02  0.66005180695E+02  0.62456187261E+03  0.63427089419E+03  0.00000000000E+00 0. -1.
         22    1    3    3    0    0 -0.74587014217E+01 -0.69042323476E+02  0.85873442222E+02  0.11043877370E+03  0.00000000000E+00 0. -1.
         22    1    3    3    0    0 -0.68908189286E+02  0.39807517954E+02  0.11659250493E+03  0.14116227981E+03  0.00000000000E+00 0. -1.
</event>
<event>
 7    1  0.1217702E-005  0.4834817E+02  0.7818608E-02  0.1455679E+00
          2   -1    0    0  502    0  0.00000000000E+00  0.00000000000E+00  0.10823404044E+04  0.10823404044E+04  0.00000000000E+00 0. -1.
          1   -1    0    0  501    0 -0.00000000000E+00 -0.00000000000E+00 -0.89313173829E+03  0.89313173829E+03  0.00000000000E+00 0. -1.
         25    2    1    2    0    0 -0.49366415308E+01  0.50461443784E+01 -0.39968405659E+03  0.41883600148E+03  0.12500566802E+03 0.  0.
          2    1    1    2  501    0  0.51343811904E+02 -0.18607874861E+02 -0.48178351233E+03  0.48486884080E+03  0.00000000000E+00 0. -1.
          1    1    1    2  502    0 -0.46407170373E+02  0.13561730483E+02  0.10706762350E+04  0.10717673004E+04  0.00000000000E+00 0. -1.
         22    1    3    3    0    0 -0.62515370998E+02  0.58281126604E+01 -0.26540604711E+03  0.27273156831E+03  0.00000000000E+00 0.  1.
         22    1    3    3    0    0  0.57578729467E+02 -0.78196828204E+00 -0.13427800948E+03  0.14610443317E+03  0.00000000000E+00 0.  1.
</event>
<event>
 7    1  0.6386201E-006  0.1258745E+03  0.7818608E-02  0.1306880E+00
          2   -1    0    0  502    0  0.00000000000E+00  0.00000000000E+00  0.33244290059E+04  0.33244290059E+04  0.00000000000E+00 0. -1.
          1   -1    0    0  501    0 -0.00000000000E+00 -0.00000000000E+00 -0.57723118962E+03  0.57723118962E+03  0.00000000000E+00 0. -1.
         25    2    1    2    0    0 -0.12254249785E+03  0.12523347583E+03 -0.13980551520E+03  0.25665651289E+03  0.12500758489E+03 0.  0.
          2    1    1    2  501    0  0.59810193905E+02 -0.16413465661E+02 -0.37524606274E+03  0.38033704626E+03  0.00000000000E+00 0. -1.
          1    1    1    2  502    0  0.62732303946E+02 -0.10882001017E+03  0.32622493942E+04  0.32646666364E+04  0.00000000000E+00 0. -1.
         22    1    3    3    0    0 -0.58356560564E+02  0.13466263331E+03 -0.74441953381E+02  0.16456341451E+03  0.00000000000E+00 0. -1.
         22    1    3    3    0    0 -0.64185937287E+02 -0.94291574805E+01 -0.65363561819E+02  0.92093098384E+02  0.00000000000E+00 0. -1.
</event>
<event>
 7    1  0.6386201E-006  0.3536496E+03  0.7818608E-02  0.1146627E+00
          2   -1    0    0  502    0  0.00000000000E+00  0.00000000000E+00  0.26173821120E+03  0.26173821120E+03  0.00000000000E+00 0. -1.
          1   -1    0    0  501    0 -0.00000000000E+00 -0.00000000000E+00 -0.14353274931E+04  0.14353274931E+04  0.00000000000E+00 0. -1.
         25    2    1    2    0    0 -0.27687405251E+03  0.72216650395E+02 -0.23541112849E+02  0.31313410398E+03  0.12499719011E+03 0.  0.
          2    1    1    2  501    0  0.32040422605E+03 -0.18121415929E+03 -0.12008792148E+04  0.12560287927E+04  0.00000000000E+00 0. -1.
          1    1    1    2  502    0 -0.43530173545E+02  0.10899750890E+03  0.50831045823E+02  0.12790280753E+03  0.00000000000E+00 0. -1.
         22    1    3    3    0    0 -0.58409938058E+02  0.60444316314E+02  0.27572143831E+02  0.88461626449E+02  0.00000000000E+00 0.  1.
         22    1    3    3    0    0 -0.21846411445E+03  0.11772334081E+02 -0.51113256680E+02  0.22467247753E+03  0.00000000000E+00 0.  1.
</event>
<event>
 7    1  0.6386201E-006  0.1055820E+03  0.7818608E-02  0.1293295E+00
          2   -1    0    0  502    0  0.00000000000E+00  0.00000000000E+00  0.38383143864E+03  0.38383143864E+03  0.00000000000E+00 0. -1.
          1   -1    0    0  501    0 -0.00000000000E+00 -0.00000000000E+00 -0.27847475555E+03  0.27847475555E+03  0.00000000000E+00 0. -1.
         25    2    1    2    0    0  0.15483160492E+03 -0.72455167187E+02 -0.10374972345E+03  0.23582520585E+03  0.12500778162E+03 0.  0.
          2    1    1    2  501    0 -0.80418040406E+02  0.33907872492E+02 -0.84300676426E+02  0.12134005557E+03  0.00000000000E+00 0. -1.
          1    1    1    2  502    0 -0.74413564513E+02  0.38547294696E+02  0.29340708298E+03  0.30514093277E+03  0.00000000000E+00 0. -1.
         22    1    3    3    0    0  0.27558083459E+02  0.84270346777E+00 -0.83044623671E+02  0.87501815031E+02  0.00000000000E+00 0.  1.
         22    1    3    3    0    0  0.12727352146E+03 -0.73297870655E+02 -0.20705099781E+02  0.14832339082E+03  0.00000000000E+00 0.  1.
</event>
<event>
 7    1  0.6386201E-006  0.7358469E+02  0.7818608E-02  0.1376516E+00
          2   -1    0    0  502    0  0.00000000000E+00  0.00000000000E+00  0.11081995820E+04  0.11081995820E+04  0.00000000000E+00 0. -1.
          1   -1    0    0  501    0 -0.00000000000E+00 -0.00000000000E+00 -0.80428294596E+02  0.80428294596E+02  0.00000000000E+00 0. -1.
         25    2    1    2    0    0  0.14654877294E+02 -0.27344335492E+02  0.18591784237E+03  0.22616989393E+03  0.12499959479E+03 0.  0.
          2    1    1    2  501    0  0.58104821486E+02 -0.25489791083E+00 -0.44192432586E+02  0.73001413348E+02  0.00000000000E+00 0. -1.
          1    1    1    2  502    0 -0.72759698780E+02  0.27599233403E+02  0.88604587765E+03  0.88945656934E+03  0.00000000000E+00 0. -1.
         22    1    3    3    0    0  0.39703080791E+02 -0.25224815769E+02  0.19411223680E+03  0.19973028421E+03  0.00000000000E+00 0.  1.
         22    1    3    3    0    0 -0.25048203497E+02 -0.21195197224E+01 -0.81943944295E+01  0.26439609724E+02  0.00000000000E+00 0.  1.
</event>
<event>
 7    1  0.6386201E-006  0.9427267E+02  0.7818608E-02  0.1437368E+00
          2   -1    0    0  502    0  0.00000000000E+00  0.00000000000E+00  0.30023740709E+04  0.30023740709E+04  0.00000000000E+00 0. -1.
          1   -1    0    0  501    0 -0.00000000000E+00 -0.00000000000E+00 -0.37477964720E+03  0.37477964720E+03  0.00000000000E+00 0. -1.
         25    2    1    2    0    0 -0.10501803145E+03  0.39633617874E+02  0.13363967444E+03  0.21467488391E+03  0.12500453032E+03 0.  0.
          2    1    1    2  501    0  0.12130795779E+02 -0.25395016086E+02 -0.33288749903E+03  0.33407506650E+03  0.00000000000E+00 0. -1.
          1    1    1    2  502    0  0.92887235674E+02 -0.14238601788E+02  0.28268422483E+04  0.28284037677E+04  0.00000000000E+00 0. -1.
         22    1    3    3    0    0 -0.11544567577E+03  0.14829018597E+02  0.14459618657E+03  0.18562236131E+03  0.00000000000E+00 0. -1.
         22    1    3    3    0    0  0.10427644319E+02  0.24804599278E+02 -0.10956512130E+02  0.29052522600E+02  0.00000000000E+00 0. -1.
</event>
<event>
 7    1  0.6386201E-006  0.1378812E+03  0.7818608E-02  0.1379831E+00
          2   -1    0    0  502    0  0.00000000000E+00  0.00000000000E+00  0.10123240757E+04  0.10123240757E+04  0.00000000000E+00 0. -1.
          1   -1    0    0  501    0 -0.00000000000E+00 -0.00000000000E+00 -0.19141185109E+03  0.19141185109E+03  0.00000000000E+00 0. -1.
         25    2    1    2    0    0 -0.12118662667E+03  0.36330836622E+02  0.11335485993E+03  0.21090891685E+03  0.12500847478E+03 0.  0.
          2    1    1    2  501    0  0.12414849711E+03 -0.66365654417E+02 -0.10755316760E+03  0.17715793316E+03  0.00000000000E+00 0. -1.
          1    1    1    2  502    0 -0.29618704478E+01  0.30034817795E+02  0.81511053233E+03  0.81566907681E+03  0.00000000000E+00 0. -1.
         22    1    3    3    0    0 -0.88381637595E+02  0.14404001723E+02 -0.14011126800E+01  0.89558652548E+02  0.00000000000E+00 0. -1.
         22    1    3    3    0    0 -0.32804989071E+02  0.21926834899E+02  0.11475597261E+03  0.12135026431E+03  0.00000000000E+00 0. -1.
</event>
<event>
 7    1  0.6386201E-006  0.1725202E+03  0.7818608E-02  0.1235417E+00
          2   -1    0    0  502    0  0.00000000000E+00  0.00000000000E+00  0.37135692574E+03  0.37135692574E+03  0.00000000000E+00 0. -1.
          1   -1    0    0  501    0 -0.00000000000E+00 -0.00000000000E+00 -0.28695386972E+04  0.28695386972E+04  0.00000000000E+00 0. -1.
         25    2    1    2    0    0 -0.13284569812E+03 -0.17920187369E+02 -0.10699712655E+04  0.10855572580E+04  0.12500775450E+03 0.  0.
          2    1    1    2  501    0 -0.30056009631E+01 -0.90197244110E+02 -0.17698301626E+04  0.17721296174E+04  0.00000000000E+00 0. -1.
          1    1    1    2  502    0  0.13585129909E+03  0.10811743148E+03  0.34161965661E+03  0.38320874760E+03  0.00000000000E+00 0. -1.
         22    1    3    3    0    0 -0.14496606143E+03  0.13478397543E+02 -0.94427719445E+03  0.95543510828E+03  0.00000000000E+00 0.  1.
         22    1    3    3    0    0  0.12120363306E+02 -0.31398584912E+02 -0.12569407107E+03  0.13012214970E+03  0.00000000000E+00 0.  1.
</event>
<event>
 7    1  0.6386201E-006  0.1279068E+03  0.7818608E-02  0.1279465E+00
          2   -1    0    0  502    0  0.00000000000E+00  0.00000000000E+00  0.80638534914E+03  0.80638534914E+03  0.00000000000E+00 0. -1.
          1   -1    0    0  501    0 -0.00000000000E+00 -0.00000000000E+00 -0.10241874447E+04  0.10241874447E+04  0.00000000000E+00 0. -1.
         25    2    1    2    0    0  0.13616595627E+02  0.56057778504E+01  0.32141901345E+03  0.34518320545E+03  0.12499770677E+03 0.  0.
          2    1    1    2  501    0  0.10692248674E+03 -0.70197725140E+02 -0.99825595611E+03  0.10064169577E+04  0.00000000000E+00 0. -1.
          1    1    1    2  502    0 -0.12053908236E+03  0.64591947290E+02  0.45903484715E+03  0.47897263067E+03  0.00000000000E+00 0. -1.
         22    1    3    3    0    0  0.10331571405E+02  0.35654036995E+02  0.31100467015E+03  0.31321215905E+03  0.00000000000E+00 0.  1.
         22    1    3    3    0    0  0.32850242223E+01 -0.30048259144E+02  0.10414343300E+02  0.31971046403E+02  0.00000000000E+00 0.  1.
</event>
<event>
 7    1  0.6386201E-006  0.4485298E+02  0.7818608E-02  0.1552583E+00
          2   -1    0    0  502    0  0.00000000000E+00  0.00000000000E+00  0.53516029256E+03  0.53516029256E+03  0.00000000000E+00 0. -1.
          1   -1    0    0  501    0 -0.00000000000E+00 -0.00000000000E+00 -0.87511662541E+02  0.87511662541E+02  0.00000000000E+00 0. -1.
         25    2    1    2    0    0  0.35538062227E+02 -0.22989840845E+02  0.30780963550E+02  0.13551585786E+03  0.12500237344E+03 0.  0.
          2    1    1    2  501    0 -0.46511441652E+02 -0.12656746443E+01 -0.19158012043E+02  0.50318441573E+02  0.00000000000E+00 0. -1.
          1    1    1    2  502    0  0.10973379425E+02  0.24255515489E+02  0.43602567851E+03  0.43683765567E+03  0.00000000000E+00 0. -1.
         22    1    3    3    0    0  0.53125672649E+02  0.34816688867E+02 -0.75427407504E+01  0.63964301420E+02  0.00000000000E+00 0. -1.
         22    1    3    3    0    0 -0.17587610422E+02 -0.57806529712E+02  0.38323704301E+02  0.71551556440E+02  0.00000000000E+00 0. -1.
</event>
<event>
 7    1  0.6386201E-006  0.9351835E+02  0.7818608E-02  0.1436683E+00
          2   -1    0    0  502    0  0.00000000000E+00  0.00000000000E+00  0.62535137946E+02  0.62535137946E+02  0.00000000000E+00 0. -1.
          1   -1    0    0  501    0 -0.00000000000E+00 -0.00000000000E+00 -0.16932779509E+04  0.16932779509E+04  0.00000000000E+00 0. -1.
         25    2    1    2    0    0 -0.85203296307E+02 -0.48043181704E+02 -0.86470227901E+03  0.87914940221E+03  0.12500356420E+03 0.  0.
          2    1    1    2  501    0 -0.60994211082E+01  0.27857077522E+02 -0.78138524356E+03  0.78190544093E+03  0.00000000000E+00 0. -1.
          1    1    1    2  502    0  0.91302717416E+02  0.20186104182E+02  0.15344709648E+02  0.94758245677E+02  0.00000000000E+00 0. -1.
         22    1    3    3    0    0 -0.74335674363E+02 -0.71307635081E+02 -0.37840267537E+03  0.39217235500E+03  0.00000000000E+00 0. -1.
         22    1    3    3    0    0 -0.10867621945E+02  0.23264453376E+02 -0.48629960365E+03  0.48697704720E+03  0.00000000000E+00 0. -1.
</event>
<event>
 7    1  0.6386201E-006  0.1828400E+03  0.7818608E-02  0.1221893E+00
          2   -1    0    0  502    0  0.00000000000E+00  0.00000000000E+00  0.16376766184E+03  0.16376766184E+03  0.00000000000E+00 0. -1.
          1   -1    0    0  501    0 -0.00000000000E+00 -0.00000000000E+00 -0.10819006371E+04  0.10819006371E+04  0.00000000000E+00 0. -1.
         25    2    1    2    0    0  0.53650966093E+02  0.39571156505E+02 -0.50428343265E+03  0.52380445290E+03  0.12500008736E+03 0.  0.
          2    1    1    2  501    0  0.12100771734E+02 -0.21017944513E+03 -0.48260330855E+03  0.52652424565E+03  0.00000000000E+00 0. -1.
          1    1    1    2  502    0 -0.65751737827E+02  0.17060828862E+03  0.68753765902E+02  0.19533960044E+03  0.00000000000E+00 0. -1.
         22    1    3    3    0    0  0.93836535701E+02  0.20840580628E+02 -0.37528046982E+03  0.38739521972E+03  0.00000000000E+00 0.  1.
         22    1    3    3    0    0 -0.40185569608E+02  0.18730575877E+02 -0.12900296283E+03  0.13640923317E+03  0.00000000000E+00 0.  1.
</event>
<event>
 7    1  0.6386201E-006  0.1581479E+03  0.7818608E-02  0.1262292E+00
          2   -1    0    0  502    0  0.00000000000E+00  0.00000000000E+00  0.66085234580E+03  0.66085234580E+03  0.00000000000E+00 0. -1.
          1   -1    0    0  501    0 -0.00000000000E+00 -0.00000000000E+00 -0.92057731189E+03  0.92057731189E+03  0.00000000000E+00 0. -1.
         25    2    1    2    0    0  0.74350222088E+02 -0.79990673626E+02 -0.25037068851E+03  0.30039431992E+03  0.12499920954E+03 0.  0.
          2    1    1    2  501    0 -0.13294827234E+03  0.12716867427E+03 -0.62976114444E+03  0.65608399911E+03  0.00000000000E+00 0. -1.
          1    1    1    2  502    0  0.58598050251E+02 -0.47178000647E+02  0.62040686687E+03  0.62495133866E+03  0.00000000000E+00 0. -1.
         22    1    3    3    0    0  0.71357933338E+02  0.78312333941E+01 -0.15439400614E+03  0.17026682589E+03  0.00000000000E+00 0.  1.
         22    1    3    3    0    0  0.29922887501E+01 -0.87821907020E+02 -0.95976682371E+02  0.13012749403E+03  0.00000000000E+00 0.  1.
</event>
<event>
 7    1  0.6386201E-006  0.5256769E+02  0.7818608E-02  0.1489585E+00
          2   -1    0    0  502    0  0.00000000000E+00  0.00000000000E+00  0.15367552999E+04  0.15367552999E+04  0.00000000000E+00 0. -1.
          1   -1    0    0  501    0 -0.00000000000E+00 -0.00000000000E+00 -0.15183768574E+03  0.15183768574E+03  0.00000000000E+00 0. -1.
         25    2    1    2    0    0  0.41109157142E+02  0.87878822584E+01  0.10111979817E+03  0.16618554167E+03  0.12500092401E+03 0.  0.
          2    1    1    2  501    0 -0.91701130217E+01  0.33362296183E+02 -0.11628650210E+03  0.12132470627E+03  0.00000000000E+00 0. -1.
          1    1    1    2  502    0 -0.31939044120E+02 -0.42150178441E+02  0.14000843181E+04  0.14010827377E+04  0.00000000000E+00 0. -1.
         22    1    3    3    0    0 -0.14079269774E+02  0.10990860104E+02 -0.23708612535E+02  0.29683718627E+02  0.00000000000E+00 0.  1.
         22    1    3    3    0    0  0.55188426916E+02 -0.22029778452E+01  0.12482841070E+03  0.13650182305E+03  0.00000000000E+00 0.  1.
</event>
<event>
 7    1  0.6386201E-006  0.4946996E+02  0.7818608E-02  0.1465757E+00
          2   -1    0    0  502    0  0.00000000000E+00  0.00000000000E+00  0.70585141345E+03  0.70585141345E+03  0.00000000000E+00 0. -1.
          1   -1    0    0  501    0 -0.00000000000E+00 -0.00000000000E+00 -0.33637066097E+03  0.33637066097E+03  0.00000000000E+00 0. -1.
         25    2    1    2    0    0  0.15088037787E+02  0.59202192153E+02 -0.29769430705E+02  0.14227756827E+03  0.12499655590E+03 0.  0.
          2    1    1    2  501    0  0.27435527742E+02 -0.33795348973E+02 -0.24750066091E+03  0.25129944478E+03  0.00000000000E+00 0. -1.
          1    1    1    2  502    0 -0.42523565529E+02 -0.25406843180E+02  0.64675084410E+03  0.64864506137E+03  0.00000000000E+00 0. -1.
         22    1    3    3    0    0 -0.52785686093E+02  0.31381593271E+02 -0.31260502041E+02  0.68908287167E+02  0.00000000000E+00 0. -1.
         22    1    3    3    0    0  0.67873723880E+02  0.27820598882E+02  0.14910713352E+01  0.73369281100E+02  0.00000000000E+00 0. -1.
</event>
<event>
 7    1  0.6386201E-006  0.8091071E+02  0.7818608E-02  0.1373441E+00
          2   -1    0    0  502    0  0.00000000000E+00  0.00000000000E+00  0.30326137162E+03  0.30326137162E+03  0.00000000000E+00 0. -1.
          1   -1    0    0  501    0 -0.00000000000E+00 -0.00000000000E+00 -0.99577163886E+03  0.99577163886E+03  0.00000000000E+00 0. -1.
         25    2    1    2    0    0 -0.50930256424E+01 -0.29464680583E+02 -0.20621683767E+03  0.24298954527E+03  0.12499771463E+03 0.  0.
          2    1    1    2  501    0 -0.30812754261E+02 -0.44585100140E+02 -0.76424524832E+03  0.76616451011E+03  0.00000000000E+00 0. -1.
          1    1    1    2  502    0  0.35905779903E+02  0.74049780723E+02  0.27795181875E+03  0.28987895509E+03  0.00000000000E+00 0. -1.
         22    1    3    3    0    0 -0.39450475253E+02 -0.41349114852E+02 -0.32988229453E+02  0.65987215270E+02  0.00000000000E+00 0.  1.
         22    1    3    3    0    0  0.34357449611E+02  0.11884434269E+02 -0.17322860822E+03  0.17700233000E+03  0.00000000000E+00 0.  1.
</event>
<event>
 7    1  0.6386201E-006  0.1224129E+03  0.7818608E-02  0.1280302E+00
          2   -1    0    0  502    0  0.00000000000E+00  0.00000000000E+00  0.52693223357E+03  0.52693223357E+03  0.00000000000E+00 0. -1.
          1   -1    0    0  501    0 -0.00000000000E+00 -0.00000000000E+00 -0.16317791622E+04  0.16317791622E+04  0.00000000000E+00 0. -1.
         25    2    1    2    0    0  0.60321833319E+02 -0.18597253655E+02 -0.35385766842E+03  0.38055780872E+03  0.12499765940E+03 0.  0.
          2    1    1    2  501    0 -0.11738983771E+03  0.77042135718E+02 -0.12573906194E+04  0.12652063209E+04  0.00000000000E+00 0. -1.
          1    1    1    2  502    0  0.57068004390E+02 -0.58444882062E+02  0.50640135914E+03  0.51294726620E+03  0.00000000000E+00 0. -1.
         22    1    3    3    0    0  0.74059730316E+02  0.35899142202E+02 -0.18199614724E+03  0.19974030559E+03  0.00000000000E+00 0. -1.
         22    1    3    3    0    0 -0.13737896996E+02 -0.54496395857E+02 -0.17186152118E+03  0.18081750313E+03  0.00000000000E+00 0. -1.
</event>
<event>
 7    1  0.6386201E-006  0.2521820E+02  0.7818608E-02  0.1693612E+00
          2   -1    0    0  502    0  0.00000000000E+00  0.00000000000E+00  0.31707079566E+04  0.31707079566E+04  0.00000000000E+00 0. -1.
          1   -1    0    0  501    0 -0.00000000000E+00 -0.00000000000E+00 -0.64023174207E+01  0.64023174207E+01  0.00000000000E+00 0. -1.
         25    2    1    2    0    0  0.79346508168E+01 -0.43217687366E+01  0.15276178874E+04  0.15327499033E+04  0.12499687960E+03 0.  0.
          2    1    1    2  501    0 -0.97561555460E+00 -0.20719028331E+02  0.25092404525E+02  0.32555471514E+02  0.00000000000E+00 0. -1.
          1    1    1    2  502    0 -0.69590352622E+01  0.25040797067E+02  0.16115953473E+04  0.16118048992E+04  0.00000000000E+00 0. -1.
         22    1    3    3    0    0  0.36279946334E+02 -0.12745333409E+02  0.14352309610E+04  0.14357460045E+04  0.00000000000E+00 0. -1.
         22    1    3    3    0    0 -0.28345295518E+02  0.84235646720E+01  0.92386926387E+02  0.97003898824E+02  0.00000000000E+00 0. -1.
</event>
<event>
 7    1  0.6386201E-006  0.9321310E+02  0.7818608E-02  0.1402451E+00
          2   -1    0    0  502    0  0.00000000000E+00  0.00000000000E+00  0.11560315373E+04  0.11560315373E+04  0.00000000000E+00 0. -1.
          1   -1    0    0  501    0 -0.00000000000E+00 -0.00000000000E+00 -0.46840437496E+02  0.46840437496E+02  0.00000000000E+00 0. -1.
         25    2    1    2    0    0 -0.27604850778E+02 -0.57448919180E+02  0.31790500114E+03  0.34749171244E+03  0.12499797744E+03 0.  0.
          2    1    1    2  501    0 -0.29618332311E+01 -0.37116435398E+02 -0.17053683586E+02  0.40954002937E+02  0.00000000000E+00 0. -1.
          1    1    1    2  502    0  0.30566684009E+02  0.94565354577E+02  0.80833978224E+03  0.81442625941E+03  0.00000000000E+00 0. -1.
         22    1    3    3    0    0 -0.17345207368E+02 -0.15611987423E+02  0.29989530657E+03  0.30080190370E+03  0.00000000000E+00 0.  1.
         22    1    3    3    0    0 -0.10259643410E+02 -0.41836931757E+02  0.18009694575E+02  0.46689808742E+02  0.00000000000E+00 0.  1.
</event>
<event>
 7    1  0.6386201E-006  0.1337024E+03  0.7818608E-02  0.1337786E+00
          2   -1    0    0  502    0  0.00000000000E+00  0.00000000000E+00  0.78886198234E+02  0.78886198234E+02  0.00000000000E+00 0. -1.
          1   -1    0    0  501    0 -0.00000000000E+00 -0.00000000000E+00 -0.69653116112E+03  0.69653116112E+03  0.00000000000E+00 0. -1.
         25    2    1    2    0    0  0.27073698649E+02  0.99558482968E+02 -0.21257058017E+03  0.26731322072E+03  0.12500091891E+03 0.  0.
          2    1    1    2  501    0  0.11293362365E+02  0.42882992565E+02 -0.34659044779E+03  0.34941584049E+03  0.00000000000E+00 0. -1.
          1    1    1    2  502    0 -0.38367061014E+02 -0.14244147553E+03 -0.58483934921E+02  0.15868829814E+03  0.00000000000E+00 0. -1.
         22    1    3    3    0    0  0.18028088315E+02  0.49658693354E+02 -0.20999105963E+03  0.21653462291E+03  0.00000000000E+00 0.  1.
         22    1    3    3    0    0  0.90456103333E+01  0.49899789613E+02 -0.25795205436E+01  0.50778597814E+02  0.00000000000E+00 0.  1.
</event>
<event>
 7    1  0.6386201E-006  0.1923051E+03  0.7818608E-02  0.1246664E+00
          2   -1    0    0  502    0  0.00000000000E+00  0.00000000000E+00  0.18124041385E+04  0.18124041385E+04  0.00000000000E+00 0. -1.
          1   -1    0    0  501    0 -0.00000000000E+00 -0.00000000000E+00 -0.12145083693E+04  0.12145083693E+04  0.00000000000E+00 0. -1.
         25    2    1    2    0    0 -0.10152733967E+03  0.66393274419E+02  0.99665802071E+03  0.10117652295E+04  0.12500320706E+03 0.  0.
          2    1    1    2  501    0  0.15416771982E+03 -0.11586371132E+03 -0.11976108906E+04  0.12130391299E+04  0.00000000000E+00 0. -1.
          1    1    1    2  502    0 -0.52640380150E+02  0.49470436901E+02  0.79884863900E+03  0.80210814844E+03  0.00000000000E+00 0. -1.
         22    1    3    3    0    0 -0.13092336884E+03  0.60414173054E+02  0.82409012967E+03  0.83660943255E+03  0.00000000000E+00 0.  1.
         22    1    3    3    0    0  0.29396029168E+02  0.59791013648E+01  0.17256789105E+03  0.17515579695E+03  0.00000000000E+00 0.  1.
</event>
<event>
 7    1  0.6386201E-006  0.1955264E+03  0.7818608E-02  0.1199071E+00
          2   -1    0    0  502    0  0.00000000000E+00  0.00000000000E+00  0.57865863184E+03  0.57865863184E+03  0.00000000000E+00 0. -1.
          1   -1    0    0  501    0 -0.00000000000E+00 -0.00000000000E+00 -0.97553885663E+03  0.97553885663E+03  0.00000000000E+00 0. -1.
         25    2    1    2    0    0 -0.17030278730E+03 -0.20288174661E+03  0.11909777577E+03  0.31618533628E+03  0.12499937686E+03 0.  0.
          2    1    1    2  501    0  0.96267250059E+01  0.11644323905E+03 -0.84968724296E+03  0.85768299074E+03  0.00000000000E+00 0. -1.
          1    1    1    2  502    0  0.16067606229E+03  0.86438507568E+02  0.33370924240E+03  0.38032916145E+03  0.00000000000E+00 0. -1.
         22    1    3    3    0    0 -0.17181059248E+03 -0.13353515910E+03  0.11638085857E+03  0.24676916875E+03  0.00000000000E+00 0.  1.
         22    1    3    3    0    0  0.15078051814E+01 -0.69346587511E+02  0.27169172041E+01  0.69416167533E+02  0.00000000000E+00 0.  1.
</event>
<event>
 7    1  0.6386201E-006  0.6557035E+02  0.7818608E-02  0.1468954E+00
          2   -1    0    0  502    0  0.00000000000E+00  0.00000000000E+00  0.26668038875E+02  0.26668038875E+02  0.00000000000E+00 0. -1.
          1   -1    0    0  501    0 -0.00000000000E+00 -0.00000000000E+00 -0.22182644930E+04  0.22182644930E+04  0.00000000000E+00 0. -1.
         25    2    1    2    0    0 -0.10382913474E+02 -0.47968335416E+02 -0.14612219979E+04  0.14673797293E+04  0.12499910665E+03 0.  0.
          2    1    1    2  501    0 -0.31952121143E+02 -0.30267043609E+01 -0.70631401322E+03  0.70704284471E+03  0.00000000000E+00 0. -1.
          1    1    1    2  502    0  0.42335034617E+02  0.50995039777E+02 -0.24060442948E+02  0.70509957827E+02  0.00000000000E+00 0. -1.
         22    1    3    3    0    0 -0.39497557860E+02 -0.43321244043E+02 -0.13751333741E+04  0.13763824264E+04  0.00000000000E+00 0.  1.
         22    1    3    3    0    0  0.29114644386E+02 -0.46470913728E+01 -0.86088623834E+02  0.90997302870E+02  0.00000000000E+00 0.  1.
</event>
<event>
 7    1  0.6386201E-006  0.3678048E+02  0.7818608E-02  0.1565644E+00
          2   -1    0    0  502    0  0.00000000000E+00  0.00000000000E+00  0.12787190366E+04  0.12787190366E+04  0.00000000000E+00 0. -1.
          1   -1    0    0  501    0 -0.00000000000E+00 -0.00000000000E+00 -0.25874882636E+03  0.25874882636E+03  0.00000000000E+00 0. -1.
         25    2    1    2    0    0  0.11762252689E+02 -0.10970340276E+02  0.53061010365E+03  0.54537137016E+03  0.12499660135E+03 0.  0.
          2    1    1    2  501    0  0.26679167358E+02  0.13461421969E+02 -0.24997684717E+03  0.25175665229E+03  0.00000000000E+00 0. -1.
          1    1    1    2  502    0 -0.38441420047E+02 -0.24910816931E+01  0.73933695376E+03  0.74033984051E+03  0.00000000000E+00 0. -1.
         22    1    3    3    0    0 -0.20869893121E+02 -0.46897374617E+02  0.10367870324E+03  0.11569005874E+03  0.00000000000E+00 0.  1.
         22    1    3    3    0    0  0.32632145811E+02  0.35927034342E+02  0.42693140040E+03  0.42968131143E+03  0.00000000000E+00 0.  1.
</event>
<event>
 7    1  0.6386201E-006  0.7811313E+02  0.7818608E-02  0.1376428E+00
          2   -1    0    0  502    0  0.00000000000E+00  0.00000000000E+00  0.20343345123E+04  0.20343345123E+04  0.00000000000E+00 0. -1.
          1   -1    0    0  501    0 -0.00000000000E+00 -0.00000000000E+00 -0.23317833866E+03  0.23317833866E+03  0.00000000000E+00 0. -1.
         25    2    1    2    0    0  0.21463775196E+02 -0.12959764926E+03  0.14815135457E+03  0.23416051787E+03  0.12500431964E+03 0.  0.
          2    1    1    2  501    0 -0.31451849292E+01  0.54685918629E+02 -0.18540416971E+03  0.19332653214E+03  0.00000000000E+00 0. -1.
          1    1    1    2  502    0 -0.18318590267E+02  0.74911730633E+02  0.18384089887E+04  0.18400258009E+04  0.00000000000E+00 0. -1.
         22    1    3    3    0    0  0.33416244359E+02 -0.75719735876E+02  0.15775047436E+03  0.17814414374E+03  0.00000000000E+00 0.  1.
         22    1    3    3    0    0 -0.11952469163E+02 -0.53877913386E+02 -0.95991197915E+01  0.56016374131E+02  0.00000000000E+00 0.  1.
</event>
<event>
 7    1  0.6386201E-006  0.6481510E+02  0.7818608E-02  0.1451881E+00
          2   -1    0    0  502    0  0.00000000000E+00  0.00000000000E+00  0.96710671999E+03  0.96710671999E+03  0.00000000000E+00 0. -1.
          1   -1    0    0  501    0 -0.00000000000E+00 -0.00000000000E+00 -0.82436816497E+02  0.82436816497E+02  0.00000000000E+00 0. -1.
         25    2    1    2    0    0  0.58773029311E+02 -0.25234136700E+02  0.26129615874E+03  0.29663652684E+03  0.12500606326E+03 0.  0.
          2    1    1    2  501    0 -0.22127730315E+02 -0.29346031630E+02 -0.57839421865E+02  0.68529006581E+02  0.00000000000E+00 0. -1.
          1    1    1    2  502    0 -0.36645298996E+02  0.54580168330E+02  0.68121316662E+03  0.68437800307E+03  0.00000000000E+00 0. -1.
         22    1    3    3    0    0 -0.37425735231E+02 -0.55850773702E+01  0.43018838466E+02  0.57293099147E+02  0.00000000000E+00 0.  1.
         22    1    3    3    0    0  0.96198764542E+02 -0.19649059330E+02  0.21827732027E+03  0.23934342769E+03  0.00000000000E+00 0.  1.
</event>
<event>
 7    1  0.6386201E-006  0.1653208E+03  0.7818608E-02  0.1304463E+00
          2   -1    0    0  502    0  0.00000000000E+00  0.00000000000E+00  0.92920935106E+03  0.92920935106E+03  0.00000000000E+00 0. -1.
          1   -1    0    0  501    0 -0.00000000000E+00 -0.00000000000E+00 -0.21652237703E+03  0.21652237703E+03  0.00000000000E+00 0. -1.
         25    2    1    2    0    0 -0.10592923171E+03  0.71449315863E+02  0.12173477446E+03  0.21626422740E+03  0.12499941549E+03 0.  0.
          2    1    1    2  501    0  0.14062549418E+03 -0.10501861765E+03 -0.12272251030E+03  0.21416174776E+03  0.00000000000E+00 0. -1.
          1    1    1    2  502    0 -0.34696262468E+02  0.33569301785E+02  0.71367470988E+03  0.71530575293E+03  0.00000000000E+00 0. -1.
         22    1    3    3    0    0 -0.56149266196E+02  0.67693600307E+02  0.36100652895E+01  0.88023838750E+02  0.00000000000E+00 0. -1.
         22    1    3    3    0    0 -0.49779965519E+02  0.37557155557E+01  0.11812470917E+03  0.12824038865E+03  0.00000000000E+00 0. -1.
</event>
<event>
 7    1  0.6386201E-006  0.5868563E+02  0.7818608E-02  0.1425110E+00
          2   -1    0    0  502    0  0.00000000000E+00  0.00000000000E+00  0.28707916091E+03  0.28707916091E+03  0.00000000000E+00 0. -1.
          1   -1    0    0  501    0 -0.00000000000E+00 -0.00000000000E+00 -0.19912410912E+03  0.19912410912E+03  0.00000000000E+00 0. -1.
         25    2    1    2    0    0 -0.10889321548E+02 -0.24669487809E+02  0.11571691008E+03  0.17245799856E+03  0.12499678811E+03 0.  0.
          2    1    1    2  501    0 -0.47118579887E+02  0.34983458047E+02 -0.15921834226E+03  0.16968937332E+03  0.00000000000E+00 0. -1.
          1    1    1    2  502    0  0.58007901434E+02 -0.10313970238E+02  0.13145648398E+03  0.14405589814E+03  0.00000000000E+00 0. -1.
         22    1    3    3    0    0  0.17971650923E+02  0.36394582976E+02  0.92541059862E+02  0.10105144070E+03  0.00000000000E+00 0. -1.
         22    1    3    3    0    0 -0.28860972471E+02 -0.61064070785E+02  0.23175850218E+02  0.71406557865E+02  0.00000000000E+00 0. -1.
</event>
<event>
 7    1  0.6386201E-006  0.1807616E+03  0.7818608E-02  0.1234714E+00
          2   -1    0    0  502    0  0.00000000000E+00  0.00000000000E+00  0.83944135010E+03  0.83944135010E+03  0.00000000000E+00 0. -1.
          1   -1    0    0  501    0 -0.00000000000E+00 -0.00000000000E+00 -0.38673483409E+04  0.38673483409E+04  0.00000000000E+00 0. -1.
         25    2    1    2    0    0  0.32922213908E+01 -0.18512957411E+03  0.39827674789E+03  0.45665467024E+03  0.12500128806E+03 0.  0.
          2    1    1    2  501    0  0.84227957988E+02  0.20786751742E+02 -0.38166033735E+04  0.38175892588E+04  0.00000000000E+00 0. -1.
          1    1    1    2  502    0 -0.87520179378E+02  0.16434282236E+03  0.39041963476E+03  0.43254576205E+03  0.00000000000E+00 0. -1.
         22    1    3    3    0    0 -0.11988146282E+02 -0.69784518414E+02  0.43070495941E+02  0.82877393070E+02  0.00000000000E+00 0. -1.
         22    1    3    3    0    0  0.15280367672E+02 -0.11534505569E+03  0.35520625195E+03  0.37377727717E+03  0.00000000000E+00 0. -1.
</event>
<event>
 7    1  0.6386201E-006  0.6605269E+02  0.7818608E-02  0.1437425E+00
          2   -1    0    0  502    0  0.00000000000E+00  0.00000000000E+00  0.16308969985E+04  0.16308969985E+04  0.00000000000E+00 0. -1.
          1   -1    0    0  501    0 -0.00000000000E+00 -0.00000000000E+00 -0.26445474413E+02  0.26445474413E+02  0.00000000000E+00 0. -1.
         25    2    1    2    0    0 -0.64726028247E+02 -0.17504916114E+02  0.79218637220E+03  0.80478558407E+03  0.12499882880E+03 0.  0.
          2    1    1    2  501    0  0.42888428330E+02  0.51197403494E+02  0.37192972962E+02  0.76445461911E+02  0.00000000000E+00 0. -1.
          1    1    1    2  502    0  0.21837599917E+02 -0.33692487380E+02  0.77507217892E+03  0.77611142693E+03  0.00000000000E+00 0. -1.
         22    1    3    3    0    0 -0.80949378049E+02  0.21583759860E+02  0.67523162429E+03  0.68040899974E+03  0.00000000000E+00 0. -1.
         22    1    3    3    0    0  0.16223349802E+02 -0.39088675974E+02  0.11695474792E+03  0.12437658433E+03  0.00000000000E+00 0. -1.
</event>
<event>
 7    1  0.6386201E-006  0.9160804E+02  0.7818608E-02  0.1321820E+00
          2   -1    0    0  502    0  0.00000000000E+00  0.00000000000E+00  0.21431224846E+04  0.21431224846E+04  0.00000000000E+00 0. -1.
          1   -1    0    0  501    0 -0.00000000000E+00 -0.00000000000E+00 -0.73309333538E+03  0.73309333538E+03  0.00000000000E+00 0. -1.
         25    2    1    2    0    0 -0.17139319910E+02 -0.13866161557E+03  0.19128736664E+03  0.26783741881E+03  0.12500090544E+03 0.  0.
          2    1    1    2  501    0 -0.36061444195E+02  0.65173587170E+02 -0.69174254609E+03  0.69574116903E+03  0.00000000000E+00 0. -1.
          1    1    1    2  502    0  0.53200764106E+02  0.73488028398E+02  0.19104843287E+04  0.19126372321E+04  0.00000000000E+00 0. -1.
         22    1    3    3    0    0 -0.36854955776E+02  0.91454527249E+01  0.45954966416E+02  0.59613639456E+02  0.00000000000E+00 0. -1.
         22    1    3    3    0    0  0.19715635866E+02 -0.14780706829E+03  0.14533240022E+03  0.20822377935E+03  0.00000000000E+00 0. -1.
</event>
<event>
 7    1  0.6386201E-006  0.1052673E+03  0.7818608E-02  0.1280597E+00
          2   -1    0    0  502    0  0.00000000000E+00  0.00000000000E+00  0.27695208281E+03  0.27695208281E+03  0.00000000000E+00 0. -1.
          1   -1    0    0  501    0 -0.00000000000E+00 -0.00000000000E+00 -0.46162415394E+03  0.46162415394E+03  0.00000000000E+00 0. -1.
         25    2    1    2    0    0 -0.17279170237E+03  0.71165877954E+02 -0.31126295456E+03  0.38396874459E+03  0.12500326135E+03 0.  0.
          2    1    1    2  501    0  0.94617805386E+02 -0.45076422464E+01 -0.79931622865E+02  0.12394318161E+03  0.00000000000E+00 0. -1.
          1    1    1    2  502    0  0.78173896987E+02 -0.66658235708E+02  0.20652250629E+03  0.23066431055E+03  0.00000000000E+00 0. -1.
         22    1    3    3    0    0  0.12428817848E+02  0.33130641374E+02 -0.57294499165E+02  0.67340734667E+02  0.00000000000E+00 0. -1.
         22    1    3    3    0    0 -0.18522052022E+03  0.38035236580E+02 -0.25396845539E+03  0.31662800992E+03  0.00000000000E+00 0. -1.
</event>
<event>
 7    1  0.6386201E-006  0.9139349E+02  0.7818608E-02  0.1370686E+00
          2   -1    0    0  502    0  0.00000000000E+00  0.00000000000E+00  0.19592728549E+04  0.19592728549E+04  0.00000000000E+00 0. -1.
          1   -1    0    0  501    0 -0.00000000000E+00 -0.00000000000E+00 -0.23339096294E+02  0.23339096294E+02  0.00000000000E+00 0. -1.
         25    2    1    2    0    0 -0.15940698171E+02  0.43085378419E+01  0.12897961858E+04  0.12959444172E+04  0.12500024832E+03 0.  0.
          2    1    1    2  501    0 -0.86831084225E+02  0.28515474005E+02  0.12717003831E+03  0.15660455961E+03  0.00000000000E+00 0. -1.
          1    1    1    2  502    0  0.10277178240E+03 -0.32824011847E+02  0.51896753447E+03  0.53006297441E+03  0.00000000000E+00 0. -1.
         22    1    3    3    0    0  0.70332252192E+01 -0.31678645807E+02  0.11322671897E+04  0.11327320918E+04  0.00000000000E+00 0. -1.
         22    1    3    3    0    0 -0.22973923390E+02  0.35987183649E+02  0.15752899609E+03  0.16321232537E+03  0.00000000000E+00 0. -1.
</event>
<event>
 7    1  0.6386201E-006  0.5286481E+02  0.7818608E-02  0.1448781E+00
          2   -1    0    0  502    0  0.00000000000E+00  0.00000000000E+00  0.30454932950E+03  0.30454932950E+03  0.00000000000E+00 0. -1.
          1   -1    0    0  501    0 -0.00000000000E+00 -0.00000000000E+00 -0.41937536372E+03  0.41937536372E+03  0.00000000000E+00 0. -1.
         25    2    1    2    0    0 -0.78300095888E+01  0.67469464890E+01 -0.13564419381E+03  0.18474755534E+03  0.12500192620E+03 0.  0.
          2    1    1    2  501    0 -0.45748587444E+02 -0.57012828410E+01 -0.25452549243E+03  0.25866709140E+03  0.00000000000E+00 0. -1.
          1    1    1    2  502    0  0.53578597032E+02 -0.10456636479E+01  0.27534365201E+03  0.28051004648E+03  0.00000000000E+00 0. -1.
         22    1    3    3    0    0 -0.33122627956E+02  0.22430079516E+02  0.56083728938E+01  0.40393945046E+02  0.00000000000E+00 0. -1.
         22    1    3    3    0    0  0.25292618368E+02 -0.15683133028E+02 -0.14125256670E+03  0.14435361030E+03  0.00000000000E+00 0. -1.
</event>
<event>
 7    1  0.6386201E-006  0.9168203E+02  0.7818608E-02  0.1376893E+00
          2   -1    0    0  502    0  0.00000000000E+00  0.00000000000E+00  0.22099844805E+04  0.22099844805E+04  0.00000000000E+00 0. -1.
          1   -1    0    0  501    0 -0.00000000000E+00 -0.00000000000E+00 -0.15387908424E+03  0.15387908424E+03  0.00000000000E+00 0. -1.
         25    2    1    2    0    0  0.70661769419E+02  0.61729155384E+02  0.12264729059E+04  0.12363917127E+04  0.12500041593E+03 0.  0.
          2    1    1    2  501    0 -0.37993355712E+02  0.26795202148E+02 -0.14295124802E+03  0.15032144640E+03  0.00000000000E+00 0. -1.
          1    1    1    2  502    0 -0.32668413707E+02 -0.88524357532E+02  0.97258373845E+03  0.97715040573E+03  0.00000000000E+00 0. -1.
         22    1    3    3    0    0  0.94795921126E+01  0.15997611889E+02  0.19285996836E+02  0.26790593997E+02  0.00000000000E+00 0.  1.
         22    1    3    3    0    0  0.61182177306E+02  0.45731543496E+02  0.12071869090E+04  0.12096011187E+04  0.00000000000E+00 0.  1.
</event>
<event>
 7    1  0.6386201E-006  0.1178966E+03  0.7818608E-02  0.1296218E+00
          2   -1    0    0  502    0  0.00000000000E+00  0.00000000000E+00  0.48370190191E+02  0.48370190191E+02  0.00000000000E+00 0. -1.
          1   -1    0    0  501    0 -0.00000000000E+00 -0.00000000000E+00 -0.85557070991E+03  0.85557070991E+03  0.00000000000E+00 0. -1.
         25    2    1    2    0    0 -0.61335818183E+02 -0.32316059550E+02 -0.12601368466E+03  0.19055403166E+03  0.12499991985E+03 0.  0.
          2    1    1    2  501    0  0.82689756715E+02  0.10216496217E+03 -0.52117634269E+03  0.53749423768E+03  0.00000000000E+00 0. -1.
          1    1    1    2  502    0 -0.21353938532E+02 -0.69848902619E+02 -0.16001049237E+03  0.17589263076E+03  0.00000000000E+00 0. -1.
         22    1    3    3    0    0 -0.42090480063E+02 -0.31528072143E+02 -0.15048627728E+03  0.15941062541E+03  0.00000000000E+00 0.  1.
         22    1    3    3    0    0 -0.19245338119E+02 -0.78798740682E+00  0.24472592616E+02  0.31143406250E+02  0.00000000000E+00 0.  1.
</event>
<event>
 7    1  0.6386201E-006  0.7200310E+02  0.7818608E-02  0.1501766E+00
          2   -1    0    0  502    0  0.00000000000E+00  0.00000000000E+00  0.11898517704E+04  0.11898517704E+04  0.00000000000E+00 0. -1.
          1   -1    0    0  501    0 -0.00000000000E+00 -0.00000000000E+00 -0.37502381982E+02  0.37502381982E+02  0.00000000000E+00 0. -1.
         25    2    1    2    0    0  0.30789262535E+02  0.49808188025E+02  0.19621459603E+03  0.23990386712E+03  0.12499945392E+03 0.  0.
          2    1    1    2  501    0  0.23210083292E+02 -0.69730867515E+00 -0.48298303212E+01  0.23717535006E+02  0.00000000000E+00 0. -1.
          1    1    1    2  502    0 -0.53999345827E+02 -0.49110879350E+02  0.96096462269E+03  0.96373275024E+03  0.00000000000E+00 0. -1.
         22    1    3    3    0    0  0.56275873183E+02  0.60074384626E+02  0.19582719180E+03  0.21242456223E+03  0.00000000000E+00 0.  1.
         22    1    3    3    0    0 -0.25486610648E+02 -0.10266196601E+02  0.38740422790E+00  0.27479304885E+02  0.00000000000E+00 0.  1.
</event>
<event>
 7    1  0.6386201E-006  0.5657024E+02  0.7818608E-02  0.1435081E+00
          2   -1    0    0  502    0  0.00000000000E+00  0.00000000000E+00  0.30364352926E+04  0.30364352926E+04  0.00000000000E+00 0. -1.
          1   -1    0    0  501    0 -0.00000000000E+00 -0.00000000000E+00 -0.17599562569E+02  0.17599562569E+02  0.00000000000E+00 0. -1.
         25    2    1    2    0    0 -0.75976810774E+01 -0.95890441610E+02  0.51819374429E+03  0.54166908913E+03  0.12501177523E+03 0.  0.
          2    1    1    2  501    0  0.72232622063E+01  0.48178541836E+02  0.99860098894E+02  0.11110979597E+03  0.00000000000E+00 0. -1.
          1    1    1    2  502    0  0.37441887112E+00  0.47711899774E+02  0.24007818868E+04  0.24012559700E+04  0.00000000000E+00 0. -1.
         22    1    3    3    0    0 -0.23001849818E+02 -0.96560755473E+02  0.20172015569E+03  0.22482011877E+03  0.00000000000E+00 0.  1.
         22    1    3    3    0    0  0.15404168741E+02  0.67031386341E+00  0.31647358860E+03  0.31684897036E+03  0.00000000000E+00 0.  1.
</event>
<event>
 7    1  0.6386201E-006  0.3825704E+02  0.7818608E-02  0.1528406E+00
          2   -1    0    0  502    0  0.00000000000E+00  0.00000000000E+00  0.58409209964E+03  0.58409209964E+03  0.00000000000E+00 0. -1.
          1   -1    0    0  501    0 -0.00000000000E+00 -0.00000000000E+00 -0.12426284371E+04  0.12426284371E+04  0.00000000000E+00 0. -1.
         25    2    1    2    0    0 -0.28293086538E+02 -0.57556670020E+02  0.12248085400E+03  0.18638487301E+03  0.12499796911E+03 0.  0.
          2    1    1    2  501    0  0.30672992860E+02  0.19836417035E+02 -0.12095690023E+04  0.12101204433E+04  0.00000000000E+00 0. -1.
          1    1    1    2  502    0 -0.23799063228E+01  0.37720252985E+02  0.42855181077E+03  0.43021522050E+03  0.00000000000E+00 0. -1.
         22    1    3    3    0    0 -0.40855449722E+02 -0.47233375830E+02 -0.38033037319E+00  0.62452415609E+02  0.00000000000E+00 0.  1.
         22    1    3    3    0    0  0.12562363184E+02 -0.10323294190E+02  0.12286118438E+03  0.12393245740E+03  0.00000000000E+00 0.  1.
</event>
<event>
 7    1  0.6386201E-006  0.2566137E+03  0.7818608E-02  0.1139654E+00
          2   -1    0    0  502    0  0.00000000000E+00  0.00000000000E+00  0.34805824288E+04  0.34805824288E+04  0.00000000000E+00 0. -1.
          1   -1    0    0  501    0 -0.00000000000E+00 -0.00000000000E+00 -0.14779998148E+04  0.14779998148E+04  0.00000000000E+00 0. -1.
         25    2    1    2    0    0  0.61247213862E+02 -0.12627380047E+03 -0.26300437685E+03  0.32325208365E+03  0.12499725376E+03 0.  0.
          2    1    1    2  501    0 -0.12347068942E+03 -0.12522511286E+03 -0.11734467626E+04  0.11865511555E+04  0.00000000000E+00 0. -1.
          1    1    1    2  502    0  0.62223475562E+02  0.25149891333E+03  0.34390337535E+04  0.34487790045E+04  0.00000000000E+00 0. -1.
         22    1    3    3    0    0  0.71949007679E+02 -0.14459083296E+03 -0.20176314680E+03  0.25844058522E+03  0.00000000000E+00 0.  1.
         22    1    3    3    0    0 -0.10701793817E+02  0.18317032490E+02 -0.61241230050E+02  0.64811498426E+02  0.00000000000E+00 0.  1.
</event>
<event>
 7    1  0.6386201E-006  0.7140772E+02  0.7818608E-02  0.1361311E+00
          2   -1    0    0  502    0  0.00000000000E+00  0.00000000000E+00  0.13215374891E+04  0.13215374891E+04  0.00000000000E+00 0. -1.
          1   -1    0    0  501    0 -0.00000000000E+00 -0.00000000000E+00 -0.68350021759E+02  0.68350021759E+02  0.00000000000E+00 0. -1.
         25    2    1    2    0    0  0.43183118619E+02 -0.56679299324E+02  0.43554598617E+03  0.45869655605E+03  0.12499959902E+03 0.  0.
          2    1    1    2  501    0  0.27948247031E+02  0.65711173612E+02 -0.32198584221E+02  0.78331422018E+02  0.00000000000E+00 0. -1.
          1    1    1    2  502    0 -0.71131365650E+02 -0.90318742883E+01  0.84984006543E+03  0.85285953283E+03  0.00000000000E+00 0. -1.
         22    1    3    3    0    0  0.96014427927E+01 -0.92549226693E+02  0.31692519881E+03  0.33030157237E+03  0.00000000000E+00 0.  1.
         22    1    3    3    0    0  0.33581675826E+02  0.35869927370E+02  0.11862078736E+03  0.12839498368E+03  0.00000000000E+00 0.  1.
</event>
<event>
 7    1  0.6386201E-006  0.7531587E+02  0.7818608E-02  0.1402634E+00
          2   -1    0    0  502    0  0.00000000000E+00  0.00000000000E+00  0.86093892222E+03  0.86093892222E+03  0.00000000000E+00 0. -1.
          1   -1    0    0  501    0 -0.00000000000E+00 -0.00000000000E+00 -0.19242882741E+03  0.19242882741E+03  0.00000000000E+00 0. -1.
         25    2    1    2    0    0  0.52251089374E+01  0.87902878758E+02  0.33133148875E+03  0.36491432656E+03  0.12501076929E+03 0.  0.
          2    1    1    2  501    0 -0.40567150680E+02 -0.21720272997E+02 -0.16981456392E+03  0.17593876802E+03  0.00000000000E+00 0. -1.
          1    1    1    2  502    0  0.35342041743E+02 -0.66182605762E+02  0.50699316998E+03  0.51251465504E+03  0.00000000000E+00 0. -1.
         22    1    3    3    0    0 -0.49818916119E+01  0.11681922158E+03  0.21647196322E+03  0.24603182850E+03  0.00000000000E+00 0. -1.
         22    1    3    3    0    0  0.10207000549E+02 -0.28916342819E+02  0.11485952553E+03  0.11888249807E+03  0.00000000000E+00 0. -1.
</event>
<event>
 7    1  0.6386201E-006  0.7120680E+02  0.7818608E-02  0.1427984E+00
          2   -1    0    0  502    0  0.00000000000E+00  0.00000000000E+00  0.94041305936E+02  0.94041305936E+02  0.00000000000E+00 0. -1.
          1   -1    0    0  501    0 -0.00000000000E+00 -0.00000000000E+00 -0.10129172322E+04  0.10129172322E+04  0.00000000000E+00 0. -1.
         25    2    1    2    0    0 -0.18846413294E+02  0.39746805119E+02 -0.68120487305E+02  0.14900086683E+03  0.12500344680E+03 0.  0.
          2    1    1    2  501    0  0.95408188099E+01  0.38841814761E+02 -0.87443813971E+03  0.87535237132E+03  0.00000000000E+00 0. -1.
          1    1    1    2  502    0  0.93055944844E+01 -0.78588619881E+02  0.23682700789E+02  0.82605299952E+02  0.00000000000E+00 0. -1.
         22    1    3    3    0    0 -0.13731551867E+01 -0.24315697533E+02 -0.78139172522E+02  0.81846618648E+02  0.00000000000E+00 0.  1.
         22    1    3    3    0    0 -0.17473258108E+02  0.64062502652E+02  0.10018685217E+02  0.67154248178E+02  0.00000000000E+00 0.  1.
</event>
<event>
 7    1  0.6386201E-006  0.1183480E+03  0.7818608E-02  0.1313398E+00
          2   -1    0    0  502    0  0.00000000000E+00  0.00000000000E+00  0.13427646787E+04  0.13427646787E+04  0.00000000000E+00 0. -1.
          1   -1    0    0  501    0 -0.00000000000E+00 -0.00000000000E+00 -0.17371812358E+03  0.17371812358E+03  0.00000000000E+00 0. -1.
         25    2    1    2    0    0  0.10914426736E+03  0.85869291714E+02  0.12776575363E+03  0.22635135177E+03  0.12499936116E+03 0.  0.
          2    1    1    2  501    0 -0.11458775747E+03 -0.23929403069E+02 -0.95854223464E+02  0.15129772850E+03  0.00000000000E+00 0. -1.
          1    1    1    2  502    0  0.54434901120E+01 -0.61939888645E+02  0.11371350250E+04  0.11388337220E+04  0.00000000000E+00 0. -1.
         22    1    3    3    0    0  0.31921085488E+02  0.86878164188E+02  0.11572936665E+03  0.14818926215E+03  0.00000000000E+00 0. -1.
         22    1    3    3    0    0  0.77223181874E+02 -0.10088724747E+01  0.12036386978E+02  0.78162089621E+02  0.00000000000E+00 0. -1.
</event>
<event>
 7    1  0.6386201E-006  0.1121806E+03  0.7818608E-02  0.1443038E+00
          2   -1    0    0  502    0  0.00000000000E+00  0.00000000000E+00  0.22403152387E+04  0.22403152387E+04  0.00000000000E+00 0. -1.
          1   -1    0    0  501    0 -0.00000000000E+00 -0.00000000000E+00 -0.17605708503E+03  0.17605708503E+03  0.00000000000E+00 0. -1.
         25    2    1    2    0    0  0.11334872316E+03 -0.64841035185E+02  0.39155662995E+03  0.43126994399E+03  0.12499950900E+03 0.  0.
          2    1    1    2  501    0 -0.22622730647E+02  0.14660301798E+01 -0.15369401662E+03  0.15535696937E+03  0.00000000000E+00 0. -1.
          1    1    1    2  502    0 -0.90725992509E+02  0.63375005006E+02  0.18263955404E+04  0.18297454104E+04  0.00000000000E+00 0. -1.
         22    1    3    3    0    0  0.11734189429E+03 -0.91670200993E+02  0.28796183248E+03  0.32418291576E+03  0.00000000000E+00 0.  1.
         22    1    3    3    0    0 -0.39931711299E+01  0.26829165808E+02  0.10359479746E+03  0.10708702823E+03  0.00000000000E+00 0.  1.
</event>
<event>
 7    1  0.6386201E-006  0.1381628E+03  0.7818608E-02  0.1256713E+00
          2   -1    0    0  502    0  0.00000000000E+00  0.00000000000E+00  0.32372456429E+03  0.32372456429E+03  0.00000000000E+00 0. -1.
          1   -1    0    0  501    0 -0.00000000000E+00 -0.00000000000E+00 -0.92954730280E+03  0.92954730280E+03  0.00000000000E+00 0. -1.
         25    2    1    2    0    0  0.42843558606E+02  0.27825868849E+02 -0.39211421552E+03  0.41471465633E+03  0.12499935469E+03 0.  0.
          2    1    1    2  501    0  0.82855169280E+02  0.37553813664E+02 -0.50580023186E+03  0.51391550137E+03  0.00000000000E+00 0. -1.
          1    1    1    2  502    0 -0.12569872789E+03 -0.65379682513E+02  0.29209170887E+03  0.32464170938E+03  0.00000000000E+00 0. -1.
         22    1    3    3    0    0  0.14348081063E+02 -0.46023104263E+02 -0.22074135525E+03  0.22594410697E+03  0.00000000000E+00 0. -1.
         22    1    3    3    0    0  0.28495477543E+02  0.73848973112E+02 -0.17137286027E+03  0.18877054937E+03  0.00000000000E+00 0. -1.
</event>
<event>
 7    1  0.6386201E-006  0.4944934E+02  0.7818608E-02  0.1501797E+00
          2   -1    0    0  502    0  0.00000000000E+00  0.00000000000E+00  0.16523844718E+04  0.16523844718E+04  0.00000000000E+00 0. -1.
          1   -1    0    0  501    0 -0.00000000000E+00 -0.00000000000E+00 -0.23642948433E+03  0.23642948433E+03  0.00000000000E+00 0. -1.
         25    2    1    2    0    0 -0.16670300210E+02 -0.54190006857E+01  0.38887048086E+03  0.40884339132E+03  0.12500161303E+03 0.  0.
          2    1    1    2  501    0 -0.33544637061E+02 -0.41804059729E+01 -0.22465672626E+03  0.22718574586E+03  0.00000000000E+00 0. -1.
          1    1    1    2  502    0  0.50214937271E+02  0.95994066586E+01  0.12517412329E+04  0.12527848189E+04  0.00000000000E+00 0. -1.
         22    1    3    3    0    0  0.28702454279E+02  0.30571061030E+02  0.29901918939E+03  0.30194518754E+03  0.00000000000E+00 0.  1.
         22    1    3    3    0    0 -0.45372754489E+02 -0.35990061716E+02  0.89851291474E+02  0.10689820378E+03  0.00000000000E+00 0.  1.
</event>
<event>
 7    1  0.6386201E-006  0.6953728E+02  0.7818608E-02  0.1382827E+00
          2   -1    0    0  502    0  0.00000000000E+00  0.00000000000E+00  0.62570073365E+02  0.62570073365E+02  0.00000000000E+00 0. -1.
          1   -1    0    0  501    0 -0.00000000000E+00 -0.00000000000E+00 -0.13207279947E+04  0.13207279947E+04  0.00000000000E+00 0. -1.
         25    2    1    2    0    0 -0.21568001601E+02  0.11596566255E+02 -0.69224223681E+03  0.70386327605E+03  0.12499815166E+03 0.  0.
          2    1    1    2  501    0  0.66086964866E+02  0.41821550618E+02 -0.59782980823E+03  0.60292371709E+03  0.00000000000E+00 0. -1.
          1    1    1    2  502    0 -0.44518963265E+02 -0.53418116873E+02  0.31914123671E+02  0.76511074951E+02  0.00000000000E+00 0. -1.
         22    1    3    3    0    0 -0.31772586933E+02 -0.27033263459E+02 -0.61922960057E+03  0.62063321925E+03  0.00000000000E+00 0. -1.
         22    1    3    3    0    0  0.10204585333E+02  0.38629829714E+02 -0.73012636235E+02  0.83230056804E+02  0.00000000000E+00 0. -1.
</event>
<event>
 7    1  0.6386201E-006  0.1539374E+03  0.7818608E-02  0.1281864E+00
          2   -1    0    0  502    0  0.00000000000E+00  0.00000000000E+00  0.22984884276E+04  0.22984884276E+04  0.00000000000E+00 0. -1.
          1   -1    0    0  501    0 -0.00000000000E+00 -0.00000000000E+00 -0.41962562567E+03  0.41962562567E+03  0.00000000000E+00 0. -1.
         25    2    1    2    0    0 -0.90246502947E+02  0.16067741503E+03  0.12501694519E+04  0.12698457675E+04  0.12499180732E+03 0.  0.
          2    1    1    2  501    0  0.11520964274E+03 -0.10174571011E+03 -0.39433898129E+03  0.42323596666E+03  0.00000000000E+00 0. -1.
          1    1    1    2  502    0 -0.24963139789E+02 -0.58931704915E+02  0.10230323314E+04  0.10250323191E+04  0.00000000000E+00 0. -1.
         22    1    3    3    0    0 -0.98230568976E+02  0.17755790517E+03  0.11749085300E+04  0.11923028593E+04  0.00000000000E+00 0. -1.
         22    1    3    3    0    0  0.79840660293E+01 -0.16880490142E+02  0.75260921873E+02  0.77542908244E+02  0.00000000000E+00 0. -1.
</event>
<event>
 7    1  0.6386201E-006  0.1073832E+03  0.7818608E-02  0.1346906E+00
          2   -1    0    0  502    0  0.00000000000E+00  0.00000000000E+00  0.84086045840E+03  0.84086045840E+03  0.00000000000E+00 0. -1.
          1   -1    0    0  501    0 -0.00000000000E+00 -0.00000000000E+00 -0.15833839046E+04  0.15833839046E+04  0.00000000000E+00 0. -1.
         25    2    1    2    0    0  0.27912497303E+02  0.11607137671E+03 -0.48991447256E+02  0.17965744312E+03  0.12499985187E+03 0.  0.
          2    1    1    2  501    0  0.21926965821E+02 -0.10509330348E+03 -0.14662552623E+04  0.14701802231E+04  0.00000000000E+00 0. -1.
          1    1    1    2  502    0 -0.49839463124E+02 -0.10978073236E+02  0.77272326337E+03  0.77440669673E+03  0.00000000000E+00 0. -1.
         22    1    3    3    0    0  0.72225865991E+02  0.57611184062E+02 -0.52413527912E+02  0.10622053547E+03  0.00000000000E+00 0. -1.
         22    1    3    3    0    0 -0.44313368688E+02  0.58460192650E+02  0.34220806564E+01  0.73436907650E+02  0.00000000000E+00 0. -1.
</event>
<event>
 7    1  0.6386201E-006  0.6654499E+02  0.7818608E-02  0.1375617E+00
          2   -1    0    0  502    0  0.00000000000E+00  0.00000000000E+00  0.94195644979E+03  0.94195644979E+03  0.00000000000E+00 0. -1.
          1   -1    0    0  501    0 -0.00000000000E+00 -0.00000000000E+00 -0.26844446769E+03  0.26844446769E+03  0.00000000000E+00 0. -1.
         25    2    1    2    0    0 -0.75915803844E+02 -0.24327234975E+02  0.52824927262E+03  0.54865923441E+03  0.12499855138E+03 0.  0.
          2    1    1    2  501    0  0.20785350196E+02  0.63215547089E+02 -0.25105396126E+03  0.25972356004E+03  0.00000000000E+00 0. -1.
          1    1    1    2  502    0  0.55130453648E+02 -0.38888312114E+02  0.39631667074E+03  0.40201812303E+03  0.00000000000E+00 0. -1.
         22    1    3    3    0    0  0.21279976024E+02 -0.40451062726E+02  0.23190080821E+03  0.23636224467E+03  0.00000000000E+00 0. -1.
         22    1    3    3    0    0 -0.97195779868E+02  0.16123827751E+02  0.29634846441E+03  0.31229698975E+03  0.00000000000E+00 0. -1.
</event>
<event>
 7    1  0.6386201E-006  0.3423879E+02  0.7818608E-02  0.1560681E+00
          2   -1    0    0  502    0  0.00000000000E+00  0.00000000000E+00  0.19780412068E+04  0.19780412068E+04  0.00000000000E+00 0. -1.
          1   -1    0    0  501    0 -0.00000000000E+00 -0.00000000000E+00 -0.75248830383E+01  0.75248830383E+01  0.00000000000E+00 0. -1.
         25    2    1    2    0    0 -0.40318363354E+01  0.16057968859E+02  0.65467662242E+03  0.66670882048E+03  0.12500022916E+03 0.  0.
          2    1    1    2  501    0  0.27795983590E+02 -0.39131279721E+02  0.48791195393E+03  0.49026722157E+03  0.00000000000E+00 0. -1.
          1    1    1    2  502    0 -0.23764147254E+02  0.23073310862E+02  0.82792774741E+03  0.82859004780E+03  0.00000000000E+00 0. -1.
         22    1    3    3    0    0  0.10215150544E+02 -0.50332800283E+02  0.17942313394E+03  0.18662904671E+03  0.00000000000E+00 0.  1.
         22    1    3    3    0    0 -0.14246986879E+02  0.66390769141E+02  0.47525348849E+03  0.48007977377E+03  0.00000000000E+00 0.  1.
</event>
<event>
 7    1  0.6386201E-006  0.6639140E+02  0.7818608E-02  0.1486943E+00
          2   -1    0    0  502    0  0.00000000000E+00  0.00000000000E+00  0.47289702895E+03  0.47289702895E+03  0.00000000000E+00 0. -1.
          1   -1    0    0  501    0 -0.00000000000E+00 -0.00000000000E+00 -0.20999511903E+03  0.20999511903E+03  0.00000000000E+00 0. -1.
         25    2    1    2    0    0 -0.38240275946E+02  0.10112455726E+02  0.17588497274E+03  0.21937422786E+03  0.12499979099E+03 0.  0.
          2    1    1    2  501    0  0.66046639716E+02 -0.12463175579E+02 -0.18150499474E+03  0.19354987078E+03  0.00000000000E+00 0. -1.
          1    1    1    2  502    0 -0.27806363770E+02  0.23507198530E+01  0.26852193192E+03  0.26996804935E+03  0.00000000000E+00 0. -1.
         22    1    3    3    0    0  0.31732734815E+02 -0.16442157861E+02  0.12206586954E+03  0.12719035938E+03  0.00000000000E+00 0.  1.
         22    1    3    3    0    0 -0.69973010761E+02  0.26554613587E+02  0.53819103200E+02  0.92183868475E+02  0.00000000000E+00 0.  1.
</event>
<event>
 7    1  0.6386201E-006  0.1443950E+03  0.7818608E-02  0.1312882E+00
          2   -1    0    0  502    0  0.00000000000E+00  0.00000000000E+00  0.71078982342E+03  0.71078982342E+03  0.00000000000E+00 0. -1.
          1   -1    0    0  501    0 -0.00000000000E+00 -0.00000000000E+00 -0.34022360606E+03  0.34022360606E+03  0.00000000000E+00 0. -1.
         25    2    1    2    0    0 -0.22365964102E+02  0.12367932626E+03  0.14887876944E+03  0.23148954735E+03  0.12500284175E+03 0.  0.
          2    1    1    2  501    0  0.44394003894E+02  0.25507226976E+02 -0.28567343563E+03  0.29022535733E+03  0.00000000000E+00 0. -1.
          1    1    1    2  502    0 -0.22028039792E+02 -0.14918655324E+03  0.50736088355E+03  0.52929852480E+03  0.00000000000E+00 0. -1.
         22    1    3    3    0    0  0.20094520366E+02 -0.69736455875E+01  0.69815502021E+02  0.72983736572E+02  0.00000000000E+00 0.  1.
         22    1    3    3    0    0 -0.42460484468E+02  0.13065297185E+03  0.79063267421E+02  0.15850581078E+03  0.00000000000E+00 0.  1.
</event>
<event>
 7    1  0.6386201E-006  0.3397185E+03  0.7818608E-02  0.1255831E+00
          2   -1    0    0  502    0  0.00000000000E+00  0.00000000000E+00  0.26053871145E+04  0.26053871145E+04  0.00000000000E+00 0. -1.
          1   -1    0    0  501    0 -0.00000000000E+00 -0.00000000000E+00 -0.73465002685E+03  0.73465002685E+03  0.00000000000E+00 0. -1.
         25    2    1    2    0    0  0.23551883839E+03  0.22335732068E+03 -0.71109963964E+02  0.35502041288E+03  0.12500100260E+03 0.  0.
          2    1    1    2  501    0 -0.13339804472E+02  0.34855329590E+02 -0.50912256550E+03  0.51048861994E+03  0.00000000000E+00 0. -1.
          1    1    1    2  502    0 -0.22217903392E+03 -0.25821265027E+03  0.24509696171E+04  0.24745281085E+04  0.00000000000E+00 0. -1.
         22    1    3    3    0    0  0.54618297870E+02  0.53932380528E+01 -0.44239541591E+02  0.70493847385E+02  0.00000000000E+00 0. -1.
         22    1    3    3    0    0  0.18090054052E+03  0.21796408262E+03 -0.26870422374E+02  0.28452656550E+03  0.00000000000E+00 0. -1.
</event>
<event>
 7    1  0.6386201E-006  0.8285911E+02  0.7818608E-02  0.1380969E+00
          2   -1    0    0  502    0  0.00000000000E+00  0.00000000000E+00  0.15578495491E+04  0.15578495491E+04  0.00000000000E+00 0. -1.
          1   -1    0    0  501    0 -0.00000000000E+00 -0.00000000000E+00 -0.15586570546E+04  0.15586570546E+04  0.00000000000E+00 0. -1.
         25    2    1    2    0    0  0.63485014641E+02  0.95671542255E+02  0.22726974749E+03  0.28365287976E+03  0.12499610791E+03 0.  0.
          2    1    1    2  501    0 -0.47272875183E+02 -0.15528310240E+02 -0.15287769543E+04  0.15295864896E+04  0.00000000000E+00 0. -1.
          1    1    1    2  502    0 -0.16212139457E+02 -0.80143232015E+02  0.13006997013E+04  0.13032672343E+04  0.00000000000E+00 0. -1.
         22    1    3    3    0    0 -0.11292208693E+02 -0.22525988003E+02  0.14628073057E+02  0.29136139656E+02  0.00000000000E+00 0. -1.
         22    1    3    3    0    0  0.74777223333E+02  0.11819753026E+03  0.21264167443E+03  0.25451674011E+03  0.00000000000E+00 0. -1.
</event>
<event>
 7    1  0.6386201E-006  0.9001100E+02  0.7818608E-02  0.1373295E+00
          2   -1    0    0  502    0  0.00000000000E+00  0.00000000000E+00  0.86798825558E+03  0.86798825558E+03  0.00000000000E+00 0. -1.
          1   -1    0    0  501    0 -0.00000000000E+00 -0.00000000000E+00 -0.20646782911E+03  0.20646782911E+03  0.00000000000E+00 0. -1.
         25    2    1    2    0    0  0.48967827912E+02 -0.13396182771E+02  0.24719028706E+03  0.28161994132E+03  0.12501778854E+03 0.  0.
          2    1    1    2  501    0  0.45437360462E+02 -0.17734387692E+02 -0.18192572394E+03  0.18835081965E+03  0.00000000000E+00 0. -1.
          1    1    1    2  502    0 -0.94405188374E+02  0.31130570463E+02  0.59625586335E+03  0.60448532372E+03  0.00000000000E+00 0. -1.
         22    1    3    3    0    0  0.30241839354E+02 -0.69464208609E+02  0.14294085839E+03  0.16177742155E+03  0.00000000000E+00 0. -1.
         22    1    3    3    0    0  0.18725988558E+02  0.56068025838E+02  0.10424942866E+03  0.11984251977E+03  0.00000000000E+00 0. -1.
</event>
<event>
 7    1  0.6386201E-006  0.1054913E+03  0.7818608E-02  0.1383441E+00
          2   -1    0    0  502    0  0.00000000000E+00  0.00000000000E+00  0.97337350364E+03  0.97337350364E+03  0.00000000000E+00 0. -1.
          1   -1    0    0  501    0 -0.00000000000E+00 -0.00000000000E+00 -0.13251939980E+03  0.13251939980E+03  0.00000000000E+00 0. -1.
         25    2    1    2    0    0 -0.39041528672E+02 -0.69069351794E+02  0.34881916689E+03  0.37894058417E+03  0.12500535517E+03 0.  0.
          2    1    1    2  501    0 -0.31124202601E+02 -0.22328868740E+02 -0.10870770987E+03  0.11525910182E+03  0.00000000000E+00 0. -1.
          1    1    1    2  502    0  0.70165731274E+02  0.91398220534E+02  0.60074264683E+03  0.61169321746E+03  0.00000000000E+00 0. -1.
         22    1    3    3    0    0  0.20663469781E+02 -0.43832855927E+00  0.24352320049E+01  0.20811090078E+02  0.00000000000E+00 0. -1.
         22    1    3    3    0    0 -0.59704998453E+02 -0.68631023234E+02  0.34638393488E+03  0.35812949409E+03  0.00000000000E+00 0. -1.
</event>
<event>
 7    1  0.6386201E-006  0.1278225E+03  0.7818608E-02  0.1383588E+00
          2   -1    0    0  502    0  0.00000000000E+00  0.00000000000E+00  0.13355310249E+04  0.13355310249E+04  0.00000000000E+00 0. -1.
          1   -1    0    0  501    0 -0.00000000000E+00 -0.00000000000E+00 -0.15983262616E+03  0.15983262616E+03  0.00000000000E+00 0. -1.
         25    2    1    2    0    0 -0.10323534482E+03  0.79334005703E+02  0.10353211983E+04  0.10509358343E+04  0.12499889350E+03 0.  0.
          2    1    1    2  501    0  0.24871852775E+02  0.19452558239E+02 -0.13654542948E+03  0.14014872598E+03  0.00000000000E+00 0. -1.
          1    1    1    2  502    0  0.78363492043E+02 -0.98786563943E+02  0.27692262993E+03  0.30427909075E+03  0.00000000000E+00 0. -1.
         22    1    3    3    0    0  0.29080066948E+02  0.20066641064E+02  0.18513305707E+03  0.18847431972E+03  0.00000000000E+00 0. -1.
         22    1    3    3    0    0 -0.13231541177E+03  0.59267364640E+02  0.85018814119E+03  0.86246151457E+03  0.00000000000E+00 0. -1.
</event>
<event>
 7    1  0.6386201E-006  0.7649224E+02  0.7818608E-02  0.1394465E+00
          2   -1    0    0  502    0  0.00000000000E+00  0.00000000000E+00  0.96489815596E+02  0.96489815596E+02  0.00000000000E+00 0. -1.
          1   -1    0    0  501    0 -0.00000000000E+00 -0.00000000000E+00 -0.79671728765E+03  0.79671728765E+03  0.00000000000E+00 0. -1.
         25    2    1    2    0    0 -0.40504605257E+01  0.47000927493E+02 -0.63892029832E+03  0.65274129321E+03  0.12500621918E+03 0.  0.
          2    1    1    2  501    0 -0.46985479823E+02  0.11373579898E+02 -0.12885896717E+03  0.13762858371E+03  0.00000000000E+00 0. -1.
          1    1    1    2  502    0  0.51035940349E+02 -0.58374507391E+02  0.67551793444E+02  0.10283722632E+03  0.00000000000E+00 0. -1.
         22    1    3    3    0    0  0.18444697259E+02  0.60808967140E+02 -0.14741323798E+03  0.16052601058E+03  0.00000000000E+00 0.  1.
         22    1    3    3    0    0 -0.22495157784E+02 -0.13808039647E+02 -0.49150706034E+03  0.49221528263E+03  0.00000000000E+00 0.  1.
</event>
<event>
 7    1  0.6386201E-006  0.5277619E+02  0.7818608E-02  0.1477184E+00
          2   -1    0    0  502    0  0.00000000000E+00  0.00000000000E+00  0.42135605811E+03  0.42135605811E+03  0.00000000000E+00 0. -1.
          1   -1    0    0  501    0 -0.00000000000E+00 -0.00000000000E+00 -0.14954155261E+03  0.14954155261E+03  0.00000000000E+00 0. -1.
         25    2    1    2    0    0  0.20634928885E+02 -0.21234070033E+02  0.14143184953E+02  0.12923558660E+03  0.12500048458E+03 0.  0.
          2    1    1    2  501    0  0.33148494392E+02  0.17751665521E+02 -0.85962692872E+02  0.93827122279E+02  0.00000000000E+00 0. -1.
          1    1    1    2  502    0 -0.53783423276E+02  0.34824045124E+01  0.34363401342E+03  0.34783490184E+03  0.00000000000E+00 0. -1.
         22    1    3    3    0    0  0.72732084429E+02 -0.22905871278E+01  0.12070719362E+02  0.73762491557E+02  0.00000000000E+00 0.  1.
         22    1    3    3    0    0 -0.52097155545E+02 -0.18943482905E+02  0.20724655908E+01  0.55473095047E+02  0.00000000000E+00 0.  1.
</event>
<event>
 7    1  0.6386201E-006  0.2793734E+03  0.7818608E-02  0.1299571E+00
          2   -1    0    0  502    0  0.00000000000E+00  0.00000000000E+00  0.19915622449E+04  0.19915622449E+04  0.00000000000E+00 0. -1.
          1   -1    0    0  501    0 -0.00000000000E+00 -0.00000000000E+00 -0.20576338368E+04  0.20576338368E+04  0.00000000000E+00 0. -1.
         25    2    1    2    0    0  0.67646955634E+02  0.25808528047E+03 -0.31362957072E+03  0.43031745442E+03  0.12500192534E+03 0.  0.
          2    1    1    2  501    0  0.29581710324E+02  0.42247638520E+01 -0.16754059708E+04  0.16756724302E+04  0.00000000000E+00 0. -1.
          1    1    1    2  502    0 -0.97228665959E+02 -0.26231004432E+03  0.19229639497E+04  0.19432061971E+04  0.00000000000E+00 0. -1.
         22    1    3    3    0    0  0.42864357153E+02  0.45176144215E+02 -0.14427221715E+03  0.15713914140E+03  0.00000000000E+00 0. -1.
         22    1    3    3    0    0  0.24782598482E+02  0.21290913626E+03 -0.16935735358E+03  0.27317831301E+03  0.00000000000E+00 0. -1.
</event>
<event>
 7    1  0.6386201E-006  0.1441116E+03  0.7818608E-02  0.1294287E+00
          2   -1    0    0  502    0  0.00000000000E+00  0.00000000000E+00  0.21281703058E+04  0.21281703058E+04  0.00000000000E+00 0. -1.
          1   -1    0    0  501    0 -0.00000000000E+00 -0.00000000000E+00 -0.74382106619E+03  0.74382106619E+03  0.00000000000E+00 0. -1.
         25    2    1    2    0    0  0.31974500823E+02  0.11450836870E+03  0.29058413888E+03  0.33793713532E+03  0.12501132131E+03 0.  0.
          2    1    1    2  501    0 -0.92729041787E+02 -0.11138895895E+03 -0.71233490672E+03  0.72692997922E+03  0.00000000000E+00 0. -1.
          1    1    1    2  502    0  0.60754540964E+02 -0.31194097431E+01  0.18061000074E+04  0.18071242574E+04  0.00000000000E+00 0. -1.
         22    1    3    3    0    0 -0.53598730914E+01  0.13086913735E+03  0.20727559925E+03  0.24519101410E+03  0.00000000000E+00 0. -1.
         22    1    3    3    0    0  0.37334373915E+02 -0.16360768651E+02  0.83308539626E+02  0.92746121218E+02  0.00000000000E+00 0. -1.
</event>
<event>
 7    1  0.6386201E-006  0.3732791E+02  0.7818608E-02  0.1541724E+00
          2   -1    0    0  502    0  0.00000000000E+00  0.00000000000E+00  0.63330363663E+03  0.63330363663E+03  0.00000000000E+00 0. -1.
          1   -1    0    0  501    0 -0.00000000000E+00 -0.00000000000E+00 -0.22405156976E+02  0.22405156976E+02  0.00000000000E+00 0. -1.
         25    2    1    2    0    0 -0.20519982087E+01 -0.59309012270E+02  0.35281198689E+03  0.37897487815E+03  0.12499556209E+03 0.  0.
          2    1    1    2  501    0 -0.17537865708E+02  0.31142688210E+02  0.31734968570E+02  0.47796987276E+02  0.00000000000E+00 0. -1.
          1    1    1    2  502    0  0.19589863917E+02  0.28166324060E+02  0.22635152420E+03  0.22893692819E+03  0.00000000000E+00 0. -1.
         22    1    3    3    0    0 -0.52313902092E+02 -0.21378867512E+02  0.73839191877E+02  0.92984012525E+02  0.00000000000E+00 0.  1.
         22    1    3    3    0    0  0.50261903884E+02 -0.37930144758E+02  0.27897279501E+03  0.28599086562E+03  0.00000000000E+00 0.  1.
</event>
<event>
 7    1  0.6386201E-006  0.6612359E+02  0.7818608E-02  0.1474335E+00
          2   -1    0    0  502    0  0.00000000000E+00  0.00000000000E+00  0.30188474178E+02  0.30188474178E+02  0.00000000000E+00 0. -1.
          1   -1    0    0  501    0 -0.00000000000E+00 -0.00000000000E+00 -0.79953693114E+03  0.79953693114E+03  0.00000000000E+00 0. -1.
         25    2    1    2    0    0  0.68428445589E+02 -0.29947570677E+02 -0.33050269912E+03  0.36116005059E+03  0.12500095544E+03 0.  0.
          2    1    1    2  501    0 -0.65631291432E+02 -0.55038747834E+00 -0.43229190010E+03  0.43724599052E+03  0.00000000000E+00 0. -1.
          1    1    1    2  502    0 -0.27971541571E+01  0.30497958156E+02 -0.65538577503E+01  0.31319364209E+02  0.00000000000E+00 0. -1.
         22    1    3    3    0    0  0.65956362873E+02 -0.33869814095E+02 -0.74474092550E+02  0.10508946937E+03  0.00000000000E+00 0. -1.
         22    1    3    3    0    0  0.24720827162E+01  0.39222434181E+01 -0.25602860657E+03  0.25607058122E+03  0.00000000000E+00 0. -1.
</event>
<event>
 7    1  0.6386201E-006  0.8570709E+02  0.7818608E-02  0.1404415E+00
          2   -1    0    0  502    0  0.00000000000E+00  0.00000000000E+00  0.91365519410E+03  0.91365519410E+03  0.00000000000E+00 0. -1.
          1   -1    0    0  501    0 -0.00000000000E+00 -0.00000000000E+00 -0.11460901097E+04  0.11460901097E+04  0.00000000000E+00 0. -1.
         25    2    1    2    0    0  0.58662704190E+02 -0.16155283599E+02 -0.14865643969E+03  0.20353440045E+03  0.12500083622E+03 0.  0.
          2    1    1    2  501    0 -0.87046125454E+02 -0.11849780656E+02 -0.96755520633E+03  0.97153513707E+03  0.00000000000E+00 0. -1.
          1    1    1    2  502    0  0.28383421264E+02  0.28005064254E+02  0.88377673042E+03  0.88467576628E+03  0.00000000000E+00 0. -1.
         22    1    3    3    0    0  0.87524891098E+02  0.13869461748E+02 -0.64397266722E+02  0.10954440420E+03  0.00000000000E+00 0.  1.
         22    1    3    3    0    0 -0.28862186908E+02 -0.30024745346E+02 -0.84259172966E+02  0.93989996250E+02  0.00000000000E+00 0.  1.
</event>
<event>
 7    1  0.6386201E-006  0.1012565E+03  0.7818608E-02  0.1320179E+00
          2   -1    0    0  502    0  0.00000000000E+00  0.00000000000E+00  0.11254958089E+04  0.11254958089E+04  0.00000000000E+00 0. -1.
          1   -1    0    0  501    0 -0.00000000000E+00 -0.00000000000E+00 -0.10791603745E+03  0.10791603745E+03  0.00000000000E+00 0. -1.
         25    2    1    2    0    0  0.37043483482E+02 -0.26047895467E+02  0.38735870252E+03  0.40954214388E+03  0.12500916235E+03 0.  0.
          2    1    1    2  501    0 -0.10459583263E+03  0.15434139163E+02 -0.65777644420E+02  0.12451987536E+03  0.00000000000E+00 0. -1.
          1    1    1    2  502    0  0.67552349147E+02  0.10613756304E+02  0.69599871337E+03  0.69934982713E+03  0.00000000000E+00 0. -1.
         22    1    3    3    0    0 -0.40115447238E+02 -0.35258757788E+02  0.19218567837E+03  0.19946870451E+03  0.00000000000E+00 0. -1.
         22    1    3    3    0    0  0.77158930720E+02  0.92108623209E+01  0.19517302415E+03  0.21007343938E+03  0.00000000000E+00 0. -1.
</event>
<event>
 7    1  0.6386201E-006  0.6977944E+02  0.7818608E-02  0.1422942E+00
          2   -1    0    0  502    0  0.00000000000E+00  0.00000000000E+00  0.16247141897E+04  0.16247141897E+04  0.00000000000E+00 0. -1.
          1   -1    0    0  501    0 -0.00000000000E+00 -0.00000000000E+00 -0.34646765901E+03  0.34646765901E+03  0.00000000000E+00 0. -1.
         25    2    1    2    0    0 -0.30233760695E+02 -0.28672509109E+02  0.34125417999E+02  0.13610982211E+03  0.12500058583E+03 0.  0.
          2    1    1    2  501    0  0.14472028628E+02 -0.39869907581E+02 -0.29314512918E+03  0.29619776485E+03  0.00000000000E+00 0. -1.
          1    1    1    2  502    0  0.15761732067E+02  0.68542416691E+02  0.15372662419E+04  0.15388742618E+04  0.00000000000E+00 0. -1.
         22    1    3    3    0    0 -0.26303394056E-02 -0.57039340170E+02 -0.26316134922E+02  0.62817396405E+02  0.00000000000E+00 0. -1.
         22    1    3    3    0    0 -0.30231130356E+02  0.28366831060E+02  0.60441552921E+02  0.73292425710E+02  0.00000000000E+00 0. -1.
</event>
<event>
 7    1  0.6386201E-006  0.5933161E+02  0.7818608E-02  0.1502432E+00
          2   -1    0    0  502    0  0.00000000000E+00  0.00000000000E+00  0.63591390095E+03  0.63591390095E+03  0.00000000000E+00 0. -1.
          1   -1    0    0  501    0 -0.00000000000E+00 -0.00000000000E+00 -0.66862907148E+03  0.66862907148E+03  0.00000000000E+00 0. -1.
         25    2    1    2    0    0 -0.80858124798E+02 -0.30082071702E+02  0.38395915006E+02  0.15665793709E+03  0.12499798230E+03 0.  0.
          2    1    1    2  501    0  0.27380145515E+02  0.60998510043E+01 -0.60757843471E+03  0.60822564470E+03  0.00000000000E+00 0. -1.
          1    1    1    2  502    0  0.53477979283E+02  0.23982220697E+02  0.53646734918E+03  0.53965939065E+03  0.00000000000E+00 0. -1.
         22    1    3    3    0    0 -0.94970642945E+02 -0.59131594851E+02  0.77612827618E+01  0.11214368480E+03  0.00000000000E+00 0.  1.
         22    1    3    3    0    0  0.14112518147E+02  0.29049523149E+02  0.30634632244E+02  0.44514252284E+02  0.00000000000E+00 0.  1.
</event>
<event>
 7    1  0.6386201E-006  0.5356226E+02  0.7818608E-02  0.1493009E+00
          2   -1    0    0  502    0  0.00000000000E+00  0.00000000000E+00  0.22721530918E+04  0.22721530918E+04  0.00000000000E+00 0. -1.
          1   -1    0    0  501    0 -0.00000000000E+00 -0.00000000000E+00 -0.45118871167E+03  0.45118871167E+03  0.00000000000E+00 0. -1.
         25    2    1    2    0    0  0.52598563733E+02 -0.52873293032E+02 -0.25618193869E+03  0.29464564042E+03  0.12499869472E+03 0.  0.
          2    1    1    2  501    0 -0.46068737213E+02  0.20364426553E+02 -0.17204184926E+03  0.17926359450E+03  0.00000000000E+00 0. -1.
          1    1    1    2  502    0 -0.65298265202E+01  0.32508866478E+02  0.22491881680E+04  0.22494325685E+04  0.00000000000E+00 0. -1.
         22    1    3    3    0    0  0.12425805076E+02 -0.34369409639E+02 -0.19538704217E+01  0.36598832773E+02  0.00000000000E+00 0. -1.
         22    1    3    3    0    0  0.40172758657E+02 -0.18503883392E+02 -0.25422806827E+03  0.25804680765E+03  0.00000000000E+00 0. -1.
</event>
<event>
 7    1  0.6386201E-006  0.4839099E+02  0.7818608E-02  0.1512198E+00
          2   -1    0    0  502    0  0.00000000000E+00  0.00000000000E+00  0.13995081545E+03  0.13995081545E+03  0.00000000000E+00 0. -1.
          1   -1    0    0  501    0 -0.00000000000E+00 -0.00000000000E+00 -0.92524065264E+03  0.92524065264E+03  0.00000000000E+00 0. -1.
         25    2    1    2    0    0 -0.51471624640E+00  0.63594291655E+02 -0.99508716648E+02  0.17196408940E+03  0.12500065796E+03 0.  0.
          2    1    1    2  501    0  0.23886850332E+02 -0.21567352722E+02 -0.78358235296E+03  0.78424297013E+03  0.00000000000E+00 0. -1.
          1    1    1    2  502    0 -0.23372134086E+02 -0.42026938933E+02  0.97801232423E+02  0.10898440857E+03  0.00000000000E+00 0. -1.
         22    1    3    3    0    0 -0.21132710665E+02 -0.11269997125E+02  0.18800624526E+02  0.30447787732E+02  0.00000000000E+00 0. -1.
         22    1    3    3    0    0  0.20617994418E+02  0.74864288780E+02 -0.11830934117E+03  0.14151630167E+03  0.00000000000E+00 0. -1.
</event>
<event>
 7    1  0.6386201E-006  0.7652620E+02  0.7818608E-02  0.1343727E+00
          2   -1    0    0  502    0  0.00000000000E+00  0.00000000000E+00  0.15692028024E+03  0.15692028024E+03  0.00000000000E+00 0. -1.
          1   -1    0    0  501    0 -0.00000000000E+00 -0.00000000000E+00 -0.21159445048E+04  0.21159445048E+04  0.00000000000E+00 0. -1.
         25    2    1    2    0    0  0.14292381406E+03  0.41797324100E+02 -0.77742651717E+03  0.80136846962E+03  0.12500080630E+03 0.  0.
          2    1    1    2  501    0 -0.71825550556E+02 -0.16043212598E+02 -0.13155856051E+04  0.13176425079E+04  0.00000000000E+00 0. -1.
          1    1    1    2  502    0 -0.71098263504E+02 -0.25754111501E+02  0.13398789773E+03  0.15385380746E+03  0.00000000000E+00 0. -1.
         22    1    3    3    0    0  0.15086270896E+03  0.52783142620E+02 -0.53010524150E+03  0.55367606428E+03  0.00000000000E+00 0.  1.
         22    1    3    3    0    0 -0.79388948966E+01 -0.10985818521E+02 -0.24732127567E+03  0.24769240534E+03  0.00000000000E+00 0.  1.
</event>
<event>
 7    1  0.6386201E-006  0.1001570E+03  0.7818608E-02  0.1424079E+00
          2   -1    0    0  502    0  0.00000000000E+00  0.00000000000E+00  0.17551557731E+04  0.17551557731E+04  0.00000000000E+00 0. -1.
          1   -1    0    0  501    0 -0.00000000000E+00 -0.00000000000E+00 -0.58342866541E+02  0.58342866541E+02  0.00000000000E+00 0. -1.
         25    2    1    2    0    0 -0.44897961733E+02 -0.68434993236E+02  0.40669832413E+03  0.43327505391E+03  0.12499828087E+03 0.  0.
          2    1    1    2  501    0  0.83913875869E+01 -0.28067369664E+02 -0.38070497540E+02  0.48037021228E+02  0.00000000000E+00 0. -1.
          1    1    1    2  502    0  0.36506574146E+02  0.96502362900E+02  0.13281850800E+04  0.13321865645E+04  0.00000000000E+00 0. -1.
         22    1    3    3    0    0  0.41876121201E+02 -0.36531282503E+02  0.18215808152E+03  0.19044608369E+03  0.00000000000E+00 0.  1.
         22    1    3    3    0    0 -0.86774082934E+02 -0.31903710733E+02  0.22454024261E+03  0.24282897022E+03  0.00000000000E+00 0.  1.
</event>
<event>
 7    1  0.6386201E-006  0.8490767E+02  0.7818608E-02  0.1359258E+00
          2   -1    0    0  502    0  0.00000000000E+00  0.00000000000E+00  0.72854366637E+03  0.72854366637E+03  0.00000000000E+00 0. -1.
          1   -1    0    0  501    0 -0.00000000000E+00 -0.00000000000E+00 -0.27901612006E+03  0.27901612006E+03  0.00000000000E+00 0. -1.
         25    2    1    2    0    0 -0.11533826771E+03  0.53866496841E+02  0.17331122129E+03  0.24872987546E+03  0.12500102416E+03 0.  0.
          2    1    1    2  501    0  0.33743834088E+02 -0.47316352098E+02 -0.23450054868E+03  0.24159468298E+03  0.00000000000E+00 0. -1.
          1    1    1    2  502    0  0.81594433619E+02 -0.65501447421E+01  0.51071687369E+03  0.51723522799E+03  0.00000000000E+00 0. -1.
         22    1    3    3    0    0 -0.28523223277E+02  0.49673468114E+02  0.14723739184E+03  0.15798695281E+03  0.00000000000E+00 0. -1.
         22    1    3    3    0    0 -0.86815044429E+02  0.41930287268E+01  0.26073829449E+02  0.90742922651E+02  0.00000000000E+00 0. -1.
</event>
<event>
 7    1  0.6386201E-006  0.1323723E+03  0.7818608E-02  0.1319942E+00
          2   -1    0    0  502    0  0.00000000000E+00  0.00000000000E+00  0.38370204217E+03  0.38370204217E+03  0.00000000000E+00 0. -1.
          1   -1    0    0  501    0 -0.00000000000E+00 -0.00000000000E+00 -0.18876044695E+04  0.18876044695E+04  0.00000000000E+00 0. -1.
         25    2    1    2    0    0 -0.26658032964E+02  0.18031731766E+03 -0.28212305368E+02  0.22281307699E+03  0.12499898934E+03 0.  0.
          2    1    1    2  501    0  0.94992620774E+01 -0.13078693096E+03 -0.17572297006E+04  0.17621156824E+04  0.00000000000E+00 0. -1.
          1    1    1    2  502    0  0.17158770887E+02 -0.49530386704E+02  0.28153957869E+03  0.28637775227E+03  0.00000000000E+00 0. -1.
         22    1    3    3    0    0 -0.61413533625E+02  0.17438145718E+03 -0.30932513205E+02  0.18744955346E+03  0.00000000000E+00 0. -1.
         22    1    3    3    0    0  0.34755500661E+02  0.59358604812E+01  0.27202078377E+01  0.35363523531E+02  0.00000000000E+00 0. -1.
</event>
<event>
 7    1  0.6386201E-006  0.8370286E+02  0.7818608E-02  0.1374817E+00
          2   -1    0    0  502    0  0.00000000000E+00  0.00000000000E+00  0.94878705282E+03  0.94878705282E+03  0.00000000000E+00 0. -1.
          1   -1    0    0  501    0 -0.00000000000E+00 -0.00000000000E+00 -0.26409844466E+03  0.26409844466E+03  0.00000000000E+00 0. -1.
         25    2    1    2    0    0  0.62412453275E+02  0.10575602166E+03  0.59484833602E+03  0.62012077178E+03  0.12500231308E+03 0.  0.
          2    1    1    2  501    0 -0.19354011065E+02 -0.48047333754E+02 -0.24492563770E+03  0.25034314856E+03  0.00000000000E+00 0. -1.
          1    1    1    2  502    0 -0.43058442210E+02 -0.57708687910E+02  0.33476590984E+03  0.34242157715E+03  0.00000000000E+00 0. -1.
         22    1    3    3    0    0  0.27782173928E+02 -0.18597033996E+02  0.49701653600E+02  0.59899526143E+02  0.00000000000E+00 0.  1.
         22    1    3    3    0    0  0.34630279347E+02  0.12435305566E+03  0.54514668242E+03  0.56022124563E+03  0.00000000000E+00 0.  1.
</event>
<event>
 7    1  0.6386201E-006  0.1208653E+03  0.7818608E-02  0.1315183E+00
          2   -1    0    0  502    0  0.00000000000E+00  0.00000000000E+00  0.63179656879E+03  0.63179656879E+03  0.00000000000E+00 0. -1.
          1   -1    0    0  501    0 -0.00000000000E+00 -0.00000000000E+00 -0.14236847246E+04  0.14236847246E+04  0.00000000000E+00 0. -1.
         25    2    1    2    0    0 -0.21987815596E+02 -0.65181305737E+02 -0.97901812013E+01  0.14301516798E+03  0.12500169588E+03 0.  0.
          2    1    1    2  501    0  0.69472824298E+02  0.10171314790E+03 -0.13428677357E+04  0.13485050217E+04  0.00000000000E+00 0. -1.
          1    1    1    2  502    0 -0.47485008703E+02 -0.36531842165E+02  0.56076976113E+03  0.56396110375E+03  0.00000000000E+00 0. -1.
         22    1    3    3    0    0 -0.43401483298E+02 -0.54400781194E+02  0.45229527720E+02  0.82999059782E+02  0.00000000000E+00 0. -1.
         22    1    3    3    0    0  0.21413667702E+02 -0.10780524543E+02 -0.55019708921E+02  0.60016108202E+02  0.00000000000E+00 0. -1.
</event>
<event>
 7    1  0.6386201E-006  0.1290712E+03  0.7818608E-02  0.1263574E+00
          2   -1    0    0  502    0  0.00000000000E+00  0.00000000000E+00  0.42467586183E+03  0.42467586183E+03  0.00000000000E+00 0. -1.
          1   -1    0    0  501    0 -0.00000000000E+00 -0.00000000000E+00 -0.92122860010E+03  0.92122860010E+03  0.00000000000E+00 0. -1.
         25    2    1    2    0    0  0.17857917105E+03  0.97251415782E+02 -0.61608341941E+03  0.66070575802E+03  0.12499984322E+03 0.  0.
          2    1    1    2  501    0 -0.90944279582E+02 -0.39206160909E+01 -0.26485066590E+03  0.28005733064E+03  0.00000000000E+00 0. -1.
          1    1    1    2  502    0 -0.87634891467E+02 -0.93330799691E+02  0.38438134705E+03  0.40514137327E+03  0.00000000000E+00 0. -1.
         22    1    3    3    0    0  0.11526240696E+03  0.10735840093E+02 -0.43617853968E+03  0.45127862701E+03  0.00000000000E+00 0. -1.
         22    1    3    3    0    0  0.63316764090E+02  0.86515575689E+02 -0.17990487974E+03  0.20942713101E+03  0.00000000000E+00 0. -1.
</event>
<event>
 7    1  0.6386201E-006  0.2448460E+03  0.7818608E-02  0.1168552E+00
          2   -1    0    0  502    0  0.00000000000E+00  0.00000000000E+00  0.98440279514E+03  0.98440279514E+03  0.00000000000E+00 0. -1.
          1   -1    0    0  501    0 -0.00000000000E+00 -0.00000000000E+00 -0.18741034311E+03  0.18741034311E+03  0.00000000000E+00 0. -1.
         25    2    1    2    0    0 -0.34289956446E+02  0.14199611599E+03  0.66200965843E+03  0.68936333013E+03  0.12500525991E+03 0.  0.
          2    1    1    2  501    0 -0.19129615790E+02 -0.26182368632E+03 -0.38090898130E+02  0.26527061926E+03  0.00000000000E+00 0. -1.
          1    1    1    2  502    0  0.53419572236E+02  0.11982757034E+03  0.17307369173E+03  0.21717918887E+03  0.00000000000E+00 0. -1.
         22    1    3    3    0    0  0.26819110497E+02  0.90503669913E+02  0.20856779714E+03  0.22893384407E+03  0.00000000000E+00 0. -1.
         22    1    3    3    0    0 -0.61109066943E+02  0.51492446074E+02  0.45344186129E+03  0.46042948606E+03  0.00000000000E+00 0. -1.
</event>
<event>
 7    1  0.6386201E-006  0.3004660E+03  0.7818608E-02  0.1318737E+00
          2   -1    0    0  502    0  0.00000000000E+00  0.00000000000E+00  0.97348680452E+03  0.97348680452E+03  0.00000000000E+00 0. -1.
          1   -1    0    0  501    0 -0.00000000000E+00 -0.00000000000E+00 -0.10760995986E+04  0.10760995986E+04  0.00000000000E+00 0. -1.
         25    2    1    2    0    0  0.77581864590E+02  0.27864941951E+03  0.30467863620E+03  0.43831469411E+03  0.12500501991E+03 0.  0.
          2    1    1    2  501    0  0.19535044881E+02  0.12778653629E+02 -0.96994447156E+03  0.97022532943E+03  0.00000000000E+00 0. -1.
          1    1    1    2  502    0 -0.97116909471E+02 -0.29142807314E+03  0.56265304128E+03  0.64104637959E+03  0.00000000000E+00 0. -1.
         22    1    3    3    0    0  0.29330668142E+02  0.14603206243E+03  0.24140140787E+03  0.28365523276E+03  0.00000000000E+00 0. -1.
         22    1    3    3    0    0  0.48251196448E+02  0.13261735708E+03  0.63277228334E+02  0.15465946135E+03  0.00000000000E+00 0. -1.
</event>
<event>
 7    1  0.6386201E-006  0.1346552E+03  0.7818608E-02  0.1415654E+00
          2   -1    0    0  502    0  0.00000000000E+00  0.00000000000E+00  0.29724823382E+04  0.29724823382E+04  0.00000000000E+00 0. -1.
          1   -1    0    0  501    0 -0.00000000000E+00 -0.00000000000E+00 -0.16950203644E+03  0.16950203644E+03  0.00000000000E+00 0. -1.
         25    2    1    2    0    0 -0.12752632654E+03  0.81463451910E+02 -0.74925325570E+02  0.21008851686E+03  0.12499649014E+03 0.  0.
          2    1    1    2  501    0  0.67879090581E+01 -0.22235445332E+02 -0.20123472437E+02  0.30748087443E+02  0.00000000000E+00 0. -1.
          1    1    1    2  502    0  0.12073841748E+03 -0.59228006578E+02  0.28980290998E+04  0.29011477703E+04  0.00000000000E+00 0. -1.
         22    1    3    3    0    0 -0.12945046768E+03  0.45578833039E+02 -0.12178209782E+02  0.13777939758E+03  0.00000000000E+00 0. -1.
         22    1    3    3    0    0  0.19241411472E+01  0.35884618871E+02 -0.62747115788E+02  0.72309119275E+02  0.00000000000E+00 0. -1.
</event>
<event>
 7    1  0.6386201E-006  0.4876167E+02  0.7818608E-02  0.1463460E+00
          2   -1    0    0  502    0  0.00000000000E+00  0.00000000000E+00  0.68451533006E+03  0.68451533006E+03  0.00000000000E+00 0. -1.
          1   -1    0    0  501    0 -0.00000000000E+00 -0.00000000000E+00 -0.56806425630E+03  0.56806425630E+03  0.00000000000E+00 0. -1.
         25    2    1    2    0    0 -0.28915992645E+02  0.24887748274E+02  0.40931334606E+02  0.13695247624E+03  0.12500028781E+03 0.  0.
          2    1    1    2  501    0 -0.17678936730E+02 -0.41273262010E+02 -0.51805691062E+03  0.51999902846E+03  0.00000000000E+00 0. -1.
          1    1    1    2  502    0  0.46594929374E+02  0.16385513736E+02  0.59357664977E+03  0.59562808165E+03  0.00000000000E+00 0. -1.
         22    1    3    3    0    0 -0.11859125260E+02 -0.28016415924E+02 -0.32720722732E+02  0.44678900045E+02  0.00000000000E+00 0.  1.
         22    1    3    3    0    0 -0.17056867385E+02  0.52904164198E+02  0.73652057337E+02  0.92273576199E+02  0.00000000000E+00 0.  1.
</event>
<event>
 7    1  0.6386201E-006  0.1000926E+03  0.7818608E-02  0.1381847E+00
          2   -1    0    0  502    0  0.00000000000E+00  0.00000000000E+00  0.95112160089E+03  0.95112160089E+03  0.00000000000E+00 0. -1.
          1   -1    0    0  501    0 -0.00000000000E+00 -0.00000000000E+00 -0.10540750847E+03  0.10540750847E+03  0.00000000000E+00 0. -1.
         25    2    1    2    0    0  0.10242858628E+03  0.70853999148E+02  0.35166316453E+03  0.39345127599E+03  0.12500008324E+03 0.  0.
          2    1    1    2  501    0 -0.61943521459E+02 -0.76647388130E+02 -0.54762973216E+02  0.11274220680E+03  0.00000000000E+00 0. -1.
          1    1    1    2  502    0 -0.40485064817E+02  0.57933889824E+01  0.54881390111E+03  0.55033562658E+03  0.00000000000E+00 0. -1.
         22    1    3    3    0    0  0.45756590137E+02  0.45650396806E+01  0.19357658366E+02  0.49892124285E+02  0.00000000000E+00 0. -1.
         22    1    3    3    0    0  0.56671996139E+02  0.66288959467E+02  0.33230550617E+03  0.34355915171E+03  0.00000000000E+00 0. -1.
</event>
<event>
 7    1  0.6386201E-006  0.5650152E+02  0.7818608E-02  0.1426792E+00
          2   -1    0    0  502    0  0.00000000000E+00  0.00000000000E+00  0.49836704666E+03  0.49836704666E+03  0.00000000000E+00 0. -1.
          1   -1    0    0  501    0 -0.00000000000E+00 -0.00000000000E+00 -0.31261449541E+03  0.31261449541E+03  0.00000000000E+00 0. -1.
         25    2    1    2    0    0 -0.46253406552E+02  0.67725013116E+02  0.17984761463E+03  0.23387464779E+03  0.12500452540E+03 0.  0.
          2    1    1    2  501    0 -0.64547088758E+01 -0.50453969903E+02 -0.28065568491E+03  0.28522776831E+03  0.00000000000E+00 0. -1.
          1    1    1    2  502    0  0.52708115428E+02 -0.17271043213E+02  0.28656062152E+03  0.29187912597E+03  0.00000000000E+00 0. -1.
         22    1    3    3    0    0  0.36522987933E+02  0.69373879602E+01  0.90168696252E+02  0.97531788577E+02  0.00000000000E+00 0.  1.
         22    1    3    3    0    0 -0.82776394484E+02  0.60787625156E+02  0.89678918378E+02  0.13634285921E+03  0.00000000000E+00 0.  1.
</event>
<event>
 7    1  0.6386201E-006  0.6009833E+02  0.7818608E-02  0.1430242E+00
          2   -1    0    0  502    0  0.00000000000E+00  0.00000000000E+00  0.28000255596E+04  0.28000255596E+04  0.00000000000E+00 0. -1.
          1   -1    0    0  501    0 -0.00000000000E+00 -0.00000000000E+00 -0.83325866614E+03  0.83325866614E+03  0.00000000000E+00 0. -1.
         25    2    1    2    0    0 -0.36215581785E+01  0.98584666067E+02  0.35204983951E+03  0.38638873551E+03  0.12500045346E+03 0.  0.
          2    1    1    2  501    0  0.20738416823E+02 -0.41713005053E+02 -0.81506127195E+03  0.81639140966E+03  0.00000000000E+00 0. -1.
          1    1    1    2  502    0 -0.17116858645E+02 -0.56871661014E+02  0.24297783259E+04  0.24305040805E+04  0.00000000000E+00 0. -1.
         22    1    3    3    0    0 -0.18150126246E+02 -0.27122180445E+02  0.76566386654E+02  0.83231312137E+02  0.00000000000E+00 0. -1.
         22    1    3    3    0    0  0.14528568068E+02  0.12570684651E+03  0.27548345285E+03  0.30315742337E+03  0.00000000000E+00 0. -1.
</event>
<event>
 7    1  0.6386201E-006  0.9605088E+02  0.7818608E-02  0.1294535E+00
          2   -1    0    0  502    0  0.00000000000E+00  0.00000000000E+00  0.25922136878E+03  0.25922136878E+03  0.00000000000E+00 0. -1.
          1   -1    0    0  501    0 -0.00000000000E+00 -0.00000000000E+00 -0.15854803010E+04  0.15854803010E+04  0.00000000000E+00 0. -1.
         25    2    1    2    0    0 -0.87165382831E+01 -0.15983999684E+02 -0.26264304435E+03  0.29144153366E+03  0.12500133003E+03 0.  0.
          2    1    1    2  501    0 -0.90376916099E+02  0.11165863787E+02 -0.12967243251E+04  0.12999179354E+04  0.00000000000E+00 0. -1.
          1    1    1    2  502    0  0.99093454382E+02  0.48181358969E+01  0.23310843725E+03  0.25334220069E+03  0.00000000000E+00 0. -1.
         22    1    3    3    0    0 -0.61536610993E+02 -0.29342407460E+01 -0.80639182263E+02  0.10147926871E+03  0.00000000000E+00 0. -1.
         22    1    3    3    0    0  0.52820072710E+02 -0.13049758938E+02 -0.18200386209E+03  0.18996226495E+03  0.00000000000E+00 0. -1.
</event>
<event>
 7    1  0.6386201E-006  0.6891616E+02  0.7818608E-02  0.1367980E+00
          2   -1    0    0  502    0  0.00000000000E+00  0.00000000000E+00  0.13397561230E+04  0.13397561230E+04  0.00000000000E+00 0. -1.
          1   -1    0    0  501    0 -0.00000000000E+00 -0.00000000000E+00 -0.83520510064E+03  0.83520510064E+03  0.00000000000E+00 0. -1.
         25    2    1    2    0    0 -0.70527841812E+01 -0.74278493357E+01  0.18343873650E+03  0.22223583962E+03  0.12503632932E+03 0.  0.
          2    1    1    2  501    0 -0.65441024050E+02  0.12196178712E+02 -0.81328466690E+03  0.81600442634E+03  0.00000000000E+00 0. -1.
          1    1    1    2  502    0  0.72493808231E+02 -0.47683293766E+01  0.11343969528E+04  0.11367209577E+04  0.00000000000E+00 0. -1.
         22    1    3    3    0    0  0.15530493699E+02  0.55751624582E+02  0.75255167843E+02  0.94935663294E+02  0.00000000000E+00 0. -1.
         22    1    3    3    0    0 -0.22583277880E+02 -0.63179473917E+02  0.10818356866E+03  0.12730017632E+03  0.00000000000E+00 0. -1.
</event>
<event>
 7    1  0.6386201E-006  0.5983541E+02  0.7818608E-02  0.1490058E+00
          2   -1    0    0  502    0  0.00000000000E+00  0.00000000000E+00  0.18985629652E+04  0.18985629652E+04  0.00000000000E+00 0. -1.
          1   -1    0    0  501    0 -0.00000000000E+00 -0.00000000000E+00 -0.26868995992E+02  0.26868995992E+02  0.00000000000E+00 0. -1.
         25    2    1    2    0    0  0.10428774906E+02 -0.64492346263E+02  0.52079647153E+03  0.53955782301E+03  0.12500263015E+03 0.  0.
          2    1    1    2  501    0 -0.29324862813E+02  0.76135439032E+01 -0.31866238577E+01  0.30464211812E+02  0.00000000000E+00 0. -1.
          1    1    1    2  502    0  0.18896087907E+02  0.56878802360E+02  0.13540841215E+04  0.13554099263E+04  0.00000000000E+00 0. -1.
         22    1    3    3    0    0  0.61417433188E+02 -0.30328265279E+02  0.16741267750E+03  0.18088369015E+03  0.00000000000E+00 0.  1.
         22    1    3    3    0    0 -0.50988658282E+02 -0.34164080984E+02  0.35338379403E+03  0.35867413286E+03  0.00000000000E+00 0.  1.
</event>
<event>
 7    1  0.6386201E-006  0.2451077E+03  0.7818608E-02  0.1353177E+00
          2   -1    0    0  502    0  0.00000000000E+00  0.00000000000E+00  0.50519307571E+03  0.50519307571E+03  0.00000000000E+00 0. -1.
          1   -1    0    0  501    0 -0.00000000000E+00 -0.00000000000E+00 -0.13733261981E+04  0.13733261981E+04  0.00000000000E+00 0. -1.
         25    2    1    2    0    0  0.21956237945E+03  0.10304327121E+03 -0.76823569144E+03  0.81525234823E+03  0.12499903793E+03 0.  0.
          2    1    1    2  501    0 -0.73491842990E+01  0.19878661386E+02 -0.55014934945E+03  0.55055742515E+03  0.00000000000E+00 0. -1.
          1    1    1    2  502    0 -0.21221319515E+03 -0.12292193259E+03  0.45025191851E+03  0.51270950043E+03  0.00000000000E+00 0. -1.
         22    1    3    3    0    0  0.18042282094E+03  0.22489109461E+02 -0.47342735814E+03  0.50714062921E+03  0.00000000000E+00 0. -1.
         22    1    3    3    0    0  0.39139558511E+02  0.80554161746E+02 -0.29480833330E+03  0.30811171902E+03  0.00000000000E+00 0. -1.
</event>
<event>
 7    1  0.6386201E-006  0.1282430E+03  0.7818608E-02  0.1291362E+00
          2   -1    0    0  502    0  0.00000000000E+00  0.00000000000E+00  0.14615418765E+03  0.14615418765E+03  0.00000000000E+00 0. -1.
          1   -1    0    0  501    0 -0.00000000000E+00 -0.00000000000E+00 -0.33941285921E+03  0.33941285921E+03  0.00000000000E+00 0. -1.
         25    2    1    2    0    0 -0.18148431371E+02 -0.10181907932E+03 -0.10927276232E+03  0.19560655894E+03  0.12499959537E+03 0.  0.
          2    1    1    2  501    0 -0.69853168445E+02 -0.74728532759E+01 -0.12533202013E+03  0.14367819580E+03  0.00000000000E+00 0. -1.
          1    1    1    2  502    0  0.88001599815E+02  0.10929193259E+03  0.41346110890E+02  0.14628229211E+03  0.00000000000E+00 0. -1.
         22    1    3    3    0    0  0.30714455492E+02 -0.99896919227E+02 -0.42454458000E+02  0.11280582100E+03  0.00000000000E+00 0.  1.
         22    1    3    3    0    0 -0.48862886863E+02 -0.19221600907E+01 -0.66818304318E+02  0.82800737943E+02  0.00000000000E+00 0.  1.
</event>
<event>
 7    1  0.6386201E-006  0.1182625E+03  0.7818608E-02  0.1303317E+00
          2   -1    0    0  502    0  0.00000000000E+00  0.00000000000E+00  0.14060218182E+03  0.14060218182E+03  0.00000000000E+00 0. -1.
          1   -1    0    0  501    0 -0.00000000000E+00 -0.00000000000E+00 -0.10134307822E+04  0.10134307822E+04  0.00000000000E+00 0. -1.
         25    2    1    2    0    0  0.10077703565E+02 -0.91757211215E+02 -0.20287803485E+02  0.15669316853E+03  0.12498083123E+03 0.  0.
          2    1    1    2  501    0  0.56473937899E+02  0.10666029853E+03 -0.90392677383E+03  0.91194810016E+03  0.00000000000E+00 0. -1.
          1    1    1    2  502    0 -0.66551641463E+02 -0.14903087313E+02  0.51385976981E+02  0.85391695282E+02  0.00000000000E+00 0. -1.
         22    1    3    3    0    0  0.15262526515E+02 -0.11315959467E+03 -0.45768240548E+02  0.12301532597E+03  0.00000000000E+00 0. -1.
         22    1    3    3    0    0 -0.51848229504E+01  0.21402383454E+02  0.25480437063E+02  0.33677842560E+02  0.00000000000E+00 0. -1.
</event>
<event>
 7    1  0.6386201E-006  0.8122123E+02  0.7818608E-02  0.1364138E+00
          2   -1    0    0  502    0  0.00000000000E+00  0.00000000000E+00  0.21178101298E+03  0.21178101298E+03  0.00000000000E+00 0. -1.
          1   -1    0    0  501    0 -0.00000000000E+00 -0.00000000000E+00 -0.66616007176E+03  0.66616007176E+03  0.00000000000E+00 0. -1.
         25    2    1    2    0    0  0.12298775801E+03 -0.55613820467E+02 -0.96888576642E+02  0.20791306951E+03  0.12498624942E+03 0.  0.
          2    1    1    2  501    0 -0.75116752093E+02  0.22305020264E+02 -0.50519046688E+03  0.51123130597E+03  0.00000000000E+00 0. -1.
          1    1    1    2  502    0 -0.47871005912E+02  0.33308800203E+02  0.14769998474E+03  0.15879670926E+03  0.00000000000E+00 0. -1.
         22    1    3    3    0    0  0.13052608768E+03 -0.44489165262E+01 -0.56526170556E+02  0.14230973396E+03  0.00000000000E+00 0. -1.
         22    1    3    3    0    0 -0.75383296745E+01 -0.51164903941E+02 -0.40362406086E+02  0.65603335545E+02  0.00000000000E+00 0. -1.
</event>
<event>
 7    1  0.6386201E-006  0.6087238E+02  0.7818608E-02  0.1404166E+00
          2   -1    0    0  502    0  0.00000000000E+00  0.00000000000E+00  0.11899788385E+04  0.11899788385E+04  0.00000000000E+00 0. -1.
          1   -1    0    0  501    0 -0.00000000000E+00 -0.00000000000E+00 -0.15016403808E+03  0.15016403808E+03  0.00000000000E+00 0. -1.
         25    2    1    2    0    0 -0.17514896829E+02  0.80524065367E+01 -0.11685462496E+02  0.12701406404E+03  0.12499763825E+03 0.  0.
          2    1    1    2  501    0  0.73418838346E+02 -0.18093546744E+01 -0.63272231653E+02  0.96937995062E+02  0.00000000000E+00 0. -1.
          1    1    1    2  502    0 -0.55903941517E+02 -0.62430518623E+01  0.11147724945E+04  0.11161908175E+04  0.00000000000E+00 0. -1.
         22    1    3    3    0    0 -0.41896857697E+02  0.36276056134E+02  0.36291878968E+02  0.66244995377E+02  0.00000000000E+00 0. -1.
         22    1    3    3    0    0  0.24381960868E+02 -0.28223649598E+02 -0.47977341464E+02  0.60769068664E+02  0.00000000000E+00 0. -1.
</event>
<event>
 7    1  0.6386201E-006  0.1270927E+03  0.7818608E-02  0.1338615E+00
          2   -1    0    0  502    0  0.00000000000E+00  0.00000000000E+00  0.13045303769E+03  0.13045303769E+03  0.00000000000E+00 0. -1.
          1   -1    0    0  501    0 -0.00000000000E+00 -0.00000000000E+00 -0.74087692332E+03  0.74087692332E+03  0.00000000000E+00 0. -1.
         25    2    1    2    0    0  0.69901991482E+02  0.67555147958E+02 -0.12044524726E+03  0.19894607326E+03  0.12498998380E+03 0.  0.
          2    1    1    2  501    0 -0.69744114667E+02 -0.11387147570E+03 -0.56699842384E+03  0.58251022922E+03  0.00000000000E+00 0. -1.
          1    1    1    2  502    0 -0.15787681574E+00  0.46316327747E+02  0.77019785475E+02  0.89873658519E+02  0.00000000000E+00 0. -1.
         22    1    3    3    0    0  0.55948018836E+02 -0.75738158304E+01 -0.10752706147E+03  0.12144798247E+03  0.00000000000E+00 0.  1.
         22    1    3    3    0    0  0.13953972646E+02  0.75128963789E+02 -0.12918185790E+02  0.77498090794E+02  0.00000000000E+00 0.  1.
</event>
<event>
 7    1  0.6386201E-006  0.9026945E+02  0.7818608E-02  0.1363556E+00
          2   -1    0    0  502    0  0.00000000000E+00  0.00000000000E+00  0.20077947825E+04  0.20077947825E+04  0.00000000000E+00 0. -1.
          1   -1    0    0  501    0 -0.00000000000E+00 -0.00000000000E+00 -0.34958526560E+02  0.34958526560E+02  0.00000000000E+00 0. -1.
         25    2    1    2    0    0 -0.47704038720E+02 -0.38691740352E+02  0.10644863693E+04  0.10735589583E+04  0.12499952177E+03 0.  0.
          2    1    1    2  501    0 -0.49204956224E+02 -0.18953406760E+02 -0.11398800057E+01  0.52741432207E+02  0.00000000000E+00 0. -1.
          1    1    1    2  502    0  0.96908994944E+02  0.57645147112E+02  0.90948976671E+03  0.91645291861E+03  0.00000000000E+00 0. -1.
         22    1    3    3    0    0  0.72969483460E+01 -0.72608901194E+02  0.48075477181E+03  0.48626170794E+03  0.00000000000E+00 0.  1.
         22    1    3    3    0    0 -0.55000987066E+02  0.33917160842E+02  0.58373159747E+03  0.58729725034E+03  0.00000000000E+00 0.  1.
</event>
<event>
 7    1  0.6386201E-006  0.3930027E+02  0.7818608E-02  0.1545736E+00
          2   -1    0    0  502    0  0.00000000000E+00  0.00000000000E+00  0.29966201474E+03  0.29966201474E+03  0.00000000000E+00 0. -1.
          1   -1    0    0  501    0 -0.00000000000E+00 -0.00000000000E+00 -0.29342638290E+04  0.29342638290E+04  0.00000000000E+00 0. -1.
         25    2    1    2    0    0  0.20597797113E+02 -0.25639054451E+02 -0.92527353252E+03  0.93425874063E+03  0.12500661620E+03 0.  0.
          2    1    1    2  501    0 -0.40099278608E+02  0.58251777724E+00 -0.20034425769E+04  0.20038439187E+04  0.00000000000E+00 0. -1.
          1    1    1    2  502    0  0.19501481495E+02  0.25056536674E+02  0.29411429518E+03  0.29582318442E+03  0.00000000000E+00 0. -1.
         22    1    3    3    0    0  0.84939885033E+01  0.44500047938E+02 -0.18075852858E+03  0.18634926284E+03  0.00000000000E+00 0. -1.
         22    1    3    3    0    0  0.12103808610E+02 -0.70139102389E+02 -0.74451500395E+03  0.74790947779E+03  0.00000000000E+00 0. -1.
</event>
<event>
 7    1  0.6386201E-006  0.2250723E+03  0.7818608E-02  0.1209215E+00
          2   -1    0    0  502    0  0.00000000000E+00  0.00000000000E+00  0.84744844623E+03  0.84744844623E+03  0.00000000000E+00 0. -1.
          1   -1    0    0  501    0 -0.00000000000E+00 -0.00000000000E+00 -0.29815268683E+03  0.29815268683E+03  0.00000000000E+00 0. -1.
         25    2    1    2    0    0  0.45368335233E+01  0.18170026012E+03  0.31528539486E+03  0.38479429968E+03  0.12500482179E+03 0.  0.
          2    1    1    2  501    0 -0.55920396200E+01  0.90812628454E+02 -0.21618766088E+03  0.23455342485E+03  0.00000000000E+00 0. -1.
          1    1    1    2  502    0  0.10552060967E+01 -0.27251288857E+03  0.45019802541E+03  0.52625340852E+03  0.00000000000E+00 0. -1.
         22    1    3    3    0    0 -0.32793048606E+01 -0.16738757725E+02  0.78071425698E+01  0.18758766635E+02  0.00000000000E+00 0.  1.
         22    1    3    3    0    0  0.78161383839E+01  0.19843901784E+03  0.30747825229E+03  0.36603553305E+03  0.00000000000E+00 0.  1.
</event>
<event>
 7    1  0.6386201E-006  0.2358835E+03  0.7818608E-02  0.1210220E+00
          2   -1    0    0  502    0  0.00000000000E+00  0.00000000000E+00  0.16514473815E+04  0.16514473815E+04  0.00000000000E+00 0. -1.
          1   -1    0    0  501    0 -0.00000000000E+00 -0.00000000000E+00 -0.57542366970E+03  0.57542366970E+03  0.00000000000E+00 0. -1.
         25    2    1    2    0    0 -0.12762912047E+03  0.15175698938E+03  0.81963775344E+02  0.24831057998E+03  0.12498282861E+03 0.  0.
          2    1    1    2  501    0  0.42845348994E+02  0.74438023211E+02 -0.47858710887E+03  0.48623282901E+03  0.00000000000E+00 0. -1.
          1    1    1    2  502    0  0.84783771472E+02 -0.22619501259E+03  0.14726470453E+04  0.14923276422E+04  0.00000000000E+00 0. -1.
         22    1    3    3    0    0 -0.84154628542E+02  0.28568778692E+02 -0.87008842055E+01  0.89296595719E+02  0.00000000000E+00 0.  1.
         22    1    3    3    0    0 -0.43474491923E+02  0.12318821069E+03  0.90664659550E+02  0.15901398426E+03  0.00000000000E+00 0.  1.
</event>
<event>
 7    1  0.6386201E-006  0.5719860E+02  0.7818608E-02  0.1535374E+00
          2   -1    0    0  502    0  0.00000000000E+00  0.00000000000E+00  0.17432609032E+03  0.17432609032E+03  0.00000000000E+00 0. -1.
          1   -1    0    0  501    0 -0.00000000000E+00 -0.00000000000E+00 -0.28985698692E+04  0.28985698692E+04  0.00000000000E+00 0. -1.
         25    2    1    2    0    0  0.77528971956E+02  0.20274482492E+02 -0.21567740840E+03  0.26184555273E+03  0.12499821143E+03 0.  0.
          2    1    1    2  501    0 -0.54564200185E+02 -0.16123861227E+02 -0.26586019704E+04  0.26592107227E+04  0.00000000000E+00 0. -1.
          1    1    1    2  502    0 -0.22964771771E+02 -0.41506212650E+01  0.15003559994E+03  0.15183968404E+03  0.00000000000E+00 0. -1.
         22    1    3    3    0    0 -0.28938225213E+02 -0.10986450798E+02 -0.84731193514E+02  0.90208082420E+02  0.00000000000E+00 0. -1.
         22    1    3    3    0    0  0.10646719717E+03  0.31260933290E+02 -0.13094621488E+03  0.17163747031E+03  0.00000000000E+00 0. -1.
</event>
<event>
 7    1  0.6386201E-006  0.1799131E+03  0.7818608E-02  0.1180853E+00
          2   -1    0    0  502    0  0.00000000000E+00  0.00000000000E+00  0.63066893903E+03  0.63066893903E+03  0.00000000000E+00 0. -1.
          1   -1    0    0  501    0 -0.00000000000E+00 -0.00000000000E+00 -0.79001643803E+03  0.79001643803E+03  0.00000000000E+00 0. -1.
         25    2    1    2    0    0 -0.47261990841E+02  0.89835223361E+02 -0.41691954440E+02  0.16634447132E+03  0.12501280310E+03 0.  0.
          2    1    1    2  501    0 -0.14750251667E+03 -0.48565936594E+02 -0.65926043510E+03  0.67730345039E+03  0.00000000000E+00 0. -1.
          1    1    1    2  502    0  0.19476450752E+03 -0.41269286768E+02  0.54160489054E+03  0.57703745535E+03  0.00000000000E+00 0. -1.
         22    1    3    3    0    0 -0.65493621214E+02 -0.38349902324E+01 -0.17298877357E+02  0.67848159354E+02  0.00000000000E+00 0.  1.
         22    1    3    3    0    0  0.18231630373E+02  0.93670213593E+02 -0.24393077083E+02  0.98496311963E+02  0.00000000000E+00 0.  1.
</event>
<event>
 7    1  0.6386201E-006  0.5663987E+02  0.7818608E-02  0.1447965E+00
          2   -1    0    0  502    0  0.00000000000E+00  0.00000000000E+00  0.30599546037E+04  0.30599546037E+04  0.00000000000E+00 0. -1.
          1   -1    0    0  501    0 -0.00000000000E+00 -0.00000000000E+00 -0.43573489139E+02  0.43573489139E+02  0.00000000000E+00 0. -1.
         25    2    1    2    0    0  0.31017926763E+02  0.39019206097E+02  0.18217541365E+03  0.22648840419E+03  0.12499802266E+03 0.  0.
          2    1    1    2  501    0 -0.39705717461E+02  0.17246376948E+02  0.10399798526E+01  0.43301998511E+02  0.00000000000E+00 0. -1.
          1    1    1    2  502    0  0.86877906985E+01 -0.56265583045E+02  0.28331657211E+04  0.28337376902E+04  0.00000000000E+00 0. -1.
         22    1    3    3    0    0 -0.30447674294E+02 -0.21870936473E+02  0.10145950706E+03  0.10816390481E+03  0.00000000000E+00 0. -1.
         22    1    3    3    0    0  0.61465601057E+02  0.60890142570E+02  0.80715906595E+02  0.11832449938E+03  0.00000000000E+00 0. -1.
</event>
<event>
 7    1  0.6386201E-006  0.6526800E+02  0.7818608E-02  0.1497782E+00
          2   -1    0    0  502    0  0.00000000000E+00  0.00000000000E+00  0.41351135995E+03  0.41351135995E+03  0.00000000000E+00 0. -1.
          1   -1    0    0  501    0 -0.00000000000E+00 -0.00000000000E+00 -0.49116847752E+03  0.49116847752E+03  0.00000000000E+00 0. -1.
         25    2    1    2    0    0  0.32305403913E+01  0.82600276331E+02  0.57716025321E+02  0.16059007743E+03  0.12499916540E+03 0.  0.
          2    1    1    2  501    0  0.15672260757E+02 -0.21155113009E+02 -0.43593516262E+03  0.43672946382E+03  0.00000000000E+00 0. -1.
          1    1    1    2  502    0 -0.18902801148E+02 -0.61445163322E+02  0.30056201973E+03  0.30736029622E+03  0.00000000000E+00 0. -1.
         22    1    3    3    0    0 -0.50729315235E+02  0.80166757576E+02  0.45476989877E+02  0.10520612650E+03  0.00000000000E+00 0.  1.
         22    1    3    3    0    0  0.53959855626E+02  0.24335187552E+01  0.12239035444E+02  0.55383950936E+02  0.00000000000E+00 0.  1.
</event>
<event>
 7    1  0.6386201E-006  0.3615124E+02  0.7818608E-02  0.1612999E+00
          2   -1    0    0  502    0  0.00000000000E+00  0.00000000000E+00  0.11440992019E+04  0.11440992019E+04  0.00000000000E+00 0. -1.
          1   -1    0    0  501    0 -0.00000000000E+00 -0.00000000000E+00 -0.11338318149E+04  0.11338318149E+04  0.00000000000E+00 0. -1.
         25    2    1    2    0    0 -0.16609378134E+01  0.15406277161E+02 -0.51542650485E+03  0.53059350747E+03  0.12499950470E+03 0.  0.
          2    1    1    2  501    0  0.11339281831E+02 -0.36021238799E+02 -0.61012386945E+03  0.61129145669E+03  0.00000000000E+00 0. -1.
          1    1    1    2  502    0 -0.96783440180E+01  0.20614961638E+02  0.11358177613E+04  0.11360460527E+04  0.00000000000E+00 0. -1.
         22    1    3    3    0    0 -0.53865534644E+02 -0.21914232381E+02 -0.18258304868E+03  0.19162019483E+03  0.00000000000E+00 0. -1.
         22    1    3    3    0    0  0.52204596830E+02  0.37320509542E+02 -0.33284345617E+03  0.33897331264E+03  0.00000000000E+00 0. -1.
</event>
<event>
 7    1  0.6386201E-006  0.1013128E+03  0.7818608E-02  0.1352342E+00
          2   -1    0    0  502    0  0.00000000000E+00  0.00000000000E+00  0.16756243867E+04  0.16756243867E+04  0.00000000000E+00 0. -1.
          1   -1    0    0  501    0 -0.00000000000E+00 -0.00000000000E+00 -0.36753344815E+03  0.36753344815E+03  0.00000000000E+00 0. -1.
         25    2    1    2    0    0  0.14637361068E+03  0.34016010792E+02  0.19478483790E+03  0.27595056303E+03  0.12500102907E+03 0.  0.
          2    1    1    2  501    0 -0.98751574686E+02 -0.14046727605E+02 -0.31886684754E+03  0.33410365236E+03  0.00000000000E+00 0. -1.
          1    1    1    2  502    0 -0.47622035990E+02 -0.19969283187E+02  0.14321729481E+04  0.14331036194E+04  0.00000000000E+00 0. -1.
         22    1    3    3    0    0  0.10189352388E+03 -0.38787838492E+02  0.12380895656E+03  0.16497104094E+03  0.00000000000E+00 0.  1.
         22    1    3    3    0    0  0.44480086800E+02  0.72803849284E+02  0.70975881342E+02  0.11097952210E+03  0.00000000000E+00 0.  1.
</event>
<event>
 7    1  0.6386201E-006  0.3776973E+03  0.7818608E-02  0.1147510E+00
          2   -1    0    0  502    0  0.00000000000E+00  0.00000000000E+00  0.75650227624E+03  0.75650227624E+03  0.00000000000E+00 0. -1.
          1   -1    0    0  501    0 -0.00000000000E+00 -0.00000000000E+00 -0.99505223920E+03  0.99505223920E+03  0.00000000000E+00 0. -1.
         25    2    1    2    0    0 -0.32797286639E+03  0.74818610836E+02 -0.44642090618E+03  0.57278340479E+03  0.12500071088E+03 0.  0.
          2    1    1    2  501    0  0.43481651933E+03 -0.95071718288E+02 -0.37735674068E+03  0.58352561798E+03  0.00000000000E+00 0. -1.
          1    1    1    2  502    0 -0.10684365294E+03  0.20253107452E+02  0.58522768390E+03  0.59524549267E+03  0.00000000000E+00 0. -1.
         22    1    3    3    0    0 -0.32346128861E+03  0.51217737480E+02 -0.43887868178E+03  0.54759926879E+03  0.00000000000E+00 0. -1.
         22    1    3    3    0    0 -0.45115777772E+01  0.23600873356E+02 -0.75422243993E+01  0.25184136001E+02  0.00000000000E+00 0. -1.
</event>
<event>
 7    1  0.6386201E-006  0.4178954E+02  0.7818608E-02  0.1531217E+00
          2   -1    0    0  502    0  0.00000000000E+00  0.00000000000E+00  0.15358000276E+03  0.15358000276E+03  0.00000000000E+00 0. -1.
          1   -1    0    0  501    0 -0.00000000000E+00 -0.00000000000E+00 -0.14809642238E+04  0.14809642238E+04  0.00000000000E+00 0. -1.
         25    2    1    2    0    0  0.46925450073E+01  0.89162358693E+01 -0.22840638046E+03  0.26057078921E+03  0.12500456918E+03 0.  0.
          2    1    1    2  501    0  0.20252333013E+01  0.32763392863E+02 -0.12330114098E+04  0.12334482876E+04  0.00000000000E+00 0. -1.
          1    1    1    2  502    0 -0.67177783086E+01 -0.41679628732E+02  0.13403356928E+03  0.14052514967E+03  0.00000000000E+00 0. -1.
         22    1    3    3    0    0 -0.15645267034E+02  0.35699543240E+02 -0.10890021004E+02  0.40470042322E+02  0.00000000000E+00 0.  1.
         22    1    3    3    0    0  0.20337812041E+02 -0.26783307371E+02 -0.21751635945E+03  0.22010074689E+03  0.00000000000E+00 0.  1.
</event>
<event>
 7    1  0.6386201E-006  0.6638606E+02  0.7818608E-02  0.1461292E+00
          2   -1    0    0  502    0  0.00000000000E+00  0.00000000000E+00  0.24485759166E+03  0.24485759166E+03  0.00000000000E+00 0. -1.
          1   -1    0    0  501    0 -0.00000000000E+00 -0.00000000000E+00 -0.19912356491E+03  0.19912356491E+03  0.00000000000E+00 0. -1.
         25    2    1    2    0    0 -0.23103504321E+02  0.90617798056E+02  0.83152439901E+02  0.17687685191E+03  0.12500294094E+03 0.  0.
          2    1    1    2  501    0  0.16098109140E+02 -0.29380375807E+02 -0.14189767231E+03  0.14579885119E+03  0.00000000000E+00 0. -1.
          1    1    1    2  502    0  0.70053951806E+01 -0.61237422249E+02  0.10447925916E+03  0.12130545346E+03  0.00000000000E+00 0. -1.
         22    1    3    3    0    0  0.58544946421E+01  0.92160894126E+02  0.10554281989E+03  0.14023976734E+03  0.00000000000E+00 0. -1.
         22    1    3    3    0    0 -0.28957998963E+02 -0.15430960701E+01 -0.22390379994E+02  0.36637084568E+02  0.00000000000E+00 0. -1.
</event>
<event>
 7    1  0.6386201E-006  0.1537337E+03  0.7818608E-02  0.1222663E+00
          2   -1    0    0  502    0  0.00000000000E+00  0.00000000000E+00  0.43247809819E+04  0.43247809819E+04  0.00000000000E+00 0. -1.
          1   -1    0    0  501    0 -0.00000000000E+00 -0.00000000000E+00 -0.35745668524E+02  0.35745668524E+02  0.00000000000E+00 0. -1.
         25    2    1    2    0    0  0.72127392141E+02 -0.13416218258E+03  0.14658132432E+04  0.14789983928E+04  0.12500371986E+03 0.  0.
          2    1    1    2  501    0  0.41687738765E+02  0.15413590482E+03  0.20073306630E+03  0.25649465613E+03  0.00000000000E+00 0. -1.
          1    1    1    2  502    0 -0.11381513091E+03 -0.19973722240E+02  0.26224890039E+04  0.26250336015E+04  0.00000000000E+00 0. -1.
         22    1    3    3    0    0  0.19805936164E+02  0.13784926831E+02  0.63473850955E+02  0.67906031177E+02  0.00000000000E+00 0.  1.
         22    1    3    3    0    0  0.52321455977E+02 -0.14794710941E+03  0.14023393922E+04  0.14110923616E+04  0.00000000000E+00 0.  1.
</event>
<event>
 7    1  0.6386201E-006  0.7932761E+02  0.7818608E-02  0.1382107E+00
          2   -1    0    0  502    0  0.00000000000E+00  0.00000000000E+00  0.10210312195E+04  0.10210312195E+04  0.00000000000E+00 0. -1.
          1   -1    0    0  501    0 -0.00000000000E+00 -0.00000000000E+00 -0.90827602318E+03  0.90827602318E+03  0.00000000000E+00 0. -1.
         25    2    1    2    0    0 -0.87123097900E+02  0.19291509800E+02  0.32876077386E+03  0.36286416549E+03  0.12499663848E+03 0.  0.
          2    1    1    2  501    0  0.33024089368E+02  0.39509725414E+02 -0.88811213760E+03  0.88960371955E+03  0.00000000000E+00 0. -1.
          1    1    1    2  502    0  0.54099008533E+02 -0.58801235214E+02  0.67210656008E+03  0.67683935767E+03  0.00000000000E+00 0. -1.
         22    1    3    3    0    0 -0.10813433689E+03  0.15619034336E+01  0.31304143293E+03  0.33119543036E+03  0.00000000000E+00 0. -1.
         22    1    3    3    0    0  0.21011238993E+02  0.17729606366E+02  0.15719340927E+02  0.31668735136E+02  0.00000000000E+00 0. -1.
</event>
<event>
 7    1  0.6386201E-006  0.3399388E+02  0.7818608E-02  0.1580293E+00
          2   -1    0    0  502    0  0.00000000000E+00  0.00000000000E+00  0.14117360991E+03  0.14117360991E+03  0.00000000000E+00 0. -1.
          1   -1    0    0  501    0 -0.00000000000E+00 -0.00000000000E+00 -0.12458742687E+03  0.12458742687E+03  0.00000000000E+00 0. -1.
         25    2    1    2    0    0 -0.16170407967E+02 -0.43775462629E+02  0.15659057450E+02  0.13434047899E+03  0.12499753995E+03 0.  0.
          2    1    1    2  501    0  0.29084697294E+02  0.17239409429E+02 -0.57077668627E+02  0.66339860642E+02  0.00000000000E+00 0. -1.
          1    1    1    2  502    0 -0.12914289327E+02  0.26536053199E+02  0.58004794220E+02  0.65080697144E+02  0.00000000000E+00 0. -1.
         22    1    3    3    0    0  0.12810667093E+02  0.17782242576E+02  0.52555079736E+02  0.56941704826E+02  0.00000000000E+00 0. -1.
         22    1    3    3    0    0 -0.28981075060E+02 -0.61557705205E+02 -0.36896022286E+02  0.77398774165E+02  0.00000000000E+00 0. -1.
</event>
<event>
 7    1  0.6386201E-006  0.6438172E+02  0.7818608E-02  0.1478923E+00
          2   -1    0    0  502    0  0.00000000000E+00  0.00000000000E+00  0.24061254949E+04  0.24061254949E+04  0.00000000000E+00 0. -1.
          1   -1    0    0  501    0 -0.00000000000E+00 -0.00000000000E+00 -0.24648831725E+03  0.24648831725E+03  0.00000000000E+00 0. -1.
         25    2    1    2    0    0  0.73820047578E+02  0.42573307060E+02  0.40142526290E+02  0.15652608581E+03  0.12500842862E+03 0.  0.
          2    1    1    2  501    0 -0.11169687043E+02 -0.28323895832E+02 -0.18661539557E+03  0.18908281478E+03  0.00000000000E+00 0. -1.
          1    1    1    2  502    0 -0.62650360535E+02 -0.14249411229E+02  0.23061100469E+04  0.23070049116E+04  0.00000000000E+00 0. -1.
         22    1    3    3    0    0  0.10048966098E+03  0.53906744512E+02  0.96228260988E+01  0.11444084870E+03  0.00000000000E+00 0. -1.
         22    1    3    3    0    0 -0.26669613404E+02 -0.11333437451E+02  0.30519700191E+02  0.42085237119E+02  0.00000000000E+00 0. -1.
</event>
<event>
 7    1  0.6386201E-006  0.3295448E+02  0.7818608E-02  0.1611721E+00
          2   -1    0    0  502    0  0.00000000000E+00  0.00000000000E+00  0.21118271680E+04  0.21118271680E+04  0.00000000000E+00 0. -1.
          1   -1    0    0  501    0 -0.00000000000E+00 -0.00000000000E+00 -0.27047119190E+03  0.27047119190E+03  0.00000000000E+00 0. -1.
         25    2    1    2    0    0  0.52107562639E+02 -0.17948287852E+01  0.35273429856E+03  0.37783566359E+03  0.12497953353E+03 0.  0.
          2    1    1    2  501    0 -0.21406441058E+02  0.13245198686E+02 -0.25715219235E+03  0.25838134809E+03  0.00000000000E+00 0. -1.
          1    1    1    2  502    0 -0.30701121581E+02 -0.11450369900E+02  0.17457738699E+04  0.17460813483E+04  0.00000000000E+00 0. -1.
         22    1    3    3    0    0  0.64600062473E+02  0.47811725086E+02  0.25724385257E+03  0.26950608308E+03  0.00000000000E+00 0.  1.
         22    1    3    3    0    0 -0.12492499834E+02 -0.49606553871E+02  0.95490445986E+02  0.10832958051E+03  0.00000000000E+00 0.  1.
</event>
<event>
 7    1  0.6386201E-006  0.1043512E+03  0.7818608E-02  0.1293813E+00
          2   -1    0    0  502    0  0.00000000000E+00  0.00000000000E+00  0.14000256333E+04  0.14000256333E+04  0.00000000000E+00 0. -1.
          1   -1    0    0  501    0 -0.00000000000E+00 -0.00000000000E+00 -0.95823044659E+02  0.95823044659E+02  0.00000000000E+00 0. -1.
         25    2    1    2    0    0  0.43596703407E+01 -0.29237981020E+01  0.11675954349E+03  0.17112831578E+03  0.12499821657E+03 0.  0.
          2    1    1    2  501    0 -0.10699773133E+03  0.21754756783E+02 -0.21498744166E+02  0.11128333187E+03  0.00000000000E+00 0. -1.
          1    1    1    2  502    0  0.10263806099E+03 -0.18830958681E+02  0.12089417893E+04  0.12134370303E+04  0.00000000000E+00 0. -1.
         22    1    3    3    0    0 -0.29566227435E+02 -0.55297700669E+02  0.58199052013E+02  0.85551897462E+02  0.00000000000E+00 0. -1.
         22    1    3    3    0    0  0.33925897776E+02  0.52373902567E+02  0.58560491478E+02  0.85576418318E+02  0.00000000000E+00 0. -1.
</event>
<event>
 7    1  0.6386201E-006  0.8247684E+02  0.7818608E-02  0.1360662E+00
          2   -1    0    0  502    0  0.00000000000E+00  0.00000000000E+00  0.11664386482E+04  0.11664386482E+04  0.00000000000E+00 0. -1.
          1   -1    0    0  501    0 -0.00000000000E+00 -0.00000000000E+00 -0.76227250159E+03  0.76227250159E+03  0.00000000000E+00 0. -1.
         25    2    1    2    0    0  0.51012272729E+02 -0.39583178274E+02  0.74456762890E+02  0.15918312493E+03  0.12500551088E+03 0.  0.
          2    1    1    2  501    0  0.32301712749E+02  0.49524084194E+02 -0.71701367313E+03  0.71944745675E+03  0.00000000000E+00 0. -1.
          1    1    1    2  502    0 -0.83313985478E+02 -0.99409059199E+01  0.10467230569E+04  0.10500805682E+04  0.00000000000E+00 0. -1.
         22    1    3    3    0    0  0.37316668162E+02  0.14829737197E+02 -0.23330828941E+02  0.46441171465E+02  0.00000000000E+00 0. -1.
         22    1    3    3    0    0  0.13695604568E+02 -0.54412915471E+02  0.97787591831E+02  0.11274195346E+03  0.00000000000E+00 0. -1.
</event>
<event>
 7    1  0.6386201E-006  0.6869764E+02  0.7818608E-02  0.1394411E+00
          2   -1    0    0  502    0  0.00000000000E+00  0.00000000000E+00  0.29261379602E+04  0.29261379602E+04  0.00000000000E+00 0. -1.
          1   -1    0    0  501    0 -0.00000000000E+00 -0.00000000000E+00 -0.24764044685E+03  0.24764044685E+03  0.00000000000E+00 0. -1.
         25    2    1    2    0    0  0.48814601766E+02  0.15594280469E+02  0.25998137308E+03  0.29298705071E+03  0.12500020242E+03 0.  0.
          2    1    1    2  501    0  0.10039094054E+02 -0.52906760146E+02 -0.22753609486E+03  0.23382169092E+03  0.00000000000E+00 0. -1.
          1    1    1    2  502    0 -0.58853695820E+02  0.37312479678E+02  0.26460522351E+04  0.26469696654E+04  0.00000000000E+00 0. -1.
         22    1    3    3    0    0  0.36140587684E+01 -0.18113119067E+01 -0.14095210953E+02  0.14663466282E+02  0.00000000000E+00 0. -1.
         22    1    3    3    0    0  0.45200542998E+02  0.17405592375E+02  0.27407658403E+03  0.27832358443E+03  0.00000000000E+00 0. -1.
</event>
<event>
 7    1  0.6386201E-006  0.9701948E+02  0.7818608E-02  0.1337160E+00
          2   -1    0    0  502    0  0.00000000000E+00  0.00000000000E+00  0.48034983815E+04  0.48034983815E+04  0.00000000000E+00 0. -1.
          1   -1    0    0  501    0 -0.00000000000E+00 -0.00000000000E+00 -0.43436873896E+03  0.43436873896E+03  0.00000000000E+00 0. -1.
         25    2    1    2    0    0  0.35808207027E+02  0.45753356239E+02  0.11016704226E+04  0.11102600042E+04  0.12499583839E+03 0.  0.
          2    1    1    2  501    0 -0.22769358331E+01 -0.97243666283E+02 -0.42431508305E+03  0.43532149588E+03  0.00000000000E+00 0. -1.
          1    1    1    2  502    0 -0.33531271193E+02  0.51490310043E+02  0.36917743030E+04  0.36922856204E+04  0.00000000000E+00 0. -1.
         22    1    3    3    0    0 -0.71109560078E+01  0.17419950967E+02  0.20342762912E+02  0.27710077407E+02  0.00000000000E+00 0. -1.
         22    1    3    3    0    0  0.42919163034E+02  0.28333405273E+02  0.10813276597E+04  0.10825499268E+04  0.00000000000E+00 0. -1.
</event>
<event>
 7    1  0.6386201E-006  0.1720478E+03  0.7818608E-02  0.1312012E+00
          2   -1    0    0  502    0  0.00000000000E+00  0.00000000000E+00  0.49996461757E+03  0.49996461757E+03  0.00000000000E+00 0. -1.
          1   -1    0    0  501    0 -0.00000000000E+00 -0.00000000000E+00 -0.17509946214E+04  0.17509946214E+04  0.00000000000E+00 0. -1.
         25    2    1    2    0    0  0.17933679961E+01  0.15043375680E+03 -0.43346171709E+03  0.47554414356E+03  0.12497856194E+03 0.  0.
          2    1    1    2  501    0  0.39638342854E+02  0.17452029047E+02 -0.12805045524E+04  0.12812367776E+04  0.00000000000E+00 0. -1.
          1    1    1    2  502    0 -0.41431710850E+02 -0.16788578585E+03  0.46293626565E+03  0.49417831783E+03  0.00000000000E+00 0. -1.
         22    1    3    3    0    0 -0.52399905982E+02  0.31254188754E+02 -0.98013678128E+02  0.11545239522E+03  0.00000000000E+00 0.  1.
         22    1    3    3    0    0  0.54193273978E+02  0.11917956805E+03 -0.33544803896E+03  0.36009174835E+03  0.00000000000E+00 0.  1.
</event>
<event>
 7    1  0.6386201E-006  0.7370808E+02  0.7818608E-02  0.1510524E+00
          2   -1    0    0  502    0  0.00000000000E+00  0.00000000000E+00  0.69854110907E+03  0.69854110907E+03  0.00000000000E+00 0. -1.
          1   -1    0    0  501    0 -0.00000000000E+00 -0.00000000000E+00 -0.15116969938E+03  0.15116969938E+03  0.00000000000E+00 0. -1.
         25    2    1    2    0    0 -0.35366224995E+02  0.42371493683E+02  0.56560333936E+02  0.14788505207E+03  0.12499921561E+03 0.  0.
          2    1    1    2  501    0 -0.19848679908E+02  0.79170109600E+01 -0.10205803378E+03  0.10427123964E+03  0.00000000000E+00 0. -1.
          1    1    1    2  502    0  0.55214904903E+02 -0.50288504642E+02  0.59286910955E+03  0.59755451674E+03  0.00000000000E+00 0. -1.
         22    1    3    3    0    0 -0.25753909329E+02  0.23344474363E+02  0.96523668318E+02  0.10259165110E+03  0.00000000000E+00 0.  1.
         22    1    3    3    0    0 -0.96123156661E+01  0.19027019319E+02 -0.39963334382E+02  0.45293400971E+02  0.00000000000E+00 0.  1.
</event>
<event>
 7    1  0.6386201E-006  0.4706662E+02  0.7818608E-02  0.1465819E+00
          2   -1    0    0  502    0  0.00000000000E+00  0.00000000000E+00  0.35797411678E+03  0.35797411678E+03  0.00000000000E+00 0. -1.
          1   -1    0    0  501    0 -0.00000000000E+00 -0.00000000000E+00 -0.32494018050E+04  0.32494018050E+04  0.00000000000E+00 0. -1.
         25    2    1    2    0    0  0.18934804940E+02 -0.83962668506E+02  0.18328710603E+03  0.23796660649E+03  0.12500274407E+03 0.  0.
          2    1    1    2  501    0 -0.26505060076E+02  0.38861496204E+02 -0.32183375732E+04  0.32186813246E+04  0.00000000000E+00 0. -1.
          1    1    1    2  502    0  0.75702551362E+01  0.45101172303E+02  0.14362277903E+03  0.15072799064E+03  0.00000000000E+00 0. -1.
         22    1    3    3    0    0  0.18015138853E+02 -0.38594300673E+02  0.18760957146E+03  0.19238351431E+03  0.00000000000E+00 0.  1.
         22    1    3    3    0    0  0.91966608666E+00 -0.45368367833E+02 -0.43224654290E+01  0.45583092183E+02  0.00000000000E+00 0.  1.
</event>
<event>
 7    1  0.6386201E-006  0.5087800E+02  0.7818608E-02  0.1531483E+00
          2   -1    0    0  502    0  0.00000000000E+00  0.00000000000E+00  0.20422538434E+04  0.20422538434E+04  0.00000000000E+00 0. -1.
          1   -1    0    0  501    0 -0.00000000000E+00 -0.00000000000E+00 -0.60273796473E+03  0.60273796473E+03  0.00000000000E+00 0. -1.
         25    2    1    2    0    0  0.41091593259E+02  0.65756430410E+02  0.85306574966E+02  0.17004058097E+03  0.12499664103E+03 0.  0.
          2    1    1    2  501    0 -0.26234350010E+02 -0.43313735590E+02 -0.55913209214E+03  0.56142053514E+03  0.00000000000E+00 0. -1.
          1    1    1    2  502    0 -0.14857243249E+02 -0.22442694820E+02  0.19133413958E+04  0.19135306920E+04  0.00000000000E+00 0. -1.
         22    1    3    3    0    0  0.20912593860E+02  0.34252810534E+02 -0.29165065032E+02  0.49610408482E+02  0.00000000000E+00 0.  1.
         22    1    3    3    0    0  0.20178999400E+02  0.31503619876E+02  0.11447164000E+03  0.12043017249E+03  0.00000000000E+00 0.  1.
</event>
<event>
 7    1  0.6386201E-006  0.1350165E+03  0.7818608E-02  0.1276995E+00
          2   -1    0    0  502    0  0.00000000000E+00  0.00000000000E+00  0.22261450385E+04  0.22261450385E+04  0.00000000000E+00 0. -1.
          1   -1    0    0  501    0 -0.00000000000E+00 -0.00000000000E+00 -0.39875142448E+02  0.39875142448E+02  0.00000000000E+00 0. -1.
         25    2    1    2    0    0  0.13840352230E+03 -0.10640948317E+03  0.77037689017E+03  0.79973979701E+03  0.12499870766E+03 0.  0.
          2    1    1    2  501    0 -0.12978541723E+02  0.75323513475E+02  0.43755371052E+02  0.88071599982E+02  0.00000000000E+00 0. -1.
          1    1    1    2  502    0 -0.12542498058E+03  0.31085969691E+02  0.13721376348E+04  0.13782087839E+04  0.00000000000E+00 0. -1.
         22    1    3    3    0    0  0.67230007611E+02 -0.86019573122E+02  0.64468253513E+03  0.65386146238E+03  0.00000000000E+00 0.  1.
         22    1    3    3    0    0  0.71173514689E+02 -0.20389910044E+02  0.12569435504E+03  0.14587833463E+03  0.00000000000E+00 0.  1.
</event>
<event>
 7    1  0.6386201E-006  0.8524801E+02  0.7818608E-02  0.1334002E+00
          2   -1    0    0  502    0  0.00000000000E+00  0.00000000000E+00  0.45604730823E+03  0.45604730823E+03  0.00000000000E+00 0. -1.
          1   -1    0    0  501    0 -0.00000000000E+00 -0.00000000000E+00 -0.17256896043E+03  0.17256896043E+03  0.00000000000E+00 0. -1.
         25    2    1    2    0    0  0.25742057571E+02  0.12982252461E+03  0.21537230893E+03  0.28200599971E+03  0.12500244395E+03 0.  0.
          2    1    1    2  501    0  0.20984352804E+02 -0.68751936393E+02 -0.12196597495E+03  0.14157284650E+03  0.00000000000E+00 0. -1.
          1    1    1    2  502    0 -0.46726410375E+02 -0.61070588220E+02  0.19007201382E+03  0.20503742246E+03  0.00000000000E+00 0. -1.
         22    1    3    3    0    0 -0.17015807285E+02 -0.68424541100E+01  0.89472055027E+02  0.91332390238E+02  0.00000000000E+00 0.  1.
         22    1    3    3    0    0  0.42757864857E+02  0.13666497872E+03  0.12590025390E+03  0.19067360947E+03  0.00000000000E+00 0.  1.
</event>
<event>
 7    1  0.6386201E-006  0.2603495E+02  0.7818608E-02  0.1664176E+00
          2   -1    0    0  502    0  0.00000000000E+00  0.00000000000E+00  0.39453550930E+03  0.39453550930E+03  0.00000000000E+00 0. -1.
          1   -1    0    0  501    0 -0.00000000000E+00 -0.00000000000E+00 -0.42518331206E+02  0.42518331206E+02  0.00000000000E+00 0. -1.
         25    2    1    2    0    0 -0.13325878978E+02 -0.40890048976E+02  0.14905943764E+03  0.19923239865E+03  0.12500103026E+03 0.  0.
          2    1    1    2  501    0 -0.50934473055E+01  0.23029742054E+02 -0.83055860821E+01  0.25005898998E+02  0.00000000000E+00 0. -1.
          1    1    1    2  502    0  0.18419326283E+02  0.17860306923E+02  0.21126332654E+03  0.21281554286E+03  0.00000000000E+00 0. -1.
         22    1    3    3    0    0  0.12854474838E+02 -0.40050621750E+02 -0.55431014663E+01  0.42426593073E+02  0.00000000000E+00 0.  1.
         22    1    3    3    0    0 -0.26180353816E+02 -0.83942722682E+00  0.15460253911E+03  0.15680580558E+03  0.00000000000E+00 0.  1.
</event>
<event>
 7    1  0.6386201E-006  0.6166917E+02  0.7818608E-02  0.1501091E+00
          2   -1    0    0  502    0  0.00000000000E+00  0.00000000000E+00  0.11006049504E+04  0.11006049504E+04  0.00000000000E+00 0. -1.
          1   -1    0    0  501    0 -0.00000000000E+00 -0.00000000000E+00 -0.19887456549E+04  0.19887456549E+04  0.00000000000E+00 0. -1.
         25    2    1    2    0    0 -0.37598050584E+02  0.23223321275E+02  0.63492506975E+03  0.64862010433E+03  0.12500103792E+03 0.  0.
          2    1    1    2  501    0 -0.27220062526E+02 -0.97258414240E+00 -0.19792449803E+04  0.19794323858E+04  0.00000000000E+00 0. -1.
          1    1    1    2  502    0  0.64818113111E+02 -0.22250737132E+02  0.45617920600E+03  0.46129811519E+03  0.00000000000E+00 0. -1.
         22    1    3    3    0    0 -0.76183597321E+02  0.25112418411E+02  0.54321198131E+03  0.54910275058E+03  0.00000000000E+00 0.  1.
         22    1    3    3    0    0  0.38585546736E+02 -0.18890971368E+01  0.91713088447E+02  0.99517353750E+02  0.00000000000E+00 0.  1.
</event>
<event>
 7    1  0.6386201E-006  0.1005060E+03  0.7818608E-02  0.1362790E+00
          2   -1    0    0  502    0  0.00000000000E+00  0.00000000000E+00  0.17160768703E+03  0.17160768703E+03  0.00000000000E+00 0. -1.
          1   -1    0    0  501    0 -0.00000000000E+00 -0.00000000000E+00 -0.14477676202E+04  0.14477676202E+04  0.00000000000E+00 0. -1.
         25    2    1    2    0    0  0.14271849192E+03 -0.78938416205E+00  0.43823843670E+02  0.19471011258E+03  0.12498922995E+03 0.  0.
          2    1    1    2  501    0 -0.98260190863E+02  0.17972182403E+02 -0.13592470299E+04  0.13629125257E+04  0.00000000000E+00 0. -1.
          1    1    1    2  502    0 -0.44458301060E+02 -0.17182798241E+02  0.39263253013E+02  0.61752668976E+02  0.00000000000E+00 0. -1.
         22    1    3    3    0    0  0.11791485039E+03  0.21368452571E+02 -0.21179043649E+02  0.12169254126E+03  0.00000000000E+00 0. -1.
         22    1    3    3    0    0  0.24803641529E+02 -0.22157836733E+02  0.65002887319E+02  0.73017571321E+02  0.00000000000E+00 0. -1.
</event>
<event>
 7    1  0.6475523E-006  0.7299766E+02  0.7818608E-02  0.1366679E+00
          2   -1    0    0  502    0  0.00000000000E+00  0.00000000000E+00  0.92870830424E+03  0.92870830424E+03  0.00000000000E+00 0. -1.
          1   -1    0    0  501    0 -0.00000000000E+00 -0.00000000000E+00 -0.14381542793E+04  0.14381542793E+04  0.00000000000E+00 0. -1.
         25    2    1    2    0    0  0.72453711154E+02  0.10228149991E+03 -0.21773949931E+03  0.28061735260E+03  0.12499825414E+03 0.  0.
          2    1    1    2  501    0 -0.11580097825E+02 -0.62465190562E+02 -0.11866505954E+04  0.11883499629E+04  0.00000000000E+00 0. -1.
          1    1    1    2  502    0 -0.60873613329E+02 -0.39816309346E+02  0.89494411961E+03  0.89789526812E+03  0.00000000000E+00 0. -1.
         22    1    3    3    0    0  0.55335586623E+02  0.12739393541E+03 -0.14027342021E+03  0.19740282253E+03  0.00000000000E+00 0. -1.
         22    1    3    3    0    0  0.17118124531E+02 -0.25112435498E+02 -0.77466079099E+02  0.83214530072E+02  0.00000000000E+00 0. -1.
</event>
<event>
 7    1  0.6386201E-006  0.6476309E+02  0.7818608E-02  0.1383219E+00
          2   -1    0    0  502    0  0.00000000000E+00  0.00000000000E+00  0.30633354078E+03  0.30633354078E+03  0.00000000000E+00 0. -1.
          1   -1    0    0  501    0 -0.00000000000E+00 -0.00000000000E+00 -0.48201657667E+03  0.48201657667E+03  0.00000000000E+00 0. -1.
         25    2    1    2    0    0 -0.12503814746E+03  0.29705111101E+01  0.16692467845E+03  0.24317000208E+03  0.12499775750E+03 0.  0.
          2    1    1    2  501    0  0.63084775865E+02 -0.11271493647E+02 -0.43165399708E+03  0.43638504639E+03  0.00000000000E+00 0. -1.
          1    1    1    2  502    0  0.61953371591E+02  0.83009825365E+01  0.89046282745E+02  0.10879506898E+03  0.00000000000E+00 0. -1.
         22    1    3    3    0    0  0.13324417744E+01  0.43821827918E+02  0.46191497921E+02  0.63685025582E+02  0.00000000000E+00 0.  1.
         22    1    3    3    0    0 -0.12637058923E+03 -0.40851316808E+02  0.12073318053E+03  0.17948497650E+03  0.00000000000E+00 0.  1.
</event>
<event>
 7    1  0.6386201E-006  0.6097438E+02  0.7818608E-02  0.1400804E+00
          2   -1    0    0  502    0  0.00000000000E+00  0.00000000000E+00  0.19597279802E+03  0.19597279802E+03  0.00000000000E+00 0. -1.
          1   -1    0    0  501    0 -0.00000000000E+00 -0.00000000000E+00 -0.17511996192E+03  0.17511996192E+03  0.00000000000E+00 0. -1.
         25    2    1    2    0    0  0.72530476668E+02  0.23033775814E+02  0.13339490343E+02  0.14694997254E+03  0.12500051021E+03 0.  0.
          2    1    1    2  501    0 -0.25466525005E+02 -0.56356727571E+02 -0.90980369305E+02  0.11000932796E+03  0.00000000000E+00 0. -1.
          1    1    1    2  502    0 -0.47063951663E+02  0.33322951757E+02  0.98493715056E+02  0.11413345945E+03  0.00000000000E+00 0. -1.
         22    1    3    3    0    0  0.10816470861E+03  0.23297570095E+02  0.82393547155E+01  0.11095164679E+03  0.00000000000E+00 0.  1.
         22    1    3    3    0    0 -0.35634231937E+02 -0.26379428093E+00  0.51001356279E+01  0.35998325747E+02  0.00000000000E+00 0.  1.
</event>
<event>
 7    1  0.6386201E-006  0.8912629E+02  0.7818608E-02  0.1386980E+00
          2   -1    0    0  502    0  0.00000000000E+00  0.00000000000E+00  0.84915493262E+03  0.84915493262E+03  0.00000000000E+00 0. -1.
          1   -1    0    0  501    0 -0.00000000000E+00 -0.00000000000E+00 -0.13495720991E+03  0.13495720991E+03  0.00000000000E+00 0. -1.
         25    2    1    2    0    0  0.63069238186E+02 -0.21577336446E+02  0.23089513833E+03  0.27088897970E+03  0.12499985666E+03 0.  0.
          2    1    1    2  501    0  0.50161966062E+01 -0.43772171000E+02 -0.10684757022E+03  0.11557494730E+03  0.00000000000E+00 0. -1.
          1    1    1    2  502    0 -0.68085434792E+02  0.65349507446E+02  0.59015015460E+03  0.59764821553E+03  0.00000000000E+00 0. -1.
         22    1    3    3    0    0  0.31005258162E+02 -0.36999394730E+02  0.23029908829E+03  0.23530395515E+03  0.00000000000E+00 0.  1.
         22    1    3    3    0    0  0.32063980023E+02  0.15422058284E+02  0.59605004357E+00  0.35585024551E+02  0.00000000000E+00 0.  1.
</event>
<event>
 7    1  0.6386201E-006  0.1593447E+03  0.7818608E-02  0.1310318E+00
          2   -1    0    0  502    0  0.00000000000E+00  0.00000000000E+00  0.70328052953E+03  0.70328052953E+03  0.00000000000E+00 0. -1.
          1   -1    0    0  501    0 -0.00000000000E+00 -0.00000000000E+00 -0.20336353330E+04  0.20336353330E+04  0.00000000000E+00 0. -1.
         25    2    1    2    0    0 -0.12476069825E+03 -0.56028189970E+02  0.21000845205E+03  0.28005704293E+03  0.12499602977E+03 0.  0.
          2    1    1    2  501    0 -0.42373797785E+02  0.21433583077E+02 -0.19824243918E+04  0.19829930424E+04  0.00000000000E+00 0. -1.
          1    1    1    2  502    0  0.16713449604E+03  0.34594606892E+02  0.44206113625E+03  0.47386577717E+03  0.00000000000E+00 0. -1.
         22    1    3    3    0    0  0.11370536911E+02 -0.43994643426E+01 -0.10317889689E+02  0.15971951784E+02  0.00000000000E+00 0.  1.
         22    1    3    3    0    0 -0.13613123516E+03 -0.51628725627E+02  0.22032634174E+03  0.26408509114E+03  0.00000000000E+00 0.  1.
</event>
<event>
 7    1  0.6386201E-006  0.5557586E+02  0.7818608E-02  0.1449927E+00
          2   -1    0    0  502    0  0.00000000000E+00  0.00000000000E+00  0.19932187076E+04  0.19932187076E+04  0.00000000000E+00 0. -1.
          1   -1    0    0  501    0 -0.00000000000E+00 -0.00000000000E+00 -0.70559336385E+03  0.70559336385E+03  0.00000000000E+00 0. -1.
         25    2    1    2    0    0  0.48755015571E+02  0.94633722923E+01  0.93988079686E+02  0.16408902420E+03  0.12499936713E+03 0.  0.
          2    1    1    2  501    0 -0.28503969540E+02 -0.47944200623E+02 -0.66912878727E+03  0.67144951903E+03  0.00000000000E+00 0. -1.
          1    1    1    2  502    0 -0.20251046032E+02  0.38480828331E+02  0.18627660513E+04  0.18632735282E+04  0.00000000000E+00 0. -1.
         22    1    3    3    0    0 -0.16982503426E+02  0.52397556483E+02  0.29492412371E+02  0.62479690583E+02  0.00000000000E+00 0.  1.
         22    1    3    3    0    0  0.65737518997E+02 -0.42934184190E+02  0.64495667315E+02  0.10160933362E+03  0.00000000000E+00 0.  1.
</event>
<event>
 7    1  0.6386201E-006  0.5679964E+02  0.7818608E-02  0.1415946E+00
          2   -1    0    0  502    0  0.00000000000E+00  0.00000000000E+00  0.51131523154E+02  0.51131523154E+02  0.00000000000E+00 0. -1.
          1   -1    0    0  501    0 -0.00000000000E+00 -0.00000000000E+00 -0.11976293013E+04  0.11976293013E+04  0.00000000000E+00 0. -1.
         25    2    1    2    0    0 -0.16121695804E+02  0.18040631418E+02 -0.85184224790E+02  0.15318978369E+03  0.12500153686E+03 0.  0.
          2    1    1    2  501    0 -0.39564954283E+02  0.40753085284E+02 -0.97706363293E+03  0.97871320741E+03  0.00000000000E+00 0. -1.
          1    1    1    2  502    0  0.55686650087E+02 -0.58793716703E+02 -0.84249920401E+02  0.11685783332E+03  0.00000000000E+00 0. -1.
         22    1    3    3    0    0  0.11128190738E+02 -0.50376209707E+02 -0.21733344106E+02  0.55981580717E+02  0.00000000000E+00 0.  1.
         22    1    3    3    0    0 -0.27249886541E+02  0.68416841126E+02 -0.63450880684E+02  0.97208202975E+02  0.00000000000E+00 0.  1.
</event>
<event>
 7    1  0.6386201E-006  0.7516499E+02  0.7818608E-02  0.1376015E+00
          2   -1    0    0  502    0  0.00000000000E+00  0.00000000000E+00  0.12011919514E+04  0.12011919514E+04  0.00000000000E+00 0. -1.
          1   -1    0    0  501    0 -0.00000000000E+00 -0.00000000000E+00 -0.17910982925E+03  0.17910982925E+03  0.00000000000E+00 0. -1.
         25    2    1    2    0    0 -0.95140871060E+02 -0.25424658060E+02  0.58690672606E+03  0.60809764736E+03  0.12500018017E+03 0.  0.
          2    1    1    2  501    0  0.48028029295E+02  0.57717854729E+02 -0.15871127135E+03  0.17557707710E+03  0.00000000000E+00 0. -1.
          1    1    1    2  502    0  0.47112841765E+02 -0.32293196669E+02  0.59388666746E+03  0.59662705621E+03  0.00000000000E+00 0. -1.
         22    1    3    3    0    0 -0.75183767727E+02 -0.74690666249E+02  0.39137346259E+03  0.40546822535E+03  0.00000000000E+00 0.  1.
         22    1    3    3    0    0 -0.19957103332E+02  0.49266008190E+02  0.19553326347E+03  0.20262942200E+03  0.00000000000E+00 0.  1.
</event>
<event>
 7    1  0.6386201E-006  0.4993815E+02  0.7818608E-02  0.1516636E+00
          2   -1    0    0  502    0  0.00000000000E+00  0.00000000000E+00  0.64811028241E+03  0.64811028241E+03  0.00000000000E+00 0. -1.
          1   -1    0    0  501    0 -0.00000000000E+00 -0.00000000000E+00 -0.76893390718E+03  0.76893390718E+03  0.00000000000E+00 0. -1.
         25    2    1    2    0    0 -0.60949430139E+02 -0.15281555165E+02  0.89307126975E+02  0.16598035473E+03  0.12500142505E+03 0.  0.
          2    1    1    2  501    0  0.36873240710E+02  0.33623592422E+02 -0.72930391745E+03  0.73100915579E+03  0.00000000000E+00 0. -1.
          1    1    1    2  502    0  0.24076189429E+02 -0.18342037257E+02  0.51917316571E+03  0.52005467907E+03  0.00000000000E+00 0. -1.
         22    1    3    3    0    0 -0.73548206943E+02 -0.58989988995E+02  0.56786100127E+02  0.11006279441E+03  0.00000000000E+00 0. -1.
         22    1    3    3    0    0  0.12598776804E+02  0.43708433830E+02  0.32521026848E+02  0.55917560319E+02  0.00000000000E+00 0. -1.
</event>
<event>
 7    1  0.6386201E-006  0.1017441E+03  0.7818608E-02  0.1440077E+00
          2   -1    0    0  502    0  0.00000000000E+00  0.00000000000E+00  0.28482561265E+04  0.28482561265E+04  0.00000000000E+00 0. -1.
          1   -1    0    0  501    0 -0.00000000000E+00 -0.00000000000E+00 -0.17774821906E+03  0.17774821906E+03  0.00000000000E+00 0. -1.
         25    2    1    2    0    0  0.12353444946E+03 -0.16024522119E+02  0.76726315801E+03  0.78729585062E+03  0.12499782901E+03 0.  0.
          2    1    1    2  501    0 -0.25178618824E+02  0.43606421641E+01 -0.16556692807E+03  0.16752726857E+03  0.00000000000E+00 0. -1.
          1    1    1    2  502    0 -0.98355830639E+02  0.11663879955E+02  0.20688116775E+04  0.20711812263E+04  0.00000000000E+00 0. -1.
         22    1    3    3    0    0  0.12245663441E+03 -0.32617539728E+02  0.39864746926E+03  0.41830531428E+03  0.00000000000E+00 0. -1.
         22    1    3    3    0    0  0.10778150560E+01  0.16593017609E+02  0.36861568875E+03  0.36899053635E+03  0.00000000000E+00 0. -1.
</event>
<event>
 7    1  0.6386201E-006  0.5744148E+02  0.7818608E-02  0.1414763E+00
          2   -1    0    0  502    0  0.00000000000E+00  0.00000000000E+00  0.37846985422E+04  0.37846985422E+04  0.00000000000E+00 0. -1.
          1   -1    0    0  501    0 -0.00000000000E+00 -0.00000000000E+00 -0.14222383551E+02  0.14222383551E+02  0.00000000000E+00 0. -1.
         25    2    1    2    0    0  0.68069682566E+00 -0.13284475033E+02  0.72512015378E+03  0.73593555144E+03  0.12499983131E+03 0.  0.
          2    1    1    2  501    0 -0.57368483848E+02  0.28949376939E+01  0.88125152732E+02  0.10519299476E+03  0.00000000000E+00 0. -1.
          1    1    1    2  502    0  0.56687787023E+02  0.10389537339E+02  0.29572308521E+04  0.29577923796E+04  0.00000000000E+00 0. -1.
         22    1    3    3    0    0  0.61594461098E+02  0.74968813138E-01  0.42155544560E+03  0.42603154458E+03  0.00000000000E+00 0.  1.
         22    1    3    3    0    0 -0.60913764272E+02 -0.13359443846E+02  0.30356470818E+03  0.30990400686E+03  0.00000000000E+00 0.  1.
</event>
<event>
 7    1  0.6386201E-006  0.1227744E+03  0.7818608E-02  0.1360957E+00
          2   -1    0    0  502    0  0.00000000000E+00  0.00000000000E+00  0.61424937031E+03  0.61424937031E+03  0.00000000000E+00 0. -1.
          1   -1    0    0  501    0 -0.00000000000E+00 -0.00000000000E+00 -0.61835418974E+03  0.61835418974E+03  0.00000000000E+00 0. -1.
         25    2    1    2    0    0  0.10311817715E+03 -0.74555892979E+02 -0.11170533781E+03  0.21046438994E+03  0.12500094920E+03 0.  0.
          2    1    1    2  501    0 -0.72279907848E+02  0.99433808983E+02 -0.44828962820E+03  0.46483874430E+03  0.00000000000E+00 0. -1.
          1    1    1    2  502    0 -0.30838269306E+02 -0.24877916004E+02  0.55589014658E+03  0.55730042582E+03  0.00000000000E+00 0. -1.
         22    1    3    3    0    0  0.34433330093E+02 -0.25400480729E+02  0.25158536231E+02  0.49636585175E+02  0.00000000000E+00 0. -1.
         22    1    3    3    0    0  0.68684847062E+02 -0.49155412250E+02 -0.13686387404E+03  0.16082780477E+03  0.00000000000E+00 0. -1.
</event>
<event>
 7    1  0.6386201E-006  0.9660560E+02  0.7818608E-02  0.1324497E+00
          2   -1    0    0  502    0  0.00000000000E+00  0.00000000000E+00  0.60476088813E+02  0.60476088813E+02  0.00000000000E+00 0. -1.
          1   -1    0    0  501    0 -0.00000000000E+00 -0.00000000000E+00 -0.25404446429E+04  0.25404446429E+04  0.00000000000E+00 0. -1.
         25    2    1    2    0    0 -0.41851227646E+02 -0.31375590103E+02 -0.30165427269E+03  0.33069114562E+03  0.12500152259E+03 0.  0.
          2    1    1    2  501    0 -0.64806726681E+02  0.23600825699E+02 -0.21607563999E+04  0.21618568710E+04  0.00000000000E+00 0. -1.
          1    1    1    2  502    0  0.10665795433E+03  0.77747644041E+01 -0.17557881494E+02  0.10837271513E+03  0.00000000000E+00 0. -1.
         22    1    3    3    0    0  0.65607332542E+01 -0.67923605953E+02 -0.10793878635E+03  0.12770059148E+03  0.00000000000E+00 0.  1.
         22    1    3    3    0    0 -0.48411960900E+02  0.36548015850E+02 -0.19371548634E+03  0.20299055413E+03  0.00000000000E+00 0.  1.
</event>
<event>
 7    1  0.6386201E-006  0.6083353E+02  0.7818608E-02  0.1409506E+00
          2   -1    0    0  502    0  0.00000000000E+00  0.00000000000E+00  0.17287725417E+03  0.17287725417E+03  0.00000000000E+00 0. -1.
          1   -1    0    0  501    0 -0.00000000000E+00 -0.00000000000E+00 -0.63189940973E+03  0.63189940973E+03  0.00000000000E+00 0. -1.
         25    2    1    2    0    0 -0.27287706383E+02 -0.21902197149E+02 -0.75573200263E+02  0.15020154377E+03  0.12499947997E+03 0.  0.
          2    1    1    2  501    0 -0.83128337488E+01  0.62478236664E+02 -0.51162686726E+03  0.51549460188E+03  0.00000000000E+00 0. -1.
          1    1    1    2  502    0  0.35600540131E+02 -0.40576039516E+02  0.12817791197E+03  0.13908051825E+03  0.00000000000E+00 0. -1.
         22    1    3    3    0    0 -0.36386583596E+02  0.43434893963E+02 -0.10667977219E+02  0.57657429853E+02  0.00000000000E+00 0.  1.
         22    1    3    3    0    0  0.90988772134E+01 -0.65337091111E+02 -0.64905223044E+02  0.92544113912E+02  0.00000000000E+00 0.  1.
</event>
<event>
 7    1  0.6386201E-006  0.7418659E+02  0.7818608E-02  0.1417540E+00
          2   -1    0    0  502    0  0.00000000000E+00  0.00000000000E+00  0.18843837133E+04  0.18843837133E+04  0.00000000000E+00 0. -1.
          1   -1    0    0  501    0 -0.00000000000E+00 -0.00000000000E+00 -0.11849337910E+04  0.11849337910E+04  0.00000000000E+00 0. -1.
         25    2    1    2    0    0 -0.17974174066E+02  0.39990429342E+02 -0.22384215897E+02  0.13434580184E+03  0.12500174390E+03 0.  0.
          2    1    1    2  501    0 -0.47194347490E+01 -0.74840215966E+02 -0.11050614248E+04  0.11076028547E+04  0.00000000000E+00 0. -1.
          1    1    1    2  502    0  0.22693608815E+02  0.34849786624E+02  0.18268955631E+04  0.18273688478E+04  0.00000000000E+00 0. -1.
         22    1    3    3    0    0 -0.59862239981E+02 -0.83969614666E+01  0.12099396500E+02  0.61647320567E+02  0.00000000000E+00 0. -1.
         22    1    3    3    0    0  0.41888065915E+02  0.48387390809E+02 -0.34483612396E+02  0.72698481272E+02  0.00000000000E+00 0. -1.
</event>
<event>
 7    1  0.6386201E-006  0.4717848E+02  0.7818608E-02  0.1534082E+00
          2   -1    0    0  502    0  0.00000000000E+00  0.00000000000E+00  0.16914168740E+03  0.16914168740E+03  0.00000000000E+00 0. -1.
          1   -1    0    0  501    0 -0.00000000000E+00 -0.00000000000E+00 -0.11749934582E+04  0.11749934582E+04  0.00000000000E+00 0. -1.
         25    2    1    2    0    0  0.82954655831E+01 -0.58115728209E+02 -0.14499420676E+02  0.13886081031E+03  0.12500335525E+03 0.  0.
          2    1    1    2  501    0  0.16577143232E+02  0.44132108435E+02 -0.10958945219E+04  0.10969080398E+04  0.00000000000E+00 0. -1.
          1    1    1    2  502    0 -0.24872608815E+02  0.13983619774E+02  0.10454217183E+03  0.10836629542E+03  0.00000000000E+00 0. -1.
         22    1    3    3    0    0 -0.11402521455E+02 -0.68901752914E+02 -0.57424459140E+02  0.90415914295E+02  0.00000000000E+00 0.  1.
         22    1    3    3    0    0  0.19697987038E+02  0.10786024706E+02  0.42925038464E+02  0.48444896010E+02  0.00000000000E+00 0.  1.
</event>
<event>
 7    1  0.6386201E-006  0.7131303E+02  0.7818608E-02  0.1405165E+00
          2   -1    0    0  502    0  0.00000000000E+00  0.00000000000E+00  0.69195443698E+03  0.69195443698E+03  0.00000000000E+00 0. -1.
          1   -1    0    0  501    0 -0.00000000000E+00 -0.00000000000E+00 -0.57386828982E+02  0.57386828982E+02  0.00000000000E+00 0. -1.
         25    2    1    2    0    0 -0.38926704600E+02 -0.40500534416E+02  0.35874978003E+03  0.38403290247E+03  0.12499713551E+03 0.  0.
          2    1    1    2  501    0 -0.40677805733E+02  0.24796978075E+02 -0.24957166378E+02  0.53781355083E+02  0.00000000000E+00 0. -1.
          1    1    1    2  502    0  0.79604510333E+02  0.15703556341E+02  0.30077499435E+03  0.31152700841E+03  0.00000000000E+00 0. -1.
         22    1    3    3    0    0 -0.45904661877E+02  0.30196175311E+02  0.84979215903E+02  0.10119542540E+03  0.00000000000E+00 0.  1.
         22    1    3    3    0    0  0.69779572771E+01 -0.70696709727E+02  0.27377056413E+03  0.28283747707E+03  0.00000000000E+00 0.  1.
</event>
<event>
 7    1  0.6386201E-006  0.1391842E+03  0.7818608E-02  0.1332249E+00
          2   -1    0    0  502    0  0.00000000000E+00  0.00000000000E+00  0.24342504531E+04  0.24342504531E+04  0.00000000000E+00 0. -1.
          1   -1    0    0  501    0 -0.00000000000E+00 -0.00000000000E+00 -0.71779821625E+03  0.71779821625E+03  0.00000000000E+00 0. -1.
         25    2    1    2    0    0  0.97190112448E+02  0.13759710627E+03  0.86180600645E+02  0.22678047239E+03  0.12499362031E+03 0.  0.
          2    1    1    2  501    0 -0.53734577704E+02 -0.12708781967E+03 -0.63992480975E+03  0.65463156117E+03  0.00000000000E+00 0. -1.
          1    1    1    2  502    0 -0.43455534744E+02 -0.10509286600E+02  0.22701964459E+04  0.22706366358E+04  0.00000000000E+00 0. -1.
         22    1    3    3    0    0  0.11470277381E+03  0.14913945209E+03  0.71954041827E+02  0.20143655732E+03  0.00000000000E+00 0. -1.
         22    1    3    3    0    0 -0.17512661360E+02 -0.11542345826E+02  0.14226558818E+02  0.25343915066E+02  0.00000000000E+00 0. -1.
</event>
<event>
 7    1  0.6386201E-006  0.5802072E+02  0.7818608E-02  0.1414902E+00
          2   -1    0    0  502    0  0.00000000000E+00  0.00000000000E+00  0.33304507234E+03  0.33304507234E+03  0.00000000000E+00 0. -1.
          1   -1    0    0  501    0 -0.00000000000E+00 -0.00000000000E+00 -0.10007763760E+04  0.10007763760E+04  0.00000000000E+00 0. -1.
         25    2    1    2    0    0  0.74170542791E+02 -0.40565454721E+02 -0.12282366977E+03  0.19456971853E+03  0.12499958391E+03 0.  0.
          2    1    1    2  501    0 -0.17315593672E+02  0.51433862694E+02 -0.83837524176E+03  0.84012994115E+03  0.00000000000E+00 0. -1.
          1    1    1    2  502    0 -0.56854949119E+02 -0.10868407973E+02  0.29346760791E+03  0.29912178862E+03  0.00000000000E+00 0. -1.
         22    1    3    3    0    0  0.40577082163E+02 -0.82008092059E+02 -0.49913949642E+02  0.10422681579E+03  0.00000000000E+00 0.  1.
         22    1    3    3    0    0  0.33593460628E+02  0.41442637338E+02 -0.72909720129E+02  0.90342902742E+02  0.00000000000E+00 0.  1.
</event>
<event>
 7    1  0.6386201E-006  0.6066443E+02  0.7818608E-02  0.1447846E+00
          2   -1    0    0  502    0  0.00000000000E+00  0.00000000000E+00  0.21561635664E+04  0.21561635664E+04  0.00000000000E+00 0. -1.
          1   -1    0    0  501    0 -0.00000000000E+00 -0.00000000000E+00 -0.30388953827E+02  0.30388953827E+02  0.00000000000E+00 0. -1.
         25    2    1    2    0    0  0.11595420631E+02 -0.18201198527E+02  0.23296443231E+03  0.26525925613E+03  0.12499723530E+03 0.  0.
          2    1    1    2  501    0  0.16871437904E+02 -0.36767236894E+02  0.16063512335E+02  0.43525987114E+02  0.00000000000E+00 0. -1.
          1    1    1    2  502    0 -0.28466858536E+02  0.54968435420E+02  0.18767466679E+04  0.18777672769E+04  0.00000000000E+00 0. -1.
         22    1    3    3    0    0  0.20893351525E+02 -0.66553804583E+02  0.88824097905E+02  0.11294096427E+03  0.00000000000E+00 0. -1.
         22    1    3    3    0    0 -0.92979308941E+01  0.48352606057E+02  0.14414033440E+03  0.15231829185E+03  0.00000000000E+00 0. -1.
</event>
<event>
 7    1  0.6386201E-006  0.5250289E+02  0.7818608E-02  0.1446927E+00
          2   -1    0    0  502    0  0.00000000000E+00  0.00000000000E+00  0.80447210866E+03  0.80447210866E+03  0.00000000000E+00 0. -1.
          1   -1    0    0  501    0 -0.00000000000E+00 -0.00000000000E+00 -0.18810872374E+04  0.18810872374E+04  0.00000000000E+00 0. -1.
         25    2    1    2    0    0  0.79077018520E+01 -0.23327161022E+00  0.43328964304E+03  0.45101982260E+03  0.12496551304E+03 0.  0.
          2    1    1    2  501    0 -0.39500186442E+02 -0.34646539106E+02 -0.18703235164E+04  0.18710613841E+04  0.00000000000E+00 0. -1.
          1    1    1    2  502    0  0.31592484590E+02  0.34879810716E+02  0.36041874461E+03  0.36347813929E+03  0.00000000000E+00 0. -1.
         22    1    3    3    0    0 -0.13326479492E+02 -0.53999753458E+01  0.42838017183E+03  0.42862142551E+03  0.00000000000E+00 0.  1.
         22    1    3    3    0    0  0.21234181344E+02  0.51667037356E+01  0.49094712133E+01  0.22398397095E+02  0.00000000000E+00 0.  1.
</event>
<event>
 7    1  0.6386201E-006  0.1048005E+03  0.7818608E-02  0.1442031E+00
          2   -1    0    0  502    0  0.00000000000E+00  0.00000000000E+00  0.11374017237E+04  0.11374017237E+04  0.00000000000E+00 0. -1.
          1   -1    0    0  501    0 -0.00000000000E+00 -0.00000000000E+00 -0.38433094030E+03  0.38433094030E+03  0.00000000000E+00 0. -1.
         25    2    1    2    0    0  0.90318460014E+02 -0.21909002052E+02  0.66454071844E+03  0.68255187159E+03  0.12500104941E+03 0.  0.
          2    1    1    2  501    0 -0.10492783712E+03  0.23046861552E+01 -0.36765452956E+03  0.38234149093E+03  0.00000000000E+00 0. -1.
          1    1    1    2  502    0  0.14609377103E+02  0.19604315896E+02  0.45618459451E+03  0.45683930147E+03  0.00000000000E+00 0. -1.
         22    1    3    3    0    0  0.90105779465E+02  0.23617926025E+02  0.27474313061E+03  0.29010454278E+03  0.00000000000E+00 0. -1.
         22    1    3    3    0    0  0.21268054980E+00 -0.45526928076E+02  0.38979758783E+03  0.39244732881E+03  0.00000000000E+00 0. -1.
</event>
<event>
 7    1  0.6386201E-006  0.2838685E+03  0.7818608E-02  0.1221643E+00
          2   -1    0    0  502    0  0.00000000000E+00  0.00000000000E+00  0.35116573351E+03  0.35116573351E+03  0.00000000000E+00 0. -1.
          1   -1    0    0  501    0 -0.00000000000E+00 -0.00000000000E+00 -0.20587369045E+04  0.20587369045E+04  0.00000000000E+00 0. -1.
         25    2    1    2    0    0  0.81965933516E+01 -0.23190146928E+03 -0.27913723081E+03  0.38391350529E+03  0.12500604115E+03 0.  0.
          2    1    1    2  501    0  0.18299481176E+01 -0.63225348755E+02 -0.16534946090E+04  0.16547039661E+04  0.00000000000E+00 0. -1.
          1    1    1    2  502    0 -0.10026541469E+02  0.29512681803E+03  0.22506066886E+03  0.37128516658E+03  0.00000000000E+00 0. -1.
         22    1    3    3    0    0 -0.24983791636E+02 -0.20960381762E+03 -0.18142451483E+03  0.27833936981E+03  0.00000000000E+00 0. -1.
         22    1    3    3    0    0  0.33180384988E+02 -0.22297651655E+02 -0.97712715980E+02  0.10557413548E+03  0.00000000000E+00 0. -1.
</event>
<event>
 7    1  0.6386201E-006  0.6869290E+02  0.7818608E-02  0.1445852E+00
          2   -1    0    0  502    0  0.00000000000E+00  0.00000000000E+00  0.16377123608E+03  0.16377123608E+03  0.00000000000E+00 0. -1.
          1   -1    0    0  501    0 -0.00000000000E+00 -0.00000000000E+00 -0.85675195907E+03  0.85675195907E+03  0.00000000000E+00 0. -1.
         25    2    1    2    0    0  0.23592540520E+01 -0.75175223299E+02 -0.26460838024E+03  0.30215922341E+03  0.12500288444E+03 0.  0.
          2    1    1    2  501    0  0.32564511447E+02  0.15939669986E+02 -0.56460101646E+03  0.56576393335E+03  0.00000000000E+00 0. -1.
          1    1    1    2  502    0 -0.34923765499E+02  0.59235553313E+02  0.13622867372E+03  0.15260003839E+03  0.00000000000E+00 0. -1.
         22    1    3    3    0    0 -0.53097056665E+02 -0.80854049342E+00 -0.94259627031E+02  0.10818885549E+03  0.00000000000E+00 0. -1.
         22    1    3    3    0    0  0.55456310717E+02 -0.74366682806E+02 -0.17034875321E+03  0.19397036792E+03  0.00000000000E+00 0. -1.
</event>
<event>
 7    1  0.6386201E-006  0.6187774E+02  0.7818608E-02  0.1513496E+00
          2   -1    0    0  502    0  0.00000000000E+00  0.00000000000E+00  0.38650004036E+03  0.38650004036E+03  0.00000000000E+00 0. -1.
          1   -1    0    0  501    0 -0.00000000000E+00 -0.00000000000E+00 -0.22470441027E+03  0.22470441027E+03  0.00000000000E+00 0. -1.
         25    2    1    2    0    0  0.22895046900E+01 -0.77209883303E+02  0.80822004285E+02  0.16770184497E+03  0.12500041807E+03 0.  0.
          2    1    1    2  501    0  0.15218774284E+02  0.59436280027E+02 -0.17544997416E+03  0.18586816808E+03  0.00000000000E+00 0. -1.
          1    1    1    2  502    0 -0.17508278974E+02  0.17773603276E+02  0.25642359997E+03  0.25763443758E+03  0.00000000000E+00 0. -1.
         22    1    3    3    0    0  0.17535798117E+02 -0.62595522420E+02 -0.17352356916E+02  0.67281557155E+02  0.00000000000E+00 0. -1.
         22    1    3    3    0    0 -0.15246293427E+02 -0.14614360883E+02  0.98174361200E+02  0.10042028781E+03  0.00000000000E+00 0. -1.
</event>
<event>
 7    1  0.6386201E-006  0.6777645E+02  0.7818608E-02  0.1457754E+00
          2   -1    0    0  502    0  0.00000000000E+00  0.00000000000E+00  0.10104661734E+03  0.10104661734E+03  0.00000000000E+00 0. -1.
          1   -1    0    0  501    0 -0.00000000000E+00 -0.00000000000E+00 -0.19785843402E+04  0.19785843402E+04  0.00000000000E+00 0. -1.
         25    2    1    2    0    0 -0.31324709435E+02  0.95754682928E+02 -0.66028620080E+03  0.67952479725E+03  0.12500354553E+03 0.  0.
          2    1    1    2  501    0  0.12356601927E+02 -0.31319957441E+02 -0.12960940076E+04  0.12965312576E+04  0.00000000000E+00 0. -1.
          1    1    1    2  502    0  0.18968107508E+02 -0.64434725487E+02  0.78842485515E+02  0.10357490272E+03  0.00000000000E+00 0. -1.
         22    1    3    3    0    0 -0.33168449799E+02 -0.14889627913E+02 -0.31125839342E+03  0.31337459143E+03  0.00000000000E+00 0. -1.
         22    1    3    3    0    0  0.18437403636E+01  0.11064431084E+03 -0.34902780738E+03  0.36615020582E+03  0.00000000000E+00 0. -1.
</event>
<event>
 7    1  0.6386201E-006  0.1052909E+03  0.7818608E-02  0.1319393E+00
          2   -1    0    0  502    0  0.00000000000E+00  0.00000000000E+00  0.76338188578E+03  0.76338188578E+03  0.00000000000E+00 0. -1.
          1   -1    0    0  501    0 -0.00000000000E+00 -0.00000000000E+00 -0.98500781204E+02  0.98500781204E+02  0.00000000000E+00 0. -1.
         25    2    1    2    0    0 -0.22628104579E+02 -0.25997973608E+02  0.22611233321E+02  0.13161553631E+03  0.12499382296E+03 0.  0.
          2    1    1    2  501    0 -0.37831366708E+02  0.11220021399E+03  0.49697496173E+02  0.12841316697E+03  0.00000000000E+00 0. -1.
          1    1    1    2  502    0  0.60459471287E+02 -0.86202240379E+02  0.59257237508E+03  0.60185396370E+03  0.00000000000E+00 0. -1.
         22    1    3    3    0    0  0.25229992852E+01  0.20138186042E+02  0.62455851284E+02  0.65670734898E+02  0.00000000000E+00 0. -1.
         22    1    3    3    0    0 -0.25151103864E+02 -0.46136159649E+02 -0.39844617963E+02  0.65944801413E+02  0.00000000000E+00 0. -1.
</event>
<event>
 7    1  0.6386201E-006  0.7526654E+02  0.7818608E-02  0.1343876E+00
          2   -1    0    0  502    0  0.00000000000E+00  0.00000000000E+00  0.39321242851E+03  0.39321242851E+03  0.00000000000E+00 0. -1.
          1   -1    0    0  501    0 -0.00000000000E+00 -0.00000000000E+00 -0.19017693066E+04  0.19017693066E+04  0.00000000000E+00 0. -1.
         25    2    1    2    0    0  0.13402823993E+02  0.13118157074E+02  0.12142572581E+03  0.17527361377E+03  0.12499964423E+03 0.  0.
          2    1    1    2  501    0  0.37749201270E+02  0.65115666617E+02 -0.18651382349E+04  0.18666562853E+04  0.00000000000E+00 0. -1.
          1    1    1    2  502    0 -0.51152025263E+02 -0.78233823691E+02  0.23515563107E+03  0.25305183596E+03  0.00000000000E+00 0. -1.
         22    1    3    3    0    0  0.85422071227E+01  0.65373672869E+02  0.36277527685E+02  0.75251215418E+02  0.00000000000E+00 0. -1.
         22    1    3    3    0    0  0.48606168704E+01 -0.52255515795E+02  0.85148198127E+02  0.10002239835E+03  0.00000000000E+00 0. -1.
</event>
<event>
 7    1  0.6386201E-006  0.1189149E+03  0.7818608E-02  0.1329028E+00
          2   -1    0    0  502    0  0.00000000000E+00  0.00000000000E+00  0.56289892133E+03  0.56289892133E+03  0.00000000000E+00 0. -1.
          1   -1    0    0  501    0 -0.00000000000E+00 -0.00000000000E+00 -0.76028674855E+03  0.76028674855E+03  0.00000000000E+00 0. -1.
         25    2    1    2    0    0  0.11634892286E+03  0.36555397202E+02 -0.14665130385E+03  0.22804659208E+03  0.12500109728E+03 0.  0.
          2    1    1    2  501    0 -0.87625907441E+02 -0.82083428570E+02 -0.56522769991E+03  0.57783937357E+03  0.00000000000E+00 0. -1.
          1    1    1    2  502    0 -0.28723015420E+02  0.45528031367E+02  0.51449117654E+03  0.51729970423E+03  0.00000000000E+00 0. -1.
         22    1    3    3    0    0  0.62476170924E+02  0.51887619350E+02 -0.11852318524E+02  0.82073591548E+02  0.00000000000E+00 0.  1.
         22    1    3    3    0    0  0.53872751936E+02 -0.15332222147E+02 -0.13479898533E+03  0.14597300053E+03  0.00000000000E+00 0.  1.
</event>
<event>
 7    1  0.6386201E-006  0.5525644E+02  0.7818608E-02  0.1508744E+00
          2   -1    0    0  502    0  0.00000000000E+00  0.00000000000E+00  0.14508245648E+03  0.14508245648E+03  0.00000000000E+00 0. -1.
          1   -1    0    0  501    0 -0.00000000000E+00 -0.00000000000E+00 -0.10657790250E+03  0.10657790250E+03  0.00000000000E+00 0. -1.
         25    2    1    2    0    0  0.12476216993E+02  0.35345274629E+02  0.25844209780E+02  0.13303345486E+03  0.12500013002E+03 0.  0.
          2    1    1    2  501    0 -0.13308736481E+02  0.25598485519E+02 -0.31985331702E+02  0.43075124743E+02  0.00000000000E+00 0. -1.
          1    1    1    2  502    0  0.83251948793E+00 -0.60943760148E+02  0.44645675904E+02  0.75551779374E+02  0.00000000000E+00 0. -1.
         22    1    3    3    0    0 -0.34603385997E+02  0.49324463496E+02 -0.22313195768E+02  0.64250881138E+02  0.00000000000E+00 0. -1.
         22    1    3    3    0    0  0.47079602990E+02 -0.13979188867E+02  0.48157405548E+02  0.68782573724E+02  0.00000000000E+00 0. -1.
</event>
<event>
 7    1  0.6386201E-006  0.4223766E+02  0.7818608E-02  0.1562402E+00
          2   -1    0    0  502    0  0.00000000000E+00  0.00000000000E+00  0.63225616941E+03  0.63225616941E+03  0.00000000000E+00 0. -1.
          1   -1    0    0  501    0 -0.00000000000E+00 -0.00000000000E+00 -0.45548023343E+02  0.45548023343E+02  0.00000000000E+00 0. -1.
         25    2    1    2    0    0  0.11533716638E+02 -0.19272339207E+02  0.13206842781E+03  0.18322625791E+03  0.12500136914E+03 0.  0.
          2    1    1    2  501    0 -0.11662975239E+02 -0.23861626678E+02 -0.96729399388E+01  0.28266021761E+02  0.00000000000E+00 0. -1.
          1    1    1    2  502    0  0.12925860141E+00  0.43133965885E+02  0.46431265819E+03  0.46631191308E+03  0.00000000000E+00 0. -1.
         22    1    3    3    0    0 -0.24571782967E+02 -0.64501502027E+02  0.75568885058E+02  0.10234682541E+03  0.00000000000E+00 0. -1.
         22    1    3    3    0    0  0.36105499604E+02  0.45229162820E+02  0.56499542752E+02  0.80879432505E+02  0.00000000000E+00 0. -1.
</event>
<event>
 7    1  0.6386201E-006  0.3742829E+02  0.7818608E-02  0.1623007E+00
          2   -1    0    0  502    0  0.00000000000E+00  0.00000000000E+00  0.68083139298E+02  0.68083139298E+02  0.00000000000E+00 0. -1.
          1   -1    0    0  501    0 -0.00000000000E+00 -0.00000000000E+00 -0.16727647924E+04  0.16727647924E+04  0.00000000000E+00 0. -1.
         25    2    1    2    0    0 -0.22441585561E+02  0.31834540923E+02 -0.13096946206E+03  0.18519047284E+03  0.12500179391E+03 0.  0.
          2    1    1    2  501    0  0.19934673278E+02  0.57229939373E+01 -0.15059532107E+04  0.15060960184E+04  0.00000000000E+00 0. -1.
          1    1    1    2  502    0  0.25069122837E+01 -0.37557534860E+02  0.32241019637E+02  0.49561440467E+02  0.00000000000E+00 0. -1.
         22    1    3    3    0    0 -0.59513178773E+02  0.53121553956E+02 -0.11412787354E+03  0.13924399255E+03  0.00000000000E+00 0.  1.
         22    1    3    3    0    0  0.37071593212E+02 -0.21287013033E+02 -0.16841588519E+02  0.45946480289E+02  0.00000000000E+00 0.  1.
</event>
<event>
 7    1  0.6386201E-006  0.6827839E+02  0.7818608E-02  0.1386372E+00
          2   -1    0    0  502    0  0.00000000000E+00  0.00000000000E+00  0.10457044539E+04  0.10457044539E+04  0.00000000000E+00 0. -1.
          1   -1    0    0  501    0 -0.00000000000E+00 -0.00000000000E+00 -0.83301013049E+03  0.83301013049E+03  0.00000000000E+00 0. -1.
         25    2    1    2    0    0  0.28665214234E+02  0.18544202514E+01  0.34481194548E+03  0.36789471714E+03  0.12500444699E+03 0.  0.
          2    1    1    2  501    0 -0.34105872364E+02 -0.59392491763E+02 -0.81882521900E+03  0.82168450021E+03  0.00000000000E+00 0. -1.
          1    1    1    2  502    0  0.54406581299E+01  0.57538071512E+02  0.68670759693E+03  0.68913536705E+03  0.00000000000E+00 0. -1.
         22    1    3    3    0    0 -0.90579185805E+01  0.19607174833E+01  0.32528519868E+03  0.32541719497E+03  0.00000000000E+00 0. -1.
         22    1    3    3    0    0  0.37723132814E+02 -0.10629723188E+00  0.19526746797E+02  0.42477522161E+02  0.00000000000E+00 0. -1.
</event>
<event>
 7    1  0.6386201E-006  0.6558469E+02  0.7818608E-02  0.1408747E+00
          2   -1    0    0  502    0  0.00000000000E+00  0.00000000000E+00  0.23545355534E+04  0.23545355534E+04  0.00000000000E+00 0. -1.
          1   -1    0    0  501    0 -0.00000000000E+00 -0.00000000000E+00 -0.13282334436E+03  0.13282334436E+03  0.00000000000E+00 0. -1.
         25    2    1    2    0    0  0.77210691857E+02 -0.72168875434E+02  0.82987775312E+03  0.84586532193E+03  0.12498487993E+03 0.  0.
          2    1    1    2  501    0 -0.28709177721E+02  0.58588816568E+02 -0.11585485646E+03  0.13296320572E+03  0.00000000000E+00 0. -1.
          1    1    1    2  502    0 -0.48501514135E+02  0.13580058867E+02  0.15076893124E+04  0.15085303701E+04  0.00000000000E+00 0. -1.
         22    1    3    3    0    0  0.71130586423E+02  0.13808149777E+02  0.27752278667E+03  0.28682594451E+03  0.00000000000E+00 0. -1.
         22    1    3    3    0    0  0.60801054333E+01 -0.85977025211E+02  0.55235496645E+03  0.55903937742E+03  0.00000000000E+00 0. -1.
</event>
<event>
 7    1  0.6386201E-006  0.4373027E+02  0.7818608E-02  0.1529021E+00
          2   -1    0    0  502    0  0.00000000000E+00  0.00000000000E+00  0.14751384519E+03  0.14751384519E+03  0.00000000000E+00 0. -1.
          1   -1    0    0  501    0 -0.00000000000E+00 -0.00000000000E+00 -0.55887274820E+03  0.55887274820E+03  0.00000000000E+00 0. -1.
         25    2    1    2    0    0 -0.53290344705E+02  0.40542657275E+02 -0.21652679429E+03  0.25882801076E+03  0.12499807443E+03 0.  0.
          2    1    1    2  501    0  0.11196676758E+02 -0.29792193008E+02 -0.31663969936E+03  0.31823519533E+03  0.00000000000E+00 0. -1.
          1    1    1    2  502    0  0.42093667946E+02 -0.10750464267E+02  0.12180759065E+03  0.12932338730E+03  0.00000000000E+00 0. -1.
         22    1    3    3    0    0 -0.52051701293E+02  0.83549185836E+02 -0.14220412468E+03  0.17295045284E+03  0.00000000000E+00 0. -1.
         22    1    3    3    0    0 -0.12386434118E+01 -0.43006528561E+02 -0.74322669610E+02  0.85877557920E+02  0.00000000000E+00 0. -1.
</event>
<event>
 7    1  0.6386201E-006  0.8415156E+02  0.7818608E-02  0.1391983E+00
          2   -1    0    0  502    0  0.00000000000E+00  0.00000000000E+00  0.83963471589E+03  0.83963471589E+03  0.00000000000E+00 0. -1.
          1   -1    0    0  501    0 -0.00000000000E+00 -0.00000000000E+00 -0.13012225593E+03  0.13012225593E+03  0.00000000000E+00 0. -1.
         25    2    1    2    0    0 -0.66453098082E+02 -0.94451861826E+02  0.14309209662E+03  0.22234336337E+03  0.12499621864E+03 0.  0.
          2    1    1    2  501    0  0.24947074414E+02  0.77529604817E+02 -0.71224753559E+02  0.10819501682E+03  0.00000000000E+00 0. -1.
          1    1    1    2  502    0  0.41506023668E+02  0.16922257010E+02  0.63764511690E+03  0.63921859163E+03  0.00000000000E+00 0. -1.
         22    1    3    3    0    0  0.33453565832E+02 -0.20839143579E+01  0.21152513304E+02  0.39634739623E+02  0.00000000000E+00 0. -1.
         22    1    3    3    0    0 -0.99906663914E+02 -0.92367947468E+02  0.12193958331E+03  0.18270862375E+03  0.00000000000E+00 0. -1.
</event>
<event>
 7    1  0.6386201E-006  0.1093951E+03  0.7818608E-02  0.1384796E+00
          2   -1    0    0  502    0  0.00000000000E+00  0.00000000000E+00  0.11310441333E+04  0.11310441333E+04  0.00000000000E+00 0. -1.
          1   -1    0    0  501    0 -0.00000000000E+00 -0.00000000000E+00 -0.24282938120E+03  0.24282938120E+03  0.00000000000E+00 0. -1.
         25    2    1    2    0    0 -0.60648429570E+01 -0.13304915095E+03  0.72453891718E+03  0.74720770305E+03  0.12499540032E+03 0.  0.
          2    1    1    2  501    0 -0.20089754679E+01  0.36479618161E+02 -0.22405203299E+03  0.22701125966E+03  0.00000000000E+00 0. -1.
          1    1    1    2  502    0  0.80738184250E+01  0.96569532790E+02  0.38772786794E+03  0.39965455181E+03  0.00000000000E+00 0. -1.
         22    1    3    3    0    0 -0.52673813377E+02 -0.30659767382E+02  0.15281133521E+03  0.16451703900E+03  0.00000000000E+00 0. -1.
         22    1    3    3    0    0  0.46608970420E+02 -0.10238938357E+03  0.57172758197E+03  0.58269066405E+03  0.00000000000E+00 0. -1.
</event>
<event>
 7    1  0.6386201E-006  0.5481837E+02  0.7818608E-02  0.1471844E+00
          2   -1    0    0  502    0  0.00000000000E+00  0.00000000000E+00  0.26101831006E+04  0.26101831006E+04  0.00000000000E+00 0. -1.
          1   -1    0    0  501    0 -0.00000000000E+00 -0.00000000000E+00 -0.32980592555E+02  0.32980592555E+02  0.00000000000E+00 0. -1.
         25    2    1    2    0    0  0.47578687227E+02 -0.40684437645E+02  0.12197109234E+04  0.12276964281E+04  0.12499931127E+03 0.  0.
          2    1    1    2  501    0 -0.35229994997E+02 -0.13149578495E+02 -0.15999416640E+02  0.40866187672E+02  0.00000000000E+00 0. -1.
          1    1    1    2  502    0 -0.12348692230E+02  0.53834016140E+02  0.13734910012E+04  0.13746010774E+04  0.00000000000E+00 0. -1.
         22    1    3    3    0    0  0.79319326219E+02 -0.19540387400E+02  0.10731428039E+04  0.10762475830E+04  0.00000000000E+00 0.  1.
         22    1    3    3    0    0 -0.31740638992E+02 -0.21144050245E+02  0.14656811950E+03  0.15144884508E+03  0.00000000000E+00 0.  1.
</event>
<event>
 7    1  0.6386201E-006  0.6376261E+02  0.7818608E-02  0.1443625E+00
          2   -1    0    0  502    0  0.00000000000E+00  0.00000000000E+00  0.97425002329E+03  0.97425002329E+03  0.00000000000E+00 0. -1.
          1   -1    0    0  501    0 -0.00000000000E+00 -0.00000000000E+00 -0.35391999909E+03  0.35391999909E+03  0.00000000000E+00 0. -1.
         25    2    1    2    0    0 -0.68585763669E+02 -0.17833082454E+02  0.21204884301E+03  0.25614837534E+03  0.12500101023E+03 0.  0.
          2    1    1    2  501    0  0.81192390595E+01  0.38871877505E+02 -0.32929063360E+03  0.33167644819E+03  0.00000000000E+00 0. -1.
          1    1    1    2  502    0  0.60466524610E+02 -0.21038795051E+02  0.73757181478E+03  0.74034519885E+03  0.00000000000E+00 0. -1.
         22    1    3    3    0    0  0.26509415682E+02 -0.78133629498E+01  0.12098873137E+03  0.12410507999E+03  0.00000000000E+00 0. -1.
         22    1    3    3    0    0 -0.95095179351E+02 -0.10019719504E+02  0.91060111643E+02  0.13204329535E+03  0.00000000000E+00 0. -1.
</event>
<event>
 7    1  0.6386201E-006  0.7860745E+02  0.7818608E-02  0.1449893E+00
          2   -1    0    0  502    0  0.00000000000E+00  0.00000000000E+00  0.36569190429E+04  0.36569190429E+04  0.00000000000E+00 0. -1.
          1   -1    0    0  501    0 -0.00000000000E+00 -0.00000000000E+00 -0.10928630539E+03  0.10928630539E+03  0.00000000000E+00 0. -1.
         25    2    1    2    0    0 -0.94715814983E+02 -0.48505973040E+02  0.40409496137E+03  0.43616717600E+03  0.12500061033E+03 0.  0.
          2    1    1    2  501    0  0.30387787930E+02  0.47146582205E+01 -0.90234071060E+02  0.95330127648E+02  0.00000000000E+00 0. -1.
          1    1    1    2  502    0  0.64328027053E+02  0.43791314820E+02  0.32337718472E+04  0.32347080446E+04  0.00000000000E+00 0. -1.
         22    1    3    3    0    0 -0.96704600780E+02 -0.25824437516E+02  0.14568644673E+03  0.17675752359E+03  0.00000000000E+00 0. -1.
         22    1    3    3    0    0  0.19887857965E+01 -0.22681535524E+02  0.25840851464E+03  0.25940965241E+03  0.00000000000E+00 0. -1.
</event>
<event>
 7    1  0.6386201E-006  0.5106328E+02  0.7818608E-02  0.1534597E+00
          2   -1    0    0  502    0  0.00000000000E+00  0.00000000000E+00  0.69022496930E+01  0.69022496930E+01  0.00000000000E+00 0. -1.
          1   -1    0    0  501    0 -0.00000000000E+00 -0.00000000000E+00 -0.25265898224E+04  0.25265898224E+04  0.00000000000E+00 0. -1.
         25    2    1    2    0    0 -0.26959306430E+02 -0.16055810776E+01 -0.67736874364E+03  0.68933519590E+03  0.12500086139E+03 0.  0.
          2    1    1    2  501    0  0.52393621105E+02  0.81959168651E+01 -0.14433136304E+04  0.14442875407E+04  0.00000000000E+00 0. -1.
          1    1    1    2  502    0 -0.25434314676E+02 -0.65903357875E+01 -0.39900519865E+03  0.39986933546E+03  0.00000000000E+00 0. -1.
         22    1    3    3    0    0 -0.39010285227E+02  0.46676605915E+02 -0.19162119195E+03  0.20104524142E+03  0.00000000000E+00 0. -1.
         22    1    3    3    0    0  0.12050978797E+02 -0.48282186993E+02 -0.48574755170E+03  0.48828995448E+03  0.00000000000E+00 0. -1.
</event>
<event>
 7    1  0.6386201E-006  0.1535246E+03  0.7818608E-02  0.1332755E+00
          2   -1    0    0  502    0  0.00000000000E+00  0.00000000000E+00  0.24419352671E+04  0.24419352671E+04  0.00000000000E+00 0. -1.
          1   -1    0    0  501    0 -0.00000000000E+00 -0.00000000000E+00 -0.14074462309E+04  0.14074462309E+04  0.00000000000E+00 0. -1.
         25    2    1    2    0    0  0.66614820391E+02  0.11082086555E+03  0.15744441513E+03  0.23901723588E+03  0.12498678591E+03 0.  0.
          2    1    1    2  501    0 -0.10696731226E+03 -0.11096364993E+03 -0.13621320184E+04  0.13708240489E+04  0.00000000000E+00 0. -1.
          1    1    1    2  502    0  0.40352491864E+02  0.14278438066E+00  0.22391766395E+04  0.22395402133E+04  0.00000000000E+00 0. -1.
         22    1    3    3    0    0 -0.37429091404E+02  0.28476234634E+02  0.37448665766E+02  0.60118511209E+02  0.00000000000E+00 0.  1.
         22    1    3    3    0    0  0.10404391179E+03  0.82344630918E+02  0.11999574936E+03  0.17889872467E+03  0.00000000000E+00 0.  1.
</event>
<event>
 7    1  0.6386201E-006  0.9295633E+02  0.7818608E-02  0.1358343E+00
          2   -1    0    0  502    0  0.00000000000E+00  0.00000000000E+00  0.18574826422E+04  0.18574826422E+04  0.00000000000E+00 0. -1.
          1   -1    0    0  501    0 -0.00000000000E+00 -0.00000000000E+00 -0.35929889710E+03  0.35929889710E+03  0.00000000000E+00 0. -1.
         25    2    1    2    0    0  0.12233372132E+03 -0.27315669794E+02  0.40795505581E+03  0.44469893995E+03  0.12497253476E+03 0.  0.
          2    1    1    2  501    0 -0.91193389426E+02 -0.16181313472E+02 -0.33412531816E+03  0.34672438250E+03  0.00000000000E+00 0. -1.
          1    1    1    2  502    0 -0.31140331892E+02  0.43496983266E+02  0.14243540075E+04  0.14253582169E+04  0.00000000000E+00 0. -1.
         22    1    3    3    0    0  0.10789223637E+03 -0.47354675645E+02  0.17827253829E+03  0.21369206322E+03  0.00000000000E+00 0. -1.
         22    1    3    3    0    0  0.14441484949E+02  0.20039005851E+02  0.22968251752E+03  0.23100687673E+03  0.00000000000E+00 0. -1.
</event>
<event>
 7    1  0.6386201E-006  0.7013300E+02  0.7818608E-02  0.1483587E+00
          2   -1    0    0  502    0  0.00000000000E+00  0.00000000000E+00  0.50578281387E+03  0.50578281387E+03  0.00000000000E+00 0. -1.
          1   -1    0    0  501    0 -0.00000000000E+00 -0.00000000000E+00 -0.15623078995E+04  0.15623078995E+04  0.00000000000E+00 0. -1.
         25    2    1    2    0    0  0.65422084582E+02  0.69479314268E+02 -0.40216664672E+03  0.43182300146E+03  0.12500267434E+03 0.  0.
          2    1    1    2  501    0 -0.47155884234E+02 -0.49533748349E+02 -0.11439185292E+04  0.11459611124E+04  0.00000000000E+00 0. -1.
          1    1    1    2  502    0 -0.18266200348E+02 -0.19945565919E+02  0.48956009022E+03  0.49030659960E+03  0.00000000000E+00 0. -1.
         22    1    3    3    0    0  0.53391830417E+02  0.55547970835E+02 -0.40580980786E+03  0.41305915409E+03  0.00000000000E+00 0. -1.
         22    1    3    3    0    0  0.12030254165E+02  0.13931343434E+02  0.36431611383E+01  0.18763847373E+02  0.00000000000E+00 0. -1.
</event>
<event>
 7    1  0.6386201E-006  0.1619478E+03  0.7818608E-02  0.1245023E+00
          2   -1    0    0  502    0  0.00000000000E+00  0.00000000000E+00  0.21710228420E+04  0.21710228420E+04  0.00000000000E+00 0. -1.
          1   -1    0    0  501    0 -0.00000000000E+00 -0.00000000000E+00 -0.32248604832E+03  0.32248604832E+03  0.00000000000E+00 0. -1.
         25    2    1    2    0    0 -0.10644064224E+03 -0.13555453335E+03  0.99048404747E+03  0.10131084672E+04  0.12500190453E+03 0.  0.
          2    1    1    2  501    0  0.22902905764E+02  0.16058253566E+03 -0.28826581972E+03  0.33076952198E+03  0.00000000000E+00 0. -1.
          1    1    1    2  502    0  0.83537736476E+02 -0.25028002312E+02  0.11463185660E+04  0.11496309012E+04  0.00000000000E+00 0. -1.
         22    1    3    3    0    0 -0.42118376761E+02  0.11395671824E+02  0.35586491335E+03  0.35852985308E+03  0.00000000000E+00 0.  1.
         22    1    3    3    0    0 -0.64322265479E+02 -0.14695020517E+03  0.63461913412E+03  0.65457861409E+03  0.00000000000E+00 0.  1.
</event>
<event>
 7    1  0.6386201E-006  0.4408417E+02  0.7818608E-02  0.1502092E+00
          2   -1    0    0  502    0  0.00000000000E+00  0.00000000000E+00  0.73637222589E+03  0.73637222589E+03  0.00000000000E+00 0. -1.
          1   -1    0    0  501    0 -0.00000000000E+00 -0.00000000000E+00 -0.12463704300E+04  0.12463704300E+04  0.00000000000E+00 0. -1.
         25    2    1    2    0    0  0.42336012438E+02 -0.22824953908E+02  0.21233687804E+03  0.25104940346E+03  0.12500214690E+03 0.  0.
          2    1    1    2  501    0 -0.28101023966E+00  0.37840668322E+02 -0.12257337926E+04  0.12263177914E+04  0.00000000000E+00 0. -1.
          1    1    1    2  502    0 -0.42055002198E+02 -0.15015714413E+02  0.50339871047E+03  0.50537546101E+03  0.00000000000E+00 0. -1.
         22    1    3    3    0    0 -0.38574563970E+02 -0.31051323240E+02  0.10757166851E+03  0.11842231853E+03  0.00000000000E+00 0. -1.
         22    1    3    3    0    0  0.80910576408E+02  0.82263693319E+01  0.10476520953E+03  0.13262708493E+03  0.00000000000E+00 0. -1.
</event>
<event>
 7    1  0.6386201E-006  0.7038254E+02  0.7818608E-02  0.1363179E+00
          2   -1    0    0  502    0  0.00000000000E+00  0.00000000000E+00  0.21071892901E+03  0.21071892901E+03  0.00000000000E+00 0. -1.
          1   -1    0    0  501    0 -0.00000000000E+00 -0.00000000000E+00 -0.22568684368E+04  0.22568684368E+04  0.00000000000E+00 0. -1.
         25    2    1    2    0    0  0.29537144406E+01 -0.61063517113E+02 -0.42063019965E+03  0.44304926278E+03  0.12500162738E+03 0.  0.
          2    1    1    2  501    0 -0.64852520975E+02  0.33295768780E+02 -0.18185099190E+04  0.18199705446E+04  0.00000000000E+00 0. -1.
          1    1    1    2  502    0  0.61898806534E+02  0.27767748333E+02  0.19299061083E+03  0.20456755845E+03  0.00000000000E+00 0. -1.
         22    1    3    3    0    0 -0.38815451822E+02 -0.34981320749E+02 -0.62125138520E+02  0.81177983085E+02  0.00000000000E+00 0. -1.
         22    1    3    3    0    0  0.41769166263E+02 -0.26082196364E+02 -0.35850506113E+03  0.36187127970E+03  0.00000000000E+00 0. -1.
</event>
<event>
 7    1  0.6386201E-006  0.2176469E+03  0.7818608E-02  0.1224962E+00
          2   -1    0    0  502    0  0.00000000000E+00  0.00000000000E+00  0.54141398572E+03  0.54141398572E+03  0.00000000000E+00 0. -1.
          1   -1    0    0  501    0 -0.00000000000E+00 -0.00000000000E+00 -0.55490550913E+03  0.55490550913E+03  0.00000000000E+00 0. -1.
         25    2    1    2    0    0  0.93826712223E+02  0.26507528085E+03 -0.85295793212E+02  0.31932412136E+03  0.12499666273E+03 0.  0.
          2    1    1    2  501    0 -0.72855629487E+02 -0.18819733860E+03 -0.31936974666E+03  0.37778726301E+03  0.00000000000E+00 0. -1.
          1    1    1    2  502    0 -0.20971082735E+02 -0.76877942249E+02  0.39117401647E+03  0.39920811048E+03  0.00000000000E+00 0. -1.
         22    1    3    3    0    0  0.10035628340E+03  0.24540996886E+03 -0.38203726407E+02  0.26787489831E+03  0.00000000000E+00 0. -1.
         22    1    3    3    0    0 -0.65295711808E+01  0.19665311991E+02 -0.47092066806E+02  0.51449223041E+02  0.00000000000E+00 0. -1.
</event>
<event>
 7    1  0.6386201E-006  0.5424408E+02  0.7818608E-02  0.1451038E+00
          2   -1    0    0  502    0  0.00000000000E+00  0.00000000000E+00  0.69316811768E+03  0.69316811768E+03  0.00000000000E+00 0. -1.
          1   -1    0    0  501    0 -0.00000000000E+00 -0.00000000000E+00 -0.14214755307E+03  0.14214755307E+03  0.00000000000E+00 0. -1.
         25    2    1    2    0    0 -0.79535832007E+02  0.15601520294E+02  0.15059574284E+03  0.21183446954E+03  0.12500163485E+03 0.  0.
          2    1    1    2  501    0  0.29054537310E+02 -0.33294222197E+02 -0.10568558582E+03  0.11455179798E+03  0.00000000000E+00 0. -1.
          1    1    1    2  502    0  0.50481294697E+02  0.17692701903E+02  0.50611040758E+03  0.50892940324E+03  0.00000000000E+00 0. -1.
         22    1    3    3    0    0  0.56179382263E+01  0.46384891956E+02  0.15551843794E+02  0.49244078599E+02  0.00000000000E+00 0. -1.
         22    1    3    3    0    0 -0.85153770233E+02 -0.30783371662E+02  0.13504389905E+03  0.16259039094E+03  0.00000000000E+00 0. -1.
</event>
<event>
 7    1  0.6386201E-006  0.7708542E+02  0.7818608E-02  0.1402825E+00
          2   -1    0    0  502    0  0.00000000000E+00  0.00000000000E+00  0.45229911778E+03  0.45229911778E+03  0.00000000000E+00 0. -1.
          1   -1    0    0  501    0 -0.00000000000E+00 -0.00000000000E+00 -0.24035568500E+03  0.24035568500E+03  0.00000000000E+00 0. -1.
         25    2    1    2    0    0 -0.37662813380E+02  0.28240088919E+02  0.97558610349E+02  0.16540960030E+03  0.12500665296E+03 0.  0.
          2    1    1    2  501    0 -0.43226963865E+02 -0.12112604459E+02 -0.19858143180E+03  0.20359241304E+03  0.00000000000E+00 0. -1.
          1    1    1    2  502    0  0.80889777245E+02 -0.16127484460E+02  0.31296625424E+03  0.32365278943E+03  0.00000000000E+00 0. -1.
         22    1    3    3    0    0  0.38029098355E+02  0.38369628208E+02  0.58519960425E+02  0.79643119343E+02  0.00000000000E+00 0. -1.
         22    1    3    3    0    0 -0.75691911736E+02 -0.10129539289E+02  0.39038649924E+02  0.85766480960E+02  0.00000000000E+00 0. -1.
</event>
<event>
 7    1  0.6386201E-006  0.9348472E+02  0.7818608E-02  0.1351582E+00
          2   -1    0    0  502    0  0.00000000000E+00  0.00000000000E+00  0.43490936467E+03  0.43490936467E+03  0.00000000000E+00 0. -1.
          1   -1    0    0  501    0 -0.00000000000E+00 -0.00000000000E+00 -0.75265147399E+03  0.75265147399E+03  0.00000000000E+00 0. -1.
         25    2    1    2    0    0  0.31059239274E+02  0.13661751800E+03 -0.50169615863E+03  0.53568040973E+03  0.12500177284E+03 0.  0.
          2    1    1    2  501    0 -0.35585767991E+02 -0.43661326259E+02 -0.22527102592E+03  0.23220614422E+03  0.00000000000E+00 0. -1.
          1    1    1    2  502    0  0.45265287169E+01 -0.92956191737E+02  0.40922507523E+03  0.41967428471E+03  0.00000000000E+00 0. -1.
         22    1    3    3    0    0  0.79922574020E+01  0.15459314324E+03 -0.45470365024E+03  0.48033147477E+03  0.00000000000E+00 0. -1.
         22    1    3    3    0    0  0.23066981872E+02 -0.17975625247E+02 -0.46992508392E+02  0.55348934956E+02  0.00000000000E+00 0. -1.
</event>
<event>
 7    1  0.6386201E-006  0.5057189E+02  0.7818608E-02  0.1481329E+00
          2   -1    0    0  502    0  0.00000000000E+00  0.00000000000E+00  0.59425025382E+03  0.59425025382E+03  0.00000000000E+00 0. -1.
          1   -1    0    0  501    0 -0.00000000000E+00 -0.00000000000E+00 -0.69066494396E+02  0.69066494396E+02  0.00000000000E+00 0. -1.
         25    2    1    2    0    0  0.53142713005E+02  0.69113139644E+02  0.56095943293E+02  0.16240860889E+03  0.12501610844E+03 0.  0.
          2    1    1    2  501    0 -0.27002208151E+02 -0.26890374097E+02  0.10347481915E+02  0.39487742985E+02  0.00000000000E+00 0. -1.
          1    1    1    2  502    0 -0.26140504854E+02 -0.42222765547E+02  0.45874033422E+03  0.46142039634E+03  0.00000000000E+00 0. -1.
         22    1    3    3    0    0  0.53070558314E+02  0.81479812033E+02  0.86148147210E+02  0.12991130511E+03  0.00000000000E+00 0.  1.
         22    1    3    3    0    0  0.72154691567E-01 -0.12366672389E+02 -0.30052203917E+02  0.32497303774E+02  0.00000000000E+00 0.  1.
</event>
<event>
 7    1  0.6386201E-006  0.8502317E+02  0.7818608E-02  0.1387957E+00
          2   -1    0    0  502    0  0.00000000000E+00  0.00000000000E+00  0.47481717155E+03  0.47481717155E+03  0.00000000000E+00 0. -1.
          1   -1    0    0  501    0 -0.00000000000E+00 -0.00000000000E+00 -0.21263224463E+04  0.21263224463E+04  0.00000000000E+00 0. -1.
         25    2    1    2    0    0  0.70457948167E+02 -0.10590215446E+03 -0.53464024008E+03  0.56359978079E+03  0.12499975128E+03 0.  0.
          2    1    1    2  501    0 -0.40485902009E+02  0.71241305678E+02 -0.15749944212E+04  0.15771245540E+04  0.00000000000E+00 0. -1.
          1    1    1    2  502    0 -0.29972046158E+02  0.34660848787E+02  0.45812938659E+03  0.46041528303E+03  0.00000000000E+00 0. -1.
         22    1    3    3    0    0 -0.16914773302E+02  0.93666093071E+01 -0.15782166675E+02  0.24958359536E+02  0.00000000000E+00 0. -1.
         22    1    3    3    0    0  0.87372721468E+02 -0.11526876377E+03 -0.51885807340E+03  0.53864142126E+03  0.00000000000E+00 0. -1.
</event>
<event>
 7    1  0.6386201E-006  0.3774505E+02  0.7818608E-02  0.1572252E+00
          2   -1    0    0  502    0  0.00000000000E+00  0.00000000000E+00  0.13952740170E+03  0.13952740170E+03  0.00000000000E+00 0. -1.
          1   -1    0    0  501    0 -0.00000000000E+00 -0.00000000000E+00 -0.13745283384E+04  0.13745283384E+04  0.00000000000E+00 0. -1.
         25    2    1    2    0    0  0.99633714248E+01 -0.46151976365E+02  0.10703553183E+02  0.13404741945E+03  0.12499948368E+03 0.  0.
          2    1    1    2  501    0 -0.25331772976E+02  0.11784038444E+02 -0.13074187841E+04  0.13077172628E+04  0.00000000000E+00 0. -1.
          1    1    1    2  502    0  0.15368401552E+02  0.34367937920E+02  0.61714294287E+02  0.72291057832E+02  0.00000000000E+00 0. -1.
         22    1    3    3    0    0 -0.19210471499E+02 -0.82106014656E+02 -0.66865681134E+01  0.84588120035E+02  0.00000000000E+00 0. -1.
         22    1    3    3    0    0  0.29173842923E+02  0.35954038291E+02  0.17390121297E+02  0.49459299420E+02  0.00000000000E+00 0. -1.
</event>
<event>
 7    1  0.6386201E-006  0.3463942E+02  0.7818608E-02  0.1627620E+00
          2   -1    0    0  502    0  0.00000000000E+00  0.00000000000E+00  0.12267226766E+04  0.12267226766E+04  0.00000000000E+00 0. -1.
          1   -1    0    0  501    0 -0.00000000000E+00 -0.00000000000E+00 -0.66880816768E+03  0.66880816768E+03  0.00000000000E+00 0. -1.
         25    2    1    2    0    0  0.31666615016E+02  0.43822406674E+02 -0.33558650247E+03  0.36216820139E+03  0.12499731048E+03 0.  0.
          2    1    1    2  501    0 -0.55371893256E+01 -0.21101076402E+02 -0.31931153498E+03  0.32005588928E+03  0.00000000000E+00 0. -1.
          1    1    1    2  502    0 -0.26129425690E+02 -0.22721330272E+02  0.12128125464E+04  0.12133067537E+04  0.00000000000E+00 0. -1.
         22    1    3    3    0    0 -0.42914098666E+02  0.43271952275E+02 -0.13331085120E+03  0.14658057432E+03  0.00000000000E+00 0.  1.
         22    1    3    3    0    0  0.74580713681E+02  0.55045439848E+00 -0.20227565126E+03  0.21558762707E+03  0.00000000000E+00 0.  1.
</event>
<event>
 7    1  0.6386201E-006  0.7818727E+02  0.7818608E-02  0.1450201E+00
          2   -1    0    0  502    0  0.00000000000E+00  0.00000000000E+00  0.11999075425E+04  0.11999075425E+04  0.00000000000E+00 0. -1.
          1   -1    0    0  501    0 -0.00000000000E+00 -0.00000000000E+00 -0.26426616890E+03  0.26426616890E+03  0.00000000000E+00 0. -1.
         25    2    1    2    0    0 -0.33815675257E+02  0.68706139236E+02  0.47138893330E+03  0.49365624274E+03  0.12499970438E+03 0.  0.
          2    1    1    2  501    0 -0.26094338226E+02 -0.16449867002E+02 -0.24997918462E+03  0.25187517813E+03  0.00000000000E+00 0. -1.
          1    1    1    2  502    0  0.59910013482E+02 -0.52256272234E+02  0.71423162490E+03  0.71864229051E+03  0.00000000000E+00 0. -1.
         22    1    3    3    0    0 -0.21280012622E+02  0.91691665298E+02  0.45031299397E+03  0.46004564226E+03  0.00000000000E+00 0. -1.
         22    1    3    3    0    0 -0.12535662635E+02 -0.22985526062E+02  0.21075939334E+02  0.33610600483E+02  0.00000000000E+00 0. -1.
</event>
<event>
 7    1  0.6386201E-006  0.1930406E+03  0.7818608E-02  0.1267326E+00
          2   -1    0    0  502    0  0.00000000000E+00  0.00000000000E+00  0.13411155010E+04  0.13411155010E+04  0.00000000000E+00 0. -1.
          1   -1    0    0  501    0 -0.00000000000E+00 -0.00000000000E+00 -0.64067258193E+02  0.64067258193E+02  0.00000000000E+00 0. -1.
         25    2    1    2    0    0  0.86625696087E+02 -0.21032395389E+03  0.42346999080E+03  0.49667733101E+03  0.12498544406E+03 0.  0.
          2    1    1    2  501    0 -0.80894230925E+02  0.15192517787E+03  0.25861515341E+03  0.31065565155E+03  0.00000000000E+00 0. -1.
          1    1    1    2  502    0 -0.57314651619E+01  0.58398776020E+02  0.59496309856E+03  0.59784977660E+03  0.00000000000E+00 0. -1.
         22    1    3    3    0    0  0.83301905808E+02 -0.22665683119E+03  0.40699573283E+03  0.47324206615E+03  0.00000000000E+00 0.  1.
         22    1    3    3    0    0  0.33237902789E+01  0.16332877307E+02  0.16474257976E+02  0.23435264855E+02  0.00000000000E+00 0.  1.
</event>
<event>
 7    1  0.6386201E-006  0.6022131E+02  0.7818608E-02  0.1435342E+00
          2   -1    0    0  502    0  0.00000000000E+00  0.00000000000E+00  0.57273759385E+03  0.57273759385E+03  0.00000000000E+00 0. -1.
          1   -1    0    0  501    0 -0.00000000000E+00 -0.00000000000E+00 -0.14733295988E+03  0.14733295988E+03  0.00000000000E+00 0. -1.
         25    2    1    2    0    0  0.59363451089E+02  0.75140084596E+01  0.34306863391E+03  0.36999830648E+03  0.12498871781E+03 0.  0.
          2    1    1    2  501    0 -0.38237913794E+02 -0.46944026482E+02 -0.12450667770E+03  0.13844779690E+03  0.00000000000E+00 0. -1.
          1    1    1    2  502    0 -0.21125537294E+02  0.39430018022E+02  0.20684267775E+03  0.21162445035E+03  0.00000000000E+00 0. -1.
         22    1    3    3    0    0  0.79019966442E+01  0.19608811189E+02 -0.16916161461E+01  0.21208691435E+02  0.00000000000E+00 0.  1.
         22    1    3    3    0    0  0.51461454444E+02 -0.12094802729E+02  0.34476025005E+03  0.34878961505E+03  0.00000000000E+00 0.  1.
</event>
<event>
 7    1  0.6386201E-006  0.6601529E+02  0.7818608E-02  0.1438605E+00
          2   -1    0    0  502    0  0.00000000000E+00  0.00000000000E+00  0.39041378733E+02  0.39041378733E+02  0.00000000000E+00 0. -1.
          1   -1    0    0  501    0 -0.00000000000E+00 -0.00000000000E+00 -0.94808819770E+03  0.94808819770E+03  0.00000000000E+00 0. -1.
         25    2    1    2    0    0  0.53788320950E+02 -0.36453891925E+02 -0.60010645593E+03  0.61642135891E+03  0.12500185426E+03 0.  0.
          2    1    1    2  501    0  0.12976586458E+02  0.37645842945E+02 -0.30081622856E+03  0.30344028185E+03  0.00000000000E+00 0. -1.
          1    1    1    2  502    0 -0.66764907408E+02 -0.11919510201E+01 -0.81241344840E+01  0.67267935672E+02  0.00000000000E+00 0. -1.
         22    1    3    3    0    0 -0.12993451698E+02  0.15912618609E+00 -0.42823010980E+03  0.42842721908E+03  0.00000000000E+00 0. -1.
         22    1    3    3    0    0  0.66781772647E+02 -0.36613018111E+02 -0.17187634613E+03  0.18799413984E+03  0.00000000000E+00 0. -1.
</event>
<event>
 7    1  0.6386201E-006  0.1613938E+03  0.7818608E-02  0.1376192E+00
          2   -1    0    0  502    0  0.00000000000E+00  0.00000000000E+00  0.39160563350E+03  0.39160563350E+03  0.00000000000E+00 0. -1.
          1   -1    0    0  501    0 -0.00000000000E+00 -0.00000000000E+00 -0.80633488095E+03  0.80633488095E+03  0.00000000000E+00 0. -1.
         25    2    1    2    0    0  0.90650029172E+01  0.17262890419E+03 -0.26181288474E+03  0.33773151698E+03  0.12503470759E+03 0.  0.
          2    1    1    2  501    0  0.12779081770E+02 -0.15751580997E+03 -0.49370778857E+03  0.51838394633E+03  0.00000000000E+00 0. -1.
          1    1    1    2  502    0 -0.21844084687E+02 -0.15113094218E+02  0.34079142586E+03  0.34182505115E+03  0.00000000000E+00 0. -1.
         22    1    3    3    0    0 -0.55657167981E+02  0.63466514683E+02 -0.82333700169E+02  0.11791758570E+03  0.00000000000E+00 0. -1.
         22    1    3    3    0    0  0.64722170898E+02  0.10916238951E+03 -0.17947918457E+03  0.21981393128E+03  0.00000000000E+00 0. -1.
</event>
<event>
 7    1  0.6386201E-006  0.1592912E+03  0.7818608E-02  0.1391083E+00
          2   -1    0    0  502    0  0.00000000000E+00  0.00000000000E+00  0.21559850097E+04  0.21559850097E+04  0.00000000000E+00 0. -1.
          1   -1    0    0  501    0 -0.00000000000E+00 -0.00000000000E+00 -0.25697992009E+04  0.25697992009E+04  0.00000000000E+00 0. -1.
         25    2    1    2    0    0 -0.93421582932E+02 -0.12544947077E+03  0.73351030255E+03  0.76034669125E+03  0.12499826030E+03 0.  0.
          2    1    1    2  501    0  0.74970445231E+02  0.14056323484E+03 -0.25537979127E+04  0.25587618821E+04  0.00000000000E+00 0. -1.
          1    1    1    2  502    0  0.18451137701E+02 -0.15113764070E+02  0.14064734189E+04  0.14066756373E+04  0.00000000000E+00 0. -1.
         22    1    3    3    0    0 -0.89484181425E+02 -0.74557655867E+02  0.66382947581E+03  0.67397020389E+03  0.00000000000E+00 0. -1.
         22    1    3    3    0    0 -0.39374015065E+01 -0.50891814900E+02  0.69680826738E+02  0.86376487364E+02  0.00000000000E+00 0. -1.
</event>
<event>
 7    1  0.6386201E-006  0.1267929E+03  0.7818608E-02  0.1283627E+00
          2   -1    0    0  502    0  0.00000000000E+00  0.00000000000E+00  0.32950667191E+03  0.32950667191E+03  0.00000000000E+00 0. -1.
          1   -1    0    0  501    0 -0.00000000000E+00 -0.00000000000E+00 -0.16967583739E+03  0.16967583739E+03  0.00000000000E+00 0. -1.
         25    2    1    2    0    0  0.11802639558E+02  0.35962264808E+02  0.13583361712E+03  0.18843800252E+03  0.12500208983E+03 0.  0.
          2    1    1    2  501    0  0.11053897291E+03  0.62109350123E+02 -0.51333021064E+02  0.13679003968E+03  0.00000000000E+00 0. -1.
          1    1    1    2  502    0 -0.12234161247E+03 -0.98071614930E+02  0.75330238457E+02  0.17395446709E+03  0.00000000000E+00 0. -1.
         22    1    3    3    0    0  0.61040554733E+02  0.49636846742E+02  0.71797408583E+02  0.10651119075E+03  0.00000000000E+00 0.  1.
         22    1    3    3    0    0 -0.49237915176E+02 -0.13674581935E+02  0.64036208540E+02  0.81926811766E+02  0.00000000000E+00 0.  1.
</event>
<event>
 7    1  0.6386201E-006  0.8217892E+02  0.7818608E-02  0.1398549E+00
          2   -1    0    0  502    0  0.00000000000E+00  0.00000000000E+00  0.31695724565E+04  0.31695724565E+04  0.00000000000E+00 0. -1.
          1   -1    0    0  501    0 -0.00000000000E+00 -0.00000000000E+00 -0.46862295783E+03  0.46862295783E+03  0.00000000000E+00 0. -1.
         25    2    1    2    0    0 -0.72227738102E+02 -0.96115469853E+02  0.26414929046E+03  0.31599991808E+03  0.12500428344E+03 0.  0.
          2    1    1    2  501    0  0.11405732265E+02  0.42038255680E+02 -0.44104951910E+03  0.44319519850E+03  0.00000000000E+00 0. -1.
          1    1    1    2  502    0  0.60822005837E+02  0.54077214173E+02  0.28778497274E+04  0.28790002978E+04  0.00000000000E+00 0. -1.
         22    1    3    3    0    0 -0.15272587180E+02  0.28088866388E+02  0.84100824326E+02  0.89973245948E+02  0.00000000000E+00 0.  1.
         22    1    3    3    0    0 -0.56955150921E+02 -0.12420433624E+03  0.18004846613E+03  0.22602667213E+03  0.00000000000E+00 0.  1.
</event>
<event>
 7    1  0.6386201E-006  0.2587026E+03  0.7818608E-02  0.1172732E+00
          2   -1    0    0  502    0  0.00000000000E+00  0.00000000000E+00  0.41319291191E+04  0.41319291191E+04  0.00000000000E+00 0. -1.
          1   -1    0    0  501    0 -0.00000000000E+00 -0.00000000000E+00 -0.45718368147E+03  0.45718368147E+03  0.00000000000E+00 0. -1.
         25    2    1    2    0    0  0.24180133422E+03 -0.16763348742E+03  0.23731254065E+03  0.39813430322E+03  0.12499924045E+03 0.  0.
          2    1    1    2  501    0 -0.10635137290E+03 -0.51990685901E+02 -0.36299025567E+03  0.38180567262E+03  0.00000000000E+00 0. -1.
          1    1    1    2  502    0 -0.13544996132E+03  0.21962417332E+03  0.38004231527E+04  0.38091728248E+04  0.00000000000E+00 0. -1.
         22    1    3    3    0    0  0.21594268123E+03 -0.14115214335E+03  0.13891560006E+03  0.29300633626E+03  0.00000000000E+00 0. -1.
         22    1    3    3    0    0  0.25858652988E+02 -0.26481344070E+02  0.98396940594E+02  0.10512796696E+03  0.00000000000E+00 0. -1.
</event>
<event>
 7    1  0.6386201E-006  0.2000411E+03  0.7818608E-02  0.1249007E+00
          2   -1    0    0  502    0  0.00000000000E+00  0.00000000000E+00  0.78939890735E+03  0.78939890735E+03  0.00000000000E+00 0. -1.
          1   -1    0    0  501    0 -0.00000000000E+00 -0.00000000000E+00 -0.21695944212E+03  0.21695944212E+03  0.00000000000E+00 0. -1.
         25    2    1    2    0    0 -0.71387680198E+02 -0.13980703554E+03  0.10361229626E+03  0.22583812115E+03  0.12500056384E+03 0.  0.
          2    1    1    2  501    0  0.12287054207E+03  0.18397445846E+03 -0.74145670276E+02  0.23332670635E+03  0.00000000000E+00 0. -1.
          1    1    1    2  502    0 -0.51482861876E+02 -0.44167422919E+02  0.54297283925E+03  0.54719352196E+03  0.00000000000E+00 0. -1.
         22    1    3    3    0    0 -0.10016539049E+03 -0.11892151380E+03  0.10898492434E+03  0.18987665900E+03  0.00000000000E+00 0.  1.
         22    1    3    3    0    0  0.28777710295E+02 -0.20885521733E+02 -0.53726280834E+01  0.35961462156E+02  0.00000000000E+00 0.  1.
</event>
<event>
 7    1  0.6386201E-006  0.1319857E+03  0.7818608E-02  0.1302605E+00
          2   -1    0    0  502    0  0.00000000000E+00  0.00000000000E+00  0.54342078597E+03  0.54342078597E+03  0.00000000000E+00 0. -1.
          1   -1    0    0  501    0 -0.00000000000E+00 -0.00000000000E+00 -0.30456298850E+03  0.30456298850E+03  0.00000000000E+00 0. -1.
         25    2    1    2    0    0  0.54928750779E+02  0.58127404251E+02  0.31341565972E+03  0.34677205644E+03  0.12500208232E+03 0.  0.
          2    1    1    2  501    0 -0.11540141900E+03 -0.69371928664E+02 -0.26708054064E+03  0.29910193444E+03  0.00000000000E+00 0. -1.
          1    1    1    2  502    0  0.60472668217E+02  0.11244524413E+02  0.19252267839E+03  0.20210978359E+03  0.00000000000E+00 0. -1.
         22    1    3    3    0    0  0.42803154468E+02 -0.17358571117E+02  0.34729164984E+02  0.57788795836E+02  0.00000000000E+00 0. -1.
         22    1    3    3    0    0  0.12125596311E+02  0.75485975368E+02  0.27868649474E+03  0.28898326061E+03  0.00000000000E+00 0. -1.
</event>
<event>
 7    1  0.6386201E-006  0.1146805E+03  0.7818608E-02  0.1370401E+00
          2   -1    0    0  502    0  0.00000000000E+00  0.00000000000E+00  0.16520402961E+03  0.16520402961E+03  0.00000000000E+00 0. -1.
          1   -1    0    0  501    0 -0.00000000000E+00 -0.00000000000E+00 -0.11265771167E+04  0.11265771167E+04  0.00000000000E+00 0. -1.
         25    2    1    2    0    0  0.71577757677E+02 -0.31858995253E+02 -0.27991927277E+03  0.31641592016E+03  0.12500345711E+03 0.  0.
          2    1    1    2  501    0  0.36024526025E+02 -0.15478230030E+02 -0.80434644421E+03  0.80530152389E+03  0.00000000000E+00 0. -1.
          1    1    1    2  502    0 -0.10760228370E+03  0.47337225284E+02  0.12289262986E+03  0.17006370227E+03  0.00000000000E+00 0. -1.
         22    1    3    3    0    0  0.31438693292E+02 -0.79144167313E+02 -0.15121130726E+03  0.17354264634E+03  0.00000000000E+00 0.  1.
         22    1    3    3    0    0  0.40139064385E+02  0.47285172059E+02 -0.12870796552E+03  0.14287327383E+03  0.00000000000E+00 0.  1.
</event>
<event>
 7    1  0.6386201E-006  0.4122220E+02  0.7818608E-02  0.1509746E+00
          2   -1    0    0  502    0  0.00000000000E+00  0.00000000000E+00  0.54941706876E+02  0.54941706876E+02  0.00000000000E+00 0. -1.
          1   -1    0    0  501    0 -0.00000000000E+00 -0.00000000000E+00 -0.14159941852E+04  0.14159941852E+04  0.00000000000E+00 0. -1.
         25    2    1    2    0    0  0.64285841610E+02  0.31627997222E+02 -0.15793590384E+03  0.21378097904E+03  0.12500223054E+03 0.  0.
          2    1    1    2  501    0 -0.38349485999E+02 -0.21901991298E+01 -0.12154281094E+04  0.12160349375E+04  0.00000000000E+00 0. -1.
          1    1    1    2  502    0 -0.25936355611E+02 -0.29437798092E+02  0.12311534903E+02  0.41119975566E+02  0.00000000000E+00 0. -1.
         22    1    3    3    0    0 -0.24701747857E+02  0.35662033490E+02 -0.16061019189E+02  0.46259197110E+02  0.00000000000E+00 0.  1.
         22    1    3    3    0    0  0.88987589467E+02 -0.40340362687E+01 -0.14187488465E+03  0.16752178193E+03  0.00000000000E+00 0.  1.
</event>
<event>
 7    1  0.6386201E-006  0.1747532E+03  0.7818608E-02  0.1201822E+00
          2   -1    0    0  502    0  0.00000000000E+00  0.00000000000E+00  0.42341052017E+03  0.42341052017E+03  0.00000000000E+00 0. -1.
          1   -1    0    0  501    0 -0.00000000000E+00 -0.00000000000E+00 -0.13791700392E+04  0.13791700392E+04  0.00000000000E+00 0. -1.
         25    2    1    2    0    0  0.13481903372E+03 -0.56478108409E+02 -0.66102813868E+03  0.68844127300E+03  0.12500895030E+03 0.  0.
          2    1    1    2  501    0 -0.13757773217E+03  0.18333215421E+03 -0.67521354506E+03  0.71305795178E+03  0.00000000000E+00 0. -1.
          1    1    1    2  502    0  0.27586984547E+01 -0.12685404580E+03  0.38048216467E+03  0.40108133463E+03  0.00000000000E+00 0. -1.
         22    1    3    3    0    0  0.15391919315E+03 -0.32616890499E+02 -0.48807184579E+03  0.51280513474E+03  0.00000000000E+00 0. -1.
         22    1    3    3    0    0 -0.19100159430E+02 -0.23861217910E+02 -0.17295629289E+03  0.17563613825E+03  0.00000000000E+00 0. -1.
</event>
<event>
 7    1  0.6386201E-006  0.6101114E+02  0.7818608E-02  0.1396208E+00
          2   -1    0    0  502    0  0.00000000000E+00  0.00000000000E+00  0.11714360507E+03  0.11714360507E+03  0.00000000000E+00 0. -1.
          1   -1    0    0  501    0 -0.00000000000E+00 -0.00000000000E+00 -0.17022522990E+03  0.17022522990E+03  0.00000000000E+00 0. -1.
         25    2    1    2    0    0 -0.24517463049E+02  0.25764608415E+02 -0.19115103840E+02  0.13135756807E+03  0.12499800980E+03 0.  0.
          2    1    1    2  501    0 -0.13029369381E+02 -0.72272612063E+02 -0.55951566516E+02  0.92323738640E+02  0.00000000000E+00 0. -1.
          1    1    1    2  502    0  0.37546832430E+02  0.46508003648E+02  0.21985045531E+02  0.63687528260E+02  0.00000000000E+00 0. -1.
         22    1    3    3    0    0  0.41989291345E+02  0.20778223734E+02  0.23295914868E+02  0.52321456581E+02  0.00000000000E+00 0.  1.
         22    1    3    3    0    0 -0.66506754393E+02  0.49863846809E+01 -0.42411018708E+02  0.79036111493E+02  0.00000000000E+00 0.  1.
</event>
<event>
 7    1  0.6386201E-006  0.1022882E+03  0.7818608E-02  0.1319748E+00
          2   -1    0    0  502    0  0.00000000000E+00  0.00000000000E+00  0.12596808210E+04  0.12596808210E+04  0.00000000000E+00 0. -1.
          1   -1    0    0  501    0 -0.00000000000E+00 -0.00000000000E+00 -0.14336069102E+03  0.14336069102E+03  0.00000000000E+00 0. -1.
         25    2    1    2    0    0 -0.85576595315E+01 -0.13851722270E+03  0.45205644402E+03  0.48912236787E+03  0.12500163060E+03 0.  0.
          2    1    1    2  501    0 -0.41381769967E+02  0.53898753048E+02 -0.11224888380E+03  0.13121485579E+03  0.00000000000E+00 0. -1.
          1    1    1    2  502    0  0.49939429499E+02  0.84618469648E+02  0.77651256978E+03  0.78270428838E+03  0.00000000000E+00 0. -1.
         22    1    3    3    0    0 -0.21869508402E+02 -0.12503826577E+03  0.20349238587E+03  0.23983743330E+03  0.00000000000E+00 0. -1.
         22    1    3    3    0    0  0.13311848870E+02 -0.13478956922E+02  0.24856405815E+03  0.24928493457E+03  0.00000000000E+00 0. -1.
</event>
<event>
 7    1  0.6386201E-006  0.1732319E+03  0.7818608E-02  0.1222706E+00
          2   -1    0    0  502    0  0.00000000000E+00  0.00000000000E+00  0.21913891822E+04  0.21913891822E+04  0.00000000000E+00 0. -1.
          1   -1    0    0  501    0 -0.00000000000E+00 -0.00000000000E+00 -0.27227420692E+04  0.27227420692E+04  0.00000000000E+00 0. -1.
         25    2    1    2    0    0  0.22403878898E+03  0.15301967743E+03  0.35390688289E+03  0.46312384024E+03  0.12500083597E+03 0.  0.
          2    1    1    2  501    0 -0.15371775367E+03 -0.78444098122E+02 -0.26638658870E+04  0.26694501472E+04  0.00000000000E+00 0. -1.
          1    1    1    2  502    0 -0.70321035304E+02 -0.74575579305E+02  0.17786061171E+04  0.17815572640E+04  0.00000000000E+00 0. -1.
         22    1    3    3    0    0  0.11059069235E+03  0.66172400468E+02  0.26545685217E+03  0.29508715353E+03  0.00000000000E+00 0.  1.
         22    1    3    3    0    0  0.11344809663E+03  0.86847276960E+02  0.88450030724E+02  0.16803668671E+03  0.00000000000E+00 0.  1.
</event>
<event>
 7    1  0.6386201E-006  0.6725034E+02  0.7818608E-02  0.1464067E+00
          2   -1    0    0  502    0  0.00000000000E+00  0.00000000000E+00  0.22033472893E+04  0.22033472893E+04  0.00000000000E+00 0. -1.
          1   -1    0    0  501    0 -0.00000000000E+00 -0.00000000000E+00 -0.31943884294E+03  0.31943884294E+03  0.00000000000E+00 0. -1.
         25    2    1    2    0    0 -0.88417702337E+02  0.16682612166E+02  0.79052350608E+03  0.80538706944E+03  0.12499967328E+03 0.  0.
          2    1    1    2  501    0  0.66753168148E+02  0.74273888896E+01 -0.30820288877E+03  0.31543647888E+03  0.00000000000E+00 0. -1.
          1    1    1    2  502    0  0.21664534189E+02 -0.24110001055E+02  0.14015878291E+04  0.14019625839E+04  0.00000000000E+00 0. -1.
         22    1    3    3    0    0 -0.12153168897E+01 -0.43781200618E+02  0.32404552669E+03  0.32699200891E+03  0.00000000000E+00 0.  1.
         22    1    3    3    0    0 -0.87202385447E+02  0.60463812784E+02  0.46647797939E+03  0.47839506053E+03  0.00000000000E+00 0.  1.
</event>
<event>
 7    1  0.6386201E-006  0.1445684E+03  0.7818608E-02  0.1332887E+00
          2   -1    0    0  502    0  0.00000000000E+00  0.00000000000E+00  0.39664367877E+03  0.39664367877E+03  0.00000000000E+00 0. -1.
          1   -1    0    0  501    0 -0.00000000000E+00 -0.00000000000E+00 -0.20856529588E+03  0.20856529588E+03  0.00000000000E+00 0. -1.
         25    2    1    2    0    0  0.10382732423E+03 -0.35329141998E+02  0.18715471016E+03  0.25036023335E+03  0.12500039751E+03 0.  0.
          2    1    1    2  501    0 -0.14646114668E+03  0.31527117119E+02 -0.14153455102E+03  0.20609914054E+03  0.00000000000E+00 0. -1.
          1    1    1    2  502    0  0.42633822447E+02  0.38020248790E+01  0.14245822375E+03  0.14874960075E+03  0.00000000000E+00 0. -1.
         22    1    3    3    0    0 -0.15722889963E+02 -0.88145540934E+01 -0.81966496633E+01  0.19801280220E+02  0.00000000000E+00 0.  1.
         22    1    3    3    0    0  0.11955021419E+03 -0.26514587905E+02  0.19535135982E+03  0.23055895313E+03  0.00000000000E+00 0.  1.
</event>
<event>
 7    1  0.6386201E-006  0.4023787E+03  0.7818608E-02  0.1122971E+00
          2   -1    0    0  502    0  0.00000000000E+00  0.00000000000E+00  0.96776367312E+03  0.96776367312E+03  0.00000000000E+00 0. -1.
          1   -1    0    0  501    0 -0.00000000000E+00 -0.00000000000E+00 -0.10196131487E+04  0.10196131487E+04  0.00000000000E+00 0. -1.
         25    2    1    2    0    0 -0.31834130719E+03 -0.22059065395E+03  0.33871811351E+03  0.52948690513E+03  0.12499999123E+03 0.  0.
          2    1    1    2  501    0  0.64343583312E+02 -0.12161252437E+03 -0.83259228692E+03  0.84388365255E+03  0.00000000000E+00 0. -1.
          1    1    1    2  502    0  0.25399772388E+03  0.34220317832E+03  0.44202469779E+03  0.61400626417E+03  0.00000000000E+00 0. -1.
         22    1    3    3    0    0 -0.29034820390E+03 -0.23525705014E+03  0.32412979656E+03  0.49467977942E+03  0.00000000000E+00 0.  1.
         22    1    3    3    0    0 -0.27993103292E+02  0.14666396183E+02  0.14588316948E+02  0.34807125711E+02  0.00000000000E+00 0.  1.
</event>
<event>
 7    1  0.6386201E-006  0.1085482E+03  0.7818608E-02  0.1344349E+00
          2   -1    0    0  502    0  0.00000000000E+00  0.00000000000E+00  0.22393542992E+04  0.22393542992E+04  0.00000000000E+00 0. -1.
          1   -1    0    0  501    0 -0.00000000000E+00 -0.00000000000E+00 -0.19869507064E+03  0.19869507064E+03  0.00000000000E+00 0. -1.
         25    2    1    2    0    0  0.87724415493E+02  0.10545831301E+02  0.27339786229E+03  0.31333299046E+03  0.12499753667E+03 0.  0.
          2    1    1    2  501    0 -0.91165329568E+02 -0.62038621355E+02 -0.16134040699E+03  0.19542424308E+03  0.00000000000E+00 0. -1.
          1    1    1    2  502    0  0.34409140751E+01  0.51492790054E+02  0.19286017732E+04  0.19292921362E+04  0.00000000000E+00 0. -1.
         22    1    3    3    0    0  0.76985594101E+02 -0.26115472210E+02  0.72789687673E+02  0.10911983422E+03  0.00000000000E+00 0.  1.
         22    1    3    3    0    0  0.10738821392E+02  0.36661303511E+02  0.20060817461E+03  0.20421315624E+03  0.00000000000E+00 0.  1.
</event>
<event>
 7    1  0.6386201E-006  0.3001192E+02  0.7818608E-02  0.1620672E+00
          2   -1    0    0  502    0  0.00000000000E+00  0.00000000000E+00  0.82446515469E+03  0.82446515469E+03  0.00000000000E+00 0. -1.
          1   -1    0    0  501    0 -0.00000000000E+00 -0.00000000000E+00 -0.93656104621E+02  0.93656104621E+02  0.00000000000E+00 0. -1.
         25    2    1    2    0    0  0.39734706797E+01  0.21184648096E+02  0.92931620736E+02  0.15724355331E+03  0.12499868456E+03 0.  0.
          2    1    1    2  501    0 -0.28330862420E+02 -0.11476690536E+02 -0.57439533087E+02  0.65066520980E+02  0.00000000000E+00 0. -1.
          1    1    1    2  502    0  0.24357391740E+02 -0.97079575597E+01  0.69531696242E+03  0.69581118502E+03  0.00000000000E+00 0. -1.
         22    1    3    3    0    0 -0.50338906085E+02  0.21647728526E+01  0.29981493353E+01  0.50474554053E+02  0.00000000000E+00 0. -1.
         22    1    3    3    0    0  0.54312376765E+02  0.19019875243E+02  0.89933471400E+02  0.10676899926E+03  0.00000000000E+00 0. -1.
</event>
<event>
 7    1  0.6386201E-006  0.1057873E+03  0.7818608E-02  0.1335120E+00
          2   -1    0    0  502    0  0.00000000000E+00  0.00000000000E+00  0.40546360308E+03  0.40546360308E+03  0.00000000000E+00 0. -1.
          1   -1    0    0  501    0 -0.00000000000E+00 -0.00000000000E+00 -0.11976818765E+04  0.11976818765E+04  0.00000000000E+00 0. -1.
         25    2    1    2    0    0 -0.49037388785E+02  0.11175650017E+02  0.93911487451E+02  0.16423604284E+03  0.12499819855E+03 0.  0.
          2    1    1    2  501    0  0.10638821046E+03 -0.99640789413E+01 -0.11570547077E+04  0.11619781972E+04  0.00000000000E+00 0. -1.
          1    1    1    2  502    0 -0.57350821673E+02 -0.12115710753E+01  0.27092494679E+03  0.27693123956E+03  0.00000000000E+00 0. -1.
         22    1    3    3    0    0 -0.29191855111E+02 -0.44364979575E+02 -0.27328116373E+00  0.53108290314E+02  0.00000000000E+00 0. -1.
         22    1    3    3    0    0 -0.19845533674E+02  0.55540629591E+02  0.94184768615E+02  0.11112775252E+03  0.00000000000E+00 0. -1.
</event>
<event>
 7    1  0.6386201E-006  0.1088104E+03  0.7818608E-02  0.1376577E+00
          2   -1    0    0  502    0  0.00000000000E+00  0.00000000000E+00  0.35482001892E+03  0.35482001892E+03  0.00000000000E+00 0. -1.
          1   -1    0    0  501    0 -0.00000000000E+00 -0.00000000000E+00 -0.49793449951E+03  0.49793449951E+03  0.00000000000E+00 0. -1.
         25    2    1    2    0    0  0.71793209669E+02  0.12071478467E+03  0.89815242991E+02  0.20837231599E+03  0.12500367997E+03 0.  0.
          2    1    1    2  501    0 -0.25874451441E+02 -0.29547124400E+02 -0.42503207394E+03  0.42684280910E+03  0.00000000000E+00 0. -1.
          1    1    1    2  502    0 -0.45918758228E+02 -0.91167660274E+02  0.19210235036E+03  0.21753939333E+03  0.00000000000E+00 0. -1.
         22    1    3    3    0    0  0.10280088136E+03  0.67131332397E+02  0.40705407019E+02  0.12935055917E+03  0.00000000000E+00 0.  1.
         22    1    3    3    0    0 -0.31007671693E+02  0.53583452278E+02  0.49109835972E+02  0.79021756821E+02  0.00000000000E+00 0.  1.
</event>
<event>
 7    1  0.6386201E-006  0.3695397E+03  0.7818608E-02  0.1195186E+00
          2   -1    0    0  502    0  0.00000000000E+00  0.00000000000E+00  0.27568933157E+04  0.27568933157E+04  0.00000000000E+00 0. -1.
          1   -1    0    0  501    0 -0.00000000000E+00 -0.00000000000E+00 -0.13647245035E+04  0.13647245035E+04  0.00000000000E+00 0. -1.
         25    2    1    2    0    0 -0.19250089089E+03  0.24277413036E+03  0.30996492273E+03  0.45573943501E+03  0.12499723169E+03 0.  0.
          2    1    1    2  501    0  0.23948784429E+03 -0.28695816629E+03 -0.12643498245E+04  0.13184384307E+04  0.00000000000E+00 0. -1.
          1    1    1    2  502    0 -0.46986953393E+02  0.44184035932E+02  0.23465537140E+04  0.23474399536E+04  0.00000000000E+00 0. -1.
         22    1    3    3    0    0 -0.48073728498E+02 -0.39166089843E+01  0.43990598399E+02  0.65280900309E+02  0.00000000000E+00 0.  1.
         22    1    3    3    0    0 -0.14442716239E+03  0.24669073934E+03  0.26597432433E+03  0.39045853470E+03  0.00000000000E+00 0.  1.
</event>
<event>
 7    1  0.6386201E-006  0.1174909E+03  0.7818608E-02  0.1301417E+00
          2   -1    0    0  502    0  0.00000000000E+00  0.00000000000E+00  0.10024350150E+04  0.10024350150E+04  0.00000000000E+00 0. -1.
          1   -1    0    0  501    0 -0.00000000000E+00 -0.00000000000E+00 -0.18064777599E+03  0.18064777599E+03  0.00000000000E+00 0. -1.
         25    2    1    2    0    0  0.53030815860E+02 -0.17031187895E+03  0.12507261444E+03  0.25116988962E+03  0.12499900411E+03 0.  0.
          2    1    1    2  501    0 -0.39767082081E+02  0.10172659050E+03 -0.90353116567E+02  0.14175121060E+03  0.00000000000E+00 0. -1.
          1    1    1    2  502    0 -0.13263733779E+02  0.68585288446E+02  0.78706774111E+03  0.79016169075E+03  0.00000000000E+00 0. -1.
         22    1    3    3    0    0 -0.92436940024E+01 -0.12951697686E+03  0.11958034694E+03  0.17652068590E+03  0.00000000000E+00 0. -1.
         22    1    3    3    0    0  0.62274509863E+02 -0.40794902087E+02  0.54922675017E+01  0.74649203728E+02  0.00000000000E+00 0. -1.
</event>
<event>
 7    1  0.6386201E-006  0.6167266E+02  0.7818608E-02  0.1411224E+00
          2   -1    0    0  502    0  0.00000000000E+00  0.00000000000E+00  0.44848499307E+03  0.44848499307E+03  0.00000000000E+00 0. -1.
          1   -1    0    0  501    0 -0.00000000000E+00 -0.00000000000E+00 -0.99049847820E+03  0.99049847820E+03  0.00000000000E+00 0. -1.
         25    2    1    2    0    0 -0.31260103385E+02 -0.19852282704E+02 -0.10939954279E+03  0.17019581522E+03  0.12500819318E+03 0.  0.
          2    1    1    2  501    0  0.30869354747E+02 -0.42510821401E+02 -0.84755725783E+03  0.84918395669E+03  0.00000000000E+00 0. -1.
          1    1    1    2  502    0  0.39074863810E+00  0.62363104105E+02  0.41494331549E+03  0.41960369935E+03  0.00000000000E+00 0. -1.
         22    1    3    3    0    0  0.37166108926E+02  0.15533850984E+02 -0.76444500506E+02  0.86408227829E+02  0.00000000000E+00 0.  1.
         22    1    3    3    0    0 -0.68426212311E+02 -0.35386133688E+02 -0.32955042285E+02  0.83787587390E+02  0.00000000000E+00 0.  1.
</event>
<event>
 7    1  0.6386201E-006  0.7379758E+02  0.7818608E-02  0.1475722E+00
          2   -1    0    0  502    0  0.00000000000E+00  0.00000000000E+00  0.18350454927E+03  0.18350454927E+03  0.00000000000E+00 0. -1.
          1   -1    0    0  501    0 -0.00000000000E+00 -0.00000000000E+00 -0.34830397452E+03  0.34830397452E+03  0.00000000000E+00 0. -1.
         25    2    1    2    0    0  0.50000588441E+02 -0.17127820541E+02 -0.30861738900E+02  0.13917901239E+03  0.12499971792E+03 0.  0.
          2    1    1    2  501    0 -0.64706293554E+02  0.39976245228E+02 -0.25626851955E+03  0.26731733711E+03  0.00000000000E+00 0. -1.
          1    1    1    2  502    0  0.14705705114E+02 -0.22848424687E+02  0.12233083320E+03  0.12531217429E+03  0.00000000000E+00 0. -1.
         22    1    3    3    0    0 -0.31665346042E+02 -0.39829712948E+02 -0.94413730292E+01  0.51751712031E+02  0.00000000000E+00 0.  1.
         22    1    3    3    0    0  0.81665934482E+02  0.22701892407E+02 -0.21420365871E+02  0.87427300357E+02  0.00000000000E+00 0.  1.
</event>
<event>
 7    1  0.6386201E-006  0.2026442E+03  0.7818608E-02  0.1277514E+00
          2   -1    0    0  502    0  0.00000000000E+00  0.00000000000E+00  0.31209281696E+04  0.31209281696E+04  0.00000000000E+00 0. -1.
          1   -1    0    0  501    0 -0.00000000000E+00 -0.00000000000E+00 -0.18128625022E+03  0.18128625022E+03  0.00000000000E+00 0. -1.
         25    2    1    2    0    0  0.21584862218E+03  0.83031161002E+01  0.11163272005E+04  0.11438820571E+04  0.12498068849E+03 0.  0.
          2    1    1    2  501    0 -0.20239272780E+02 -0.46456508699E+02 -0.15856093922E+03  0.16646142740E+03  0.00000000000E+00 0. -1.
          1    1    1    2  502    0 -0.19560934940E+03  0.38153392599E+02  0.19818756581E+04  0.19918709354E+04  0.00000000000E+00 0. -1.
         22    1    3    3    0    0  0.47955253903E+02  0.56699891942E+02  0.36930823367E+03  0.37670035251E+03  0.00000000000E+00 0. -1.
         22    1    3    3    0    0  0.16789336827E+03 -0.48396775842E+02  0.74701896684E+03  0.76718170458E+03  0.00000000000E+00 0. -1.
</event>
<event>
 7    1  0.6386201E-006  0.4794882E+02  0.7818608E-02  0.1468496E+00
          2   -1    0    0  502    0  0.00000000000E+00  0.00000000000E+00  0.67764101056E+03  0.67764101056E+03  0.00000000000E+00 0. -1.
          1   -1    0    0  501    0 -0.00000000000E+00 -0.00000000000E+00 -0.34915677227E+03  0.34915677227E+03  0.00000000000E+00 0. -1.
         25    2    1    2    0    0 -0.24125836380E+02  0.58111353400E+02  0.12148545994E+03  0.18531920061E+03  0.12500201504E+03 0.  0.
          2    1    1    2  501    0  0.41913804419E+02 -0.13500968751E+02 -0.31460335813E+03  0.31767013726E+03  0.00000000000E+00 0. -1.
          1    1    1    2  502    0 -0.17787968039E+02 -0.44610384648E+02  0.52160213648E+03  0.52380844496E+03  0.00000000000E+00 0. -1.
         22    1    3    3    0    0  0.21867653048E+01  0.33033005349E+02 -0.20376952265E+02  0.38873918872E+02  0.00000000000E+00 0. -1.
         22    1    3    3    0    0 -0.26312601685E+02  0.25078348051E+02  0.14186241220E+03  0.14644528174E+03  0.00000000000E+00 0. -1.
</event>
<event>
 7    1  0.6386201E-006  0.5951959E+02  0.7818608E-02  0.1539074E+00
          2   -1    0    0  502    0  0.00000000000E+00  0.00000000000E+00  0.91077531187E+02  0.91077531187E+02  0.00000000000E+00 0. -1.
          1   -1    0    0  501    0 -0.00000000000E+00 -0.00000000000E+00 -0.59965665843E+03  0.59965665843E+03  0.00000000000E+00 0. -1.
         25    2    1    2    0    0  0.21005195398E+02 -0.75534138514E+02 -0.33367922497E+03  0.36484691918E+03  0.12499929977E+03 0.  0.
          2    1    1    2  501    0 -0.13709467954E+02  0.17066750356E+02 -0.23831848829E+03  0.23932180289E+03  0.00000000000E+00 0. -1.
          1    1    1    2  502    0 -0.72957274434E+01  0.58467388158E+02  0.63418586024E+02  0.86565467539E+02  0.00000000000E+00 0. -1.
         22    1    3    3    0    0  0.42648868912E+02  0.20710336093E+02 -0.13375731496E+03  0.14191146306E+03  0.00000000000E+00 0.  1.
         22    1    3    3    0    0 -0.21643673515E+02 -0.96244474606E+02 -0.19992191001E+03  0.22293545612E+03  0.00000000000E+00 0.  1.
</event>
<event>
 7    1  0.6386201E-006  0.5360767E+02  0.7818608E-02  0.1565869E+00
          2   -1    0    0  502    0  0.00000000000E+00  0.00000000000E+00  0.51674677153E+03  0.51674677153E+03  0.00000000000E+00 0. -1.
          1   -1    0    0  501    0 -0.00000000000E+00 -0.00000000000E+00 -0.28547144120E+03  0.28547144120E+03  0.00000000000E+00 0. -1.
         25    2    1    2    0    0  0.67497435951E+02 -0.91214584007E+01  0.33681873335E+03  0.36566472149E+03  0.12499889819E+03 0.  0.
          2    1    1    2  501    0 -0.19713267199E+02 -0.55283121947E+01 -0.26687417966E+03  0.26765836977E+03  0.00000000000E+00 0. -1.
          1    1    1    2  502    0 -0.47784168752E+02  0.14649770595E+02  0.16133077664E+03  0.16889512146E+03  0.00000000000E+00 0. -1.
         22    1    3    3    0    0  0.78536996590E+02  0.27657655154E+02  0.30385393135E+03  0.31505589555E+03  0.00000000000E+00 0.  1.
         22    1    3    3    0    0 -0.11039560639E+02 -0.36779113555E+02  0.32964801997E+02  0.50608825947E+02  0.00000000000E+00 0.  1.
</event>
<event>
 7    1  0.6386201E-006  0.9754690E+02  0.7818608E-02  0.1316774E+00
          2   -1    0    0  502    0  0.00000000000E+00  0.00000000000E+00  0.99637544426E+03  0.99637544426E+03  0.00000000000E+00 0. -1.
          1   -1    0    0  501    0 -0.00000000000E+00 -0.00000000000E+00 -0.18399167854E+03  0.18399167854E+03  0.00000000000E+00 0. -1.
         25    2    1    2    0    0  0.52458352160E+02  0.10843232312E+03  0.87430157105E+02  0.19436858207E+03  0.12500266363E+03 0.  0.
          2    1    1    2  501    0 -0.86927908278E+02 -0.43879401896E+02 -0.11053644219E+03  0.14730976954E+03  0.00000000000E+00 0. -1.
          1    1    1    2  502    0  0.34469556119E+02 -0.64552921229E+02  0.83549005080E+03  0.83868877119E+03  0.00000000000E+00 0. -1.
         22    1    3    3    0    0  0.35397253668E+02  0.80877595881E+01  0.85138917860E+02  0.92558158780E+02  0.00000000000E+00 0.  1.
         22    1    3    3    0    0  0.17061098491E+02  0.10034456354E+03  0.22912392446E+01  0.10181042329E+03  0.00000000000E+00 0.  1.
</event>
<event>
 7    1  0.6386201E-006  0.3729797E+02  0.7818608E-02  0.1561748E+00
          2   -1    0    0  502    0  0.00000000000E+00  0.00000000000E+00  0.20846561195E+04  0.20846561195E+04  0.00000000000E+00 0. -1.
          1   -1    0    0  501    0 -0.00000000000E+00 -0.00000000000E+00 -0.15064596043E+03  0.15064596043E+03  0.00000000000E+00 0. -1.
         25    2    1    2    0    0  0.28744337004E+02  0.24829492731E+02  0.16664981841E+04  0.16716115653E+04  0.12500514858E+03 0.  0.
          2    1    1    2  501    0  0.11436064174E+02 -0.27952387291E+02 -0.14555850489E+03  0.14865866226E+03  0.00000000000E+00 0. -1.
          1    1    1    2  502    0 -0.40180401178E+02  0.31228945599E+01  0.41307047995E+03  0.41503185241E+03  0.00000000000E+00 0. -1.
         22    1    3    3    0    0  0.17093737314E+02  0.44797734067E+02  0.23083394989E+03  0.23576120388E+03  0.00000000000E+00 0. -1.
         22    1    3    3    0    0  0.11650599691E+02 -0.19968241337E+02  0.14356642342E+04  0.14358503614E+04  0.00000000000E+00 0. -1.
</event>
<event>
 7    1  0.6386201E-006  0.4068649E+02  0.7818608E-02  0.1535333E+00
          2   -1    0    0  502    0  0.00000000000E+00  0.00000000000E+00  0.18470690764E+04  0.18470690764E+04  0.00000000000E+00 0. -1.
          1   -1    0    0  501    0 -0.00000000000E+00 -0.00000000000E+00 -0.18855918992E+03  0.18855918992E+03  0.00000000000E+00 0. -1.
         25    2    1    2    0    0  0.49281215211E+02  0.41024294664E+02  0.25890117044E+03  0.29456064346E+03  0.12499810276E+03 0.  0.
          2    1    1    2  501    0 -0.39348442980E+02 -0.97469876473E+01 -0.16814902077E+03  0.17296646183E+03  0.00000000000E+00 0. -1.
          1    1    1    2  502    0 -0.99327722309E+01 -0.31277307017E+02  0.15677577368E+04  0.15681011611E+04  0.00000000000E+00 0. -1.
         22    1    3    3    0    0  0.81908687772E+02  0.59572317278E+02  0.20768856433E+03  0.23106802867E+03  0.00000000000E+00 0. -1.
         22    1    3    3    0    0 -0.32627472561E+02 -0.18548022614E+02  0.51212606114E+02  0.63492614795E+02  0.00000000000E+00 0. -1.
</event>
<event>
 7    1  0.6386201E-006  0.8831770E+02  0.7818608E-02  0.1322700E+00
          2   -1    0    0  502    0  0.00000000000E+00  0.00000000000E+00  0.15152715456E+04  0.15152715456E+04  0.00000000000E+00 0. -1.
          1   -1    0    0  501    0 -0.00000000000E+00 -0.00000000000E+00 -0.49354869722E+03  0.49354869722E+03  0.00000000000E+00 0. -1.
         25    2    1    2    0    0  0.61098279403E+02  0.25768402908E+02  0.10322499748E+03  0.17516109174E+03  0.12501598946E+03 0.  0.
          2    1    1    2  501    0  0.14564746661E+02 -0.75260736774E+02 -0.45287106790E+03  0.45931308983E+03  0.00000000000E+00 0. -1.
          1    1    1    2  502    0 -0.75663026064E+02  0.49492333866E+02  0.13713689188E+04  0.13743460612E+04  0.00000000000E+00 0. -1.
         22    1    3    3    0    0  0.62017708719E+02 -0.21404437038E+02  0.45247349794E+01  0.65763358691E+02  0.00000000000E+00 0. -1.
         22    1    3    3    0    0 -0.91942931618E+00  0.47172839946E+02  0.98700262505E+02  0.10939773305E+03  0.00000000000E+00 0. -1.
</event>
<event>
 7    1  0.6386201E-006  0.2046487E+03  0.7818608E-02  0.1236687E+00
          2   -1    0    0  502    0  0.00000000000E+00  0.00000000000E+00  0.24399281093E+04  0.24399281093E+04  0.00000000000E+00 0. -1.
          1   -1    0    0  501    0 -0.00000000000E+00 -0.00000000000E+00 -0.12715245817E+04  0.12715245817E+04  0.00000000000E+00 0. -1.
         25    2    1    2    0    0  0.15267371392E+03  0.29979713117E+02 -0.20188452286E+03  0.28388476254E+03  0.12500060683E+03 0.  0.
          2    1    1    2  501    0 -0.21946907842E+03  0.43438249590E+01 -0.10163316077E+04  0.10397670326E+04  0.00000000000E+00 0. -1.
          1    1    1    2  502    0  0.66795364494E+02 -0.34323538076E+02  0.23866196581E+04  0.23878008959E+04  0.00000000000E+00 0. -1.
         22    1    3    3    0    0  0.10803062694E+03  0.78495378486E+02 -0.13057412106E+03  0.18676654382E+03  0.00000000000E+00 0. -1.
         22    1    3    3    0    0  0.44643086981E+02 -0.48515665369E+02 -0.71310401804E+02  0.97118218717E+02  0.00000000000E+00 0. -1.
</event>
<event>
 7    1  0.6386201E-006  0.5640439E+02  0.7818608E-02  0.1529315E+00
          2   -1    0    0  502    0  0.00000000000E+00  0.00000000000E+00  0.57255694211E+03  0.57255694211E+03  0.00000000000E+00 0. -1.
          1   -1    0    0  501    0 -0.00000000000E+00 -0.00000000000E+00 -0.62058058578E+03  0.62058058578E+03  0.00000000000E+00 0. -1.
         25    2    1    2    0    0  0.27336259514E+02  0.50840436851E+02 -0.10152894553E+01  0.13768398263E+03  0.12499530854E+03 0.  0.
          2    1    1    2  501    0 -0.45196523550E+02 -0.33883969245E+02 -0.54948142860E+03  0.55237730719E+03  0.00000000000E+00 0. -1.
          1    1    1    2  502    0  0.17860264037E+02 -0.16956467606E+02  0.50247307439E+03  0.50307623807E+03  0.00000000000E+00 0. -1.
         22    1    3    3    0    0 -0.24097396691E+01  0.40718319806E+02  0.57952001744E+02  0.70867643669E+02  0.00000000000E+00 0. -1.
         22    1    3    3    0    0  0.29745999183E+02  0.10122117045E+02 -0.58967291199E+02  0.66816338961E+02  0.00000000000E+00 0. -1.
</event>
<event>
 7    1  0.6386201E-006  0.5362559E+02  0.7818608E-02  0.1555026E+00
          2   -1    0    0  502    0  0.00000000000E+00  0.00000000000E+00  0.16904232454E+04  0.16904232454E+04  0.00000000000E+00 0. -1.
          1   -1    0    0  501    0 -0.00000000000E+00 -0.00000000000E+00 -0.13717570024E+03  0.13717570024E+03  0.00000000000E+00 0. -1.
         25    2    1    2    0    0 -0.25331809063E+02 -0.26668864266E+02  0.52376504331E+02  0.14040793216E+03  0.12497263835E+03 0.  0.
          2    1    1    2  501    0  0.20044122070E+01 -0.21830382814E+02 -0.91409371906E+02  0.94001364641E+02  0.00000000000E+00 0. -1.
          1    1    1    2  502    0  0.23327396856E+02  0.48499247080E+02  0.15922804127E+04  0.15931896488E+04  0.00000000000E+00 0. -1.
         22    1    3    3    0    0 -0.74519841143E+02 -0.31111492129E+02  0.29427984393E+02  0.85948460905E+02  0.00000000000E+00 0. -1.
         22    1    3    3    0    0  0.49188032080E+02  0.44426278633E+01  0.22948519938E+02  0.54459471257E+02  0.00000000000E+00 0. -1.
</event>
<event>
 7    1  0.6386201E-006  0.8459762E+02  0.7818608E-02  0.1373354E+00
          2   -1    0    0  502    0  0.00000000000E+00  0.00000000000E+00  0.40833758247E+04  0.40833758247E+04  0.00000000000E+00 0. -1.
          1   -1    0    0  501    0 -0.00000000000E+00 -0.00000000000E+00 -0.15333880196E+02  0.15333880196E+02  0.00000000000E+00 0. -1.
         25    2    1    2    0    0 -0.19098310765E+02  0.10055414864E+03  0.22222710409E+04  0.22281358717E+04  0.12500000500E+03 0.  0.
          2    1    1    2  501    0 -0.28265104169E+02 -0.79403559289E+02  0.13588796741E+03  0.15990428708E+03  0.00000000000E+00 0. -1.
          1    1    1    2  502    0  0.47363414933E+02 -0.21150589354E+02  0.17098829362E+04  0.17106695461E+04  0.00000000000E+00 0. -1.
         22    1    3    3    0    0 -0.23835775178E+02  0.35017534237E+02  0.18231654111E+04  0.18236574482E+04  0.00000000000E+00 0. -1.
         22    1    3    3    0    0  0.47374644134E+01  0.65536614406E+02  0.39910562980E+03  0.40447842357E+03  0.00000000000E+00 0. -1.
</event>
<event>
 7    1  0.6386201E-006  0.2358948E+03  0.7818608E-02  0.1207226E+00
          2   -1    0    0  502    0  0.00000000000E+00  0.00000000000E+00  0.12353736451E+04  0.12353736451E+04  0.00000000000E+00 0. -1.
          1   -1    0    0  501    0 -0.00000000000E+00 -0.00000000000E+00 -0.60245243012E+03  0.60245243012E+03  0.00000000000E+00 0. -1.
         25    2    1    2    0    0  0.20768243779E+03 -0.36631372251E+02 -0.18430807574E+03  0.30670651788E+03  0.12500227569E+03 0.  0.
          2    1    1    2  501    0 -0.25781931013E+03 -0.36514742955E+02 -0.30747729569E+03  0.40292233804E+03  0.00000000000E+00 0. -1.
          1    1    1    2  502    0  0.50136872338E+02  0.73146115205E+02  0.11247065864E+04  0.11281972193E+04  0.00000000000E+00 0. -1.
         22    1    3    3    0    0  0.36034988568E+02 -0.46946973242E+01  0.17096940080E+02  0.40160502290E+02  0.00000000000E+00 0. -1.
         22    1    3    3    0    0  0.17164744923E+03 -0.31936674926E+02 -0.20140501582E+03  0.26654601559E+03  0.00000000000E+00 0. -1.
</event>
<event>
 7    1  0.6386201E-006  0.6298147E+02  0.7818608E-02  0.1451822E+00
          2   -1    0    0  502    0  0.00000000000E+00  0.00000000000E+00  0.55413772154E+03  0.55413772154E+03  0.00000000000E+00 0. -1.
          1   -1    0    0  501    0 -0.00000000000E+00 -0.00000000000E+00 -0.15002591531E+03  0.15002591531E+03  0.00000000000E+00 0. -1.
         25    2    1    2    0    0  0.16997324277E+02 -0.42886143484E+02  0.12219257949E+02  0.13379953408E+03  0.12499949887E+03 0.  0.
          2    1    1    2  501    0 -0.54629124239E+02  0.38921005426E+02 -0.75757914409E+02  0.10118521371E+03  0.00000000000E+00 0. -1.
          1    1    1    2  502    0  0.37631799962E+02  0.39651380582E+01  0.46765046268E+03  0.46917888906E+03  0.00000000000E+00 0. -1.
         22    1    3    3    0    0  0.42906538089E+02  0.13221440166E+02  0.45234006320E+02  0.63732980619E+02  0.00000000000E+00 0.  1.
         22    1    3    3    0    0 -0.25909213811E+02 -0.56107583650E+02 -0.33014748371E+02  0.70066553457E+02  0.00000000000E+00 0.  1.
</event>
<event>
 7    1  0.6386201E-006  0.1513006E+03  0.7818608E-02  0.1303657E+00
          2   -1    0    0  502    0  0.00000000000E+00  0.00000000000E+00  0.60887207464E+03  0.60887207464E+03  0.00000000000E+00 0. -1.
          1   -1    0    0  501    0 -0.00000000000E+00 -0.00000000000E+00 -0.45560459187E+03  0.45560459187E+03  0.00000000000E+00 0. -1.
         25    2    1    2    0    0 -0.37166137256E+01  0.14987209777E+03 -0.19884738802E+03  0.27864167857E+03  0.12500176960E+03 0.  0.
          2    1    1    2  501    0 -0.52393452501E+02 -0.88871546910E+01 -0.20326609169E+03  0.21009797575E+03  0.00000000000E+00 0. -1.
          1    1    1    2  502    0  0.56110066227E+02 -0.14098494308E+03  0.55538096249E+03  0.57573701219E+03  0.00000000000E+00 0. -1.
         22    1    3    3    0    0 -0.25177326317E+02  0.15932649687E+03 -0.13405825084E+03  0.20973899252E+03  0.00000000000E+00 0. -1.
         22    1    3    3    0    0  0.21460712592E+02 -0.94543990973E+01 -0.64789137189E+02  0.68902686050E+02  0.00000000000E+00 0. -1.
</event>
<event>
 7    1  0.6386201E-006  0.9680278E+02  0.7818608E-02  0.1395088E+00
          2   -1    0    0  502    0  0.00000000000E+00  0.00000000000E+00  0.31325362261E+03  0.31325362261E+03  0.00000000000E+00 0. -1.
          1   -1    0    0  501    0 -0.00000000000E+00 -0.00000000000E+00 -0.37662076368E+03  0.37662076368E+03  0.00000000000E+00 0. -1.
         25    2    1    2    0    0 -0.64951754975E+02  0.26061736668E+02 -0.33370726574E+02  0.14708828911E+03  0.12499365907E+03 0.  0.
          2    1    1    2  501    0  0.10057009201E+03 -0.12791090006E+02 -0.27591323144E+03  0.29394908858E+03  0.00000000000E+00 0. -1.
          1    1    1    2  502    0 -0.35618337032E+02 -0.13270646663E+02  0.24591681695E+03  0.24883700861E+03  0.00000000000E+00 0. -1.
         22    1    3    3    0    0 -0.67672261865E+02  0.84222349352E+01  0.34841735830E+02  0.76579472595E+02  0.00000000000E+00 0.  1.
         22    1    3    3    0    0  0.27205068900E+01  0.17639501733E+02 -0.68212462404E+02  0.70508816515E+02  0.00000000000E+00 0.  1.
</event>
<event>
 7    1  0.6386201E-006  0.4827919E+02  0.7818608E-02  0.1472296E+00
          2   -1    0    0  502    0  0.00000000000E+00  0.00000000000E+00  0.16113958760E+04  0.16113958760E+04  0.00000000000E+00 0. -1.
          1   -1    0    0  501    0 -0.00000000000E+00 -0.00000000000E+00 -0.11598256198E+03  0.11598256198E+03  0.00000000000E+00 0. -1.
         25    2    1    2    0    0  0.12789721103E+02  0.67580316089E+02  0.10644059779E+03  0.17800273539E+03  0.12499878744E+03 0.  0.
          2    1    1    2  501    0 -0.35847038258E+02 -0.31807691647E+02 -0.72704722188E+02  0.87078792069E+02  0.00000000000E+00 0. -1.
          1    1    1    2  502    0  0.23057317156E+02 -0.35772624442E+02  0.14616774384E+04  0.14622969105E+04  0.00000000000E+00 0. -1.
         22    1    3    3    0    0  0.46065204562E+01  0.74667469796E+02  0.39198927249E+01  0.74912059346E+02  0.00000000000E+00 0. -1.
         22    1    3    3    0    0  0.81832006466E+01 -0.70871537068E+01  0.10252070507E+03  0.10309067605E+03  0.00000000000E+00 0. -1.
</event>
<event>
 7    1  0.6386201E-006  0.5537097E+02  0.7818608E-02  0.1437209E+00
          2   -1    0    0  502    0  0.00000000000E+00  0.00000000000E+00  0.54709803028E+03  0.54709803028E+03  0.00000000000E+00 0. -1.
          1   -1    0    0  501    0 -0.00000000000E+00 -0.00000000000E+00 -0.23913239456E+03  0.23913239456E+03  0.00000000000E+00 0. -1.
         25    2    1    2    0    0 -0.25988047212E+02 -0.22378301728E+02  0.10744953803E+02  0.13006677527E+03  0.12500298000E+03 0.  0.
          2    1    1    2  501    0  0.55684670435E+02 -0.15299279580E+02 -0.17357536962E+03  0.18292965701E+03  0.00000000000E+00 0. -1.
          1    1    1    2  502    0 -0.29696623223E+02  0.37677581309E+02  0.47079605154E+03  0.47323399256E+03  0.00000000000E+00 0. -1.
         22    1    3    3    0    0 -0.34050451256E+02 -0.58995148022E+02  0.43045851728E+02  0.80577950283E+02  0.00000000000E+00 0. -1.
         22    1    3    3    0    0  0.80624040437E+01  0.36616846294E+02 -0.32300897925E+02  0.49488824983E+02  0.00000000000E+00 0. -1.
</event>
<event>
 7    1  0.6386201E-006  0.5369703E+02  0.7818608E-02  0.1485608E+00
          2   -1    0    0  502    0  0.00000000000E+00  0.00000000000E+00  0.31913769436E+04  0.31913769436E+04  0.00000000000E+00 0. -1.
          1   -1    0    0  501    0 -0.00000000000E+00 -0.00000000000E+00 -0.49127149463E+03  0.49127149463E+03  0.00000000000E+00 0. -1.
         25    2    1    2    0    0  0.79206600089E+02  0.38886539066E+02  0.70343271685E+03  0.71988611436E+03  0.12503032468E+03 0.  0.
          2    1    1    2  501    0 -0.49385704508E+02 -0.20897376280E+02 -0.48143377101E+03  0.48441111053E+03  0.00000000000E+00 0. -1.
          1    1    1    2  502    0 -0.29820895581E+02 -0.17989162786E+02  0.24781065031E+04  0.24783512133E+04  0.00000000000E+00 0. -1.
         22    1    3    3    0    0 -0.21775055042E+01  0.59763810173E+02  0.17798525821E+03  0.18776369904E+03  0.00000000000E+00 0. -1.
         22    1    3    3    0    0  0.81384105593E+02 -0.20877271107E+02  0.52544745865E+03  0.53212241532E+03  0.00000000000E+00 0. -1.
</event>
<event>
 7    1  0.6386201E-006  0.9735052E+02  0.7818608E-02  0.1429042E+00
          2   -1    0    0  502    0  0.00000000000E+00  0.00000000000E+00  0.16731859146E+03  0.16731859146E+03  0.00000000000E+00 0. -1.
          1   -1    0    0  501    0 -0.00000000000E+00 -0.00000000000E+00 -0.86444109307E+03  0.86444109307E+03  0.00000000000E+00 0. -1.
         25    2    1    2    0    0 -0.10249833137E+03 -0.21027536456E+02 -0.23577034637E+03  0.28663157104E+03  0.12498774366E+03 0.  0.
          2    1    1    2  501    0  0.96486346633E+02 -0.73640240310E+01 -0.59782385170E+03  0.60560482296E+03  0.00000000000E+00 0. -1.
          1    1    1    2  502    0  0.60119847352E+01  0.28391560487E+02  0.13647169645E+03  0.13952329053E+03  0.00000000000E+00 0. -1.
         22    1    3    3    0    0 -0.18922091275E+02 -0.13309335850E+02 -0.18927141317E+03  0.19067997221E+03  0.00000000000E+00 0.  1.
         22    1    3    3    0    0 -0.83576240093E+02 -0.77182006054E+01 -0.46498933197E+02  0.95951598825E+02  0.00000000000E+00 0.  1.
</event>
<event>
 7    1  0.6386201E-006  0.2521602E+03  0.7818608E-02  0.1229412E+00
          2   -1    0    0  502    0  0.00000000000E+00  0.00000000000E+00  0.22089785887E+04  0.22089785887E+04  0.00000000000E+00 0. -1.
          1   -1    0    0  501    0 -0.00000000000E+00 -0.00000000000E+00 -0.35936792714E+03  0.35936792714E+03  0.00000000000E+00 0. -1.
         25    2    1    2    0    0  0.21996587519E+03 -0.13435884096E+03  0.22512302189E+03  0.36433722594E+03  0.12499581924E+03 0.  0.
          2    1    1    2  501    0  0.21820941866E+02  0.61946100752E+02 -0.27759253964E+03  0.28525618480E+03  0.00000000000E+00 0. -1.
          1    1    1    2  502    0 -0.24178681706E+03  0.72412740213E+02  0.19020801793E+04  0.19187531051E+04  0.00000000000E+00 0. -1.
         22    1    3    3    0    0  0.19946177324E+03 -0.84865769793E+02  0.12355208216E+03  0.24950413799E+03  0.00000000000E+00 0.  1.
         22    1    3    3    0    0  0.20504101947E+02 -0.49493071172E+02  0.10157093973E+03  0.11483308795E+03  0.00000000000E+00 0.  1.
</event>
<event>
 7    1  0.6386201E-006  0.1942509E+03  0.7818608E-02  0.1351450E+00
          2   -1    0    0  502    0  0.00000000000E+00  0.00000000000E+00  0.24841412327E+04  0.24841412327E+04  0.00000000000E+00 0. -1.
          1   -1    0    0  501    0 -0.00000000000E+00 -0.00000000000E+00 -0.25929673062E+02  0.25929673062E+02  0.00000000000E+00 0. -1.
         25    2    1    2    0    0 -0.88538224522E+02 -0.15642507086E+03  0.14209432982E+04  0.14377107990E+04  0.12499865985E+03 0.  0.
          2    1    1    2  501    0  0.82169919353E+02  0.18280527312E+03  0.56828494094E+03  0.60259226483E+03  0.00000000000E+00 0. -1.
          1    1    1    2  502    0  0.63683051689E+01 -0.26380202256E+02  0.46898332052E+03  0.46976784192E+03  0.00000000000E+00 0. -1.
         22    1    3    3    0    0  0.25659884895E+02 -0.30024668099E+02  0.13911373752E+03  0.14461169508E+03  0.00000000000E+00 0.  1.
         22    1    3    3    0    0 -0.11419810942E+03 -0.12640040276E+03  0.12818295607E+04  0.12930991039E+04  0.00000000000E+00 0.  1.
</event>
<event>
 7    1  0.6386201E-006  0.6662125E+02  0.7818608E-02  0.1382305E+00
          2   -1    0    0  502    0  0.00000000000E+00  0.00000000000E+00  0.19046053228E+04  0.19046053228E+04  0.00000000000E+00 0. -1.
          1   -1    0    0  501    0 -0.00000000000E+00 -0.00000000000E+00 -0.91919207694E+03  0.91919207694E+03  0.00000000000E+00 0. -1.
         25    2    1    2    0    0  0.47679701106E+02 -0.73190766370E+01  0.80420188879E+03  0.81528729755E+03  0.12500310730E+03 0.  0.
          2    1    1    2  501    0  0.47686078845E+01  0.61030300187E+02 -0.91133445543E+03  0.91338815780E+03  0.00000000000E+00 0. -1.
          1    1    1    2  502    0 -0.52448308990E+02 -0.53711223550E+02  0.10925458125E+04  0.10951219444E+04  0.00000000000E+00 0. -1.
         22    1    3    3    0    0  0.49516267759E+02  0.53107538802E+02  0.48589223158E+03  0.49128762671E+03  0.00000000000E+00 0.  1.
         22    1    3    3    0    0 -0.18365666530E+01 -0.60426615439E+02  0.31830965721E+03  0.32399967084E+03  0.00000000000E+00 0.  1.
</event>
<event>
 7    1  0.6386201E-006  0.1108680E+03  0.7818608E-02  0.1268803E+00
          2   -1    0    0  502    0  0.00000000000E+00  0.00000000000E+00  0.28204579846E+03  0.28204579846E+03  0.00000000000E+00 0. -1.
          1   -1    0    0  501    0 -0.00000000000E+00 -0.00000000000E+00 -0.44956752839E+03  0.44956752839E+03  0.00000000000E+00 0. -1.
         25    2    1    2    0    0 -0.49843995140E+00 -0.22421426126E+02 -0.42482304413E+02  0.13391514669E+03  0.12500220611E+03 0.  0.
          2    1    1    2  501    0 -0.10120134082E+03  0.66567418464E+02 -0.33721037796E+03  0.35830681209E+03  0.00000000000E+00 0. -1.
          1    1    1    2  502    0  0.10169978077E+03 -0.44145992339E+02  0.21217095244E+03  0.23939136808E+03  0.00000000000E+00 0. -1.
         22    1    3    3    0    0  0.34374781520E+01  0.45893946764E+02  0.10700082394E+02  0.47249998612E+02  0.00000000000E+00 0.  1.
         22    1    3    3    0    0 -0.39359181034E+01 -0.68315372889E+02 -0.53182386807E+02  0.86665148075E+02  0.00000000000E+00 0.  1.
</event>
<event>
 7    1  0.6386201E-006  0.4316709E+02  0.7818608E-02  0.1519068E+00
          2   -1    0    0  502    0  0.00000000000E+00  0.00000000000E+00  0.14409425772E+04  0.14409425772E+04  0.00000000000E+00 0. -1.
          1   -1    0    0  501    0 -0.00000000000E+00 -0.00000000000E+00 -0.15381345040E+03  0.15381345040E+03  0.00000000000E+00 0. -1.
         25    2    1    2    0    0  0.56479700578E+02 -0.40761763741E+02  0.13436745532E+03  0.19629303025E+03  0.12499945086E+03 0.  0.
          2    1    1    2  501    0 -0.14641693931E+02  0.31181900018E+02 -0.12006690000E+03  0.12491097055E+03  0.00000000000E+00 0. -1.
          1    1    1    2  502    0 -0.41838006647E+02  0.95798637227E+01  0.12728285714E+04  0.12735520268E+04  0.00000000000E+00 0. -1.
         22    1    3    3    0    0  0.63510314977E+02 -0.56962739036E+01  0.14548169279E+03  0.15884247096E+03  0.00000000000E+00 0.  1.
         22    1    3    3    0    0 -0.70306143993E+01 -0.35065489837E+02 -0.11114237472E+02  0.37450559287E+02  0.00000000000E+00 0.  1.
</event>
<event>
 7    1  0.6386201E-006  0.2498526E+03  0.7818608E-02  0.1175073E+00
          2   -1    0    0  502    0  0.00000000000E+00  0.00000000000E+00  0.62692374044E+03  0.62692374044E+03  0.00000000000E+00 0. -1.
          1   -1    0    0  501    0 -0.00000000000E+00 -0.00000000000E+00 -0.31388186689E+03  0.31388186689E+03  0.00000000000E+00 0. -1.
         25    2    1    2    0    0  0.14471944782E+03  0.87239747339E+02 -0.50160234332E+02  0.21609322929E+03  0.12500297015E+03 0.  0.
          2    1    1    2  501    0  0.42614218168E+02  0.11148881661E+03 -0.12026597676E+03  0.16943917194E+03  0.00000000000E+00 0. -1.
          1    1    1    2  502    0 -0.18733366598E+03 -0.19872856395E+03  0.48346808465E+03  0.55527320610E+03  0.00000000000E+00 0. -1.
         22    1    3    3    0    0  0.13162746475E+03  0.11503313611E+03 -0.25421094310E+02  0.17664836234E+03  0.00000000000E+00 0.  1.
         22    1    3    3    0    0  0.13091983069E+02 -0.27793388775E+02 -0.24739140022E+02  0.39444866957E+02  0.00000000000E+00 0.  1.
</event>
<event>
 7    1  0.6386201E-006  0.8471792E+02  0.7818608E-02  0.1453404E+00
          2   -1    0    0  502    0  0.00000000000E+00  0.00000000000E+00  0.46595908207E+03  0.46595908207E+03  0.00000000000E+00 0. -1.
          1   -1    0    0  501    0 -0.00000000000E+00 -0.00000000000E+00 -0.34151807722E+03  0.34151807722E+03  0.00000000000E+00 0. -1.
         25    2    1    2    0    0  0.51414850016E+02  0.77979328091E+02  0.27175688356E+03  0.31336890259E+03  0.12499601167E+03 0.  0.
          2    1    1    2  501    0 -0.23797106122E+02 -0.81214062597E+02 -0.31395701288E+03  0.32516308548E+03  0.00000000000E+00 0. -1.
          1    1    1    2  502    0 -0.27617743894E+02  0.32347345062E+01  0.16664113416E+03  0.16894517122E+03  0.00000000000E+00 0. -1.
         22    1    3    3    0    0 -0.32840518913E+02 -0.29716687905E+01  0.10270086302E+03  0.10786471973E+03  0.00000000000E+00 0. -1.
         22    1    3    3    0    0  0.84255368929E+02  0.80950996881E+02  0.16905602054E+03  0.20550418286E+03  0.00000000000E+00 0. -1.
</event>
<event>
 7    1  0.6386201E-006  0.1390505E+03  0.7818608E-02  0.1278970E+00
          2   -1    0    0  502    0  0.00000000000E+00  0.00000000000E+00  0.11794177858E+03  0.11794177858E+03  0.00000000000E+00 0. -1.
          1   -1    0    0  501    0 -0.00000000000E+00 -0.00000000000E+00 -0.11725952128E+04  0.11725952128E+04  0.00000000000E+00 0. -1.
         25    2    1    2    0    0  0.12386877600E+03 -0.41898489539E+02 -0.47161432982E+03  0.50511730561E+03  0.12499783695E+03 0.  0.
          2    1    1    2  501    0 -0.14645118900E+03 -0.27341906141E+02 -0.66167420490E+03  0.67823910535E+03  0.00000000000E+00 0. -1.
          1    1    1    2  502    0  0.22582413000E+02  0.69240395679E+02  0.78635100553E+02  0.10718058038E+03  0.00000000000E+00 0. -1.
         22    1    3    3    0    0  0.10721074011E+03  0.69243160712E+01 -0.41431515291E+03  0.42801768057E+03  0.00000000000E+00 0.  1.
         22    1    3    3    0    0  0.16658035891E+02 -0.48822805610E+02 -0.57299176915E+02  0.77099625048E+02  0.00000000000E+00 0.  1.
</event>
<event>
 7    1  0.6386201E-006  0.6617132E+02  0.7818608E-02  0.1459805E+00
          2   -1    0    0  502    0  0.00000000000E+00  0.00000000000E+00  0.15835941322E+03  0.15835941322E+03  0.00000000000E+00 0. -1.
          1   -1    0    0  501    0 -0.00000000000E+00 -0.00000000000E+00 -0.14784895688E+04  0.14784895688E+04  0.00000000000E+00 0. -1.
         25    2    1    2    0    0  0.74076754740E+02 -0.32116418830E+02 -0.67391441792E+03  0.69014777115E+03  0.12499789356E+03 0.  0.
          2    1    1    2  501    0 -0.64744832653E+02 -0.55211015014E+00 -0.79320161020E+03  0.79583980335E+03  0.00000000000E+00 0. -1.
          1    1    1    2  502    0 -0.93319220867E+01  0.32668528980E+02  0.14698587253E+03  0.15086140752E+03  0.00000000000E+00 0. -1.
         22    1    3    3    0    0  0.17787047069E+02  0.47791669135E+02 -0.24106416846E+03  0.24639877434E+03  0.00000000000E+00 0. -1.
         22    1    3    3    0    0  0.56289707671E+02 -0.79908087965E+02 -0.43285024946E+03  0.44374899681E+03  0.00000000000E+00 0. -1.
</event>
<event>
 7    1  0.6386201E-006  0.1502065E+03  0.7818608E-02  0.1298717E+00
          2   -1    0    0  502    0  0.00000000000E+00  0.00000000000E+00  0.32089700931E+03  0.32089700931E+03  0.00000000000E+00 0. -1.
          1   -1    0    0  501    0 -0.00000000000E+00 -0.00000000000E+00 -0.74417044840E+03  0.74417044840E+03  0.00000000000E+00 0. -1.
         25    2    1    2    0    0  0.12742498871E+03 -0.11157706426E+03 -0.11251610763E+03  0.23868706267E+03  0.12500028158E+03 0.  0.
          2    1    1    2  501    0 -0.74070433798E+02  0.12864472436E+03 -0.55566302496E+03  0.57514979925E+03  0.00000000000E+00 0. -1.
          1    1    1    2  502    0 -0.53354554908E+02 -0.17067660108E+02  0.24490569350E+03  0.25123059579E+03  0.00000000000E+00 0. -1.
         22    1    3    3    0    0  0.84968238817E+01 -0.88652391978E+02 -0.41130009543E+02  0.98097504069E+02  0.00000000000E+00 0. -1.
         22    1    3    3    0    0  0.11892816482E+03 -0.22924672278E+02 -0.71386098089E+02  0.14058955860E+03  0.00000000000E+00 0. -1.
</event>
<event>
 7    1  0.6386201E-006  0.1089697E+03  0.7818608E-02  0.1272541E+00
          2   -1    0    0  502    0  0.00000000000E+00  0.00000000000E+00  0.14378718641E+04  0.14378718641E+04  0.00000000000E+00 0. -1.
          1   -1    0    0  501    0 -0.00000000000E+00 -0.00000000000E+00 -0.21398379955E+04  0.21398379955E+04  0.00000000000E+00 0. -1.
         25    2    1    2    0    0  0.24396437020E+02 -0.44395882575E+02 -0.19073204619E+03  0.23359030074E+03  0.12497813659E+03 0.  0.
          2    1    1    2  501    0  0.56905581133E+02  0.10060188604E+03 -0.19242163945E+04  0.19276845483E+04  0.00000000000E+00 0. -1.
          1    1    1    2  502    0 -0.81302018153E+02 -0.56206003465E+02  0.14129823093E+04  0.14164350106E+04  0.00000000000E+00 0. -1.
         22    1    3    3    0    0  0.32010390888E+02  0.39201890753E+02 -0.79388543658E+02  0.94148787711E+02  0.00000000000E+00 0.  1.
         22    1    3    3    0    0 -0.76139538683E+01 -0.83597773329E+02 -0.11134350254E+03  0.13944151303E+03  0.00000000000E+00 0.  1.
</event>
<event>
 7    1  0.6386201E-006  0.7753603E+02  0.7818608E-02  0.1359204E+00
          2   -1    0    0  502    0  0.00000000000E+00  0.00000000000E+00  0.21628245935E+03  0.21628245935E+03  0.00000000000E+00 0. -1.
          1   -1    0    0  501    0 -0.00000000000E+00 -0.00000000000E+00 -0.28038442889E+03  0.28038442889E+03  0.00000000000E+00 0. -1.
         25    2    1    2    0    0  0.33637778433E+02 -0.75447957052E+01 -0.88868698701E+02  0.15719561047E+03  0.12499756103E+03 0.  0.
          2    1    1    2  501    0 -0.97297853854E+02  0.63829508319E+01 -0.13554794483E+03  0.16697562628E+03  0.00000000000E+00 0. -1.
          1    1    1    2  502    0  0.63660075422E+02  0.11618448734E+01  0.16031467399E+03  0.17249565149E+03  0.00000000000E+00 0. -1.
         22    1    3    3    0    0 -0.46321090845E+02 -0.94123092217E+01 -0.48045847335E+02  0.67399098422E+02  0.00000000000E+00 0. -1.
         22    1    3    3    0    0  0.79958869278E+02  0.18675135164E+01 -0.40822851365E+02  0.89796512051E+02  0.00000000000E+00 0. -1.
</event>
<event>
 7    1  0.6386201E-006  0.1141776E+03  0.7818608E-02  0.1270610E+00
          2   -1    0    0  502    0  0.00000000000E+00  0.00000000000E+00  0.76327357752E+02  0.76327357752E+02  0.00000000000E+00 0. -1.
          1   -1    0    0  501    0 -0.00000000000E+00 -0.00000000000E+00 -0.15889369194E+04  0.15889369194E+04  0.00000000000E+00 0. -1.
         25    2    1    2    0    0 -0.17189270405E+02 -0.35198819986E+02 -0.53465405348E+03  0.55046713675E+03  0.12499873518E+03 0.  0.
          2    1    1    2  501    0 -0.51277932385E+02  0.12657039780E+03 -0.99055693187E+03  0.99992626089E+03  0.00000000000E+00 0. -1.
          1    1    1    2  502    0  0.68467202790E+02 -0.91371577819E+02  0.12601423653E+02  0.11487087955E+03  0.00000000000E+00 0. -1.
         22    1    3    3    0    0  0.92297236089E+01 -0.78202731979E+02 -0.28013679160E+03  0.29099394684E+03  0.00000000000E+00 0. -1.
         22    1    3    3    0    0 -0.26418994014E+02  0.43003911993E+02 -0.25451726187E+03  0.25947318991E+03  0.00000000000E+00 0. -1.
</event>
<event>
 7    1  0.6386201E-006  0.3785899E+02  0.7818608E-02  0.1567612E+00
          2   -1    0    0  502    0  0.00000000000E+00  0.00000000000E+00  0.84274834156E+03  0.84274834156E+03  0.00000000000E+00 0. -1.
          1   -1    0    0  501    0 -0.00000000000E+00 -0.00000000000E+00 -0.52153392550E+03  0.52153392550E+03  0.00000000000E+00 0. -1.
         25    2    1    2    0    0 -0.19330986469E+02 -0.30162702559E+02 -0.23016087172E+03  0.26434992331E+03  0.12499351753E+03 0.  0.
          2    1    1    2  501    0 -0.82740915400E+01  0.37922018902E+02 -0.27265471010E+03  0.27540357849E+03  0.00000000000E+00 0. -1.
          1    1    1    2  502    0  0.27605078009E+02 -0.77593163430E+01  0.82402999787E+03  0.82452876525E+03  0.00000000000E+00 0. -1.
         22    1    3    3    0    0  0.29065813985E+02  0.12782756148E+02 -0.17918933765E+03  0.18198087572E+03  0.00000000000E+00 0. -1.
         22    1    3    3    0    0 -0.48396800454E+02 -0.42945458707E+02 -0.50971534062E+02  0.82369047599E+02  0.00000000000E+00 0. -1.
</event>
<event>
 7    1  0.6386201E-006  0.1925292E+03  0.7818608E-02  0.1265266E+00
          2   -1    0    0  502    0  0.00000000000E+00  0.00000000000E+00  0.19331004712E+03  0.19331004712E+03  0.00000000000E+00 0. -1.
          1   -1    0    0  501    0 -0.00000000000E+00 -0.00000000000E+00 -0.16478712976E+04  0.16478712976E+04  0.00000000000E+00 0. -1.
         25    2    1    2    0    0 -0.80958984595E+02 -0.20176454322E+03 -0.90741275363E+03  0.94142802753E+03  0.12500214991E+03 0.  0.
          2    1    1    2  501    0  0.58912379216E+02  0.11510329245E+02 -0.66969266170E+03  0.67237743659E+03  0.00000000000E+00 0. -1.
          1    1    1    2  502    0  0.22046605379E+02  0.19025421398E+03  0.12254416483E+03  0.22737588060E+03  0.00000000000E+00 0. -1.
         22    1    3    3    0    0 -0.65485095816E+02 -0.26163198267E+02 -0.34109655947E+03  0.34830973802E+03  0.00000000000E+00 0. -1.
         22    1    3    3    0    0 -0.15473888780E+02 -0.17560134496E+03 -0.56631619416E+03  0.59311828951E+03  0.00000000000E+00 0. -1.
</event>
<event>
 7    1  0.6386201E-006  0.1042536E+03  0.7818608E-02  0.1290017E+00
          2   -1    0    0  502    0  0.00000000000E+00  0.00000000000E+00  0.32617551170E+03  0.32617551170E+03  0.00000000000E+00 0. -1.
          1   -1    0    0  501    0 -0.00000000000E+00 -0.00000000000E+00 -0.31913414429E+03  0.31913414429E+03  0.00000000000E+00 0. -1.
         25    2    1    2    0    0  0.96580652961E+02 -0.16791818622E+02  0.14505993908E+03  0.21511390303E+03  0.12498726996E+03 0.  0.
          2    1    1    2  501    0  0.45910804170E+01  0.87391187390E+02 -0.24920024234E+03  0.26411940185E+03  0.00000000000E+00 0. -1.
          1    1    1    2  502    0 -0.10117173338E+03 -0.70599368767E+02  0.11118167067E+03  0.16607635111E+03  0.00000000000E+00 0. -1.
         22    1    3    3    0    0 -0.12867946305E+01 -0.19279680766E+02  0.10913360671E+03  0.11083097963E+03  0.00000000000E+00 0. -1.
         22    1    3    3    0    0  0.97867447591E+02  0.24878621438E+01  0.35926332369E+02  0.10428292340E+03  0.00000000000E+00 0. -1.
</event>
<event>
 7    1  0.6386201E-006  0.7795381E+02  0.7818608E-02  0.1398704E+00
          2   -1    0    0  502    0  0.00000000000E+00  0.00000000000E+00  0.39119995570E+03  0.39119995570E+03  0.00000000000E+00 0. -1.
          1   -1    0    0  501    0 -0.00000000000E+00 -0.00000000000E+00 -0.13244523806E+03  0.13244523806E+03  0.00000000000E+00 0. -1.
         25    2    1    2    0    0  0.53440256663E+02  0.33330814778E+02  0.11703351829E+03  0.18245147055E+03  0.12499956183E+03 0.  0.
          2    1    1    2  501    0  0.29838193815E+02 -0.34828980714E+02 -0.86687658129E+02  0.98072043823E+02  0.00000000000E+00 0. -1.
          1    1    1    2  502    0 -0.83278450479E+02  0.14981659357E+01  0.22840885748E+03  0.24312167939E+03  0.00000000000E+00 0. -1.
         22    1    3    3    0    0 -0.71595077285E+01  0.69113791420E+02  0.54513272606E+02  0.88315749476E+02  0.00000000000E+00 0. -1.
         22    1    3    3    0    0  0.60599764392E+02 -0.35782976642E+02  0.62520245683E+02  0.94135721073E+02  0.00000000000E+00 0. -1.
</event>
<event>
 7    1  0.6386201E-006  0.5736021E+02  0.7818608E-02  0.1457485E+00
          2   -1    0    0  502    0  0.00000000000E+00  0.00000000000E+00  0.70240598930E+03  0.70240598930E+03  0.00000000000E+00 0. -1.
          1   -1    0    0  501    0 -0.00000000000E+00 -0.00000000000E+00 -0.15219013275E+04  0.15219013275E+04  0.00000000000E+00 0. -1.
         25    2    1    2    0    0  0.42053103778E+01  0.17446347216E+02 -0.45228567994E+01  0.12636347550E+03  0.12500084816E+03 0.  0.
          2    1    1    2  501    0 -0.17787775956E+02 -0.54922326922E+02 -0.14552660413E+04  0.14564106969E+04  0.00000000000E+00 0. -1.
          1    1    1    2  502    0  0.13582465578E+02  0.37475979707E+02  0.64029355996E+03  0.64153314439E+03  0.00000000000E+00 0. -1.
         22    1    3    3    0    0  0.28135730907E+02  0.39499408742E+02 -0.50513117587E+02  0.70024265030E+02  0.00000000000E+00 0. -1.
         22    1    3    3    0    0 -0.23930420529E+02 -0.22053061527E+02  0.45990260787E+02  0.56339210473E+02  0.00000000000E+00 0. -1.
</event>
<event>
 7    1  0.6386201E-006  0.2700919E+02  0.7818608E-02  0.1685909E+00
          2   -1    0    0  502    0  0.00000000000E+00  0.00000000000E+00  0.21387291450E+03  0.21387291450E+03  0.00000000000E+00 0. -1.
          1   -1    0    0  501    0 -0.00000000000E+00 -0.00000000000E+00 -0.67666318875E+02  0.67666318875E+02  0.00000000000E+00 0. -1.
         25    2    1    2    0    0  0.15663148962E+02  0.28363001526E+01  0.88491545218E+02  0.15397841103E+03  0.12500087461E+03 0.  0.
          2    1    1    2  501    0 -0.22588262228E+02  0.16124020887E+02 -0.28046052770E+02  0.39456237986E+02  0.00000000000E+00 0. -1.
          1    1    1    2  502    0  0.69251132651E+01 -0.18960321040E+02  0.85761103181E+02  0.88104584367E+02  0.00000000000E+00 0. -1.
         22    1    3    3    0    0 -0.26147914063E+02 -0.15949320062E+02  0.10175177668E+03  0.10626155597E+03  0.00000000000E+00 0. -1.
         22    1    3    3    0    0  0.41811063025E+02  0.18785620215E+02 -0.13260231459E+02  0.47716855056E+02  0.00000000000E+00 0. -1.
</event>
<event>
 7    1  0.6386201E-006  0.5523270E+02  0.7818608E-02  0.1492377E+00
          2   -1    0    0  502    0  0.00000000000E+00  0.00000000000E+00  0.68515965008E+02  0.68515965008E+02  0.00000000000E+00 0. -1.
          1   -1    0    0  501    0 -0.00000000000E+00 -0.00000000000E+00 -0.59446162815E+03  0.59446162815E+03  0.00000000000E+00 0. -1.
         25    2    1    2    0    0 -0.24782336847E+02 -0.35856334724E+02 -0.10112360415E+03  0.16658730602E+03  0.12500202500E+03 0.  0.
          2    1    1    2  501    0 -0.25545643612E+00  0.56256997941E+02 -0.45119802212E+03  0.45469173100E+03  0.00000000000E+00 0. -1.
          1    1    1    2  502    0  0.25037793283E+02 -0.20400663217E+02  0.26375963130E+02  0.41698556129E+02  0.00000000000E+00 0. -1.
         22    1    3    3    0    0 -0.25317826745E+02 -0.71931655493E+01 -0.12594563106E+03  0.12866637465E+03  0.00000000000E+00 0. -1.
         22    1    3    3    0    0  0.53548989824E+00 -0.28663169175E+02  0.24822026911E+02  0.37920931378E+02  0.00000000000E+00 0. -1.
</event>
<event>
 7    1  0.6386201E-006  0.1489416E+03  0.7818608E-02  0.1326846E+00
          2   -1    0    0  502    0  0.00000000000E+00  0.00000000000E+00  0.63091883645E+03  0.63091883645E+03  0.00000000000E+00 0. -1.
          1   -1    0    0  501    0 -0.00000000000E+00 -0.00000000000E+00 -0.47105864687E+03  0.47105864687E+03  0.00000000000E+00 0. -1.
         25    2    1    2    0    0 -0.18795543697E+03  0.32726877853E+02  0.29768768171E+03  0.37502179934E+03  0.12500039726E+03 0.  0.
          2    1    1    2  501    0  0.14600066968E+03 -0.20098514773E+02 -0.41808170629E+03  0.44329725803E+03  0.00000000000E+00 0. -1.
          1    1    1    2  502    0  0.41954767289E+02 -0.12628363079E+02  0.28025421417E+03  0.28365842595E+03  0.00000000000E+00 0. -1.
         22    1    3    3    0    0 -0.58263039797E+02 -0.39583621632E+01  0.12689435545E+02  0.59760122254E+02  0.00000000000E+00 0.  1.
         22    1    3    3    0    0 -0.12969239718E+03  0.36685240016E+02  0.28499824617E+03  0.31526167709E+03  0.00000000000E+00 0.  1.
</event>
<event>
 7    1  0.6386201E-006  0.5719372E+02  0.7818608E-02  0.1517637E+00
          2   -1    0    0  502    0  0.00000000000E+00  0.00000000000E+00  0.14238377410E+04  0.14238377410E+04  0.00000000000E+00 0. -1.
          1   -1    0    0  501    0 -0.00000000000E+00 -0.00000000000E+00 -0.58954149223E+03  0.58954149223E+03  0.00000000000E+00 0. -1.
         25    2    1    2    0    0  0.65346359946E+02 -0.17850373058E+02  0.95233347400E+02  0.17112218938E+03  0.12499852265E+03 0.  0.
          2    1    1    2  501    0 -0.56709019770E+02 -0.69383438487E+01 -0.54998371945E+03  0.55294316634E+03  0.00000000000E+00 0. -1.
          1    1    1    2  502    0 -0.86373401756E+01  0.24788716907E+02  0.12890466208E+04  0.12893138775E+04  0.00000000000E+00 0. -1.
         22    1    3    3    0    0  0.33809193336E+02  0.53640106159E+02  0.34700328066E+02  0.72280255331E+02  0.00000000000E+00 0. -1.
         22    1    3    3    0    0  0.31537166609E+02 -0.71490479217E+02  0.60533019334E+02  0.98841934047E+02  0.00000000000E+00 0. -1.
</event>
<event>
 7    1  0.6386201E-006  0.7420918E+02  0.7818608E-02  0.1362468E+00
          2   -1    0    0  502    0  0.00000000000E+00  0.00000000000E+00  0.18333527919E+04  0.18333527919E+04  0.00000000000E+00 0. -1.
          1   -1    0    0  501    0 -0.00000000000E+00 -0.00000000000E+00 -0.41014895302E+02  0.41014895302E+02  0.00000000000E+00 0. -1.
         25    2    1    2    0    0 -0.90869775998E+02  0.70106756169E+02  0.14993040012E+04  0.15088773856E+04  0.12500481239E+03 0.  0.
          2    1    1    2  501    0  0.73117959718E+02 -0.78611004405E+01  0.88987582187E+01  0.74075777628E+02  0.00000000000E+00 0. -1.
          1    1    1    2  502    0  0.17751816280E+02 -0.62245655728E+02  0.28413513712E+03  0.29141452398E+03  0.00000000000E+00 0. -1.
         22    1    3    3    0    0 -0.53060467212E+02  0.10529843375E+03  0.10699924161E+04  0.10764696669E+04  0.00000000000E+00 0. -1.
         22    1    3    3    0    0 -0.37809308786E+02 -0.35191677576E+02  0.42931158514E+03  0.43240771863E+03  0.00000000000E+00 0. -1.
</event>
<event>
 7    1  0.6386201E-006  0.1385686E+03  0.7818608E-02  0.1338097E+00
          2   -1    0    0  502    0  0.00000000000E+00  0.00000000000E+00  0.79879562492E+03  0.79879562492E+03  0.00000000000E+00 0. -1.
          1   -1    0    0  501    0 -0.00000000000E+00 -0.00000000000E+00 -0.33062886667E+04  0.33062886667E+04  0.00000000000E+00 0. -1.
         25    2    1    2    0    0  0.14352316327E+03  0.10378920383E+03  0.73036372146E+02  0.22875988742E+03  0.12500270880E+03 0.  0.
          2    1    1    2  501    0 -0.12033256257E+03 -0.67968444748E+02 -0.32262433274E+04  0.32292020133E+04  0.00000000000E+00 0. -1.
          1    1    1    2  502    0 -0.23190600707E+02 -0.35820759078E+02  0.64571391348E+03  0.64712239090E+03  0.00000000000E+00 0. -1.
         22    1    3    3    0    0  0.16627405545E+03  0.89732635950E+02  0.56057852143E+02  0.19708244533E+03  0.00000000000E+00 0. -1.
         22    1    3    3    0    0 -0.22750892180E+02  0.14056567875E+02  0.16978520003E+02  0.31677442083E+02  0.00000000000E+00 0. -1.
</event>
<event>
 7    1  0.7024319E-006  0.1220663E+03  0.7818608E-02  0.1363855E+00
          2   -1    0    0  502    0  0.00000000000E+00  0.00000000000E+00  0.20148872400E+04  0.20148872400E+04  0.00000000000E+00 0. -1.
          1   -1    0    0  501    0 -0.00000000000E+00 -0.00000000000E+00 -0.38066446735E+03  0.38066446735E+03  0.00000000000E+00 0. -1.
         25    2    1    2    0    0 -0.46714669436E+02  0.14920199085E+03 -0.12196098938E+03  0.23439421789E+03  0.12499068780E+03 0.  0.
          2    1    1    2  501    0 -0.42389965873E+01 -0.38665018504E+02 -0.19870853968E+03  0.20247971871E+03  0.00000000000E+00 0. -1.
          1    1    1    2  502    0  0.50953666023E+02 -0.11053697234E+03  0.19548923017E+04  0.19586777708E+04  0.00000000000E+00 0. -1.
         22    1    3    3    0    0 -0.35192480668E+02  0.16188145118E+03 -0.13431554265E+03  0.21327161070E+03  0.00000000000E+00 0.  1.
         22    1    3    3    0    0 -0.11522188768E+02 -0.12679460336E+02  0.12354553265E+02  0.21122607197E+02  0.00000000000E+00 0.  1.
</event>
<event>
 7    1  0.6386201E-006  0.1174736E+03  0.7818608E-02  0.1355054E+00
          2   -1    0    0  502    0  0.00000000000E+00  0.00000000000E+00  0.81033286943E+03  0.81033286943E+03  0.00000000000E+00 0. -1.
          1   -1    0    0  501    0 -0.00000000000E+00 -0.00000000000E+00 -0.37468693035E+03  0.37468693035E+03  0.00000000000E+00 0. -1.
         25    2    1    2    0    0 -0.12017594017E+03  0.23143309997E+02 -0.53316319283E+02  0.18288072824E+03  0.12499944586E+03 0.  0.
          2    1    1    2  501    0  0.20109042973E+02  0.38598320123E+02 -0.25006110292E+03  0.25382032842E+03  0.00000000000E+00 0. -1.
          1    1    1    2  502    0  0.10006689719E+03 -0.61741630120E+02  0.73902336128E+03  0.74831874313E+03  0.00000000000E+00 0. -1.
         22    1    3    3    0    0 -0.89245813483E+02 -0.87983662084E+01  0.24758133102E+02  0.93033282361E+02  0.00000000000E+00 0.  1.
         22    1    3    3    0    0 -0.30930126685E+02  0.31941676205E+02 -0.78074452384E+02  0.89847445877E+02  0.00000000000E+00 0.  1.
</event>
<event>
 7    1  0.6386201E-006  0.1920241E+03  0.7818608E-02  0.1190524E+00
          2   -1    0    0  502    0  0.00000000000E+00  0.00000000000E+00  0.42080213728E+04  0.42080213728E+04  0.00000000000E+00 0. -1.
          1   -1    0    0  501    0 -0.00000000000E+00 -0.00000000000E+00 -0.15344248737E+04  0.15344248737E+04  0.00000000000E+00 0. -1.
         25    2    1    2    0    0  0.20820834803E+03 -0.14122099188E+03 -0.12141426466E+03  0.30604038885E+03  0.12500084483E+03 0.  0.
          2    1    1    2  501    0 -0.16798359871E+02  0.12956669298E+03 -0.13152253828E+04  0.13216987252E+04  0.00000000000E+00 0. -1.
          1    1    1    2  502    0 -0.19140998816E+03  0.11654298898E+02  0.41102361465E+04  0.41147071325E+04  0.00000000000E+00 0. -1.
         22    1    3    3    0    0  0.14570606671E+02 -0.20818559478E+02  0.24526990186E+02  0.35316968232E+02  0.00000000000E+00 0. -1.
         22    1    3    3    0    0  0.19363774136E+03 -0.12040243240E+03 -0.14594125484E+03  0.27072342062E+03  0.00000000000E+00 0. -1.
</event>
<event>
 7    1  0.6386201E-006  0.4621575E+02  0.7818608E-02  0.1489185E+00
          2   -1    0    0  502    0  0.00000000000E+00  0.00000000000E+00  0.68033675478E+03  0.68033675478E+03  0.00000000000E+00 0. -1.
          1   -1    0    0  501    0 -0.00000000000E+00 -0.00000000000E+00 -0.33416140246E+03  0.33416140246E+03  0.00000000000E+00 0. -1.
         25    2    1    2    0    0 -0.82015899789E+01 -0.22973603557E+01  0.21574232150E+02  0.12713242578E+03  0.12499864899E+03 0.  0.
          2    1    1    2  501    0  0.37455875817E+02  0.28786176335E+02 -0.27875040048E+03  0.28272490578E+03  0.00000000000E+00 0. -1.
          1    1    1    2  502    0 -0.29254285839E+02 -0.26488815979E+02  0.60335152065E+03  0.60464082568E+03  0.00000000000E+00 0. -1.
         22    1    3    3    0    0  0.36134687150E+01  0.55974187840E+02  0.35084419172E+02  0.66159529390E+02  0.00000000000E+00 0.  1.
         22    1    3    3    0    0 -0.11815058694E+02 -0.58271548195E+02 -0.13510187022E+02  0.60972896391E+02  0.00000000000E+00 0.  1.
</event>
<event>
 7    1  0.6386201E-006  0.7743864E+02  0.7818608E-02  0.1415416E+00
          2   -1    0    0  502    0  0.00000000000E+00  0.00000000000E+00  0.12191223275E+03  0.12191223275E+03  0.00000000000E+00 0. -1.
          1   -1    0    0  501    0 -0.00000000000E+00 -0.00000000000E+00 -0.47798284459E+03  0.47798284459E+03  0.00000000000E+00 0. -1.
         25    2    1    2    0    0  0.11698097976E+02 -0.11158636587E+03 -0.73100314858E+02  0.18318620608E+03  0.12500067007E+03 0.  0.
          2    1    1    2  501    0 -0.87085254866E+01  0.39552946474E+02 -0.32879668734E+03  0.33128165600E+03  0.00000000000E+00 0. -1.
          1    1    1    2  502    0 -0.29895724897E+01  0.72033419401E+02  0.45826390365E+02  0.85427215267E+02  0.00000000000E+00 0. -1.
         22    1    3    3    0    0  0.40218450623E+02 -0.95295482016E+02 -0.97597840598E+02  0.14221143116E+03  0.00000000000E+00 0.  1.
         22    1    3    3    0    0 -0.28520352647E+02 -0.16290883858E+02  0.24497525740E+02  0.40974774916E+02  0.00000000000E+00 0.  1.
</event>
<event>
 7    1  0.6386201E-006  0.5571962E+02  0.7818608E-02  0.1505883E+00
          2   -1    0    0  502    0  0.00000000000E+00  0.00000000000E+00  0.14734102453E+04  0.14734102453E+04  0.00000000000E+00 0. -1.
          1   -1    0    0  501    0 -0.00000000000E+00 -0.00000000000E+00 -0.11932745841E+04  0.11932745841E+04  0.00000000000E+00 0. -1.
         25    2    1    2    0    0  0.42447363592E+02  0.20995609052E+02  0.19176688285E+03  0.23375701939E+03  0.12500084992E+03 0.  0.
          2    1    1    2  501    0 -0.55535816266E+02  0.50775656464E+01 -0.11714473061E+04  0.11727739763E+04  0.00000000000E+00 0. -1.
          1    1    1    2  502    0  0.13088452674E+02 -0.26073174699E+02  0.12598160844E+04  0.12601538337E+04  0.00000000000E+00 0. -1.
         22    1    3    3    0    0  0.14580699251E+02  0.15447962922E+02  0.20233111677E+03  0.20344315462E+03  0.00000000000E+00 0. -1.
         22    1    3    3    0    0  0.27866664341E+02  0.55476461298E+01 -0.10564233918E+02  0.30313864771E+02  0.00000000000E+00 0. -1.
</event>
<event>
 7    1  0.6386201E-006  0.5583622E+02  0.7818608E-02  0.1533321E+00
          2   -1    0    0  502    0  0.00000000000E+00  0.00000000000E+00  0.21348639125E+04  0.21348639125E+04  0.00000000000E+00 0. -1.
          1   -1    0    0  501    0 -0.00000000000E+00 -0.00000000000E+00 -0.28198803538E+03  0.28198803538E+03  0.00000000000E+00 0. -1.
         25    2    1    2    0    0 -0.44696347522E+02  0.22429381006E+02  0.81487185570E+03  0.82591861674E+03  0.12499831857E+03 0.  0.
          2    1    1    2  501    0 -0.12254182807E+02 -0.20903226230E+02 -0.27531500656E+03  0.27637920092E+03  0.00000000000E+00 0. -1.
          1    1    1    2  502    0  0.56950530329E+02 -0.15261547757E+01  0.13133190280E+04  0.13145541303E+04  0.00000000000E+00 0. -1.
         22    1    3    3    0    0  0.40880351582E+02 -0.45096026678E+01  0.35521366686E+03  0.35758675701E+03  0.00000000000E+00 0.  1.
         22    1    3    3    0    0 -0.85576699104E+02  0.26938983674E+02  0.45965818884E+03  0.46833185973E+03  0.00000000000E+00 0.  1.
</event>
<event>
 7    1  0.6386201E-006  0.7604376E+02  0.7818608E-02  0.1352858E+00
          2   -1    0    0  502    0  0.00000000000E+00  0.00000000000E+00  0.40373886596E+03  0.40373886596E+03  0.00000000000E+00 0. -1.
          1   -1    0    0  501    0 -0.00000000000E+00 -0.00000000000E+00 -0.51904588460E+03  0.51904588460E+03  0.00000000000E+00 0. -1.
         25    2    1    2    0    0 -0.88241865503E+02  0.10368236158E+03 -0.37776725763E-01  0.18483070281E+03  0.12500291334E+03 0.  0.
          2    1    1    2  501    0  0.62182990596E+02 -0.40334797104E+02 -0.41955606074E+03  0.42605270598E+03  0.00000000000E+00 0. -1.
          1    1    1    2  502    0  0.26058874907E+02 -0.63347564477E+02  0.30428681883E+03  0.31190134177E+03  0.00000000000E+00 0. -1.
         22    1    3    3    0    0  0.25713308209E+02  0.53912960290E+01 -0.20006487413E+02  0.33022716885E+02  0.00000000000E+00 0. -1.
         22    1    3    3    0    0 -0.11395517371E+03  0.98291065552E+02  0.19968710687E+02  0.15180798592E+03  0.00000000000E+00 0. -1.
</event>
<event>
 7    1  0.6386201E-006  0.1236526E+03  0.7818608E-02  0.1321449E+00
          2   -1    0    0  502    0  0.00000000000E+00  0.00000000000E+00  0.70091631433E+03  0.70091631433E+03  0.00000000000E+00 0. -1.
          1   -1    0    0  501    0 -0.00000000000E+00 -0.00000000000E+00 -0.56601123585E+03  0.56601123585E+03  0.00000000000E+00 0. -1.
         25    2    1    2    0    0 -0.41258422074E+02  0.16400682260E+03  0.16872249223E+03  0.26961643371E+03  0.12500098676E+03 0.  0.
          2    1    1    2  501    0  0.53384608792E+02 -0.10998598849E+03 -0.50667859128E+03  0.52121975115E+03  0.00000000000E+00 0. -1.
          1    1    1    2  502    0 -0.12126186718E+02 -0.54020834112E+02  0.47286117753E+03  0.47609136533E+03  0.00000000000E+00 0. -1.
         22    1    3    3    0    0  0.37853004683E+01  0.74135732488E+02  0.14999619866E+03  0.16735977696E+03  0.00000000000E+00 0. -1.
         22    1    3    3    0    0 -0.45043722543E+02  0.89871090114E+02  0.18726293566E+02  0.10225665675E+03  0.00000000000E+00 0. -1.
</event>
<event>
 7    1  0.6386201E-006  0.2021426E+03  0.7818608E-02  0.1214701E+00
          2   -1    0    0  502    0  0.00000000000E+00  0.00000000000E+00  0.15422104805E+04  0.15422104805E+04  0.00000000000E+00 0. -1.
          1   -1    0    0  501    0 -0.00000000000E+00 -0.00000000000E+00 -0.21544206340E+04  0.21544206340E+04  0.00000000000E+00 0. -1.
         25    2    1    2    0    0 -0.23394654024E+03  0.17786488084E+03 -0.14680181847E+03  0.35148743322E+03  0.12500296909E+03 0.  0.
          2    1    1    2  501    0  0.67583222449E+02 -0.67559967190E+02 -0.18971496401E+04  0.18995548420E+04  0.00000000000E+00 0. -1.
          1    1    1    2  502    0  0.16636331779E+03 -0.11030491365E+03  0.14317413050E+04  0.14455888392E+04  0.00000000000E+00 0. -1.
         22    1    3    3    0    0 -0.24746428649E+03  0.17806733107E+03 -0.14577195402E+03  0.33792900151E+03  0.00000000000E+00 0. -1.
         22    1    3    3    0    0  0.13517746248E+02 -0.20245023725E+00 -0.10298644550E+01  0.13558431713E+02  0.00000000000E+00 0. -1.
</event>
<event>
 7    1  0.6386201E-006  0.4643347E+02  0.7818608E-02  0.1559662E+00
          2   -1    0    0  502    0  0.00000000000E+00  0.00000000000E+00  0.73466987518E+03  0.73466987518E+03  0.00000000000E+00 0. -1.
          1   -1    0    0  501    0 -0.00000000000E+00 -0.00000000000E+00 -0.47038645695E+02  0.47038645695E+02  0.00000000000E+00 0. -1.
         25    2    1    2    0    0 -0.28233760248E+02 -0.51949988976E+02  0.16804708299E+03  0.21762347377E+03  0.12499683060E+03 0.  0.
          2    1    1    2  501    0  0.46145684085E+01  0.45137623741E+02  0.14789176500E+01  0.45396987962E+02  0.00000000000E+00 0. -1.
          1    1    1    2  502    0  0.23619191840E+02  0.68123652352E+01  0.51810522885E+03  0.51868805915E+03  0.00000000000E+00 0. -1.
         22    1    3    3    0    0  0.43204449437E+02  0.91512247390E+01  0.57781801478E+02  0.72726239745E+02  0.00000000000E+00 0.  1.
         22    1    3    3    0    0 -0.71438209685E+02 -0.61101213715E+02  0.11026528151E+03  0.14489723402E+03  0.00000000000E+00 0.  1.
</event>
<event>
 7    1  0.6386201E-006  0.1699316E+03  0.7818608E-02  0.1219297E+00
          2   -1    0    0  502    0  0.00000000000E+00  0.00000000000E+00  0.54019055810E+02  0.54019055810E+02  0.00000000000E+00 0. -1.
          1   -1    0    0  501    0 -0.00000000000E+00 -0.00000000000E+00 -0.34811355914E+04  0.34811355914E+04  0.00000000000E+00 0. -1.
         25    2    1    2    0    0 -0.10454748319E+03  0.49753810608E+01 -0.91731345551E+03  0.93168878165E+03  0.12500031811E+03 0.  0.
          2    1    1    2  501    0  0.21020741515E+03  0.18762211738E+02 -0.24829364844E+04  0.24918893963E+04  0.00000000000E+00 0. -1.
          1    1    1    2  502    0 -0.10565993195E+03 -0.23737592799E+02 -0.26866595732E+02  0.11157646928E+03  0.00000000000E+00 0. -1.
         22    1    3    3    0    0 -0.11440600174E+03 -0.17208723423E+02 -0.87723755385E+03  0.88483365628E+03  0.00000000000E+00 0. -1.
         22    1    3    3    0    0  0.98585185438E+01  0.22184104483E+02 -0.40075901659E+02  0.46855125370E+02  0.00000000000E+00 0. -1.
</event>
<event>
 7    1  0.6386201E-006  0.8477666E+02  0.7818608E-02  0.1327647E+00
          2   -1    0    0  502    0  0.00000000000E+00  0.00000000000E+00  0.61341756498E+03  0.61341756498E+03  0.00000000000E+00 0. -1.
          1   -1    0    0  501    0 -0.00000000000E+00 -0.00000000000E+00 -0.42476297859E+03  0.42476297859E+03  0.00000000000E+00 0. -1.
         25    2    1    2    0    0  0.37290841401E+01  0.14227044389E+02 -0.36903093173E+02  0.13116166768E+03  0.12500091969E+03 0.  0.
          2    1    1    2  501    0  0.79689870989E+02 -0.29338636943E+02 -0.33218627874E+03  0.34286871385E+03  0.00000000000E+00 0. -1.
          1    1    1    2  502    0 -0.83418955129E+02  0.15111592553E+02  0.55774395830E+03  0.56415016204E+03  0.00000000000E+00 0. -1.
         22    1    3    3    0    0  0.57668141621E+02  0.63818751785E+01 -0.48279927763E+02  0.75480423380E+02  0.00000000000E+00 0. -1.
         22    1    3    3    0    0 -0.53939057481E+02  0.78451692109E+01  0.11376834590E+02  0.55681244304E+02  0.00000000000E+00 0. -1.
</event>
<event>
 7    1  0.6386201E-006  0.9414622E+02  0.7818608E-02  0.1363030E+00
          2   -1    0    0  502    0  0.00000000000E+00  0.00000000000E+00  0.72384293658E+02  0.72384293658E+02  0.00000000000E+00 0. -1.
          1   -1    0    0  501    0 -0.00000000000E+00 -0.00000000000E+00 -0.39087436417E+03  0.39087436417E+03  0.00000000000E+00 0. -1.
         25    2    1    2    0    0 -0.55006439574E+02  0.23548538677E+01 -0.25059999170E+03  0.28540579616E+03  0.12499943564E+03 0.  0.
          2    1    1    2  501    0 -0.46400793001E+02 -0.20632035337E+02 -0.53583109724E+02  0.73823195007E+02  0.00000000000E+00 0. -1.
          1    1    1    2  502    0  0.10140723258E+03  0.18277181469E+02 -0.14306969085E+02  0.10402966666E+03  0.00000000000E+00 0. -1.
         22    1    3    3    0    0 -0.82673730967E+02 -0.39398166025E+01 -0.89813633110E+02  0.12213499351E+03  0.00000000000E+00 0.  1.
         22    1    3    3    0    0  0.27667291393E+02  0.62946704702E+01 -0.16078635859E+03  0.16327080265E+03  0.00000000000E+00 0.  1.
</event>
<event>
 7    1  0.6386201E-006  0.2540417E+02  0.7818608E-02  0.1659072E+00
          2   -1    0    0  502    0  0.00000000000E+00  0.00000000000E+00  0.64900576682E+03  0.64900576682E+03  0.00000000000E+00 0. -1.
          1   -1    0    0  501    0 -0.00000000000E+00 -0.00000000000E+00 -0.71027615519E+02  0.71027615519E+02  0.00000000000E+00 0. -1.
         25    2    1    2    0    0  0.16007312329E+01  0.70587654490E-01  0.40749944875E+03  0.42624523306E+03  0.12500652245E+03 0.  0.
          2    1    1    2  501    0  0.21873503338E+02  0.12919823263E+02 -0.58219988473E+02  0.63521170009E+02  0.00000000000E+00 0. -1.
          1    1    1    2  502    0 -0.23474234571E+02 -0.12990410918E+02  0.22869869102E+03  0.23026697926E+03  0.00000000000E+00 0. -1.
         22    1    3    3    0    0  0.52685361072E+02 -0.34260326890E+02  0.22709831279E+03  0.23563353102E+03  0.00000000000E+00 0.  1.
         22    1    3    3    0    0 -0.51084629839E+02  0.34330914545E+02  0.18040113596E+03  0.19061170205E+03  0.00000000000E+00 0.  1.
</event>
<event>
 7    1  0.6386201E-006  0.8201946E+02  0.7818608E-02  0.1357070E+00
          2   -1    0    0  502    0  0.00000000000E+00  0.00000000000E+00  0.62124333066E+03  0.62124333066E+03  0.00000000000E+00 0. -1.
          1   -1    0    0  501    0 -0.00000000000E+00 -0.00000000000E+00 -0.49267763793E+03  0.49267763793E+03  0.00000000000E+00 0. -1.
         25    2    1    2    0    0  0.73946925337E+02 -0.98117140475E+02  0.46519925843E+03  0.49712253668E+03  0.12500138160E+03 0.  0.
          2    1    1    2  501    0 -0.15291339570E+02  0.80368050696E+02 -0.46627759961E+03  0.47340009351E+03  0.00000000000E+00 0. -1.
          1    1    1    2  502    0 -0.58655585766E+02  0.17749089779E+02  0.12964403391E+03  0.14339833841E+03  0.00000000000E+00 0. -1.
         22    1    3    3    0    0  0.72693991317E+02 -0.70356833142E+02  0.15136286876E+03  0.18205828293E+03  0.00000000000E+00 0.  1.
         22    1    3    3    0    0  0.12529340193E+01 -0.27760307333E+02  0.31383638968E+03  0.31506425375E+03  0.00000000000E+00 0.  1.
</event>
<event>
 7    1  0.6386201E-006  0.1313025E+03  0.7818608E-02  0.1255485E+00
          2   -1    0    0  502    0  0.00000000000E+00  0.00000000000E+00  0.50229214719E+03  0.50229214719E+03  0.00000000000E+00 0. -1.
          1   -1    0    0  501    0 -0.00000000000E+00 -0.00000000000E+00 -0.74646043445E+03  0.74646043445E+03  0.00000000000E+00 0. -1.
         25    2    1    2    0    0 -0.12932298551E+03  0.85888474894E+02 -0.27320750524E+03  0.33818373600E+03  0.12499853467E+03 0.  0.
          2    1    1    2  501    0  0.88600774887E+02  0.39213939653E+02 -0.42600646158E+03  0.43688595272E+03  0.00000000000E+00 0. -1.
          1    1    1    2  502    0  0.40722210627E+02 -0.12510241455E+03  0.45504567957E+03  0.47368289293E+03  0.00000000000E+00 0. -1.
         22    1    3    3    0    0 -0.11968771279E+03  0.94018386811E+01 -0.19000727514E+03  0.22475833193E+03  0.00000000000E+00 0.  1.
         22    1    3    3    0    0 -0.96352727260E+01  0.76486636213E+02 -0.83200230099E+02  0.11342540407E+03  0.00000000000E+00 0.  1.
</event>
<event>
 7    1  0.6386201E-006  0.1530173E+03  0.7818608E-02  0.1249396E+00
          2   -1    0    0  502    0  0.00000000000E+00  0.00000000000E+00  0.15675703076E+04  0.15675703076E+04  0.00000000000E+00 0. -1.
          1   -1    0    0  501    0 -0.00000000000E+00 -0.00000000000E+00 -0.12532154066E+03  0.12532154066E+03  0.00000000000E+00 0. -1.
         25    2    1    2    0    0 -0.15777571569E+03 -0.16487180552E+03  0.35194986259E+03  0.43768679718E+03  0.12500055171E+03 0.  0.
          2    1    1    2  501    0  0.88190749323E+02  0.11045810303E+03 -0.18803152683E+02  0.14259088099E+03  0.00000000000E+00 0. -1.
          1    1    1    2  502    0  0.69584966372E+02  0.54413702494E+02  0.11091020570E+04  0.11126141701E+04  0.00000000000E+00 0. -1.
         22    1    3    3    0    0 -0.10461961051E+03 -0.75998602158E+02  0.28871418264E+03  0.31634937915E+03  0.00000000000E+00 0.  1.
         22    1    3    3    0    0 -0.53156105183E+02 -0.88873203364E+02  0.63235679954E+02  0.12133741803E+03  0.00000000000E+00 0.  1.
</event>
<event>
 7    1  0.6386201E-006  0.5243087E+02  0.7818608E-02  0.1435526E+00
          2   -1    0    0  502    0  0.00000000000E+00  0.00000000000E+00  0.52100132228E+03  0.52100132228E+03  0.00000000000E+00 0. -1.
          1   -1    0    0  501    0 -0.00000000000E+00 -0.00000000000E+00 -0.13367817538E+04  0.13367817538E+04  0.00000000000E+00 0. -1.
         25    2    1    2    0    0  0.92041185078E+02  0.36361518937E+02 -0.88169546392E+02  0.18219017263E+03  0.12500260109E+03 0.  0.
          2    1    1    2  501    0 -0.40258923368E+02 -0.31808318630E+02 -0.11996266723E+04  0.12007234082E+04  0.00000000000E+00 0. -1.
          1    1    1    2  502    0 -0.51782261710E+02 -0.45532003067E+01  0.47201578714E+03  0.47486949530E+03  0.00000000000E+00 0. -1.
         22    1    3    3    0    0  0.73302754132E+02  0.79840134134E+02 -0.42539802317E+02  0.11643614371E+03  0.00000000000E+00 0. -1.
         22    1    3    3    0    0  0.18738430945E+02 -0.43478615197E+02 -0.45629744075E+02  0.65754028911E+02  0.00000000000E+00 0. -1.
</event>
<event>
 7    1  0.6386201E-006  0.1006791E+03  0.7818608E-02  0.1304008E+00
          2   -1    0    0  502    0  0.00000000000E+00  0.00000000000E+00  0.14703878158E+04  0.14703878158E+04  0.00000000000E+00 0. -1.
          1   -1    0    0  501    0 -0.00000000000E+00 -0.00000000000E+00 -0.26363423605E+02  0.26363423605E+02  0.00000000000E+00 0. -1.
         25    2    1    2    0    0  0.86352863646E+02  0.10596452935E+00  0.82632891030E+03  0.84017913633E+03  0.12499873934E+03 0.  0.
          2    1    1    2  501    0 -0.75277347533E+02 -0.78937039838E+02  0.17091520340E+03  0.20275537493E+03  0.00000000000E+00 0. -1.
          1    1    1    2  502    0 -0.11075516113E+02  0.78831075308E+02  0.44678027852E+03  0.45381672817E+03  0.00000000000E+00 0. -1.
         22    1    3    3    0    0  0.70941491524E+02 -0.71426762252E+01  0.17973197135E+03  0.19335794416E+03  0.00000000000E+00 0.  1.
         22    1    3    3    0    0  0.15411372122E+02  0.72486407545E+01  0.64659693894E+03  0.64682119217E+03  0.00000000000E+00 0.  1.
</event>
<event>
 7    1  0.6386201E-006  0.1791522E+03  0.7818608E-02  0.1217481E+00
          2   -1    0    0  502    0  0.00000000000E+00  0.00000000000E+00  0.20154174478E+04  0.20154174478E+04  0.00000000000E+00 0. -1.
          1   -1    0    0  501    0 -0.00000000000E+00 -0.00000000000E+00 -0.90033209854E+03  0.90033209854E+03  0.00000000000E+00 0. -1.
         25    2    1    2    0    0  0.89044963998E+02  0.19264591746E+03 -0.39454100568E+03  0.46511475749E+03  0.12501070894E+03 0.  0.
          2    1    1    2  501    0  0.13552382101E+02 -0.17175936141E+03 -0.45328915756E+03  0.48492886659E+03  0.00000000000E+00 0. -1.
          1    1    1    2  502    0 -0.10259734610E+03 -0.20886556043E+02  0.19629155124E+04  0.19657059222E+04  0.00000000000E+00 0. -1.
         22    1    3    3    0    0  0.17594195753E+02  0.14855595968E+03 -0.31831782478E+03  0.35171674179E+03  0.00000000000E+00 0.  1.
         22    1    3    3    0    0  0.71450768245E+02  0.44089957776E+02 -0.76223180896E+02  0.11339801570E+03  0.00000000000E+00 0.  1.
</event>
<event>
 7    1  0.6386201E-006  0.1196898E+03  0.7818608E-02  0.1393393E+00
          2   -1    0    0  502    0  0.00000000000E+00  0.00000000000E+00  0.25728579670E+03  0.25728579670E+03  0.00000000000E+00 0. -1.
          1   -1    0    0  501    0 -0.00000000000E+00 -0.00000000000E+00 -0.11641726212E+04  0.11641726212E+04  0.00000000000E+00 0. -1.
         25    2    1    2    0    0 -0.74494377655E+02 -0.50947878235E+02 -0.14685581760E+02  0.15487429517E+03  0.12500112957E+03 0.  0.
          2    1    1    2  501    0  0.10266232468E+03  0.64272988321E+02 -0.10746698498E+04  0.10814739276E+04  0.00000000000E+00 0. -1.
          1    1    1    2  502    0 -0.28167947028E+02 -0.13325110086E+02  0.18246860705E+03  0.18511019518E+03  0.00000000000E+00 0. -1.
         22    1    3    3    0    0  0.31244059237E+02  0.42765903269E+01 -0.16454554778E+02  0.35570111545E+02  0.00000000000E+00 0.  1.
         22    1    3    3    0    0 -0.10573843689E+03 -0.55224468562E+02  0.17689730186E+01  0.11930418362E+03  0.00000000000E+00 0.  1.
</event>
<event>
 7    1  0.6386201E-006  0.9151711E+02  0.7818608E-02  0.1318601E+00
          2   -1    0    0  502    0  0.00000000000E+00  0.00000000000E+00  0.13584954729E+03  0.13584954729E+03  0.00000000000E+00 0. -1.
          1   -1    0    0  501    0 -0.00000000000E+00 -0.00000000000E+00 -0.29411155388E+03  0.29411155388E+03  0.00000000000E+00 0. -1.
         25    2    1    2    0    0  0.31808052835E+00  0.30620435159E+02  0.21177310397E+02  0.13042734381E+03  0.12500040526E+03 0.  0.
          2    1    1    2  501    0 -0.50021238867E+02 -0.89080948128E+02 -0.19600466679E+03  0.22103250679E+03  0.00000000000E+00 0. -1.
          1    1    1    2  502    0  0.49703158338E+02  0.58460512968E+02  0.16565349804E+02  0.78501250560E+02  0.00000000000E+00 0. -1.
         22    1    3    3    0    0  0.50498975084E+02 -0.22792521069E+02  0.85680203646E+01  0.56062968832E+02  0.00000000000E+00 0. -1.
         22    1    3    3    0    0 -0.50180894556E+02  0.53412956228E+02  0.12609290033E+02  0.74364374983E+02  0.00000000000E+00 0. -1.
</event>
<event>
 7    1  0.6386201E-006  0.5253429E+02  0.7818608E-02  0.1461623E+00
          2   -1    0    0  502    0  0.00000000000E+00  0.00000000000E+00  0.15938136528E+03  0.15938136528E+03  0.00000000000E+00 0. -1.
          1   -1    0    0  501    0 -0.00000000000E+00 -0.00000000000E+00 -0.90897881570E+03  0.90897881570E+03  0.00000000000E+00 0. -1.
         25    2    1    2    0    0  0.45791513094E+02  0.19871958289E+02 -0.21388847152E+03  0.25271425145E+03  0.12499782894E+03 0.  0.
          2    1    1    2  501    0 -0.29282021043E+02  0.30434310797E+02 -0.66998165137E+03  0.67131147555E+03  0.00000000000E+00 0. -1.
          1    1    1    2  502    0 -0.16509492051E+02 -0.50306269086E+02  0.13427267247E+03  0.14433445399E+03  0.00000000000E+00 0. -1.
         22    1    3    3    0    0 -0.33350881314E+02 -0.23733308645E+02 -0.42758915897E+02  0.59193547895E+02  0.00000000000E+00 0.  1.
         22    1    3    3    0    0  0.79142394408E+02  0.43605266934E+02 -0.17112955562E+03  0.19352070356E+03  0.00000000000E+00 0.  1.
</event>
<event>
 7    1  0.6386201E-006  0.6892746E+02  0.7818608E-02  0.1401082E+00
          2   -1    0    0  502    0  0.00000000000E+00  0.00000000000E+00  0.14763379063E+03  0.14763379063E+03  0.00000000000E+00 0. -1.
          1   -1    0    0  501    0 -0.00000000000E+00 -0.00000000000E+00 -0.19828814676E+03  0.19828814676E+03  0.00000000000E+00 0. -1.
         25    2    1    2    0    0  0.57354285545E+02 -0.89952643771E+02 -0.95132881578E+02  0.18988417273E+03  0.12499896681E+03 0.  0.
          2    1    1    2  501    0 -0.27322716326E+02  0.48855361232E+02 -0.31767449673E+02  0.64362628965E+02  0.00000000000E+00 0. -1.
          1    1    1    2  502    0 -0.30031569218E+02  0.41097282539E+02  0.76245975128E+02  0.91675135697E+02  0.00000000000E+00 0. -1.
         22    1    3    3    0    0  0.41847189267E+02 -0.39895239024E+02 -0.11899903699E+03  0.13230112679E+03  0.00000000000E+00 0.  1.
         22    1    3    3    0    0  0.15507096277E+02 -0.50057404747E+02  0.23866155409E+02  0.57583045934E+02  0.00000000000E+00 0.  1.
</event>
<event>
 7    1  0.6386201E-006  0.8039909E+02  0.7818608E-02  0.1336404E+00
          2   -1    0    0  502    0  0.00000000000E+00  0.00000000000E+00  0.10180795126E+03  0.10180795126E+03  0.00000000000E+00 0. -1.
          1   -1    0    0  501    0 -0.00000000000E+00 -0.00000000000E+00 -0.48777543520E+03  0.48777543520E+03  0.00000000000E+00 0. -1.
         25    2    1    2    0    0 -0.36697566037E+02  0.12710939373E+02 -0.19576661882E+03  0.23549331763E+03  0.12499701706E+03 0.  0.
          2    1    1    2  501    0  0.82638030451E+02  0.53270025149E+02 -0.24010960829E+03  0.25945975343E+03  0.00000000000E+00 0. -1.
          1    1    1    2  502    0 -0.45940464414E+02 -0.65980964522E+02  0.49908743155E+02  0.94630315403E+02  0.00000000000E+00 0. -1.
         22    1    3    3    0    0  0.43953995470E+02  0.13710177300E+02 -0.44321583213E+02  0.63908727244E+02  0.00000000000E+00 0. -1.
         22    1    3    3    0    0 -0.80651561507E+02 -0.99923792663E+00 -0.15144503560E+03  0.17158459039E+03  0.00000000000E+00 0. -1.
</event>
<event>
 7    1  0.6386201E-006  0.3800281E+02  0.7818608E-02  0.1567469E+00
          2   -1    0    0  502    0  0.00000000000E+00  0.00000000000E+00  0.91659121936E+03  0.91659121936E+03  0.00000000000E+00 0. -1.
          1   -1    0    0  501    0 -0.00000000000E+00 -0.00000000000E+00 -0.24445056615E+04  0.24445056615E+04  0.00000000000E+00 0. -1.
         25    2    1    2    0    0 -0.26274639379E+02  0.13408374995E+02 -0.18909266461E+03  0.22858120373E+03  0.12499275858E+03 0.  0.
          2    1    1    2  501    0  0.35644712573E+02  0.13604655165E+02 -0.22352780134E+04  0.22356035939E+04  0.00000000000E+00 0. -1.
          1    1    1    2  502    0 -0.93700731938E+01 -0.27013030160E+02  0.89645623588E+03  0.89691208316E+03  0.00000000000E+00 0. -1.
         22    1    3    3    0    0  0.36577615811E+02 -0.29769976328E+02 -0.10475450235E+03  0.11488115264E+03  0.00000000000E+00 0. -1.
         22    1    3    3    0    0 -0.62852255190E+02  0.43178351323E+02 -0.84338162260E+02  0.11370005109E+03  0.00000000000E+00 0. -1.
</event>
<event>
 7    1  0.6386201E-006  0.6873446E+02  0.7818608E-02  0.1411682E+00
          2   -1    0    0  502    0  0.00000000000E+00  0.00000000000E+00  0.77901854904E+03  0.77901854904E+03  0.00000000000E+00 0. -1.
          1   -1    0    0  501    0 -0.00000000000E+00 -0.00000000000E+00 -0.34010267500E+03  0.34010267500E+03  0.00000000000E+00 0. -1.
         25    2    1    2    0    0  0.64926835929E+02 -0.15863378661E+02  0.17033157189E+03  0.22159728779E+03  0.12500149105E+03 0.  0.
          2    1    1    2  501    0 -0.40480312778E+02  0.55971294423E+02 -0.30971283940E+03  0.31732236670E+03  0.00000000000E+00 0. -1.
          1    1    1    2  502    0 -0.24446523151E+02 -0.40107915762E+02  0.57829714155E+03  0.58020156956E+03  0.00000000000E+00 0. -1.
         22    1    3    3    0    0  0.49606866416E+02 -0.62958749028E+02  0.58319154371E+02  0.99125017233E+02  0.00000000000E+00 0. -1.
         22    1    3    3    0    0  0.15319969513E+02  0.47095370367E+02  0.11201241752E+03  0.12247227055E+03  0.00000000000E+00 0. -1.
</event>
<event>
 7    1  0.6386201E-006  0.2433135E+03  0.7818608E-02  0.1211160E+00
          2   -1    0    0  502    0  0.00000000000E+00  0.00000000000E+00  0.98650724776E+03  0.98650724776E+03  0.00000000000E+00 0. -1.
          1   -1    0    0  501    0 -0.00000000000E+00 -0.00000000000E+00 -0.55664440547E+03  0.55664440547E+03  0.00000000000E+00 0. -1.
         25    2    1    2    0    0  0.31557199756E+03  0.54315331965E+02  0.34238010228E+03  0.48516547778E+03  0.12500226182E+03 0.  0.
          2    1    1    2  501    0 -0.23494188533E+03 -0.37163473573E+02 -0.45278713422E+03  0.51146358831E+03  0.00000000000E+00 0. -1.
          1    1    1    2  502    0 -0.80630112229E+02 -0.17151858392E+02  0.54026987423E+03  0.54652258713E+03  0.00000000000E+00 0. -1.
         22    1    3    3    0    0  0.90791738015E+02 -0.15527081131E+01  0.28687078375E+02  0.95228667218E+02  0.00000000000E+00 0. -1.
         22    1    3    3    0    0  0.22478025955E+03  0.55868040078E+02  0.31369302390E+03  0.38993681056E+03  0.00000000000E+00 0. -1.
</event>
<event>
 7    1  0.6386201E-006  0.9522109E+02  0.7818608E-02  0.1311943E+00
          2   -1    0    0  502    0  0.00000000000E+00  0.00000000000E+00  0.10023009897E+04  0.10023009897E+04  0.00000000000E+00 0. -1.
          1   -1    0    0  501    0 -0.00000000000E+00 -0.00000000000E+00 -0.41795000377E+03  0.41795000377E+03  0.00000000000E+00 0. -1.
         25    2    1    2    0    0  0.22462458922E+02  0.35673335597E+02 -0.35697172029E+02  0.13664568883E+03  0.12498242777E+03 0.  0.
          2    1    1    2  501    0  0.74173862891E+02 -0.25090820918E+02 -0.32462912484E+03  0.33393918597E+03  0.00000000000E+00 0. -1.
          1    1    1    2  502    0 -0.96636321813E+02 -0.10582514680E+02  0.94467728279E+03  0.94966611866E+03  0.00000000000E+00 0. -1.
         22    1    3    3    0    0  0.17758463497E+02  0.74086170330E+02 -0.54449181978E+02  0.93642068954E+02  0.00000000000E+00 0.  1.
         22    1    3    3    0    0  0.47039954250E+01 -0.38412834732E+02  0.18752009948E+02  0.43003619874E+02  0.00000000000E+00 0.  1.
</event>
<event>
 7    1  0.6386201E-006  0.1094471E+03  0.7818608E-02  0.1379703E+00
          2   -1    0    0  502    0  0.00000000000E+00  0.00000000000E+00  0.29097151582E+03  0.29097151582E+03  0.00000000000E+00 0. -1.
          1   -1    0    0  501    0 -0.00000000000E+00 -0.00000000000E+00 -0.29752958236E+03  0.29752958236E+03  0.00000000000E+00 0. -1.
         25    2    1    2    0    0  0.33574884554E+02  0.69558262815E+02  0.20865684411E+02  0.14841172083E+03  0.12500014918E+03 0.  0.
          2    1    1    2  501    0 -0.56005381666E+02 -0.10030715624E+03 -0.21764133528E+03  0.24610135959E+03  0.00000000000E+00 0. -1.
          1    1    1    2  502    0  0.22430497112E+02  0.30748893422E+02  0.19021758433E+03  0.19398801776E+03  0.00000000000E+00 0. -1.
         22    1    3    3    0    0 -0.18108269804E+02  0.85865550494E+02  0.31399603545E+02  0.93202667878E+02  0.00000000000E+00 0.  1.
         22    1    3    3    0    0  0.51683154358E+02 -0.16307287679E+02 -0.10533919134E+02  0.55209052954E+02  0.00000000000E+00 0.  1.
</event>
<event>
 7    1  0.6386201E-006  0.1091880E+03  0.7818608E-02  0.1354099E+00
          2   -1    0    0  502    0  0.00000000000E+00  0.00000000000E+00  0.15653753976E+04  0.15653753976E+04  0.00000000000E+00 0. -1.
          1   -1    0    0  501    0 -0.00000000000E+00 -0.00000000000E+00 -0.75029858579E+03  0.75029858579E+03  0.00000000000E+00 0. -1.
         25    2    1    2    0    0  0.39913414962E+02 -0.57565113708E+02  0.96484492764E+02  0.17273831472E+03  0.12498977966E+03 0.  0.
          2    1    1    2  501    0 -0.85415059338E+02  0.70133352999E+02 -0.70749104870E+03  0.71607122799E+03  0.00000000000E+00 0. -1.
          1    1    1    2  502    0  0.45501644376E+02 -0.12568239290E+02  0.14260833678E+04  0.14268644407E+04  0.00000000000E+00 0. -1.
         22    1    3    3    0    0 -0.36538056384E+02  0.39782016609E+01  0.55081038535E+02  0.66217644619E+02  0.00000000000E+00 0. -1.
         22    1    3    3    0    0  0.76451471347E+02 -0.61543315369E+02  0.41403454228E+02  0.10652067011E+03  0.00000000000E+00 0. -1.
</event>
<event>
 7    1  0.6386201E-006  0.5812269E+02  0.7818608E-02  0.1440162E+00
          2   -1    0    0  502    0  0.00000000000E+00  0.00000000000E+00  0.81583787522E+03  0.81583787522E+03  0.00000000000E+00 0. -1.
          1   -1    0    0  501    0 -0.00000000000E+00 -0.00000000000E+00 -0.73838219917E+03  0.73838219917E+03  0.00000000000E+00 0. -1.
         25    2    1    2    0    0 -0.61951492055E+02  0.14925269825E+02  0.33416196402E+03  0.36242265365E+03  0.12500084252E+03 0.  0.
          2    1    1    2  501    0  0.28724763878E+02  0.34252680196E+02 -0.72167396312E+03  0.72305716732E+03  0.00000000000E+00 0. -1.
          1    1    1    2  502    0  0.33226728177E+02 -0.49177950022E+02  0.46496767515E+03  0.46874025341E+03  0.00000000000E+00 0. -1.
         22    1    3    3    0    0 -0.77635456289E+02  0.46857124404E+02  0.29882043447E+03  0.31227632994E+03  0.00000000000E+00 0.  1.
         22    1    3    3    0    0  0.15683964234E+02 -0.31931854578E+02  0.35341529550E+02  0.50146323712E+02  0.00000000000E+00 0.  1.
</event>
<event>
 7    1  0.6386201E-006  0.5973174E+02  0.7818608E-02  0.1523242E+00
          2   -1    0    0  502    0  0.00000000000E+00  0.00000000000E+00  0.14544669418E+03  0.14544669418E+03  0.00000000000E+00 0. -1.
          1   -1    0    0  501    0 -0.00000000000E+00 -0.00000000000E+00 -0.19705815907E+03  0.19705815907E+03  0.00000000000E+00 0. -1.
         25    2    1    2    0    0  0.31735798973E+02  0.49328738480E+02 -0.91490276404E+02  0.16563814584E+03  0.12500015722E+03 0.  0.
          2    1    1    2  501    0 -0.22052686740E+02  0.99926267225E+01 -0.57523803526E+02  0.62411229385E+02  0.00000000000E+00 0. -1.
          1    1    1    2  502    0 -0.96831122329E+01 -0.59321365203E+02  0.97402615039E+02  0.11445547802E+03  0.00000000000E+00 0. -1.
         22    1    3    3    0    0 -0.43205282082E+02  0.41672813035E+02 -0.57029299303E+02  0.82798917414E+02  0.00000000000E+00 0.  1.
         22    1    3    3    0    0  0.74941081054E+02  0.76559254455E+01 -0.34460977101E+02  0.82839228429E+02  0.00000000000E+00 0.  1.
</event>
<event>
 7    1  0.6386201E-006  0.6987843E+02  0.7818608E-02  0.1368246E+00
          2   -1    0    0  502    0  0.00000000000E+00  0.00000000000E+00  0.55421595043E+03  0.55421595043E+03  0.00000000000E+00 0. -1.
          1   -1    0    0  501    0 -0.00000000000E+00 -0.00000000000E+00 -0.31681484549E+03  0.31681484549E+03  0.00000000000E+00 0. -1.
         25    2    1    2    0    0 -0.11816122169E+03  0.22451671310E+02 -0.14935003046E+03  0.22890066112E+03  0.12499571675E+03 0.  0.
          2    1    1    2  501    0  0.62637243293E+02  0.19175468362E+02 -0.11674857935E+03  0.13387066002E+03  0.00000000000E+00 0. -1.
          1    1    1    2  502    0  0.55523978398E+02 -0.41627139671E+02  0.50349971475E+03  0.50825947477E+03  0.00000000000E+00 0. -1.
         22    1    3    3    0    0 -0.74979749702E+02 -0.30794038314E+02 -0.21547226899E+02  0.83872037344E+02  0.00000000000E+00 0.  1.
         22    1    3    3    0    0 -0.43181471989E+02  0.53245709624E+02 -0.12780280357E+03  0.14502862378E+03  0.00000000000E+00 0.  1.
</event>
<event>
 7    1  0.6386201E-006  0.1516233E+03  0.7818608E-02  0.1287068E+00
          2   -1    0    0  502    0  0.00000000000E+00  0.00000000000E+00  0.84282573441E+03  0.84282573441E+03  0.00000000000E+00 0. -1.
          1   -1    0    0  501    0 -0.00000000000E+00 -0.00000000000E+00 -0.38371640476E+03  0.38371640476E+03  0.00000000000E+00 0. -1.
         25    2    1    2    0    0 -0.43393273770E+02  0.14546557952E+03 -0.62309448085E+02  0.20627776237E+03  0.12499934759E+03 0.  0.
          2    1    1    2  501    0  0.99176052577E+02 -0.11872625091E+03 -0.22403060499E+03  0.27225268416E+03  0.00000000000E+00 0. -1.
          1    1    1    2  502    0 -0.55782778807E+02 -0.26739328608E+02  0.74544938272E+03  0.74801169263E+03  0.00000000000E+00 0. -1.
         22    1    3    3    0    0 -0.57238900258E+02  0.90150076940E+02  0.17479478017E+02  0.10820748693E+03  0.00000000000E+00 0.  1.
         22    1    3    3    0    0  0.13845626488E+02  0.55315502578E+02 -0.79788926101E+02  0.98070275449E+02  0.00000000000E+00 0.  1.
</event>
<event>
 7    1  0.6386201E-006  0.8677225E+02  0.7818608E-02  0.1419091E+00
          2   -1    0    0  502    0  0.00000000000E+00  0.00000000000E+00  0.58879512925E+02  0.58879512925E+02  0.00000000000E+00 0. -1.
          1   -1    0    0  501    0 -0.00000000000E+00 -0.00000000000E+00 -0.34565315675E+04  0.34565315675E+04  0.00000000000E+00 0. -1.
         25    2    1    2    0    0  0.10824664680E+03 -0.99170865905E+01 -0.15320392993E+04  0.15409687799E+04  0.12499872401E+03 0.  0.
          2    1    1    2  501    0 -0.27787766015E+02 -0.21497874127E+02 -0.18854842668E+04  0.18858115597E+04  0.00000000000E+00 0. -1.
          1    1    1    2  502    0 -0.80458880784E+02  0.31414960717E+02  0.19871511429E+02  0.88630740832E+02  0.00000000000E+00 0. -1.
         22    1    3    3    0    0 -0.18228292151E+02  0.23395415767E+02 -0.16129407956E+03  0.16399815918E+03  0.00000000000E+00 0. -1.
         22    1    3    3    0    0  0.12647493895E+03 -0.33312502357E+02 -0.13707452197E+04  0.13769706207E+04  0.00000000000E+00 0. -1.
</event>
<event>
 7    1  0.6386201E-006  0.9457926E+02  0.7818608E-02  0.1363536E+00
          2   -1    0    0  502    0  0.00000000000E+00  0.00000000000E+00  0.29228853895E+03  0.29228853895E+03  0.00000000000E+00 0. -1.
          1   -1    0    0  501    0 -0.00000000000E+00 -0.00000000000E+00 -0.52777726424E+03  0.52777726424E+03  0.00000000000E+00 0. -1.
         25    2    1    2    0    0  0.89079275809E+02 -0.49679372961E+02  0.37268502234E+02  0.16558301380E+03  0.12500254287E+03 0.  0.
          2    1    1    2  501    0 -0.94822596155E+02 -0.32666361542E+00 -0.45532987840E+03  0.46509862354E+03  0.00000000000E+00 0. -1.
          1    1    1    2  502    0  0.57433203462E+01  0.50006036576E+02  0.18257265089E+03  0.18938416585E+03  0.00000000000E+00 0. -1.
         22    1    3    3    0    0  0.17122094933E+02 -0.78311671589E+02  0.12474898977E+01  0.80171318269E+02  0.00000000000E+00 0.  1.
         22    1    3    3    0    0  0.71957180876E+02  0.28632298628E+02  0.36021012336E+02  0.85411695534E+02  0.00000000000E+00 0.  1.
</event>
<event>
 7    1  0.6386201E-006  0.7614816E+02  0.7818608E-02  0.1394973E+00
          2   -1    0    0  502    0  0.00000000000E+00  0.00000000000E+00  0.13545088463E+04  0.13545088463E+04  0.00000000000E+00 0. -1.
          1   -1    0    0  501    0 -0.00000000000E+00 -0.00000000000E+00 -0.17492990724E+03  0.17492990724E+03  0.00000000000E+00 0. -1.
         25    2    1    2    0    0  0.12008963289E+03  0.12141663859E+02  0.30414726379E+03  0.35028216053E+03  0.12499237572E+03 0.  0.
          2    1    1    2  501    0 -0.46466569549E+02 -0.13415100352E+02 -0.14665339053E+03  0.15442255003E+03  0.00000000000E+00 0. -1.
          1    1    1    2  502    0 -0.73623063341E+02  0.12734364921E+01  0.10220850658E+04  0.10247340430E+04  0.00000000000E+00 0. -1.
         22    1    3    3    0    0  0.69350145821E+02  0.65647190705E+02  0.13121299579E+03  0.16228322969E+03  0.00000000000E+00 0.  1.
         22    1    3    3    0    0  0.50739487069E+02 -0.53505526845E+02  0.17293426800E+03  0.18799893085E+03  0.00000000000E+00 0.  1.
</event>
<event>
 7    1  0.6386201E-006  0.7495179E+02  0.7818608E-02  0.1405949E+00
          2   -1    0    0  502    0  0.00000000000E+00  0.00000000000E+00  0.51456052541E+03  0.51456052541E+03  0.00000000000E+00 0. -1.
          1   -1    0    0  501    0 -0.00000000000E+00 -0.00000000000E+00 -0.18280925370E+03  0.18280925370E+03  0.00000000000E+00 0. -1.
         25    2    1    2    0    0  0.71064647824E+01  0.45033279228E+02  0.21827599294E+03  0.25563264128E+03  0.12500056045E+03 0.  0.
          2    1    1    2  501    0  0.31671283776E+02  0.32036392717E+02 -0.15412454966E+03  0.16057327761E+03  0.00000000000E+00 0. -1.
          1    1    1    2  502    0 -0.38777748559E+02 -0.77069671945E+02  0.26759982843E+03  0.28116386022E+03  0.00000000000E+00 0. -1.
         22    1    3    3    0    0  0.20623032908E+02  0.59873273389E+02  0.22555868742E+03  0.23427940547E+03  0.00000000000E+00 0.  1.
         22    1    3    3    0    0 -0.13516568126E+02 -0.14839994160E+02 -0.72826944879E+01  0.21353235811E+02  0.00000000000E+00 0.  1.
</event>
<event>
 7    1  0.6386201E-006  0.1036427E+03  0.7818608E-02  0.1351693E+00
          2   -1    0    0  502    0  0.00000000000E+00  0.00000000000E+00  0.74712616124E+03  0.74712616124E+03  0.00000000000E+00 0. -1.
          1   -1    0    0  501    0 -0.00000000000E+00 -0.00000000000E+00 -0.60544429164E+03  0.60544429164E+03  0.00000000000E+00 0. -1.
         25    2    1    2    0    0 -0.12333386761E+03  0.77519021223E+02  0.71698325052E+02  0.20490452171E+03  0.12499908660E+03 0.  0.
          2    1    1    2  501    0  0.28658494032E+02 -0.41893551121E+02 -0.53342633205E+03  0.53583582432E+03  0.00000000000E+00 0. -1.
          1    1    1    2  502    0  0.94675373579E+02 -0.35625470103E+02  0.60340987659E+03  0.61183010685E+03  0.00000000000E+00 0. -1.
         22    1    3    3    0    0 -0.12400585220E+03  0.75278535547E+02  0.12438829314E+02  0.14559887970E+03  0.00000000000E+00 0. -1.
         22    1    3    3    0    0  0.67198458953E+00  0.22404856765E+01  0.59259495739E+02  0.59305642013E+02  0.00000000000E+00 0. -1.
</event>
<event>
 7    1  0.6386201E-006  0.6726957E+02  0.7818608E-02  0.1483061E+00
          2   -1    0    0  502    0  0.00000000000E+00  0.00000000000E+00  0.15414349616E+03  0.15414349616E+03  0.00000000000E+00 0. -1.
          1   -1    0    0  501    0 -0.00000000000E+00 -0.00000000000E+00 -0.13316553588E+04  0.13316553588E+04  0.00000000000E+00 0. -1.
         25    2    1    2    0    0 -0.75772137783E+01  0.56668451140E+02 -0.38017209974E+03  0.40425795732E+03  0.12499977244E+03 0.  0.
          2    1    1    2  501    0 -0.28295113913E+02  0.60505165924E+00 -0.93117822032E+03  0.93160821033E+03  0.00000000000E+00 0. -1.
          1    1    1    2  502    0  0.35872327691E+02 -0.57273502799E+02  0.13383845746E+03  0.14993268727E+03  0.00000000000E+00 0. -1.
         22    1    3    3    0    0 -0.37563479488E+02  0.57778923689E+02 -0.94210612043E+02  0.11672642561E+03  0.00000000000E+00 0. -1.
         22    1    3    3    0    0  0.29986265710E+02 -0.11104725496E+01 -0.28596148770E+03  0.28753153171E+03  0.00000000000E+00 0. -1.
</event>
<event>
 7    1  0.6386201E-006  0.8953630E+02  0.7818608E-02  0.1322596E+00
          2   -1    0    0  502    0  0.00000000000E+00  0.00000000000E+00  0.11991867055E+04  0.11991867055E+04  0.00000000000E+00 0. -1.
          1   -1    0    0  501    0 -0.00000000000E+00 -0.00000000000E+00 -0.81477809089E+02  0.81477809089E+02  0.00000000000E+00 0. -1.
         25    2    1    2    0    0  0.14577688513E+02 -0.78066971885E+02  0.10642191822E+04  0.10744744181E+04  0.12500338545E+03 0.  0.
          2    1    1    2  501    0  0.77096660435E+02  0.45528608137E+02 -0.98994255683E+01  0.90081895161E+02  0.00000000000E+00 0. -1.
          1    1    1    2  502    0 -0.91674348948E+02  0.32538363748E+02  0.63389139838E+02  0.11610820135E+03  0.00000000000E+00 0. -1.
         22    1    3    3    0    0  0.46585328587E+02 -0.41950693852E+02  0.21678917775E+03  0.22567144512E+03  0.00000000000E+00 0. -1.
         22    1    3    3    0    0 -0.32007640074E+02 -0.36116278033E+02  0.84743000442E+03  0.84880297299E+03  0.00000000000E+00 0. -1.
</event>
<event>
 7    1  0.6386201E-006  0.1667594E+03  0.7818608E-02  0.1244038E+00
          2   -1    0    0  502    0  0.00000000000E+00  0.00000000000E+00  0.16605534164E+04  0.16605534164E+04  0.00000000000E+00 0. -1.
          1   -1    0    0  501    0 -0.00000000000E+00 -0.00000000000E+00 -0.71942339664E+03  0.71942339664E+03  0.00000000000E+00 0. -1.
         25    2    1    2    0    0  0.20795879310E+03  0.11932494372E+03  0.50640473158E+02  0.27508595375E+03  0.12499009005E+03 0.  0.
          2    1    1    2  501    0 -0.84828807869E+02 -0.10974208667E+02 -0.59966632424E+03  0.60573596586E+03  0.00000000000E+00 0. -1.
          1    1    1    2  502    0 -0.12312998523E+03 -0.10835073505E+03  0.14901558709E+04  0.14991548935E+04  0.00000000000E+00 0. -1.
         22    1    3    3    0    0 -0.23274664716E+01  0.26507301628E+02 -0.21459029183E+02  0.34183973924E+02  0.00000000000E+00 0.  1.
         22    1    3    3    0    0  0.21028625957E+03  0.92817642089E+02  0.72099502341E+02  0.24090197983E+03  0.00000000000E+00 0.  1.
</event>
<event>
 7    1  0.6386201E-006  0.7246196E+02  0.7818608E-02  0.1426311E+00
          2   -1    0    0  502    0  0.00000000000E+00  0.00000000000E+00  0.58682419389E+02  0.58682419389E+02  0.00000000000E+00 0. -1.
          1   -1    0    0  501    0 -0.00000000000E+00 -0.00000000000E+00 -0.13201882595E+04  0.13201882595E+04  0.00000000000E+00 0. -1.
         25    2    1    2    0    0  0.37480863584E+02 -0.80394724572E+01 -0.23165143566E+03  0.26600161420E+03  0.12500009144E+03 0.  0.
          2    1    1    2  501    0 -0.75045873677E+02 -0.51317651292E+01 -0.10601683891E+04  0.10628335859E+04  0.00000000000E+00 0. -1.
          1    1    1    2  502    0  0.37565010093E+02  0.13171237586E+02  0.30313984555E+02  0.50035478837E+02  0.00000000000E+00 0. -1.
         22    1    3    3    0    0  0.24427809086E+02  0.54015090910E+02 -0.15832024379E+03  0.16905516111E+03  0.00000000000E+00 0.  1.
         22    1    3    3    0    0  0.13053054498E+02 -0.62054563367E+02 -0.73331191868E+02  0.96946453092E+02  0.00000000000E+00 0.  1.
</event>
<event>
 7    1  0.6386201E-006  0.1797607E+03  0.7818608E-02  0.1196833E+00
          2   -1    0    0  502    0  0.00000000000E+00  0.00000000000E+00  0.21873895821E+04  0.21873895821E+04  0.00000000000E+00 0. -1.
          1   -1    0    0  501    0 -0.00000000000E+00 -0.00000000000E+00 -0.12732645281E+04  0.12732645281E+04  0.00000000000E+00 0. -1.
         25    2    1    2    0    0  0.54049061454E+02 -0.35059105287E+02  0.10454883611E+03  0.17522960556E+03  0.12499805448E+03 0.  0.
          2    1    1    2  501    0 -0.18396745301E+03  0.26124295575E+02 -0.12288620230E+04  0.12428307906E+04  0.00000000000E+00 0. -1.
          1    1    1    2  502    0  0.12991839156E+03  0.89348097117E+01  0.20384382408E+04  0.20425937141E+04  0.00000000000E+00 0. -1.
         22    1    3    3    0    0  0.27276773327E+02  0.40428651527E+02  0.75795438403E+02  0.90130165373E+02  0.00000000000E+00 0.  1.
         22    1    3    3    0    0  0.26772288127E+02 -0.75487756814E+02  0.28753397707E+02  0.85099440186E+02  0.00000000000E+00 0.  1.
</event>
<event>
 7    1  0.6386201E-006  0.8803712E+02  0.7818608E-02  0.1477494E+00
          2   -1    0    0  502    0  0.00000000000E+00  0.00000000000E+00  0.81405170386E+03  0.81405170386E+03  0.00000000000E+00 0. -1.
          1   -1    0    0  501    0 -0.00000000000E+00 -0.00000000000E+00 -0.39910623602E+03  0.39910623602E+03  0.00000000000E+00 0. -1.
         25    2    1    2    0    0  0.43878985136E+02 -0.90111835051E+02  0.45797741265E+03  0.48519431734E+03  0.12499882770E+03 0.  0.
          2    1    1    2  501    0 -0.20297341708E+02  0.96912188626E+01 -0.38003308606E+03  0.38069810652E+03  0.00000000000E+00 0. -1.
          1    1    1    2  502    0 -0.23581643428E+02  0.80420616188E+02  0.33700114125E+03  0.34726551602E+03  0.00000000000E+00 0. -1.
         22    1    3    3    0    0  0.67628161581E+02 -0.53308218907E+02  0.41496392019E+03  0.42380465961E+03  0.00000000000E+00 0. -1.
         22    1    3    3    0    0 -0.23749176445E+02 -0.36803616143E+02  0.43013492458E+02  0.61389657733E+02  0.00000000000E+00 0. -1.
</event>
<event>
 7    1  0.6386201E-006  0.7857671E+02  0.7818608E-02  0.1387783E+00
          2   -1    0    0  502    0  0.00000000000E+00  0.00000000000E+00  0.33882169695E+02  0.33882169695E+02  0.00000000000E+00 0. -1.
          1   -1    0    0  501    0 -0.00000000000E+00 -0.00000000000E+00 -0.12443964749E+04  0.12443964749E+04  0.00000000000E+00 0. -1.
         25    2    1    2    0    0  0.32316014318E+02 -0.11549444402E+03 -0.62139112961E+03  0.64508726025E+03  0.12500938366E+03 0.  0.
          2    1    1    2  501    0 -0.12576087592E+02  0.69935982763E+02 -0.57794581118E+03  0.58229765612E+03  0.00000000000E+00 0. -1.
          1    1    1    2  502    0 -0.19739926725E+02  0.45558461258E+02 -0.11177364448E+02  0.50893728251E+02  0.00000000000E+00 0. -1.
         22    1    3    3    0    0 -0.29547342436E+02 -0.84377284580E+02 -0.47245961629E+03  0.48084369667E+03  0.00000000000E+00 0. -1.
         22    1    3    3    0    0  0.61863356754E+02 -0.31117159442E+02 -0.14893151332E+03  0.16424356359E+03  0.00000000000E+00 0. -1.
</event>
<event>
 7    1  0.6386201E-006  0.4602099E+03  0.7818608E-02  0.1174022E+00
          2   -1    0    0  502    0  0.00000000000E+00  0.00000000000E+00  0.10124816398E+04  0.10124816398E+04  0.00000000000E+00 0. -1.
          1   -1    0    0  501    0 -0.00000000000E+00 -0.00000000000E+00 -0.73510963777E+03  0.73510963777E+03  0.00000000000E+00 0. -1.
         25    2    1    2    0    0  0.47858182298E+03  0.14394571456E+03  0.78404635524E+01  0.51521529056E+03  0.12499757092E+03 0.  0.
          2    1    1    2  501    0 -0.41509827935E+03 -0.16038185386E+03 -0.37657143658E+03  0.58295365804E+03  0.00000000000E+00 0. -1.
          1    1    1    2  502    0 -0.63483543628E+02  0.16436139299E+02  0.64610297510E+03  0.64942232902E+03  0.00000000000E+00 0. -1.
         22    1    3    3    0    0  0.28980114405E+03  0.54599331911E+02 -0.48575982258E+02  0.29887357894E+03  0.00000000000E+00 0. -1.
         22    1    3    3    0    0  0.18878067893E+03  0.89346382645E+02  0.56416445810E+02  0.21634171162E+03  0.00000000000E+00 0. -1.
</event>
<event>
 7    1  0.6386201E-006  0.1177765E+03  0.7818608E-02  0.1393283E+00
          2   -1    0    0  502    0  0.00000000000E+00  0.00000000000E+00  0.17315986062E+04  0.17315986062E+04  0.00000000000E+00 0. -1.
          1   -1    0    0  501    0 -0.00000000000E+00 -0.00000000000E+00 -0.18465123338E+03  0.18465123338E+03  0.00000000000E+00 0. -1.
         25    2    1    2    0    0 -0.13103558942E+03  0.33968659104E+02  0.16523536280E+03  0.24748971663E+03  0.12499695686E+03 0.  0.
          2    1    1    2  501    0  0.11588623699E+03 -0.61288526481E+01 -0.11987140231E+03  0.16684224839E+03  0.00000000000E+00 0. -1.
          1    1    1    2  502    0  0.15149352433E+02 -0.27839806456E+02  0.15015834123E+04  0.15019178745E+04  0.00000000000E+00 0. -1.
         22    1    3    3    0    0  0.19574664692E+02  0.13408976496E+01  0.53942377773E+02  0.57399874774E+02  0.00000000000E+00 0. -1.
         22    1    3    3    0    0 -0.15061025412E+03  0.32627761454E+02  0.11129298502E+03  0.19008984186E+03  0.00000000000E+00 0. -1.
</event>
<event>
 7    1  0.6386201E-006  0.1062611E+03  0.7818608E-02  0.1276974E+00
          2   -1    0    0  502    0  0.00000000000E+00  0.00000000000E+00  0.27468170342E+04  0.27468170342E+04  0.00000000000E+00 0. -1.
          1   -1    0    0  501    0 -0.00000000000E+00 -0.00000000000E+00 -0.14779353433E+04  0.14779353433E+04  0.00000000000E+00 0. -1.
         25    2    1    2    0    0  0.14673323417E+03 -0.80977375843E+02  0.59587246195E+02  0.21740383119E+03  0.12500323396E+03 0.  0.
          2    1    1    2  501    0 -0.96386013050E+02 -0.12053531261E+02 -0.13962664807E+04  0.13996412527E+04  0.00000000000E+00 0. -1.
          1    1    1    2  502    0 -0.50347221118E+02  0.93030907104E+02  0.26055609255E+04  0.26077072935E+04  0.00000000000E+00 0. -1.
         22    1    3    3    0    0  0.44638357335E+01  0.72157177649E+01 -0.27455967693E+02  0.28737128846E+02  0.00000000000E+00 0.  1.
         22    1    3    3    0    0  0.14226939843E+03 -0.88193093607E+02  0.87043213888E+02  0.18866670235E+03  0.00000000000E+00 0.  1.
</event>
<event>
 7    1  0.6386201E-006  0.4990368E+02  0.7818608E-02  0.1569340E+00
          2   -1    0    0  502    0  0.00000000000E+00  0.00000000000E+00  0.42663217255E+03  0.42663217255E+03  0.00000000000E+00 0. -1.
          1   -1    0    0  501    0 -0.00000000000E+00 -0.00000000000E+00 -0.52315509041E+03  0.52315509041E+03  0.00000000000E+00 0. -1.
         25    2    1    2    0    0  0.33984457707E+02  0.21533830755E+02  0.20113695574E+03  0.24020804255E+03  0.12500071805E+03 0.  0.
          2    1    1    2  501    0 -0.49533382297E+02 -0.66569953687E+01 -0.50181267339E+03  0.50429538043E+03  0.00000000000E+00 0. -1.
          1    1    1    2  502    0  0.15548924590E+02 -0.14876835386E+02  0.20415279980E+03  0.20528383997E+03  0.00000000000E+00 0. -1.
         22    1    3    3    0    0  0.79847041921E+01  0.26210002574E+02 -0.86748401953E+01  0.28739738836E+02  0.00000000000E+00 0. -1.
         22    1    3    3    0    0  0.25999753515E+02 -0.46761718195E+01  0.20981179593E+03  0.21146830372E+03  0.00000000000E+00 0. -1.
</event>
<event>
 7    1  0.6386201E-006  0.3293611E+03  0.7818608E-02  0.1210957E+00
          2   -1    0    0  502    0  0.00000000000E+00  0.00000000000E+00  0.96250621521E+03  0.96250621521E+03  0.00000000000E+00 0. -1.
          1   -1    0    0  501    0 -0.00000000000E+00 -0.00000000000E+00 -0.35720628962E+03  0.35720628962E+03  0.00000000000E+00 0. -1.
         25    2    1    2    0    0  0.29299422392E+03 -0.89614748573E+02  0.36671450441E+03  0.49394446439E+03  0.12500075097E+03 0.  0.
          2    1    1    2  501    0  0.53516254571E+02  0.29336981888E+02 -0.23108204493E+03  0.23900535454E+03  0.00000000000E+00 0. -1.
          1    1    1    2  502    0 -0.34651047849E+03  0.60277766685E+02  0.46966746610E+03  0.58676268591E+03  0.00000000000E+00 0. -1.
         22    1    3    3    0    0  0.19248109155E+00  0.17984849896E+02  0.29667970262E+02  0.34694096533E+02  0.00000000000E+00 0. -1.
         22    1    3    3    0    0  0.29280174283E+03 -0.10759959847E+03  0.33704653415E+03  0.45925036785E+03  0.00000000000E+00 0. -1.
</event>
<event>
 7    1  0.6386201E-006  0.7745403E+02  0.7818608E-02  0.1358300E+00
          2   -1    0    0  502    0  0.00000000000E+00  0.00000000000E+00  0.43499320756E+04  0.43499320756E+04  0.00000000000E+00 0. -1.
          1   -1    0    0  501    0 -0.00000000000E+00 -0.00000000000E+00 -0.28983568614E+03  0.28983568614E+03  0.00000000000E+00 0. -1.
         25    2    1    2    0    0 -0.73026102091E+02  0.85855063453E+02  0.26704591406E+03  0.31565999596E+03  0.12499523723E+03 0.  0.
          2    1    1    2  501    0  0.74025543366E+02 -0.21638164990E+02 -0.25966870208E+03  0.27087972625E+03  0.00000000000E+00 0. -1.
          1    1    1    2  502    0 -0.99944127564E+00 -0.64216898463E+02  0.40527191775E+04  0.40532280396E+04  0.00000000000E+00 0. -1.
         22    1    3    3    0    0  0.49644790560E+01 -0.18042836358E+02  0.11121913877E+03  0.11278247570E+03  0.00000000000E+00 0.  1.
         22    1    3    3    0    0 -0.77990581147E+02  0.10389789981E+03  0.15582677529E+03  0.20287752027E+03  0.00000000000E+00 0.  1.
</event>
<event>
 7    1  0.6386201E-006  0.9166651E+02  0.7818608E-02  0.1385401E+00
          2   -1    0    0  502    0  0.00000000000E+00  0.00000000000E+00  0.27909223371E+02  0.27909223371E+02  0.00000000000E+00 0. -1.
          1   -1    0    0  501    0 -0.00000000000E+00 -0.00000000000E+00 -0.19611522927E+04  0.19611522927E+04  0.00000000000E+00 0. -1.
         25    2    1    2    0    0  0.10114358422E+03  0.22186234112E+02 -0.69835337937E+03  0.71696845425E+03  0.12499627313E+03 0.  0.
          2    1    1    2  501    0 -0.12194526873E+02 -0.41638935926E+02 -0.11391292353E+04  0.11399552281E+04  0.00000000000E+00 0. -1.
          1    1    1    2  502    0 -0.88949057349E+02  0.19452701814E+02 -0.95760454662E+02  0.13213783367E+03  0.00000000000E+00 0. -1.
         22    1    3    3    0    0  0.18232446330E+02 -0.49171155959E+02 -0.25291568868E+03  0.25829550956E+03  0.00000000000E+00 0. -1.
         22    1    3    3    0    0  0.82911137892E+02  0.71357390071E+02 -0.44543769070E+03  0.45867294470E+03  0.00000000000E+00 0. -1.
</event>
<event>
 7    1  0.6386201E-006  0.6264055E+02  0.7818608E-02  0.1418627E+00
          2   -1    0    0  502    0  0.00000000000E+00  0.00000000000E+00  0.11339938301E+04  0.11339938301E+04  0.00000000000E+00 0. -1.
          1   -1    0    0  501    0 -0.00000000000E+00 -0.00000000000E+00 -0.38786779795E+03  0.38786779795E+03  0.00000000000E+00 0. -1.
         25    2    1    2    0    0 -0.75745344953E+02 -0.45220187349E+02  0.56131791403E+03  0.58179501440E+03  0.12500166213E+03 0.  0.
          2    1    1    2  501    0  0.62560512515E+02 -0.18082811699E+01 -0.37396342866E+03  0.37916452047E+03  0.00000000000E+00 0. -1.
          1    1    1    2  502    0  0.13184832437E+02  0.47028468519E+02  0.55877154677E+03  0.56090209318E+03  0.00000000000E+00 0. -1.
         22    1    3    3    0    0 -0.69149505551E+02 -0.72725499765E+02  0.25290037362E+03  0.27208317003E+03  0.00000000000E+00 0.  1.
         22    1    3    3    0    0 -0.65958394012E+01  0.27505312415E+02  0.30841754041E+03  0.30971184437E+03  0.00000000000E+00 0.  1.
</event>
<event>
 7    1  0.6386201E-006  0.1805878E+03  0.7818608E-02  0.1215883E+00
          2   -1    0    0  502    0  0.00000000000E+00  0.00000000000E+00  0.18530021123E+04  0.18530021123E+04  0.00000000000E+00 0. -1.
          1   -1    0    0  501    0 -0.00000000000E+00 -0.00000000000E+00 -0.10664196114E+04  0.10664196114E+04  0.00000000000E+00 0. -1.
         25    2    1    2    0    0 -0.24162609910E+03  0.22094218651E+02  0.32657484292E+03  0.42561367496E+03  0.12499818408E+03 0.  0.
          2    1    1    2  501    0  0.15766302330E+03 -0.86198353685E+02 -0.10070483846E+04  0.10229536813E+04  0.00000000000E+00 0. -1.
          1    1    1    2  502    0  0.83963075792E+02  0.64104135034E+02  0.14670560426E+04  0.14708543675E+04  0.00000000000E+00 0. -1.
         22    1    3    3    0    0 -0.89221659178E+02 -0.14027311843E+02  0.39471720629E+02  0.98566153793E+02  0.00000000000E+00 0.  1.
         22    1    3    3    0    0 -0.15240443992E+03  0.36121530494E+02  0.28710312229E+03  0.32704752117E+03  0.00000000000E+00 0.  1.
</event>
<event>
 7    1  0.6386201E-006  0.9763160E+02  0.7818608E-02  0.1364599E+00
          2   -1    0    0  502    0  0.00000000000E+00  0.00000000000E+00  0.51793980925E+03  0.51793980925E+03  0.00000000000E+00 0. -1.
          1   -1    0    0  501    0 -0.00000000000E+00 -0.00000000000E+00 -0.23728761567E+03  0.23728761567E+03  0.00000000000E+00 0. -1.
         25    2    1    2    0    0  0.84352681190E+02  0.18290182465E+02  0.41443854829E+01  0.15196008821E+03  0.12499914751E+03 0.  0.
          2    1    1    2  501    0 -0.77358670354E+02 -0.66111885931E+02 -0.14602226000E+03  0.17798215010E+03  0.00000000000E+00 0. -1.
          1    1    1    2  502    0 -0.69940108355E+01  0.47821703465E+02  0.42253006809E+03  0.42528518661E+03  0.00000000000E+00 0. -1.
         22    1    3    3    0    0  0.90365317041E+02  0.53792495573E+02 -0.22026547458E+02  0.10744622793E+03  0.00000000000E+00 0.  1.
         22    1    3    3    0    0 -0.60126358509E+01 -0.35502313108E+02  0.26170932941E+02  0.44513860279E+02  0.00000000000E+00 0.  1.
</event>
<event>
 7    1  0.6386201E-006  0.8828910E+02  0.7818608E-02  0.1414260E+00
          2   -1    0    0  502    0  0.00000000000E+00  0.00000000000E+00  0.82163463438E+03  0.82163463438E+03  0.00000000000E+00 0. -1.
          1   -1    0    0  501    0 -0.00000000000E+00 -0.00000000000E+00 -0.77442173508E+03  0.77442173508E+03  0.00000000000E+00 0. -1.
         25    2    1    2    0    0  0.64468834493E+02 -0.71832546114E+02 -0.10949944713E+03  0.19217397441E+03  0.12499824885E+03 0.  0.
          2    1    1    2  501    0 -0.34099123838E+02 -0.11043168365E+02 -0.62057018228E+03  0.62160441838E+03  0.00000000000E+00 0. -1.
          1    1    1    2  502    0 -0.30369710655E+02  0.82875714479E+02  0.77728252870E+03  0.78227797668E+03  0.00000000000E+00 0. -1.
         22    1    3    3    0    0  0.49208601850E+02  0.13095195056E+01 -0.10658119030E+03  0.11739996364E+03  0.00000000000E+00 0.  1.
         22    1    3    3    0    0  0.15260232643E+02 -0.73142065619E+02 -0.29182568320E+01  0.74774010768E+02  0.00000000000E+00 0.  1.
</event>
<event>
 7    1  0.6386201E-006  0.6774063E+02  0.7818608E-02  0.1385769E+00
          2   -1    0    0  502    0  0.00000000000E+00  0.00000000000E+00  0.33406702229E+04  0.33406702229E+04  0.00000000000E+00 0. -1.
          1   -1    0    0  501    0 -0.00000000000E+00 -0.00000000000E+00 -0.48143776425E+02  0.48143776425E+02  0.00000000000E+00 0. -1.
         25    2    1    2    0    0 -0.59139498319E+02  0.16945451609E+01  0.52603257386E+03  0.54390912864E+03  0.12500607868E+03 0.  0.
          2    1    1    2  501    0  0.39913722739E+02 -0.56985155819E+02 -0.77860842204E+01  0.70007402138E+02  0.00000000000E+00 0. -1.
          1    1    1    2  502    0  0.19225775580E+02  0.55290610658E+02  0.27742799569E+04  0.27748974686E+04  0.00000000000E+00 0. -1.
         22    1    3    3    0    0 -0.82758283132E+02  0.39048005502E+02  0.30200763953E+03  0.31556662450E+03  0.00000000000E+00 0. -1.
         22    1    3    3    0    0  0.23618784814E+02 -0.37353460341E+02  0.22402493433E+03  0.22834250414E+03  0.00000000000E+00 0. -1.
</event>
<event>
 7    1  0.6386201E-006  0.6016487E+02  0.7818608E-02  0.1426975E+00
          2   -1    0    0  502    0  0.00000000000E+00  0.00000000000E+00  0.75209565128E+03  0.75209565128E+03  0.00000000000E+00 0. -1.
          1   -1    0    0  501    0 -0.00000000000E+00 -0.00000000000E+00 -0.32693017943E+03  0.32693017943E+03  0.00000000000E+00 0. -1.
         25    2    1    2    0    0  0.73256888160E+02  0.75643097748E+02 -0.27577201369E+02  0.16575230723E+03  0.12499950167E+03 0.  0.
          2    1    1    2  501    0 -0.42436218070E+02 -0.39235042959E+02 -0.22578835534E+03  0.23306780689E+03  0.00000000000E+00 0. -1.
          1    1    1    2  502    0 -0.30820670090E+02 -0.36408054789E+02  0.67853102856E+03  0.68020571659E+03  0.00000000000E+00 0. -1.
         22    1    3    3    0    0  0.16831096894E+02 -0.35155967428E+02 -0.38249250745E+01  0.39164498213E+02  0.00000000000E+00 0. -1.
         22    1    3    3    0    0  0.56425791266E+02  0.11079906518E+03 -0.23752276295E+02  0.12658780902E+03  0.00000000000E+00 0. -1.
</event>
<event>
 7    1  0.6386201E-006  0.5507737E+02  0.7818608E-02  0.1536005E+00
          2   -1    0    0  502    0  0.00000000000E+00  0.00000000000E+00  0.50954405698E+03  0.50954405698E+03  0.00000000000E+00 0. -1.
          1   -1    0    0  501    0 -0.00000000000E+00 -0.00000000000E+00 -0.13048012677E+04  0.13048012677E+04  0.00000000000E+00 0. -1.
         25    2    1    2    0    0 -0.38408858670E+02 -0.10448895739E+02  0.17723300588E+03  0.22050344147E+03  0.12500323789E+03 0.  0.
          2    1    1    2  501    0 -0.82290346196E+01 -0.22689470457E+02 -0.12804173864E+04  0.12806448424E+04  0.00000000000E+00 0. -1.
          1    1    1    2  502    0  0.46637893289E+02  0.33138366196E+02  0.30792716983E+03  0.31319704073E+03  0.00000000000E+00 0. -1.
         22    1    3    3    0    0  0.32426262069E+02 -0.31338903942E+02  0.11637762842E+03  0.12480922149E+03  0.00000000000E+00 0. -1.
         22    1    3    3    0    0 -0.70835120739E+02  0.20890008203E+02  0.60855377455E+02  0.95694219982E+02  0.00000000000E+00 0. -1.
</event>
<event>
 7    1  0.6386201E-006  0.9868524E+02  0.7818608E-02  0.1450262E+00
          2   -1    0    0  502    0  0.00000000000E+00  0.00000000000E+00  0.45737497137E+03  0.45737497137E+03  0.00000000000E+00 0. -1.
          1   -1    0    0  501    0 -0.00000000000E+00 -0.00000000000E+00 -0.49973456499E+03  0.49973456499E+03  0.00000000000E+00 0. -1.
         25    2    1    2    0    0  0.91337218449E+02 -0.11554691011E+02  0.19857417546E+03  0.25204882452E+03  0.12498363264E+03 0.  0.
          2    1    1    2  501    0 -0.98181967198E+02 -0.11895268016E+02 -0.46716270429E+03  0.47751668909E+03  0.00000000000E+00 0. -1.
          1    1    1    2  502    0  0.68447487485E+01  0.23449959027E+02  0.22622893521E+03  0.22754402275E+03  0.00000000000E+00 0. -1.
         22    1    3    3    0    0  0.48248076153E+02 -0.33533980484E+02  0.19487062214E+03  0.20353614931E+03  0.00000000000E+00 0.  1.
         22    1    3    3    0    0  0.43089142296E+02  0.21979289473E+02  0.37035533118E+01  0.48512675217E+02  0.00000000000E+00 0.  1.
</event>
<event>
 7    1  0.6386201E-006  0.9161376E+02  0.7818608E-02  0.1395259E+00
          2   -1    0    0  502    0  0.00000000000E+00  0.00000000000E+00  0.10882010700E+04  0.10882010700E+04  0.00000000000E+00 0. -1.
          1   -1    0    0  501    0 -0.00000000000E+00 -0.00000000000E+00 -0.13274290785E+04  0.13274290785E+04  0.00000000000E+00 0. -1.
         25    2    1    2    0    0 -0.45921734476E+02 -0.33902254875E+02  0.29781457044E+03  0.32798867329E+03  0.12499953143E+03 0.  0.
          2    1    1    2  501    0  0.85991240993E+02  0.32142799437E+02 -0.13102161311E+04  0.13134283244E+04  0.00000000000E+00 0. -1.
          1    1    1    2  502    0 -0.40069506517E+02  0.17594554376E+01  0.77317355219E+03  0.77421315078E+03  0.00000000000E+00 0. -1.
         22    1    3    3    0    0 -0.19358794501E+02 -0.13027866470E+02  0.29292519341E+03  0.29385312175E+03  0.00000000000E+00 0. -1.
         22    1    3    3    0    0 -0.26562939975E+02 -0.20874388405E+02  0.48893770338E+01  0.34135551544E+02  0.00000000000E+00 0. -1.
</event>
<event>
 7    1  0.6386201E-006  0.5235596E+02  0.7818608E-02  0.1469116E+00
          2   -1    0    0  502    0  0.00000000000E+00  0.00000000000E+00  0.25340474060E+03  0.25340474060E+03  0.00000000000E+00 0. -1.
          1   -1    0    0  501    0 -0.00000000000E+00 -0.00000000000E+00 -0.51606271490E+03  0.51606271490E+03  0.00000000000E+00 0. -1.
         25    2    1    2    0    0 -0.69024771380E+02  0.80834839304E+01 -0.16493877837E+02  0.14396790175E+03  0.12499978781E+03 0.  0.
          2    1    1    2  501    0  0.45976549780E+02  0.24790785503E+02 -0.43211657243E+03  0.43526217196E+03  0.00000000000E+00 0. -1.
          1    1    1    2  502    0  0.23048221600E+02 -0.32874269433E+02  0.18595247596E+03  0.19023738178E+03  0.00000000000E+00 0. -1.
         22    1    3    3    0    0  0.53005619667E+01  0.24472020006E+02  0.41370972924E+02  0.48358382117E+02  0.00000000000E+00 0. -1.
         22    1    3    3    0    0 -0.74325333347E+02 -0.16388536075E+02 -0.57864850760E+02  0.95609519638E+02  0.00000000000E+00 0. -1.
</event>
<event>
 7    1  0.6386201E-006  0.7842638E+02  0.7818608E-02  0.1374741E+00
          2   -1    0    0  502    0  0.00000000000E+00  0.00000000000E+00  0.35663131293E+02  0.35663131293E+02  0.00000000000E+00 0. -1.
          1   -1    0    0  501    0 -0.00000000000E+00 -0.00000000000E+00 -0.22574371696E+04  0.22574371696E+04  0.00000000000E+00 0. -1.
         25    2    1    2    0    0 -0.54109907815E+02  0.29928100286E+00 -0.41506945692E+03  0.43684590419E+03  0.12499487285E+03 0.  0.
          2    1    1    2  501    0 -0.11103748731E+02 -0.54192493087E+02 -0.17575297332E+04  0.17584000918E+04  0.00000000000E+00 0. -1.
          1    1    1    2  502    0  0.65213656546E+02  0.53893212084E+02 -0.49174848199E+02  0.97854304986E+02  0.00000000000E+00 0. -1.
         22    1    3    3    0    0 -0.14984026530E+02 -0.61277959068E+02 -0.18178541295E+03  0.19241997215E+03  0.00000000000E+00 0. -1.
         22    1    3    3    0    0 -0.39125881285E+02  0.61577240071E+02 -0.23328404397E+03  0.24442593204E+03  0.00000000000E+00 0. -1.
</event>
<event>
 7    1  0.6386201E-006  0.1148500E+03  0.7818608E-02  0.1297162E+00
          2   -1    0    0  502    0  0.00000000000E+00  0.00000000000E+00  0.15421379344E+04  0.15421379344E+04  0.00000000000E+00 0. -1.
          1   -1    0    0  501    0 -0.00000000000E+00 -0.00000000000E+00 -0.53158062822E+03  0.53158062822E+03  0.00000000000E+00 0. -1.
         25    2    1    2    0    0 -0.10225148096E+03  0.54154757275E+02 -0.78339517669E+01  0.17051223022E+03  0.12499978704E+03 0.  0.
          2    1    1    2  501    0  0.49042230322E+02 -0.10604745262E+03 -0.43372635767E+03  0.44918788486E+03  0.00000000000E+00 0. -1.
          1    1    1    2  502    0  0.53209250640E+02  0.51892695350E+02  0.14521176156E+04  0.14540184475E+04  0.00000000000E+00 0. -1.
         22    1    3    3    0    0  0.86567519606E+01  0.24554578770E+02  0.38704703928E+02  0.46646766225E+02  0.00000000000E+00 0.  1.
         22    1    3    3    0    0 -0.11090823292E+03  0.29600178505E+02 -0.46538655695E+02  0.12386546400E+03  0.00000000000E+00 0.  1.
</event>
<event>
 7    1  0.6386201E-006  0.7469680E+02  0.7818608E-02  0.1476677E+00
          2   -1    0    0  502    0  0.00000000000E+00  0.00000000000E+00  0.95512738067E+02  0.95512738067E+02  0.00000000000E+00 0. -1.
          1   -1    0    0  501    0 -0.00000000000E+00 -0.00000000000E+00 -0.43171126770E+03  0.43171126770E+03  0.00000000000E+00 0. -1.
         25    2    1    2    0    0  0.19128574568E+02  0.55177458460E+02 -0.26566698281E+03  0.29935597363E+03  0.12499839561E+03 0.  0.
          2    1    1    2  501    0  0.26003376496E+02  0.58957240109E+01 -0.12918922227E+03  0.13191205518E+03  0.00000000000E+00 0. -1.
          1    1    1    2  502    0 -0.45131951064E+02 -0.61073182470E+02  0.58657675450E+02  0.95955976954E+02  0.00000000000E+00 0. -1.
         22    1    3    3    0    0  0.38311795167E+02  0.16700962093E+02 -0.25019750743E+03  0.25366416480E+03  0.00000000000E+00 0. -1.
         22    1    3    3    0    0 -0.19183220599E+02  0.38476496367E+02 -0.15469475384E+02  0.45691808827E+02  0.00000000000E+00 0. -1.
</event>
<event>
 7    1  0.6386201E-006  0.1762537E+03  0.7818608E-02  0.1312284E+00
          2   -1    0    0  502    0  0.00000000000E+00  0.00000000000E+00  0.11446571271E+04  0.11446571271E+04  0.00000000000E+00 0. -1.
          1   -1    0    0  501    0 -0.00000000000E+00 -0.00000000000E+00 -0.78911165378E+02  0.78911165378E+02  0.00000000000E+00 0. -1.
         25    2    1    2    0    0  0.89420189145E+02 -0.14335210133E+03  0.20903138898E+03  0.29641970984E+03  0.12499891047E+03 0.  0.
          2    1    1    2  501    0 -0.61596495440E+02  0.17504401837E+03  0.21481943680E+03  0.28386955992E+03  0.00000000000E+00 0. -1.
          1    1    1    2  502    0 -0.27823693705E+02 -0.31691917040E+02  0.64189513598E+03  0.64327902277E+03  0.00000000000E+00 0. -1.
         22    1    3    3    0    0 -0.16481154371E+02 -0.76757715676E+02  0.11789801322E+03  0.14164503834E+03  0.00000000000E+00 0. -1.
         22    1    3    3    0    0  0.10590134352E+03 -0.66594385656E+02  0.91133375758E+02  0.15477467150E+03  0.00000000000E+00 0. -1.
</event>
<event>
 7    1  0.6386201E-006  0.4373834E+03  0.7818608E-02  0.1113465E+00
          2   -1    0    0  502    0  0.00000000000E+00  0.00000000000E+00  0.86332047593E+03  0.86332047593E+03  0.00000000000E+00 0. -1.
          1   -1    0    0  501    0 -0.00000000000E+00 -0.00000000000E+00 -0.90483334012E+03  0.90483334012E+03  0.00000000000E+00 0. -1.
         25    2    1    2    0    0 -0.29211053858E+03 -0.20568664340E+03 -0.27368628447E+02  0.37947773214E+03  0.12497497888E+03 0.  0.
          2    1    1    2  501    0 -0.14136120085E+03  0.18800678288E+02 -0.61116737831E+03  0.62758427236E+03  0.00000000000E+00 0. -1.
          1    1    1    2  502    0  0.43347173943E+03  0.18688596511E+03  0.59702314257E+03  0.76109181154E+03  0.00000000000E+00 0. -1.
         22    1    3    3    0    0 -0.46855239543E+02 -0.71907474018E+02 -0.49768967331E+02  0.99212138378E+02  0.00000000000E+00 0.  1.
         22    1    3    3    0    0 -0.24525529904E+03 -0.13377916938E+03  0.22400338884E+02  0.28026559376E+03  0.00000000000E+00 0.  1.
</event>
<event>
 7    1  0.6386201E-006  0.4998087E+02  0.7818608E-02  0.1553870E+00
          2   -1    0    0  502    0  0.00000000000E+00  0.00000000000E+00  0.19101735602E+04  0.19101735602E+04  0.00000000000E+00 0. -1.
          1   -1    0    0  501    0 -0.00000000000E+00 -0.00000000000E+00 -0.57912457508E+02  0.57912457508E+02  0.00000000000E+00 0. -1.
         25    2    1    2    0    0  0.37136676421E+02  0.18201055451E+02  0.30766028252E+03  0.33465679212E+03  0.12501963013E+03 0.  0.
          2    1    1    2  501    0  0.13216521113E+02 -0.19666696684E+02 -0.40825098834E+02  0.47203221114E+02  0.00000000000E+00 0. -1.
          1    1    1    2  502    0 -0.50353197533E+02  0.14656412329E+01  0.15854259190E+04  0.15862260045E+04  0.00000000000E+00 0. -1.
         22    1    3    3    0    0  0.49030770825E+02  0.15186993610E+02  0.31579229643E+03  0.31993661208E+03  0.00000000000E+00 0.  1.
         22    1    3    3    0    0 -0.11894094404E+02  0.30140618406E+01 -0.81320139071E+01  0.14720180049E+02  0.00000000000E+00 0.  1.
</event>
<event>
 7    1  0.6386201E-006  0.9257390E+02  0.7818608E-02  0.1338481E+00
          2   -1    0    0  502    0  0.00000000000E+00  0.00000000000E+00  0.77611434417E+03  0.77611434417E+03  0.00000000000E+00 0. -1.
          1   -1    0    0  501    0 -0.00000000000E+00 -0.00000000000E+00 -0.10482158830E+04  0.10482158830E+04  0.00000000000E+00 0. -1.
         25    2    1    2    0    0 -0.14085520727E+03  0.38641620701E+01 -0.14757896354E+03  0.23928978413E+03  0.12499971658E+03 0.  0.
          2    1    1    2  501    0  0.55680636498E+02  0.30861177006E+02 -0.85069100766E+03  0.85306971347E+03  0.00000000000E+00 0. -1.
          1    1    1    2  502    0  0.85174570769E+02 -0.34725339076E+02  0.72616843240E+03  0.73197072954E+03  0.00000000000E+00 0. -1.
         22    1    3    3    0    0  0.68934873413E+01 -0.76852952995E+01 -0.72362727266E+02  0.73095473382E+02  0.00000000000E+00 0. -1.
         22    1    3    3    0    0 -0.14774869461E+03  0.11549457370E+02 -0.75216236276E+02  0.16619431074E+03  0.00000000000E+00 0. -1.
</event>
<event>
 7    1  0.6386201E-006  0.5089845E+02  0.7818608E-02  0.1494109E+00
          2   -1    0    0  502    0  0.00000000000E+00  0.00000000000E+00  0.86178920595E+03  0.86178920595E+03  0.00000000000E+00 0. -1.
          1   -1    0    0  501    0 -0.00000000000E+00 -0.00000000000E+00 -0.67545908885E+03  0.67545908885E+03  0.00000000000E+00 0. -1.
         25    2    1    2    0    0  0.26307519537E+02  0.33134177424E+02 -0.51318702317E+02  0.14159407856E+03  0.12500125831E+03 0.  0.
          2    1    1    2  501    0  0.24081563641E+02 -0.24883823255E+02 -0.57768560594E+03  0.57872254637E+03  0.00000000000E+00 0. -1.
          1    1    1    2  502    0 -0.50389083178E+02 -0.82503541682E+01  0.81533442536E+03  0.81693166986E+03  0.00000000000E+00 0. -1.
         22    1    3    3    0    0 -0.13169194466E+02 -0.39939614854E+02 -0.39510779438E+02  0.57703571894E+02  0.00000000000E+00 0. -1.
         22    1    3    3    0    0  0.39476714003E+02  0.73073792278E+02 -0.11807922879E+02  0.83890506668E+02  0.00000000000E+00 0. -1.
</event>
<event>
 7    1  0.6386201E-006  0.2041042E+03  0.7818608E-02  0.1199510E+00
          2   -1    0    0  502    0  0.00000000000E+00  0.00000000000E+00  0.28195720532E+04  0.28195720532E+04  0.00000000000E+00 0. -1.
          1   -1    0    0  501    0 -0.00000000000E+00 -0.00000000000E+00 -0.20306597142E+04  0.20306597142E+04  0.00000000000E+00 0. -1.
         25    2    1    2    0    0 -0.18776169841E+02  0.22583727958E+03 -0.25826635605E+03  0.36562494280E+03  0.12500026690E+03 0.  0.
          2    1    1    2  501    0  0.10387606644E+03 -0.40236871082E+02 -0.17131344335E+04  0.17167524080E+04  0.00000000000E+00 0. -1.
          1    1    1    2  502    0 -0.85099896596E+02 -0.18560040850E+03  0.27603131285E+04  0.27678544166E+04  0.00000000000E+00 0. -1.
         22    1    3    3    0    0 -0.17544361577E+02 -0.21957882584E+01 -0.62919851045E+02  0.65356971815E+02  0.00000000000E+00 0.  1.
         22    1    3    3    0    0 -0.12318082643E+01  0.22803306784E+03 -0.19534650501E+03  0.30026797098E+03  0.00000000000E+00 0.  1.
</event>
<event>
 7    1  0.6386201E-006  0.5345319E+02  0.7818608E-02  0.1435999E+00
          2   -1    0    0  502    0  0.00000000000E+00  0.00000000000E+00  0.13447565133E+04  0.13447565133E+04  0.00000000000E+00 0. -1.
          1   -1    0    0  501    0 -0.00000000000E+00 -0.00000000000E+00 -0.26910476287E+04  0.26910476287E+04  0.00000000000E+00 0. -1.
         25    2    1    2    0    0 -0.14920349182E+01 -0.88313196687E+02  0.49101279686E+03  0.51431468300E+03  0.12499831833E+03 0.  0.
          2    1    1    2  501    0 -0.24689304370E+02  0.43649660152E+02 -0.26783660225E+04  0.26788354569E+04  0.00000000000E+00 0. -1.
          1    1    1    2  502    0  0.26181339288E+02  0.44663536535E+02  0.84106211028E+03  0.84265400217E+03  0.00000000000E+00 0. -1.
         22    1    3    3    0    0 -0.10908720661E+02 -0.62846690211E+02  0.48125348968E+03  0.48546228277E+03  0.00000000000E+00 0.  1.
         22    1    3    3    0    0  0.94166857429E+01 -0.25466506476E+02  0.97593071824E+01  0.28852400232E+02  0.00000000000E+00 0.  1.
</event>
<event>
 7    1  0.6386201E-006  0.1439110E+03  0.7818608E-02  0.1231462E+00
          2   -1    0    0  502    0  0.00000000000E+00  0.00000000000E+00  0.54168369665E+03  0.54168369665E+03  0.00000000000E+00 0. -1.
          1   -1    0    0  501    0 -0.00000000000E+00 -0.00000000000E+00 -0.15806440527E+04  0.15806440527E+04  0.00000000000E+00 0. -1.
         25    2    1    2    0    0  0.31039957530E+02 -0.15986720519E+03 -0.32577263285E+02  0.20786353297E+03  0.12499987198E+03 0.  0.
          2    1    1    2  501    0  0.85984294990E+02  0.72810520452E+02 -0.14464626325E+04  0.14508441743E+04  0.00000000000E+00 0. -1.
          1    1    1    2  502    0 -0.11702425252E+03  0.87056684741E+02  0.44007953979E+03  0.46362004203E+03  0.00000000000E+00 0. -1.
         22    1    3    3    0    0  0.63412739858E+02 -0.11581862296E+03 -0.61899216276E+02  0.14583086771E+03  0.00000000000E+00 0. -1.
         22    1    3    3    0    0 -0.32372782328E+02 -0.44048582231E+02  0.29321952991E+02  0.62032665261E+02  0.00000000000E+00 0. -1.
</event>
<event>
 7    1  0.6386201E-006  0.2992334E+03  0.7818608E-02  0.1232089E+00
          2   -1    0    0  502    0  0.00000000000E+00  0.00000000000E+00  0.36923426471E+03  0.36923426471E+03  0.00000000000E+00 0. -1.
          1   -1    0    0  501    0 -0.00000000000E+00 -0.00000000000E+00 -0.20953839063E+04  0.20953839063E+04  0.00000000000E+00 0. -1.
         25    2    1    2    0    0 -0.97883398647E+02  0.23394193954E+03 -0.19591339101E+03  0.34397287573E+03  0.12500116661E+03 0.  0.
          2    1    1    2  501    0  0.11369886546E+03 -0.28540538279E+03 -0.18099290951E+04  0.18358177997E+04  0.00000000000E+00 0. -1.
          1    1    1    2  502    0 -0.15815466816E+02  0.51463443250E+02  0.27969284449E+03  0.28482749558E+03  0.00000000000E+00 0. -1.
         22    1    3    3    0    0 -0.47398817274E+02  0.13724356450E+03 -0.34641128100E+02  0.14927307738E+03  0.00000000000E+00 0.  1.
         22    1    3    3    0    0 -0.50484581373E+02  0.96698375039E+02 -0.16127226291E+03  0.19469979835E+03  0.00000000000E+00 0.  1.
</event>
<event>
 7    1  0.6386201E-006  0.8303346E+02  0.7818608E-02  0.1348446E+00
          2   -1    0    0  502    0  0.00000000000E+00  0.00000000000E+00  0.13660244014E+04  0.13660244014E+04  0.00000000000E+00 0. -1.
          1   -1    0    0  501    0 -0.00000000000E+00 -0.00000000000E+00 -0.37613367461E+03  0.37613367461E+03  0.00000000000E+00 0. -1.
         25    2    1    2    0    0  0.63897774272E+02 -0.79511284575E+02 -0.28079995426E+03  0.32384932636E+03  0.12499920776E+03 0.  0.
          2    1    1    2  501    0 -0.65039875251E+02 -0.35327648126E+01 -0.57884977647E+02  0.87139752335E+02  0.00000000000E+00 0. -1.
          1    1    1    2  502    0  0.11421009795E+01  0.83044049387E+02  0.13285756587E+04  0.13311689973E+04  0.00000000000E+00 0. -1.
         22    1    3    3    0    0  0.35018563452E+02 -0.95930424788E+02 -0.11100269942E+03  0.15083283948E+03  0.00000000000E+00 0.  1.
         22    1    3    3    0    0  0.28879210820E+02  0.16419140213E+02 -0.16979725484E+03  0.17301648689E+03  0.00000000000E+00 0.  1.
</event>
<event>
 7    1  0.6386201E-006  0.9430757E+02  0.7818608E-02  0.1392878E+00
          2   -1    0    0  502    0  0.00000000000E+00  0.00000000000E+00  0.26705854213E+04  0.26705854213E+04  0.00000000000E+00 0. -1.
          1   -1    0    0  501    0 -0.00000000000E+00 -0.00000000000E+00 -0.54156389893E+02  0.54156389893E+02  0.00000000000E+00 0. -1.
         25    2    1    2    0    0 -0.27205825647E+02  0.54235023248E+02  0.35140900557E+03  0.37788245400E+03  0.12500106061E+03 0.  0.
          2    1    1    2  501    0  0.38292267935E+02 -0.92366648759E+02  0.20601742035E+02  0.10208980048E+03  0.00000000000E+00 0. -1.
          1    1    1    2  502    0 -0.11086442288E+02  0.38131625511E+02  0.22444182838E+04  0.22447695567E+04  0.00000000000E+00 0. -1.
         22    1    3    3    0    0  0.44156781216E+02  0.43210750446E+01  0.66348354674E+02  0.79816020853E+02  0.00000000000E+00 0. -1.
         22    1    3    3    0    0 -0.71362606862E+02  0.49913948204E+02  0.28506065089E+03  0.29806643315E+03  0.00000000000E+00 0. -1.
</event>
<event>
 7    1  0.6386201E-006  0.3007097E+02  0.7818608E-02  0.1655753E+00
          2   -1    0    0  502    0  0.00000000000E+00  0.00000000000E+00  0.21670521459E+02  0.21670521459E+02  0.00000000000E+00 0. -1.
          1   -1    0    0  501    0 -0.00000000000E+00 -0.00000000000E+00 -0.16120252040E+04  0.16120252040E+04  0.00000000000E+00 0. -1.
         25    2    1    2    0    0  0.21882915817E+02 -0.46138399691E+02 -0.84643324707E+03  0.85713585625E+03  0.12500008158E+03 0.  0.
          2    1    1    2  501    0 -0.10369778301E+02  0.18722983619E+02 -0.74641400393E+03  0.74672079634E+03  0.00000000000E+00 0. -1.
          1    1    1    2  502    0 -0.11513137516E+02  0.27415416072E+02  0.24925684349E+01  0.29839072895E+02  0.00000000000E+00 0. -1.
         22    1    3    3    0    0 -0.39618508474E+02  0.20110262376E+02 -0.25729343710E+03  0.26110143937E+03  0.00000000000E+00 0.  1.
         22    1    3    3    0    0  0.61501424291E+02 -0.66248662067E+02 -0.58913980996E+03  0.59603441687E+03  0.00000000000E+00 0.  1.
</event>
<event>
 7    1  0.6386201E-006  0.7799225E+02  0.7818608E-02  0.1338832E+00
          2   -1    0    0  502    0  0.00000000000E+00  0.00000000000E+00  0.21084035088E+04  0.21084035088E+04  0.00000000000E+00 0. -1.
          1   -1    0    0  501    0 -0.00000000000E+00 -0.00000000000E+00 -0.12428061145E+03  0.12428061145E+03  0.00000000000E+00 0. -1.
         25    2    1    2    0    0  0.33673219768E+02  0.19154514948E+02  0.67668102308E+03  0.68921905020E+03  0.12499964396E+03 0.  0.
          2    1    1    2  501    0  0.39410409441E+02 -0.67302386513E+02 -0.10362010665E+03  0.12969162696E+03  0.00000000000E+00 0. -1.
          1    1    1    2  502    0 -0.73083629208E+02  0.48147871565E+02  0.14110619810E+04  0.14137734431E+04  0.00000000000E+00 0. -1.
         22    1    3    3    0    0  0.65573309030E+01 -0.31363115291E+02  0.46704277619E+02  0.56638618780E+02  0.00000000000E+00 0. -1.
         22    1    3    3    0    0  0.27115888865E+02  0.50517630240E+02  0.62997674546E+03  0.63258043142E+03  0.00000000000E+00 0. -1.
</event>
<event>
 7    1  0.6386201E-006  0.5119834E+02  0.7818608E-02  0.1460803E+00
          2   -1    0    0  502    0  0.00000000000E+00  0.00000000000E+00  0.57845599592E+03  0.57845599592E+03  0.00000000000E+00 0. -1.
          1   -1    0    0  501    0 -0.00000000000E+00 -0.00000000000E+00 -0.20781711003E+03  0.20781711003E+03  0.00000000000E+00 0. -1.
         25    2    1    2    0    0 -0.31497425896E+02 -0.44751235365E+01  0.55614114472E+02  0.14046402019E+03  0.12500038668E+03 0.  0.
          2    1    1    2  501    0  0.23133703021E+02  0.47259528640E+02 -0.16018410309E+03  0.16860479870E+03  0.00000000000E+00 0. -1.
          1    1    1    2  502    0  0.83637228746E+01 -0.42784405104E+02  0.47520887450E+03  0.47720428706E+03  0.00000000000E+00 0. -1.
         22    1    3    3    0    0 -0.76598802417E+02  0.16841586344E+02  0.26947888027E+02  0.82928910709E+02  0.00000000000E+00 0.  1.
         22    1    3    3    0    0  0.45101376521E+02 -0.21316709880E+02  0.28666226445E+02  0.57535109479E+02  0.00000000000E+00 0.  1.
</event>
<event>
 7    1  0.6386201E-006  0.7231380E+02  0.7818608E-02  0.1442843E+00
          2   -1    0    0  502    0  0.00000000000E+00  0.00000000000E+00  0.19659094821E+03  0.19659094821E+03  0.00000000000E+00 0. -1.
          1   -1    0    0  501    0 -0.00000000000E+00 -0.00000000000E+00 -0.42867691680E+03  0.42867691680E+03  0.00000000000E+00 0. -1.
         25    2    1    2    0    0 -0.39822304939E+02 -0.29867542056E+02 -0.20903950227E+03  0.24859802883E+03  0.12500232154E+03 0.  0.
          2    1    1    2  501    0  0.74669559698E+02  0.34973555088E+02 -0.18943125151E+03  0.20659838274E+03  0.00000000000E+00 0. -1.
          1    1    1    2  502    0 -0.34847254760E+02 -0.51060130319E+01  0.16638478519E+03  0.17007145344E+03  0.00000000000E+00 0. -1.
         22    1    3    3    0    0 -0.23898968530E+02  0.42537441181E+02 -0.13616478838E+03  0.14464247023E+03  0.00000000000E+00 0. -1.
         22    1    3    3    0    0 -0.15923336409E+02 -0.72404983237E+02 -0.72874713893E+02  0.10395555861E+03  0.00000000000E+00 0. -1.
</event>
<event>
 7    1  0.6386201E-006  0.7779482E+02  0.7818608E-02  0.1452607E+00
          2   -1    0    0  502    0  0.00000000000E+00  0.00000000000E+00  0.12212858202E+03  0.12212858202E+03  0.00000000000E+00 0. -1.
          1   -1    0    0  501    0 -0.00000000000E+00 -0.00000000000E+00 -0.11109707285E+04  0.11109707285E+04  0.00000000000E+00 0. -1.
         25    2    1    2    0    0 -0.42997108879E+02  0.91829929183E+02 -0.11047552608E+03  0.19521992928E+03  0.12499796662E+03 0.  0.
          2    1    1    2  501    0  0.46278012754E+02 -0.61548668344E+02 -0.95360523797E+03  0.95670938269E+03  0.00000000000E+00 0. -1.
          1    1    1    2  502    0 -0.32809038752E+01 -0.30281260839E+02  0.75238617574E+02  0.81169998538E+02  0.00000000000E+00 0. -1.
         22    1    3    3    0    0 -0.13000288751E+02 -0.31003442061E+02 -0.31939162195E+02  0.46371661702E+02  0.00000000000E+00 0.  1.
         22    1    3    3    0    0 -0.29996820128E+02  0.12283337124E+03 -0.78536363881E+02  0.14884826758E+03  0.00000000000E+00 0.  1.
</event>
<event>
 7    1  0.6386201E-006  0.7351893E+02  0.7818608E-02  0.1378493E+00
          2   -1    0    0  502    0  0.00000000000E+00  0.00000000000E+00  0.90141033967E+03  0.90141033967E+03  0.00000000000E+00 0. -1.
          1   -1    0    0  501    0 -0.00000000000E+00 -0.00000000000E+00 -0.17049426214E+03  0.17049426214E+03  0.00000000000E+00 0. -1.
         25    2    1    2    0    0 -0.35555121310E+02  0.11253883758E+03 -0.21635372530E+02  0.17327348136E+03  0.12500581339E+03 0.  0.
          2    1    1    2  501    0  0.41080675505E+02 -0.39836285900E+02 -0.59943016288E+02  0.82871688628E+02  0.00000000000E+00 0. -1.
          1    1    1    2  502    0 -0.55255541957E+01 -0.72702551683E+02  0.81249446635E+03  0.81575943183E+03  0.00000000000E+00 0. -1.
         22    1    3    3    0    0 -0.49575857104E+02  0.11518117672E+03 -0.55043572069E+02  0.13694620807E+03  0.00000000000E+00 0. -1.
         22    1    3    3    0    0  0.14020735795E+02 -0.26423391349E+01  0.33408199539E+02  0.36327273291E+02  0.00000000000E+00 0. -1.
</event>
<event>
 7    1  0.6386201E-006  0.1690566E+03  0.7818608E-02  0.1360045E+00
          2   -1    0    0  502    0  0.00000000000E+00  0.00000000000E+00  0.92585138001E+02  0.92585138001E+02  0.00000000000E+00 0. -1.
          1   -1    0    0  501    0 -0.00000000000E+00 -0.00000000000E+00 -0.11752294656E+04  0.11752294656E+04  0.00000000000E+00 0. -1.
         25    2    1    2    0    0 -0.84024327174E+01  0.19290116560E+03 -0.26759071333E+03  0.35286175272E+03  0.12500066444E+03 0.  0.
          2    1    1    2  501    0  0.12311095941E+02 -0.16416984591E+03 -0.85212829318E+03  0.86788589655E+03  0.00000000000E+00 0. -1.
          1    1    1    2  502    0 -0.39086632239E+01 -0.28731319690E+02  0.37074678874E+02  0.47066954362E+02  0.00000000000E+00 0. -1.
         22    1    3    3    0    0  0.31979039291E+02  0.29391342795E+01 -0.63366662199E+02  0.71039646272E+02  0.00000000000E+00 0.  1.
         22    1    3    3    0    0 -0.40381472008E+02  0.18996203132E+03 -0.20422405113E+03  0.28182210645E+03  0.00000000000E+00 0.  1.
</event>
<event>
 7    1  0.6386201E-006  0.9170245E+02  0.7818608E-02  0.1359900E+00
          2   -1    0    0  502    0  0.00000000000E+00  0.00000000000E+00  0.46360036814E+03  0.46360036814E+03  0.00000000000E+00 0. -1.
          1   -1    0    0  501    0 -0.00000000000E+00 -0.00000000000E+00 -0.21168155258E+04  0.21168155258E+04  0.00000000000E+00 0. -1.
         25    2    1    2    0    0  0.76031059665E+02  0.93796802089E+02 -0.87259981286E+02  0.19447123101E+03  0.12500477286E+03 0.  0.
          2    1    1    2  501    0 -0.22778035905E+02 -0.88454934181E+02 -0.19731422681E+04  0.19752553062E+04  0.00000000000E+00 0. -1.
          1    1    1    2  502    0 -0.53253023760E+02 -0.53418679084E+01  0.40718709173E+03  0.41068935677E+03  0.00000000000E+00 0. -1.
         22    1    3    3    0    0 -0.10126573066E+02  0.86674643184E+02 -0.46773584517E+02  0.99009138274E+02  0.00000000000E+00 0.  1.
         22    1    3    3    0    0  0.86157632732E+02  0.71221589051E+01 -0.40486396770E+02  0.95462092732E+02  0.00000000000E+00 0.  1.
</event>
<event>
 7    1  0.6386201E-006  0.2377894E+03  0.7818608E-02  0.1164630E+00
          2   -1    0    0  502    0  0.00000000000E+00  0.00000000000E+00  0.92174218288E+03  0.92174218288E+03  0.00000000000E+00 0. -1.
          1   -1    0    0  501    0 -0.00000000000E+00 -0.00000000000E+00 -0.96256780193E+03  0.96256780193E+03  0.00000000000E+00 0. -1.
         25    2    1    2    0    0  0.12684126081E+03  0.37833123406E+01 -0.22828170423E+02  0.17958061131E+03  0.12500020678E+03 0.  0.
          2    1    1    2  501    0 -0.26588568199E+03 -0.29063159291E+02 -0.83438149771E+03  0.87620337071E+03  0.00000000000E+00 0. -1.
          1    1    1    2  502    0  0.13904442118E+03  0.25279846950E+02  0.81638404908E+03  0.82852600280E+03  0.00000000000E+00 0. -1.
         22    1    3    3    0    0  0.13528864204E+03 -0.12286143382E+02 -0.51803539642E+02  0.14538766352E+03  0.00000000000E+00 0.  1.
         22    1    3    3    0    0 -0.84473812302E+01  0.16069455723E+02  0.28975369219E+02  0.34192947785E+02  0.00000000000E+00 0.  1.
</event>
<event>
 7    1  0.6386201E-006  0.2858433E+02  0.7818608E-02  0.1644955E+00
          2   -1    0    0  502    0  0.00000000000E+00  0.00000000000E+00  0.85211430157E+02  0.85211430157E+02  0.00000000000E+00 0. -1.
          1   -1    0    0  501    0 -0.00000000000E+00 -0.00000000000E+00 -0.98272646468E+03  0.98272646468E+03  0.00000000000E+00 0. -1.
         25    2    1    2    0    0  0.20715308806E+02  0.86662121110E+01 -0.36992565225E+02  0.13227222138E+03  0.12499305347E+03 0.  0.
          2    1    1    2  501    0  0.49399945387E+01 -0.23415428234E+02 -0.89208151515E+03  0.89240244033E+03  0.00000000000E+00 0. -1.
          1    1    1    2  502    0 -0.25655303345E+02  0.14749216123E+02  0.31559045851E+02  0.43263233131E+02  0.00000000000E+00 0. -1.
         22    1    3    3    0    0 -0.40208302956E+02  0.65710461853E+01  0.22964647572E+02  0.46768165591E+02  0.00000000000E+00 0. -1.
         22    1    3    3    0    0  0.60923611762E+02  0.20951659257E+01 -0.59957212797E+02  0.85504055792E+02  0.00000000000E+00 0. -1.
</event>
<event>
 7    1  0.6386201E-006  0.3602249E+03  0.7818608E-02  0.1173325E+00
          2   -1    0    0  502    0  0.00000000000E+00  0.00000000000E+00  0.53295460071E+03  0.53295460071E+03  0.00000000000E+00 0. -1.
          1   -1    0    0  501    0 -0.00000000000E+00 -0.00000000000E+00 -0.83267868408E+03  0.83267868408E+03  0.00000000000E+00 0. -1.
         25    2    1    2    0    0 -0.15194063548E+03  0.28692804296E+03  0.16351933992E+02  0.34829018269E+03  0.12500002827E+03 0.  0.
          2    1    1    2  501    0  0.31010196791E+02  0.78544450991E+02 -0.55689681113E+03  0.56326274627E+03  0.00000000000E+00 0. -1.
          1    1    1    2  502    0  0.12093043869E+03 -0.36547249396E+03  0.24082079376E+03  0.45408035583E+03  0.00000000000E+00 0. -1.
         22    1    3    3    0    0 -0.38974565826E+02  0.35009909849E+02  0.47159948864E+02  0.70489512311E+02  0.00000000000E+00 0. -1.
         22    1    3    3    0    0 -0.11296606965E+03  0.25191813311E+03 -0.30808014873E+02  0.27780067038E+03  0.00000000000E+00 0. -1.
</event>
<event>
 7    1  0.6386201E-006  0.6339917E+02  0.7818608E-02  0.1478693E+00
          2   -1    0    0  502    0  0.00000000000E+00  0.00000000000E+00  0.87880229700E+03  0.87880229700E+03  0.00000000000E+00 0. -1.
          1   -1    0    0  501    0 -0.00000000000E+00 -0.00000000000E+00 -0.36112897061E+02  0.36112897061E+02  0.00000000000E+00 0. -1.
         25    2    1    2    0    0  0.75320809967E+02 -0.44109211426E+02  0.21512533450E+03  0.26367394855E+03  0.12500477853E+03 0.  0.
          2    1    1    2  501    0 -0.47499722120E+02  0.30505265664E+02  0.58360070225E+02  0.81195397846E+02  0.00000000000E+00 0. -1.
          1    1    1    2  502    0 -0.27821087847E+02  0.13603945763E+02  0.56920399522E+03  0.57004584767E+03  0.00000000000E+00 0. -1.
         22    1    3    3    0    0  0.60813731463E+02 -0.82187264532E+02  0.10638384808E+03  0.14754856664E+03  0.00000000000E+00 0.  1.
         22    1    3    3    0    0  0.14507078504E+02  0.38078053105E+02  0.10874148642E+03  0.11612538191E+03  0.00000000000E+00 0.  1.
</event>
<event>
 7    1  0.6386201E-006  0.1085670E+03  0.7818608E-02  0.1306303E+00
          2   -1    0    0  502    0  0.00000000000E+00  0.00000000000E+00  0.80884805535E+03  0.80884805535E+03  0.00000000000E+00 0. -1.
          1   -1    0    0  501    0 -0.00000000000E+00 -0.00000000000E+00 -0.17389348569E+03  0.17389348569E+03  0.00000000000E+00 0. -1.
         25    2    1    2    0    0  0.12728595626E+03  0.37096044824E+02  0.61589329291E+02  0.19234503733E+03  0.12500214678E+03 0.  0.
          2    1    1    2  501    0 -0.10257659071E+03  0.30838669666E+02 -0.79594378748E+02  0.13344753889E+03  0.00000000000E+00 0. -1.
          1    1    1    2  502    0 -0.24709365553E+02 -0.67934714489E+02  0.65295961911E+03  0.65694896482E+03  0.00000000000E+00 0. -1.
         22    1    3    3    0    0  0.10656976889E+03 -0.21312919548E+02  0.70775524582E+02  0.12969399007E+03  0.00000000000E+00 0. -1.
         22    1    3    3    0    0  0.20716187370E+02  0.58408964372E+02 -0.91861952909E+01  0.62651047254E+02  0.00000000000E+00 0. -1.
</event>
<event>
 7    1  0.6386201E-006  0.8628722E+02  0.7818608E-02  0.1478222E+00
          2   -1    0    0  502    0  0.00000000000E+00  0.00000000000E+00  0.83254513519E+03  0.83254513519E+03  0.00000000000E+00 0. -1.
          1   -1    0    0  501    0 -0.00000000000E+00 -0.00000000000E+00 -0.40386690702E+03  0.40386690702E+03  0.00000000000E+00 0. -1.
         25    2    1    2    0    0  0.57058513059E+02  0.84098182412E+02  0.70036433462E+02  0.17566486512E+03  0.12499945851E+03 0.  0.
          2    1    1    2  501    0 -0.59754888568E+02 -0.61427559316E+02 -0.34563498206E+03  0.35610045292E+03  0.00000000000E+00 0. -1.
          1    1    1    2  502    0  0.26963755097E+01 -0.22670623096E+02  0.70427677676E+03  0.70464672417E+03  0.00000000000E+00 0. -1.
         22    1    3    3    0    0  0.15571956280E+02  0.82127922502E+02 -0.11286656761E+02  0.84349689376E+02  0.00000000000E+00 0. -1.
         22    1    3    3    0    0  0.41486556778E+02  0.19702599096E+01  0.81323090223E+02  0.91315175742E+02  0.00000000000E+00 0. -1.
</event>
<event>
 7    1  0.6386201E-006  0.4926211E+02  0.7818608E-02  0.1531247E+00
          2   -1    0    0  502    0  0.00000000000E+00  0.00000000000E+00  0.44744419459E+03  0.44744419459E+03  0.00000000000E+00 0. -1.
          1   -1    0    0  501    0 -0.00000000000E+00 -0.00000000000E+00 -0.55091157093E+03  0.55091157093E+03  0.00000000000E+00 0. -1.
         25    2    1    2    0    0  0.17903064039E+02 -0.37155419024E+02 -0.35701451398E+03  0.38050723849E+03  0.12500140195E+03 0.  0.
          2    1    1    2  501    0  0.24846572508E+02  0.12560544572E+02 -0.17967945871E+03  0.18182361598E+03  0.00000000000E+00 0. -1.
          1    1    1    2  502    0 -0.42749636547E+02  0.24594874452E+02  0.43322659634E+03  0.43602491105E+03  0.00000000000E+00 0. -1.
         22    1    3    3    0    0 -0.88064489651E+01 -0.38878342564E+02 -0.24232766944E+02  0.46650895571E+02  0.00000000000E+00 0. -1.
         22    1    3    3    0    0  0.26709513004E+02  0.17229235397E+01 -0.33278174703E+03  0.33385634292E+03  0.00000000000E+00 0. -1.
</event>
<event>
 7    1  0.6386201E-006  0.4231193E+02  0.7818608E-02  0.1532548E+00
          2   -1    0    0  502    0  0.00000000000E+00  0.00000000000E+00  0.55389360548E+03  0.55389360548E+03  0.00000000000E+00 0. -1.
          1   -1    0    0  501    0 -0.00000000000E+00 -0.00000000000E+00 -0.96910630819E+03  0.96910630819E+03  0.00000000000E+00 0. -1.
         25    2    1    2    0    0 -0.23974679031E+02  0.15160133735E+01  0.95657498258E+02  0.15922391393E+03  0.12499925704E+03 0.  0.
          2    1    1    2  501    0 -0.73292057528E+01 -0.31291115047E+02 -0.93595239650E+03  0.93650399874E+03  0.00000000000E+00 0. -1.
          1    1    1    2  502    0  0.31303884784E+02  0.29775101673E+02  0.42508219553E+03  0.42727200100E+03  0.00000000000E+00 0. -1.
         22    1    3    3    0    0  0.32888548361E+02  0.15493943436E+02 -0.10626708468E+02  0.37876718830E+02  0.00000000000E+00 0. -1.
         22    1    3    3    0    0 -0.56863227391E+02 -0.13977930062E+02  0.10628420673E+03  0.12134719510E+03  0.00000000000E+00 0. -1.
</event>
<event>
 7    1  0.6386201E-006  0.8355252E+02  0.7818608E-02  0.1399422E+00
          2   -1    0    0  502    0  0.00000000000E+00  0.00000000000E+00  0.30603975797E+03  0.30603975797E+03  0.00000000000E+00 0. -1.
          1   -1    0    0  501    0 -0.00000000000E+00 -0.00000000000E+00 -0.12334621507E+04  0.12334621507E+04  0.00000000000E+00 0. -1.
         25    2    1    2    0    0 -0.10366594584E+03  0.63142283404E+02 -0.21393365112E+03  0.27591006064E+03  0.12500071279E+03 0.  0.
          2    1    1    2  501    0  0.62494495296E+02 -0.52413811732E+02 -0.98519953870E+03  0.98857012935E+03  0.00000000000E+00 0. -1.
          1    1    1    2  502    0  0.41171450549E+02 -0.10728471673E+02  0.27171079713E+03  0.27502171864E+03  0.00000000000E+00 0. -1.
         22    1    3    3    0    0 -0.45070150028E+02 -0.12160409293E+02 -0.15921769697E+03  0.16592006812E+03  0.00000000000E+00 0. -1.
         22    1    3    3    0    0 -0.58595795816E+02  0.75302692698E+02 -0.54715954154E+02  0.10998999252E+03  0.00000000000E+00 0. -1.
</event>
<event>
 7    1  0.6386201E-006  0.5837386E+02  0.7818608E-02  0.1474640E+00
          2   -1    0    0  502    0  0.00000000000E+00  0.00000000000E+00  0.14803795065E+04  0.14803795065E+04  0.00000000000E+00 0. -1.
          1   -1    0    0  501    0 -0.00000000000E+00 -0.00000000000E+00 -0.34962090804E+03  0.34962090804E+03  0.00000000000E+00 0. -1.
         25    2    1    2    0    0  0.25700738503E+02  0.66865690976E+02  0.31848547094E+03  0.34956032111E+03  0.12501149671E+03 0.  0.
          2    1    1    2  501    0 -0.33362053040E+02 -0.92352125558E+01 -0.33244709053E+03  0.33424449694E+03  0.00000000000E+00 0. -1.
          1    1    1    2  502    0  0.76613145362E+01 -0.57630478420E+02  0.11447202181E+04  0.11461955965E+04  0.00000000000E+00 0. -1.
         22    1    3    3    0    0  0.60360317650E+01  0.36207628150E+02  0.30999540576E+03  0.31216114045E+03  0.00000000000E+00 0. -1.
         22    1    3    3    0    0  0.19664706738E+02  0.30658062826E+02  0.84900651770E+01  0.37399180660E+02  0.00000000000E+00 0. -1.
</event>
<event>
 7    1  0.6386201E-006  0.1111905E+03  0.7818608E-02  0.1272519E+00
          2   -1    0    0  502    0  0.00000000000E+00  0.00000000000E+00  0.81056170680E+03  0.81056170680E+03  0.00000000000E+00 0. -1.
          1   -1    0    0  501    0 -0.00000000000E+00 -0.00000000000E+00 -0.93294056907E+02  0.93294056907E+02  0.00000000000E+00 0. -1.
         25    2    1    2    0    0  0.24620295620E+02 -0.73470259799E+01  0.39762007173E+03  0.41759676701E+03  0.12500080251E+03 0.  0.
          2    1    1    2  501    0 -0.10259444719E+03  0.64851657096E+02 -0.28674215348E+02  0.12471394729E+03  0.00000000000E+00 0. -1.
          1    1    1    2  502    0  0.77974151574E+02 -0.57504631116E+02  0.34832179350E+03  0.36154504940E+03  0.00000000000E+00 0. -1.
         22    1    3    3    0    0 -0.41796312239E+02 -0.81153224028E+00  0.27346291837E+03  0.27663976219E+03  0.00000000000E+00 0. -1.
         22    1    3    3    0    0  0.66416607859E+02 -0.65354937396E+01  0.12415715336E+03  0.14095700482E+03  0.00000000000E+00 0. -1.
</event>
<event>
 7    1  0.6386201E-006  0.1395876E+03  0.7818608E-02  0.1286074E+00
          2   -1    0    0  502    0  0.00000000000E+00  0.00000000000E+00  0.17041298098E+04  0.17041298098E+04  0.00000000000E+00 0. -1.
          1   -1    0    0  501    0 -0.00000000000E+00 -0.00000000000E+00 -0.51192365433E+03  0.51192365433E+03  0.00000000000E+00 0. -1.
         25    2    1    2    0    0  0.85000753879E+02  0.34887656565E+02  0.17122191365E+02  0.15607843341E+03  0.12500012480E+03 0.  0.
          2    1    1    2  501    0  0.57041018650E+02 -0.36696777888E+02 -0.43670379626E+03  0.44193951734E+03  0.00000000000E+00 0. -1.
          1    1    1    2  502    0 -0.14204177253E+03  0.18091213238E+01  0.16117877604E+04  0.16180355134E+04  0.00000000000E+00 0. -1.
         22    1    3    3    0    0  0.62684522309E+02  0.81703637813E+02  0.68438179426E+01  0.10320693588E+03  0.00000000000E+00 0.  1.
         22    1    3    3    0    0  0.22316231570E+02 -0.46815981248E+02  0.10278373422E+02  0.52871497538E+02  0.00000000000E+00 0.  1.
</event>
<event>
 7    1  0.6386201E-006  0.8412597E+02  0.7818608E-02  0.1376188E+00
          2   -1    0    0  502    0  0.00000000000E+00  0.00000000000E+00  0.37307283826E+04  0.37307283826E+04  0.00000000000E+00 0. -1.
          1   -1    0    0  501    0 -0.00000000000E+00 -0.00000000000E+00 -0.19621185681E+02  0.19621185681E+02  0.00000000000E+00 0. -1.
         25    2    1    2    0    0  0.16905352621E+02 -0.90632366035E+02  0.16408582451E+04  0.16481930356E+04  0.12499794137E+03 0.  0.
          2    1    1    2  501    0  0.32478893038E+02  0.78052620666E+02  0.98732404471E+02  0.12998145167E+03  0.00000000000E+00 0. -1.
          1    1    1    2  502    0 -0.49384245659E+02  0.12579745369E+02  0.19715165473E+04  0.19721750809E+04  0.00000000000E+00 0. -1.
         22    1    3    3    0    0  0.45715344952E+02  0.40482825162E+01  0.83837624853E+03  0.83963147598E+03  0.00000000000E+00 0. -1.
         22    1    3    3    0    0 -0.28809992331E+02 -0.94680648552E+02  0.80248199660E+03  0.80856155965E+03  0.00000000000E+00 0. -1.
</event>
<event>
 7    1  0.6386201E-006  0.7244724E+02  0.7818608E-02  0.1434613E+00
          2   -1    0    0  502    0  0.00000000000E+00  0.00000000000E+00  0.14194091179E+04  0.14194091179E+04  0.00000000000E+00 0. -1.
          1   -1    0    0  501    0 -0.00000000000E+00 -0.00000000000E+00 -0.32363497321E+03  0.32363497321E+03  0.00000000000E+00 0. -1.
         25    2    1    2    0    0 -0.74354070005E+02  0.70309786506E+02  0.15306721145E+02  0.16227066263E+03  0.12500191371E+03 0.  0.
          2    1    1    2  501    0  0.61564972607E+02 -0.35176652661E+02 -0.24485949697E+03  0.25491923427E+03  0.00000000000E+00 0. -1.
          1    1    1    2  502    0  0.12789097398E+02 -0.35133133845E+02  0.13253269205E+04  0.13258541942E+04  0.00000000000E+00 0. -1.
         22    1    3    3    0    0 -0.81153886674E+02 -0.90555824245E+01  0.12107815828E+02  0.82550324648E+02  0.00000000000E+00 0.  1.
         22    1    3    3    0    0  0.67998166687E+01  0.79365368931E+02  0.31989053167E+01  0.79720337979E+02  0.00000000000E+00 0.  1.
</event>
<event>
 7    1  0.6386201E-006  0.7935815E+02  0.7818608E-02  0.1384890E+00
          2   -1    0    0  502    0  0.00000000000E+00  0.00000000000E+00  0.35162932317E+04  0.35162932317E+04  0.00000000000E+00 0. -1.
          1   -1    0    0  501    0 -0.00000000000E+00 -0.00000000000E+00 -0.13112366483E+03  0.13112366483E+03  0.00000000000E+00 0. -1.
         25    2    1    2    0    0 -0.43493246637E+02  0.33554732075E+02  0.13080843482E+04  0.13151911692E+04  0.12500226701E+03 0.  0.
          2    1    1    2  501    0  0.79691961617E+02  0.14061857181E+01 -0.11480359680E+03  0.13975926425E+03  0.00000000000E+00 0. -1.
          1    1    1    2  502    0 -0.36198714981E+02 -0.34960917793E+02  0.21918888155E+04  0.21924664632E+04  0.00000000000E+00 0. -1.
         22    1    3    3    0    0  0.57271785897E+01  0.16240753534E+02  0.21487672756E+02  0.27536933933E+02  0.00000000000E+00 0. -1.
         22    1    3    3    0    0 -0.49220425226E+02  0.17313978541E+02  0.12865966755E+04  0.12876542352E+04  0.00000000000E+00 0. -1.
</event>
<event>
 7    1  0.6386201E-006  0.9007404E+02  0.7818608E-02  0.1368596E+00
          2   -1    0    0  502    0  0.00000000000E+00  0.00000000000E+00  0.96706771143E+03  0.96706771143E+03  0.00000000000E+00 0. -1.
          1   -1    0    0  501    0 -0.00000000000E+00 -0.00000000000E+00 -0.20065978447E+03  0.20065978447E+03  0.00000000000E+00 0. -1.
         25    2    1    2    0    0 -0.60226731270E+02  0.88912197643E+02  0.25129576166E+03  0.30051119630E+03  0.12499912489E+03 0.  0.
          2    1    1    2  501    0  0.95568090314E+01 -0.89342694873E+02 -0.16358117025E+03  0.18663399740E+03  0.00000000000E+00 0. -1.
          1    1    1    2  502    0  0.50669922238E+02  0.43049723054E+00  0.67869333555E+03  0.68058230220E+03  0.00000000000E+00 0. -1.
         22    1    3    3    0    0 -0.69891096092E+02  0.84051572031E+02  0.26285526809E+03  0.28467933546E+03  0.00000000000E+00 0.  1.
         22    1    3    3    0    0  0.96643648219E+01  0.48606256113E+01 -0.11559506431E+02  0.15831860841E+02  0.00000000000E+00 0.  1.
</event>
<event>
 7    1  0.6386201E-006  0.6089101E+02  0.7818608E-02  0.1474643E+00
          2   -1    0    0  502    0  0.00000000000E+00  0.00000000000E+00  0.49725765763E+02  0.49725765763E+02  0.00000000000E+00 0. -1.
          1   -1    0    0  501    0 -0.00000000000E+00 -0.00000000000E+00 -0.35877379680E+03  0.35877379680E+03  0.00000000000E+00 0. -1.
         25    2    1    2    0    0 -0.21542217224E+02 -0.37955900316E+02 -0.21324721013E+03  0.25100658524E+03  0.12500086285E+03 0.  0.
          2    1    1    2  501    0  0.15864839529E+02  0.70651497871E+02 -0.10061313860E+03  0.12396100574E+03  0.00000000000E+00 0. -1.
          1    1    1    2  502    0  0.56773776954E+01 -0.32695597555E+02  0.48123176900E+01  0.33531971587E+02  0.00000000000E+00 0. -1.
         22    1    3    3    0    0 -0.37248591469E+02 -0.69269451721E+02 -0.19752732631E+03  0.21260940512E+03  0.00000000000E+00 0.  1.
         22    1    3    3    0    0  0.15706374245E+02  0.31313551404E+02 -0.15719883819E+02  0.38397180115E+02  0.00000000000E+00 0.  1.
</event>
<event>
 7    1  0.6386201E-006  0.7915115E+02  0.7818608E-02  0.1469371E+00
          2   -1    0    0  502    0  0.00000000000E+00  0.00000000000E+00  0.65157339411E+03  0.65157339411E+03  0.00000000000E+00 0. -1.
          1   -1    0    0  501    0 -0.00000000000E+00 -0.00000000000E+00 -0.77402684348E+02  0.77402684348E+02  0.00000000000E+00 0. -1.
         25    2    1    2    0    0 -0.59619556134E+02  0.54282234531E+01  0.28692475960E+03  0.31864459738E+03  0.12499841873E+03 0.  0.
          2    1    1    2  501    0 -0.26042694630E+02 -0.49495501440E+01 -0.53111408537E+02  0.59359428122E+02  0.00000000000E+00 0. -1.
          1    1    1    2  502    0  0.85662250764E+02 -0.47867330912E+00  0.34035735870E+03  0.35097205296E+03  0.00000000000E+00 0. -1.
         22    1    3    3    0    0 -0.92241608658E+02 -0.71350499406E+01  0.14138124494E+03  0.16896177001E+03  0.00000000000E+00 0.  1.
         22    1    3    3    0    0  0.32622052524E+02  0.12563273394E+02  0.14554351466E+03  0.14968282737E+03  0.00000000000E+00 0.  1.
</event>
<event>
 7    1  0.6386201E-006  0.1466486E+03  0.7818608E-02  0.1393874E+00
          2   -1    0    0  502    0  0.00000000000E+00  0.00000000000E+00  0.58984929533E+03  0.58984929533E+03  0.00000000000E+00 0. -1.
          1   -1    0    0  501    0 -0.00000000000E+00 -0.00000000000E+00 -0.62809086394E+03  0.62809086394E+03  0.00000000000E+00 0. -1.
         25    2    1    2    0    0  0.11210003264E+03 -0.12541680526E+03  0.11205064435E+03  0.23764849608E+03  0.12500267370E+03 0.  0.
          2    1    1    2  501    0 -0.88924560277E+02  0.11518236282E+03 -0.55552535992E+03  0.57426734161E+03  0.00000000000E+00 0. -1.
          1    1    1    2  502    0 -0.23175472359E+02  0.10234442438E+02  0.40523314695E+03  0.40602432159E+03  0.00000000000E+00 0. -1.
         22    1    3    3    0    0  0.34313045228E+02 -0.11485299992E+03  0.10407075375E+03  0.15874293197E+03  0.00000000000E+00 0.  1.
         22    1    3    3    0    0  0.77786987408E+02 -0.10563805337E+02  0.79798905945E+01  0.78905564108E+02  0.00000000000E+00 0.  1.
</event>
<event>
 7    1  0.6386201E-006  0.4806467E+02  0.7818608E-02  0.1490841E+00
          2   -1    0    0  502    0  0.00000000000E+00  0.00000000000E+00  0.12664134400E+03  0.12664134400E+03  0.00000000000E+00 0. -1.
          1   -1    0    0  501    0 -0.00000000000E+00 -0.00000000000E+00 -0.16696840128E+03  0.16696840128E+03  0.00000000000E+00 0. -1.
         25    2    1    2    0    0 -0.65048573797E+01 -0.11456238915E+02  0.28717552922E+02  0.12892611118E+03  0.12499474276E+03 0.  0.
          2    1    1    2  501    0  0.25063844154E+02  0.44054992941E+02 -0.10254693025E+03  0.11438929841E+03  0.00000000000E+00 0. -1.
          1    1    1    2  502    0 -0.18558986774E+02 -0.32598754026E+02  0.33502320049E+02  0.50294335693E+02  0.00000000000E+00 0. -1.
         22    1    3    3    0    0 -0.33332818925E+02 -0.37286695266E+01  0.70847081331E+02  0.78385513502E+02  0.00000000000E+00 0.  1.
         22    1    3    3    0    0  0.26827961545E+02 -0.77275693882E+01 -0.42129528408E+02  0.50540597674E+02  0.00000000000E+00 0.  1.
</event>
<event>
 7    1  0.6386201E-006  0.1740640E+03  0.7818608E-02  0.1364410E+00
          2   -1    0    0  502    0  0.00000000000E+00  0.00000000000E+00  0.65139478191E+03  0.65139478191E+03  0.00000000000E+00 0. -1.
          1   -1    0    0  501    0 -0.00000000000E+00 -0.00000000000E+00 -0.85295093210E+03  0.85295093210E+03  0.00000000000E+00 0. -1.
         25    2    1    2    0    0 -0.34955725691E+02  0.15275646256E+03 -0.25320546210E+02  0.20203930342E+03  0.12498924136E+03 0.  0.
          2    1    1    2  501    0  0.58524255974E+02 -0.16623594290E+03 -0.72842930684E+03  0.74944561664E+03  0.00000000000E+00 0. -1.
          1    1    1    2  502    0 -0.23568530282E+02  0.13479480340E+02  0.55219370285E+03  0.55286079394E+03  0.00000000000E+00 0. -1.
         22    1    3    3    0    0  0.36647403585E+02  0.81680293272E+02  0.19528045491E+02  0.91629946302E+02  0.00000000000E+00 0.  1.
         22    1    3    3    0    0 -0.71603129276E+02  0.71076169285E+02 -0.44848591701E+02  0.11040935712E+03  0.00000000000E+00 0.  1.
</event>
<event>
 7    1  0.6386201E-006  0.1921703E+03  0.7818608E-02  0.1233202E+00
          2   -1    0    0  502    0  0.00000000000E+00  0.00000000000E+00  0.10802799964E+03  0.10802799964E+03  0.00000000000E+00 0. -1.
          1   -1    0    0  501    0 -0.00000000000E+00 -0.00000000000E+00 -0.10560498201E+04  0.10560498201E+04  0.00000000000E+00 0. -1.
         25    2    1    2    0    0 -0.22517062447E+03  0.78788362919E+02 -0.38471574708E+03  0.46961775405E+03  0.12500085044E+03 0.  0.
          2    1    1    2  501    0  0.78698920986E+02  0.25992103577E+02 -0.49493585768E+03  0.50182727390E+03  0.00000000000E+00 0. -1.
          1    1    1    2  502    0  0.14647170349E+03 -0.10478046650E+03 -0.68370215723E+02  0.19263279181E+03  0.00000000000E+00 0. -1.
         22    1    3    3    0    0 -0.87505613595E+02  0.90030479344E+02 -0.13577570284E+03  0.18492636671E+03  0.00000000000E+00 0.  1.
         22    1    3    3    0    0 -0.13766501088E+03 -0.11242116425E+02 -0.24894004424E+03  0.28469138735E+03  0.00000000000E+00 0.  1.
</event>
<event>
 7    1  0.6386201E-006  0.5367335E+03  0.7818608E-02  0.1074306E+00
          2   -1    0    0  502    0  0.00000000000E+00  0.00000000000E+00  0.12710774874E+04  0.12710774874E+04  0.00000000000E+00 0. -1.
          1   -1    0    0  501    0 -0.00000000000E+00 -0.00000000000E+00 -0.84333834328E+03  0.84333834328E+03  0.00000000000E+00 0. -1.
         25    2    1    2    0    0  0.67403270223E+03  0.24476889793E+02  0.40236158885E+03  0.79526017863E+03  0.12499880691E+03 0.  0.
          2    1    1    2  501    0 -0.50845223833E+03  0.77187212168E+02 -0.52534304126E+03  0.73516450906E+03  0.00000000000E+00 0. -1.
          1    1    1    2  502    0 -0.16558046389E+03 -0.10166410196E+03  0.55072059652E+03  0.58399114298E+03  0.00000000000E+00 0. -1.
         22    1    3    3    0    0  0.37470745111E+01  0.12911869089E+02  0.18125665621E+02  0.22567602553E+02  0.00000000000E+00 0. -1.
         22    1    3    3    0    0  0.67028562772E+03  0.11565020703E+02  0.38423592323E+03  0.77269257608E+03  0.00000000000E+00 0. -1.
</event>
<event>
 7    1  0.6386201E-006  0.5530087E+02  0.7818608E-02  0.1469664E+00
          2   -1    0    0  502    0  0.00000000000E+00  0.00000000000E+00  0.30157424887E+04  0.30157424887E+04  0.00000000000E+00 0. -1.
          1   -1    0    0  501    0 -0.00000000000E+00 -0.00000000000E+00 -0.10712174111E+03  0.10712174111E+03  0.00000000000E+00 0. -1.
         25    2    1    2    0    0  0.92384121651E+02  0.10019000110E+01  0.25047825690E+03  0.29478858772E+03  0.12500049813E+03 0.  0.
          2    1    1    2  501    0 -0.37631732245E+02 -0.41687190559E+01 -0.80460440583E+02  0.88923607603E+02  0.00000000000E+00 0. -1.
          1    1    1    2  502    0 -0.54752389405E+02  0.31668190449E+01  0.27386029312E+04  0.27391520345E+04  0.00000000000E+00 0. -1.
         22    1    3    3    0    0  0.33973098893E+02 -0.45737608814E+02  0.19070010225E+03  0.19902921722E+03  0.00000000000E+00 0. -1.
         22    1    3    3    0    0  0.58411022758E+02  0.46739508825E+02  0.59778154642E+02  0.95759370493E+02  0.00000000000E+00 0. -1.
</event>
<event>
 7    1  0.6386201E-006  0.1038889E+03  0.7818608E-02  0.1443548E+00
          2   -1    0    0  502    0  0.00000000000E+00  0.00000000000E+00  0.24373861966E+04  0.24373861966E+04  0.00000000000E+00 0. -1.
          1   -1    0    0  501    0 -0.00000000000E+00 -0.00000000000E+00 -0.92008907607E+01  0.92008907607E+01  0.00000000000E+00 0. -1.
         25    2    1    2    0    0 -0.38911719241E+02 -0.81544600602E+02  0.10187487777E+04  0.10303579134E+04  0.12499885582E+03 0.  0.
          2    1    1    2  501    0 -0.22505048702E+02 -0.93934467719E+01  0.14466115890E+03  0.14670230044E+03  0.00000000000E+00 0. -1.
          1    1    1    2  502    0  0.61416767943E+02  0.90938047374E+02  0.12647753692E+04  0.12695268735E+04  0.00000000000E+00 0. -1.
         22    1    3    3    0    0  0.42515674465E+02 -0.39294845532E+02  0.27903677421E+03  0.28497927788E+03  0.00000000000E+00 0.  1.
         22    1    3    3    0    0 -0.81427393706E+02 -0.42249755069E+02  0.73971200349E+03  0.74537863556E+03  0.00000000000E+00 0.  1.
</event>
<event>
 7    1  0.6386201E-006  0.5139381E+02  0.7818608E-02  0.1452973E+00
          2   -1    0    0  502    0  0.00000000000E+00  0.00000000000E+00  0.14297642421E+04  0.14297642421E+04  0.00000000000E+00 0. -1.
          1   -1    0    0  501    0 -0.00000000000E+00 -0.00000000000E+00 -0.15927996790E+02  0.15927996790E+02  0.00000000000E+00 0. -1.
         25    2    1    2    0    0  0.11042382093E+01 -0.42506275815E+02  0.55761198000E+03  0.57303083170E+03  0.12500084404E+03 0.  0.
          2    1    1    2  501    0 -0.45853107823E+02  0.31930715035E+02  0.96217483101E+02  0.11126491861E+03  0.00000000000E+00 0. -1.
          1    1    1    2  502    0  0.44748869614E+02  0.10575560780E+02  0.76000678225E+03  0.76139648862E+03  0.00000000000E+00 0. -1.
         22    1    3    3    0    0 -0.53949675010E+02 -0.52557391671E+02  0.28922220776E+03  0.29886841974E+03  0.00000000000E+00 0. -1.
         22    1    3    3    0    0  0.55053913219E+02  0.10051115856E+02  0.26838977224E+03  0.27416241196E+03  0.00000000000E+00 0. -1.
</event>
<event>
 7    1  0.6386201E-006  0.6699243E+02  0.7818608E-02  0.1400175E+00
          2   -1    0    0  502    0  0.00000000000E+00  0.00000000000E+00  0.32556827005E+03  0.32556827005E+03  0.00000000000E+00 0. -1.
          1   -1    0    0  501    0 -0.00000000000E+00 -0.00000000000E+00 -0.13171857693E+04  0.13171857693E+04  0.00000000000E+00 0. -1.
         25    2    1    2    0    0 -0.43768955339E+02  0.23109035258E+02  0.14831417393E+03  0.20018023395E+03  0.12500113165E+03 0.  0.
          2    1    1    2  501    0  0.12944718682E+02 -0.65913616036E+02 -0.12857524163E+04  0.12875059015E+04  0.00000000000E+00 0. -1.
          1    1    1    2  502    0  0.30824236656E+02  0.42804580778E+02  0.14582074308E+03  0.15506790387E+03  0.00000000000E+00 0. -1.
         22    1    3    3    0    0  0.27110812445E+02  0.36044214261E+02  0.13097227861E+02  0.46965081825E+02  0.00000000000E+00 0.  1.
         22    1    3    3    0    0 -0.70879767784E+02 -0.12935179003E+02  0.13521694607E+03  0.15321515213E+03  0.00000000000E+00 0.  1.
</event>
<event>
 7    1  0.6386201E-006  0.9376400E+02  0.7818608E-02  0.1310034E+00
          2   -1    0    0  502    0  0.00000000000E+00  0.00000000000E+00  0.65586433380E+02  0.65586433380E+02  0.00000000000E+00 0. -1.
          1   -1    0    0  501    0 -0.00000000000E+00 -0.00000000000E+00 -0.23233300218E+04  0.23233300218E+04  0.00000000000E+00 0. -1.
         25    2    1    2    0    0 -0.99580990670E+02 -0.35987847474E+02 -0.48044316627E+03  0.50760397846E+03  0.12499865624E+03 0.  0.
          2    1    1    2  501    0  0.14635845826E+02  0.79572404381E+02 -0.17837845944E+04  0.17856185076E+04  0.00000000000E+00 0. -1.
          1    1    1    2  502    0  0.84945144844E+02 -0.43584556907E+02  0.64841722499E+01  0.95693969105E+02  0.00000000000E+00 0. -1.
         22    1    3    3    0    0 -0.18268305437E+02  0.71494896333E+01 -0.33439235549E+03  0.33496730228E+03  0.00000000000E+00 0. -1.
         22    1    3    3    0    0 -0.81312685233E+02 -0.43137337107E+02 -0.14605081077E+03  0.17263667617E+03  0.00000000000E+00 0. -1.
</event>
<event>
 7    1  0.6386201E-006  0.3415760E+02  0.7818608E-02  0.1562903E+00
          2   -1    0    0  502    0  0.00000000000E+00  0.00000000000E+00  0.19968384839E+03  0.19968384839E+03  0.00000000000E+00 0. -1.
          1   -1    0    0  501    0 -0.00000000000E+00 -0.00000000000E+00 -0.13794604456E+03  0.13794604456E+03  0.00000000000E+00 0. -1.
         25    2    1    2    0    0  0.39516748206E+01  0.56678828224E+02  0.33332244405E+01  0.13734790212E+03  0.12500092211E+03 0.  0.
          2    1    1    2  501    0 -0.19064292201E+02 -0.26614730916E+02 -0.64780933161E+02  0.72583472224E+02  0.00000000000E+00 0. -1.
          1    1    1    2  502    0  0.15112617380E+02 -0.30064097308E+02  0.12318551255E+03  0.12769851860E+03  0.00000000000E+00 0. -1.
         22    1    3    3    0    0  0.15092440505E+02 -0.13957700381E+02  0.48563002436E+02  0.52734849634E+02  0.00000000000E+00 0. -1.
         22    1    3    3    0    0 -0.11140765685E+02  0.70636528606E+02 -0.45229777995E+02  0.84613052486E+02  0.00000000000E+00 0. -1.
</event>
<event>
 7    1  0.6386201E-006  0.7495917E+02  0.7818608E-02  0.1353951E+00
          2   -1    0    0  502    0  0.00000000000E+00  0.00000000000E+00  0.15412787389E+03  0.15412787389E+03  0.00000000000E+00 0. -1.
          1   -1    0    0  501    0 -0.00000000000E+00 -0.00000000000E+00 -0.82560680009E+03  0.82560680009E+03  0.00000000000E+00 0. -1.
         25    2    1    2    0    0  0.75234658197E+01  0.50667134619E+02 -0.23767998959E+03  0.27339127814E+03  0.12500900945E+03 0.  0.
          2    1    1    2  501    0  0.61156097623E+02 -0.55473214048E+02 -0.55814007940E+03  0.56421422703E+03  0.00000000000E+00 0. -1.
          1    1    1    2  502    0 -0.68679563443E+02  0.48060794285E+01  0.12434114279E+03  0.14212916880E+03  0.00000000000E+00 0. -1.
         22    1    3    3    0    0  0.64335382333E+02  0.21470801716E+02 -0.91774629142E+02  0.11411669159E+03  0.00000000000E+00 0.  1.
         22    1    3    3    0    0 -0.56811916513E+02  0.29196332903E+02 -0.14590536045E+03  0.15927458655E+03  0.00000000000E+00 0.  1.
</event>
<event>
 7    1  0.6386201E-006  0.3784099E+02  0.7818608E-02  0.1561693E+00
          2   -1    0    0  502    0  0.00000000000E+00  0.00000000000E+00  0.32427571209E+03  0.32427571209E+03  0.00000000000E+00 0. -1.
          1   -1    0    0  501    0 -0.00000000000E+00 -0.00000000000E+00 -0.56151537440E+03  0.56151537440E+03  0.00000000000E+00 0. -1.
         25    2    1    2    0    0  0.48754744720E+02  0.18398330641E+02 -0.38026078835E+03  0.40365687663E+03  0.12500033279E+03 0.  0.
          2    1    1    2  501    0 -0.27005106314E+02  0.12548769333E+02 -0.16709099838E+03  0.16972374353E+03  0.00000000000E+00 0. -1.
          1    1    1    2  502    0 -0.21749638406E+02 -0.30947099974E+02  0.31011212441E+03  0.31241046633E+03  0.00000000000E+00 0. -1.
         22    1    3    3    0    0 -0.40302619609E+02  0.17752187859E+02 -0.92863933020E+02  0.10277719288E+03  0.00000000000E+00 0.  1.
         22    1    3    3    0    0  0.89057364329E+02  0.64614278127E+00 -0.28739685533E+03  0.30087968375E+03  0.00000000000E+00 0.  1.
</event>
<event>
 7    1  0.6386201E-006  0.7232850E+02  0.7818608E-02  0.1433109E+00
          2   -1    0    0  502    0  0.00000000000E+00  0.00000000000E+00  0.10045966361E+04  0.10045966361E+04  0.00000000000E+00 0. -1.
          1   -1    0    0  501    0 -0.00000000000E+00 -0.00000000000E+00 -0.72455795690E+03  0.72455795690E+03  0.00000000000E+00 0. -1.
         25    2    1    2    0    0  0.30675051647E+02  0.27152620643E+02  0.28764332141E+03  0.31629840206E+03  0.12501110027E+03 0.  0.
          2    1    1    2  501    0 -0.32205239593E+02 -0.64998436073E+02 -0.70786506478E+03  0.71157214960E+03  0.00000000000E+00 0. -1.
          1    1    1    2  502    0  0.15301879456E+01  0.37845815429E+02  0.70026042255E+03  0.70128404132E+03  0.00000000000E+00 0. -1.
         22    1    3    3    0    0 -0.12416256139E+02 -0.25252003315E+02  0.90442671575E+01  0.29557162522E+02  0.00000000000E+00 0.  1.
         22    1    3    3    0    0  0.43091307786E+02  0.52404623958E+02  0.27859905425E+03  0.28674123954E+03  0.00000000000E+00 0.  1.
</event>
<event>
 7    1  0.6386201E-006  0.1812498E+03  0.7818608E-02  0.1315040E+00
          2   -1    0    0  502    0  0.00000000000E+00  0.00000000000E+00  0.24644016131E+04  0.24644016131E+04  0.00000000000E+00 0. -1.
          1   -1    0    0  501    0 -0.00000000000E+00 -0.00000000000E+00 -0.25573593075E+04  0.25573593075E+04  0.00000000000E+00 0. -1.
         25    2    1    2    0    0 -0.15000214990E+03 -0.14339738634E+03 -0.79624452013E+02  0.25500530482E+03  0.12499678693E+03 0.  0.
          2    1    1    2  501    0  0.14768509842E+03  0.10346129404E+03 -0.23864745200E+04  0.23932772013E+04  0.00000000000E+00 0. -1.
          1    1    1    2  502    0  0.23170514795E+01  0.39936092303E+02  0.23731412777E+04  0.23734784145E+04  0.00000000000E+00 0. -1.
         22    1    3    3    0    0 -0.13445336534E+03 -0.90446466947E+02 -0.49088784671E+01  0.16211837626E+03  0.00000000000E+00 0.  1.
         22    1    3    3    0    0 -0.15548784561E+02 -0.52950919397E+02 -0.74715573546E+02  0.92886928556E+02  0.00000000000E+00 0.  1.
</event>
<event>
 7    1  0.6386201E-006  0.6435018E+02  0.7818608E-02  0.1457783E+00
          2   -1    0    0  502    0  0.00000000000E+00  0.00000000000E+00  0.15800871602E+04  0.15800871602E+04  0.00000000000E+00 0. -1.
          1   -1    0    0  501    0 -0.00000000000E+00 -0.00000000000E+00 -0.47433901318E+03  0.47433901318E+03  0.00000000000E+00 0. -1.
         25    2    1    2    0    0 -0.67928548861E+02  0.99091148643E+01 -0.40986028341E+02  0.14838603975E+03  0.12500433579E+03 0.  0.
          2    1    1    2  501    0  0.59736395552E+02  0.24585982965E+02 -0.37669738865E+03  0.38219606242E+03  0.00000000000E+00 0. -1.
          1    1    1    2  502    0  0.81921533085E+01 -0.34495097830E+02  0.15234315640E+04  0.15238440712E+04  0.00000000000E+00 0. -1.
         22    1    3    3    0    0  0.12198725510E+02 -0.33735170573E+02  0.17595972916E+02  0.39956087152E+02  0.00000000000E+00 0. -1.
         22    1    3    3    0    0 -0.80127274370E+02  0.43644285437E+02 -0.58582001256E+02  0.10842995260E+03  0.00000000000E+00 0. -1.
</event>
<event>
 7    1  0.6386201E-006  0.1313282E+03  0.7818608E-02  0.1372450E+00
          2   -1    0    0  502    0  0.00000000000E+00  0.00000000000E+00  0.25614599336E+03  0.25614599336E+03  0.00000000000E+00 0. -1.
          1   -1    0    0  501    0 -0.00000000000E+00 -0.00000000000E+00 -0.79293847601E+03  0.79293847601E+03  0.00000000000E+00 0. -1.
         25    2    1    2    0    0 -0.75419781293E+02  0.71916846848E+02 -0.32269531622E+03  0.36141334229E+03  0.12500864211E+03 0.  0.
          2    1    1    2  501    0 -0.33381199649E+02  0.43536478752E+01 -0.43153686598E+03  0.43284792414E+03  0.00000000000E+00 0. -1.
          1    1    1    2  502    0  0.10880098094E+03 -0.76270494724E+02  0.21743969954E+03  0.25482320294E+03  0.00000000000E+00 0. -1.
         22    1    3    3    0    0 -0.31737458080E+02  0.15565783219E+01 -0.24756305669E+03  0.24959398273E+03  0.00000000000E+00 0.  1.
         22    1    3    3    0    0 -0.43682323213E+02  0.70360268527E+02 -0.75132259532E+02  0.11181935955E+03  0.00000000000E+00 0.  1.
</event>
<event>
 7    1  0.6386201E-006  0.3289874E+02  0.7818608E-02  0.1587658E+00
          2   -1    0    0  502    0  0.00000000000E+00  0.00000000000E+00  0.20884064792E+04  0.20884064792E+04  0.00000000000E+00 0. -1.
          1   -1    0    0  501    0 -0.00000000000E+00 -0.00000000000E+00 -0.51012293404E+03  0.51012293404E+03  0.00000000000E+00 0. -1.
         25    2    1    2    0    0 -0.19265584992E+02 -0.29012955838E+02  0.63986532347E+03  0.65289180141E+03  0.12500863086E+03 0.  0.
          2    1    1    2  501    0  0.29017164521E+02 -0.27302050116E+01 -0.50299662281E+03  0.50384030447E+03  0.00000000000E+00 0. -1.
          1    1    1    2  502    0 -0.97515795288E+01  0.31743160850E+02  0.14414148445E+04  0.14417973074E+04  0.00000000000E+00 0. -1.
         22    1    3    3    0    0 -0.43407922963E+02 -0.54197228446E+02  0.20127158699E+03  0.21291274992E+03  0.00000000000E+00 0. -1.
         22    1    3    3    0    0  0.24142337971E+02  0.25184272608E+02  0.43859373648E+03  0.43997905149E+03  0.00000000000E+00 0. -1.
</event>
<event>
 7    1  0.6386201E-006  0.5301000E+02  0.7818608E-02  0.1535831E+00
          2   -1    0    0  502    0  0.00000000000E+00  0.00000000000E+00  0.17301287905E+04  0.17301287905E+04  0.00000000000E+00 0. -1.
          1   -1    0    0  501    0 -0.00000000000E+00 -0.00000000000E+00 -0.27975796354E+03  0.27975796354E+03  0.00000000000E+00 0. -1.
         25    2    1    2    0    0  0.38226740132E+02  0.67007650060E+02 -0.17253223181E+02  0.14789901285E+03  0.12500054186E+03 0.  0.
          2    1    1    2  501    0 -0.16806449788E+02 -0.18650277141E+02 -0.19596075566E+03  0.19756241381E+03  0.00000000000E+00 0. -1.
          1    1    1    2  502    0 -0.21420290344E+02 -0.48357372919E+02  0.16635848058E+04  0.16644253274E+04  0.00000000000E+00 0. -1.
         22    1    3    3    0    0  0.49426806932E+02  0.94876995594E+02  0.98635761301E+01  0.10743343833E+03  0.00000000000E+00 0.  1.
         22    1    3    3    0    0 -0.11200066801E+02 -0.27869345535E+02 -0.27116799311E+02  0.40465574527E+02  0.00000000000E+00 0.  1.
</event>
<event>
 7    1  0.6386201E-006  0.6250128E+02  0.7818608E-02  0.1467997E+00
          2   -1    0    0  502    0  0.00000000000E+00  0.00000000000E+00  0.12257199877E+04  0.12257199877E+04  0.00000000000E+00 0. -1.
          1   -1    0    0  501    0 -0.00000000000E+00 -0.00000000000E+00 -0.83053209985E+02  0.83053209985E+02  0.00000000000E+00 0. -1.
         25    2    1    2    0    0  0.26891105993E+00  0.81749452518E+02  0.64990349153E+03  0.66684604064E+03  0.12500419315E+03 0.  0.
          2    1    1    2  501    0  0.21576706638E+02 -0.26150938139E+02 -0.69062057194E+02  0.76934995800E+02  0.00000000000E+00 0. -1.
          1    1    1    2  502    0 -0.21845617698E+02 -0.55598514379E+02  0.56182534338E+03  0.56499216126E+03  0.00000000000E+00 0. -1.
         22    1    3    3    0    0 -0.48735160650E+02 -0.13457757363E+00  0.14406722809E+03  0.15208714674E+03  0.00000000000E+00 0. -1.
         22    1    3    3    0    0  0.49004071710E+02  0.81884030091E+02  0.50583626344E+03  0.51475889389E+03  0.00000000000E+00 0. -1.
</event>
<event>
 7    1  0.6386201E-006  0.5971269E+02  0.7818608E-02  0.1509666E+00
          2   -1    0    0  502    0  0.00000000000E+00  0.00000000000E+00  0.24168081810E+04  0.24168081810E+04  0.00000000000E+00 0. -1.
          1   -1    0    0  501    0 -0.00000000000E+00 -0.00000000000E+00 -0.10532001110E+02  0.10532001110E+02  0.00000000000E+00 0. -1.
         25    2    1    2    0    0 -0.47761650445E+02 -0.27455091769E+01  0.10910248764E+04  0.10992040444E+04  0.12500214901E+03 0.  0.
          2    1    1    2  501    0  0.55049134372E+02  0.28256797005E+02  0.14584114655E+03  0.15842504158E+03  0.00000000000E+00 0. -1.
          1    1    1    2  502    0 -0.72874839269E+01 -0.25511287828E+02  0.11694101570E+04  0.11697110961E+04  0.00000000000E+00 0. -1.
         22    1    3    3    0    0 -0.52002537489E+02  0.98798797731E+01  0.10815845824E+04  0.10828790721E+04  0.00000000000E+00 0. -1.
         22    1    3    3    0    0  0.42408870440E+01 -0.12625388950E+02  0.94402939385E+01  0.16324972242E+02  0.00000000000E+00 0. -1.
</event>
<event>
 7    1  0.6386201E-006  0.4503971E+02  0.7818608E-02  0.1537311E+00
          2   -1    0    0  502    0  0.00000000000E+00  0.00000000000E+00  0.10435856387E+04  0.10435856387E+04  0.00000000000E+00 0. -1.
          1   -1    0    0  501    0 -0.00000000000E+00 -0.00000000000E+00 -0.67838729571E+03  0.67838729571E+03  0.00000000000E+00 0. -1.
         25    2    1    2    0    0 -0.14040382808E+02 -0.85078809728E+01  0.31090632172E+03  0.33549497783E+03  0.12499849148E+03 0.  0.
          2    1    1    2  501    0  0.32794196737E+02  0.30972475850E+02 -0.66503143154E+03  0.66655949362E+03  0.00000000000E+00 0. -1.
          1    1    1    2  502    0 -0.18753813930E+02 -0.22464594878E+02  0.71932345284E+03  0.71991846300E+03  0.00000000000E+00 0. -1.
         22    1    3    3    0    0  0.30506418141E+02 -0.52469566293E+02  0.11806610208E+03  0.13275278300E+03  0.00000000000E+00 0. -1.
         22    1    3    3    0    0 -0.44546800949E+02  0.43961685320E+02  0.19284021964E+03  0.20274219482E+03  0.00000000000E+00 0. -1.
</event>
<event>
 7    1  0.6386201E-006  0.5269172E+02  0.7818608E-02  0.1493531E+00
          2   -1    0    0  502    0  0.00000000000E+00  0.00000000000E+00  0.39734650299E+04  0.39734650299E+04  0.00000000000E+00 0. -1.
          1   -1    0    0  501    0 -0.00000000000E+00 -0.00000000000E+00 -0.72710652126E+01  0.72710652126E+01  0.00000000000E+00 0. -1.
         25    2    1    2    0    0 -0.60016935772E+01 -0.52317206970E+02  0.30410163025E+04  0.30440397604E+04  0.12499920122E+03 0.  0.
          2    1    1    2  501    0 -0.26942814083E+02  0.45793443392E+02  0.12511488629E+03  0.13592898683E+03  0.00000000000E+00 0. -1.
          1    1    1    2  502    0  0.32944507660E+02  0.65237635775E+01  0.80006277596E+03  0.80076734795E+03  0.00000000000E+00 0. -1.
         22    1    3    3    0    0  0.37361662090E+02  0.55664072540E+01  0.34648721197E+03  0.34854019387E+03  0.00000000000E+00 0. -1.
         22    1    3    3    0    0 -0.43363355667E+02 -0.57883614224E+02  0.26945290905E+04  0.26954995665E+04  0.00000000000E+00 0. -1.
</event>
<event>
 7    1  0.6386201E-006  0.1409464E+03  0.7818608E-02  0.1324195E+00
          2   -1    0    0  502    0  0.00000000000E+00  0.00000000000E+00  0.52029545999E+03  0.52029545999E+03  0.00000000000E+00 0. -1.
          1   -1    0    0  501    0 -0.00000000000E+00 -0.00000000000E+00 -0.73913125116E+03  0.73913125116E+03  0.00000000000E+00 0. -1.
         25    2    1    2    0    0  0.87238383233E+02 -0.15667534590E+03 -0.10942376318E+03  0.24444934649E+03  0.12499689408E+03 0.  0.
          2    1    1    2  501    0 -0.39332987853E+02  0.26450920346E+02 -0.55052178390E+03  0.55255856673E+03  0.00000000000E+00 0. -1.
          1    1    1    2  502    0 -0.47905395380E+02  0.13022442555E+03  0.44110975591E+03  0.46241879793E+03  0.00000000000E+00 0. -1.
         22    1    3    3    0    0 -0.58732333233E+01  0.60268774638E+01 -0.45676973582E+02  0.46445710644E+02  0.00000000000E+00 0.  1.
         22    1    3    3    0    0  0.93111616557E+02 -0.16270222336E+03 -0.63746789601E+02  0.19800363585E+03  0.00000000000E+00 0.  1.
</event>
<event>
 7    1  0.6386201E-006  0.6741930E+02  0.7818608E-02  0.1460485E+00
          2   -1    0    0  502    0  0.00000000000E+00  0.00000000000E+00  0.15767485832E+03  0.15767485832E+03  0.00000000000E+00 0. -1.
          1   -1    0    0  501    0 -0.00000000000E+00 -0.00000000000E+00 -0.86674463714E+03  0.86674463714E+03  0.00000000000E+00 0. -1.
         25    2    1    2    0    0 -0.40195197558E+02  0.44386960574E+02  0.92807962276E+02  0.16680532521E+03  0.12499936992E+03 0.  0.
          2    1    1    2  501    0 -0.32757199888E+02 -0.52920119588E+01 -0.76713198548E+03  0.76784928383E+03  0.00000000000E+00 0. -1.
          1    1    1    2  502    0  0.72952397447E+02 -0.39094948615E+02 -0.34745755621E+02  0.89764886420E+02  0.00000000000E+00 0. -1.
         22    1    3    3    0    0 -0.36312553728E+02  0.65767631253E+02  0.11395035307E+03  0.13648687059E+03  0.00000000000E+00 0. -1.
         22    1    3    3    0    0 -0.38826438308E+01 -0.21380670679E+02 -0.21142390794E+02  0.30318454616E+02  0.00000000000E+00 0. -1.
</event>
<event>
 7    1  0.6386201E-006  0.3879776E+02  0.7818608E-02  0.1566102E+00
          2   -1    0    0  502    0  0.00000000000E+00  0.00000000000E+00  0.58739935684E+03  0.58739935684E+03  0.00000000000E+00 0. -1.
          1   -1    0    0  501    0 -0.00000000000E+00 -0.00000000000E+00 -0.21836501157E+04  0.21836501157E+04  0.00000000000E+00 0. -1.
         25    2    1    2    0    0  0.28357379594E+02  0.59825168723E+02 -0.10683370145E+04  0.10776609092E+04  0.12500346732E+03 0.  0.
          2    1    1    2  501    0 -0.16567096679E+02 -0.22879204938E+02 -0.11098260055E+04  0.11101854301E+04  0.00000000000E+00 0. -1.
          1    1    1    2  502    0 -0.11790282914E+02 -0.36945963785E+02  0.58191226113E+03  0.58320313328E+03  0.00000000000E+00 0. -1.
         22    1    3    3    0    0  0.59487359574E+02  0.42785379580E+02 -0.31189937049E+03  0.32039124827E+03  0.00000000000E+00 0.  1.
         22    1    3    3    0    0 -0.31129979980E+02  0.17039789143E+02 -0.75643764398E+03  0.75726966089E+03  0.00000000000E+00 0.  1.
</event>
<event>
 7    1  0.6386201E-006  0.4271903E+02  0.7818608E-02  0.1500518E+00
          2   -1    0    0  502    0  0.00000000000E+00  0.00000000000E+00  0.68423870569E+03  0.68423870569E+03  0.00000000000E+00 0. -1.
          1   -1    0    0  501    0 -0.00000000000E+00 -0.00000000000E+00 -0.75925048046E+02  0.75925048046E+02  0.00000000000E+00 0. -1.
         25    2    1    2    0    0 -0.62686472705E+02  0.32716361271E+02  0.19449127867E+03  0.24175359640E+03  0.12497195582E+03 0.  0.
          2    1    1    2  501    0  0.41934408445E+02  0.86374055293E+00 -0.42892949914E+02  0.59992047904E+02  0.00000000000E+00 0. -1.
          1    1    1    2  502    0  0.20752064259E+02 -0.33580101824E+02  0.45671532889E+03  0.45841810943E+03  0.00000000000E+00 0. -1.
         22    1    3    3    0    0 -0.83152457138E+02 -0.34675444415E+01  0.17897970734E+03  0.19738310625E+03  0.00000000000E+00 0.  1.
         22    1    3    3    0    0  0.20465984433E+02  0.36183905712E+02  0.15511571326E+02  0.44370490153E+02  0.00000000000E+00 0.  1.
</event>
<event>
 7    1  0.6386201E-006  0.5762576E+02  0.7818608E-02  0.1499653E+00
          2   -1    0    0  502    0  0.00000000000E+00  0.00000000000E+00  0.34592847986E+04  0.34592847986E+04  0.00000000000E+00 0. -1.
          1   -1    0    0  501    0 -0.00000000000E+00 -0.00000000000E+00 -0.22562242576E+03  0.22562242576E+03  0.00000000000E+00 0. -1.
         25    2    1    2    0    0  0.36438360891E+02 -0.77992091381E+02  0.18082317099E+02  0.15284898480E+03  0.12500128599E+03 0.  0.
          2    1    1    2  501    0 -0.69388658445E+01  0.28608257370E+02 -0.15662257144E+03  0.15936502167E+03  0.00000000000E+00 0. -1.
          1    1    1    2  502    0 -0.29499495046E+02  0.49383834011E+02  0.33722026272E+04  0.33726932179E+04  0.00000000000E+00 0. -1.
         22    1    3    3    0    0  0.43712337783E+02 -0.77488424718E+02  0.61929515503E+02  0.10839967403E+03  0.00000000000E+00 0.  1.
         22    1    3    3    0    0 -0.72739768922E+01 -0.50366666296E+00 -0.43847198404E+02  0.44449310768E+02  0.00000000000E+00 0.  1.
</event>
<event>
 7    1  0.6386201E-006  0.1233787E+03  0.7818608E-02  0.1402708E+00
          2   -1    0    0  502    0  0.00000000000E+00  0.00000000000E+00  0.10155343539E+04  0.10155343539E+04  0.00000000000E+00 0. -1.
          1   -1    0    0  501    0 -0.00000000000E+00 -0.00000000000E+00 -0.40115559346E+03  0.40115559346E+03  0.00000000000E+00 0. -1.
         25    2    1    2    0    0 -0.67460427899E+02 -0.79334966419E+02  0.16857523297E+03  0.23428049495E+03  0.12499917967E+03 0.  0.
          2    1    1    2  501    0  0.95530691011E+02  0.79774381221E+02 -0.35753627958E+03  0.37857925992E+03  0.00000000000E+00 0. -1.
          1    1    1    2  502    0 -0.28070263112E+02 -0.43941480267E+00  0.80333980708E+03  0.80383019251E+03  0.00000000000E+00 0. -1.
         22    1    3    3    0    0 -0.17684731825E+02  0.31582786882E+02  0.65740379021E+02  0.75046782748E+02  0.00000000000E+00 0.  1.
         22    1    3    3    0    0 -0.49775696073E+02 -0.11091775330E+03  0.10283485395E+03  0.15923371221E+03  0.00000000000E+00 0.  1.
</event>
<event>
 7    1  0.6386201E-006  0.7099690E+02  0.7818608E-02  0.1459851E+00
          2   -1    0    0  502    0  0.00000000000E+00  0.00000000000E+00  0.27728587640E+04  0.27728587640E+04  0.00000000000E+00 0. -1.
          1   -1    0    0  501    0 -0.00000000000E+00 -0.00000000000E+00 -0.57009068691E+02  0.57009068691E+02  0.00000000000E+00 0. -1.
         25    2    1    2    0    0 -0.51810564432E+02  0.31677409629E+02  0.13852777714E+04  0.13922316077E+04  0.12500621116E+03 0.  0.
          2    1    1    2  501    0  0.38128814390E+02 -0.60223206890E+02 -0.29539027085E+02  0.77156952091E+02  0.00000000000E+00 0. -1.
          1    1    1    2  502    0  0.13681750042E+02  0.28545797261E+02  0.13601109511E+04  0.13604792729E+04  0.00000000000E+00 0. -1.
         22    1    3    3    0    0 -0.86595962137E+02  0.49303736070E+02  0.95094442164E+03  0.95615114501E+03  0.00000000000E+00 0. -1.
         22    1    3    3    0    0  0.34785397705E+02 -0.17626326441E+02  0.43433334971E+03  0.43608046270E+03  0.00000000000E+00 0. -1.
</event>
<event>
 7    1  0.6386201E-006  0.4874665E+02  0.7818608E-02  0.1491804E+00
          2   -1    0    0  502    0  0.00000000000E+00  0.00000000000E+00  0.53453057402E+03  0.53453057402E+03  0.00000000000E+00 0. -1.
          1   -1    0    0  501    0 -0.00000000000E+00 -0.00000000000E+00 -0.19113813362E+03  0.19113813362E+03  0.00000000000E+00 0. -1.
         25    2    1    2    0    0 -0.10304441572E+01  0.19053361334E+02  0.60951003273E+02  0.14037384849E+03  0.12500280056E+03 0.  0.
          2    1    1    2  501    0 -0.31540058659E+02  0.18842711324E+02 -0.14773043989E+03  0.15223043697E+03  0.00000000000E+00 0. -1.
          1    1    1    2  502    0  0.32570502816E+02 -0.37896072658E+02  0.43017187702E+03  0.43306442218E+03  0.00000000000E+00 0. -1.
         22    1    3    3    0    0  0.14001324629E+02  0.42186669125E+02  0.89959293723E+02  0.10034155007E+03  0.00000000000E+00 0.  1.
         22    1    3    3    0    0 -0.15031768786E+02 -0.23133307792E+02 -0.29008290451E+02  0.40032298424E+02  0.00000000000E+00 0.  1.
</event>
<event>
 7    1  0.6386201E-006  0.6409479E+02  0.7818608E-02  0.1394601E+00
          2   -1    0    0  502    0  0.00000000000E+00  0.00000000000E+00  0.14090131139E+04  0.14090131139E+04  0.00000000000E+00 0. -1.
          1   -1    0    0  501    0 -0.00000000000E+00 -0.00000000000E+00 -0.20061709869E+03  0.20061709869E+03  0.00000000000E+00 0. -1.
         25    2    1    2    0    0 -0.48602642156E+02 -0.59288990714E+02  0.34804861295E+02  0.15071887934E+03  0.12500960353E+03 0.  0.
          2    1    1    2  501    0 -0.15539701206E+02  0.55495716829E+02 -0.13601988171E+03  0.14772496444E+03  0.00000000000E+00 0. -1.
          1    1    1    2  502    0  0.64142343362E+02  0.37932738855E+01  0.13096110357E+04  0.13111863689E+04  0.00000000000E+00 0. -1.
         22    1    3    3    0    0 -0.28203898716E+02 -0.98046258448E+02  0.16945461705E+02  0.10341990800E+03  0.00000000000E+00 0.  1.
         22    1    3    3    0    0 -0.20398743440E+02  0.38757267733E+02  0.17859399590E+02  0.47298971340E+02  0.00000000000E+00 0.  1.
</event>
<event>
 7    1  0.6386201E-006  0.1517558E+03  0.7818608E-02  0.1274663E+00
          2   -1    0    0  502    0  0.00000000000E+00  0.00000000000E+00  0.14495382667E+03  0.14495382667E+03  0.00000000000E+00 0. -1.
          1   -1    0    0  501    0 -0.00000000000E+00 -0.00000000000E+00 -0.62428673658E+03  0.62428673658E+03  0.00000000000E+00 0. -1.
         25    2    1    2    0    0  0.14026927406E+02 -0.19158532459E+03 -0.16229902107E+03  0.28083148025E+03  0.12499462695E+03 0.  0.
          2    1    1    2  501    0 -0.53040340895E+02  0.13402163258E+03 -0.37252909984E+03  0.39944086670E+03  0.00000000000E+00 0. -1.
          1    1    1    2  502    0  0.39013413489E+02  0.57563692015E+02  0.55495210993E+02  0.88968216311E+02  0.00000000000E+00 0. -1.
         22    1    3    3    0    0 -0.40563879164E+02 -0.30355755120E+02 -0.84048929960E+01  0.51357009142E+02  0.00000000000E+00 0.  1.
         22    1    3    3    0    0  0.54590806570E+02 -0.16122956947E+03 -0.15389412807E+03  0.22947447110E+03  0.00000000000E+00 0.  1.
</event>
<event>
 7    1  0.6386201E-006  0.4483302E+02  0.7818608E-02  0.1511576E+00
          2   -1    0    0  502    0  0.00000000000E+00  0.00000000000E+00  0.71016013287E+03  0.71016013287E+03  0.00000000000E+00 0. -1.
          1   -1    0    0  501    0 -0.00000000000E+00 -0.00000000000E+00 -0.81829517921E+02  0.81829517921E+02  0.00000000000E+00 0. -1.
         25    2    1    2    0    0 -0.59708745956E+02  0.21649448533E+02  0.30809622191E+03  0.33849786059E+03  0.12499474669E+03 0.  0.
          2    1    1    2  501    0  0.27527360390E+02 -0.35110168647E+02 -0.58267134080E+02  0.73386227771E+02  0.00000000000E+00 0. -1.
          1    1    1    2  502    0  0.32181385566E+02  0.13460720114E+02  0.37850152711E+03  0.38010556243E+03  0.00000000000E+00 0. -1.
         22    1    3    3    0    0  0.75608151187E+01 -0.22890753161E+02  0.47039780870E+01  0.24561757172E+02  0.00000000000E+00 0. -1.
         22    1    3    3    0    0 -0.67269561075E+02  0.44540201694E+02  0.30339224383E+03  0.31393610342E+03  0.00000000000E+00 0. -1.
</event>
<event>
 7    1  0.6386201E-006  0.1334848E+03  0.7818608E-02  0.1264123E+00
          2   -1    0    0  502    0  0.00000000000E+00  0.00000000000E+00  0.14070780357E+03  0.14070780357E+03  0.00000000000E+00 0. -1.
          1   -1    0    0  501    0 -0.00000000000E+00 -0.00000000000E+00 -0.77212228398E+03  0.77212228398E+03  0.00000000000E+00 0. -1.
         25    2    1    2    0    0  0.64884945377E+02  0.80334814913E+02 -0.67284109258E+02  0.17554385246E+03  0.12499901661E+03 0.  0.
          2    1    1    2  501    0 -0.13736205653E+03 -0.31225468210E+02 -0.61842721651E+03  0.63426775621E+03  0.00000000000E+00 0. -1.
          1    1    1    2  502    0  0.72477111156E+02 -0.49109346703E+02  0.54296845360E+02  0.10301847888E+03  0.00000000000E+00 0. -1.
         22    1    3    3    0    0  0.75864168339E+01 -0.16479953212E+02  0.24406979820E+02  0.30411235459E+02  0.00000000000E+00 0.  1.
         22    1    3    3    0    0  0.57298528543E+02  0.96814768125E+02 -0.91691089078E+02  0.14513261700E+03  0.00000000000E+00 0.  1.
</event>
<event>
 7    1  0.6386201E-006  0.6868151E+02  0.7818608E-02  0.1383067E+00
          2   -1    0    0  502    0  0.00000000000E+00  0.00000000000E+00  0.11270920381E+03  0.11270920381E+03  0.00000000000E+00 0. -1.
          1   -1    0    0  501    0 -0.00000000000E+00 -0.00000000000E+00 -0.13545243593E+04  0.13545243593E+04  0.00000000000E+00 0. -1.
         25    2    1    2    0    0  0.83511129179E+02  0.63548339971E+02 -0.64392885146E+02  0.17545269202E+03  0.12499881308E+03 0.  0.
          2    1    1    2  501    0 -0.19106350085E+02 -0.55835177825E+02 -0.12152563326E+04  0.12166883634E+04  0.00000000000E+00 0. -1.
          1    1    1    2  502    0 -0.64404779094E+02 -0.77131621458E+01  0.37834062271E+02  0.75092507671E+02  0.00000000000E+00 0. -1.
         22    1    3    3    0    0  0.91696701082E+02  0.24898371549E+02 -0.87934616341E+02  0.12946316328E+03  0.00000000000E+00 0.  1.
         22    1    3    3    0    0 -0.81855719027E+01  0.38649968422E+02  0.23541731196E+02  0.45989528744E+02  0.00000000000E+00 0.  1.
</event>
<event>
 7    1  0.6386201E-006  0.6883095E+02  0.7818608E-02  0.1466221E+00
          2   -1    0    0  502    0  0.00000000000E+00  0.00000000000E+00  0.86884841425E+02  0.86884841425E+02  0.00000000000E+00 0. -1.
          1   -1    0    0  501    0 -0.00000000000E+00 -0.00000000000E+00 -0.90548471147E+03  0.90548471147E+03  0.00000000000E+00 0. -1.
         25    2    1    2    0    0  0.53045469674E+02  0.22893914470E+02 -0.14301842500E+03  0.19853716930E+03  0.12499913812E+03 0.  0.
          2    1    1    2  501    0 -0.64672699138E+01  0.30503029878E+02 -0.71301385664E+03  0.71369532727E+03  0.00000000000E+00 0. -1.
          1    1    1    2  502    0 -0.46578199760E+02 -0.53396944348E+02  0.37432411594E+02  0.80137056324E+02  0.00000000000E+00 0. -1.
         22    1    3    3    0    0  0.31280360981E+02 -0.29392753929E+02  0.18791912854E+01  0.42964244745E+02  0.00000000000E+00 0. -1.
         22    1    3    3    0    0  0.21765108693E+02  0.52286668399E+02 -0.14489761628E+03  0.15557292455E+03  0.00000000000E+00 0. -1.
</event>
<event>
 7    1  0.6386201E-006  0.9902390E+02  0.7818608E-02  0.1319276E+00
          2   -1    0    0  502    0  0.00000000000E+00  0.00000000000E+00  0.15982052771E+04  0.15982052771E+04  0.00000000000E+00 0. -1.
          1   -1    0    0  501    0 -0.00000000000E+00 -0.00000000000E+00 -0.24671012795E+02  0.24671012795E+02  0.00000000000E+00 0. -1.
         25    2    1    2    0    0 -0.64702680828E+02 -0.83722389651E+02  0.10222911145E+04  0.10353259356E+04  0.12499917832E+03 0.  0.
          2    1    1    2  501    0  0.98962389550E+02  0.22118358105E+02  0.15593524505E+03  0.18600692718E+03  0.00000000000E+00 0. -1.
          1    1    1    2  502    0 -0.34259708722E+02  0.61604031547E+02  0.39530790474E+03  0.40154342716E+03  0.00000000000E+00 0. -1.
         22    1    3    3    0    0 -0.82174415649E+00 -0.77183184699E+02  0.80643871523E+03  0.81012426250E+03  0.00000000000E+00 0.  1.
         22    1    3    3    0    0 -0.63880936672E+02 -0.65392049528E+01  0.21585239930E+03  0.22520167307E+03  0.00000000000E+00 0.  1.
</event>
<event>
 7    1  0.6386201E-006  0.7913125E+02  0.7818608E-02  0.1341924E+00
          2   -1    0    0  502    0  0.00000000000E+00  0.00000000000E+00  0.32463740248E+03  0.32463740248E+03  0.00000000000E+00 0. -1.
          1   -1    0    0  501    0 -0.00000000000E+00 -0.00000000000E+00 -0.12572489082E+04  0.12572489082E+04  0.00000000000E+00 0. -1.
         25    2    1    2    0    0  0.13334189777E+03 -0.63732072383E+02 -0.64958061245E+02  0.20417619610E+03  0.12500612217E+03 0.  0.
          2    1    1    2  501    0 -0.68063259370E+02  0.24349991377E+02 -0.11157882892E+04  0.11181274685E+04  0.00000000000E+00 0. -1.
          1    1    1    2  502    0 -0.65278638399E+02  0.39382081006E+02  0.24813484480E+03  0.25958264607E+03  0.00000000000E+00 0. -1.
         22    1    3    3    0    0  0.12021065601E+03 -0.54020332340E+01 -0.77440575484E+02  0.14309726242E+03  0.00000000000E+00 0. -1.
         22    1    3    3    0    0  0.13131241762E+02 -0.58330039149E+02  0.12482514239E+02  0.61078933677E+02  0.00000000000E+00 0. -1.
</event>
<event>
 7    1  0.6386201E-006  0.4763145E+02  0.7818608E-02  0.1512098E+00
          2   -1    0    0  502    0  0.00000000000E+00  0.00000000000E+00  0.41892754622E+03  0.41892754622E+03  0.00000000000E+00 0. -1.
          1   -1    0    0  501    0 -0.00000000000E+00 -0.00000000000E+00 -0.34726809886E+03  0.34726809886E+03  0.00000000000E+00 0. -1.
         25    2    1    2    0    0  0.47487733258E+02 -0.54204993165E+02 -0.52636693460E+02  0.15358543674E+03  0.12499839514E+03 0.  0.
          2    1    1    2  501    0 -0.41181347197E+02  0.22100353643E+02 -0.24118293470E+03  0.24566956869E+03  0.00000000000E+00 0. -1.
          1    1    1    2  502    0 -0.63063860604E+01  0.32104639522E+02  0.36547907552E+03  0.36694063965E+03  0.00000000000E+00 0. -1.
         22    1    3    3    0    0  0.29412853476E+02 -0.82979863814E+02 -0.72654649408E+02  0.11414671186E+03  0.00000000000E+00 0.  1.
         22    1    3    3    0    0  0.18074879782E+02  0.28774870649E+02  0.20017955948E+02  0.39438724882E+02  0.00000000000E+00 0.  1.
</event>
<event>
 7    1  0.6386201E-006  0.3736830E+02  0.7818608E-02  0.1546928E+00
          2   -1    0    0  502    0  0.00000000000E+00  0.00000000000E+00  0.49014620846E+03  0.49014620846E+03  0.00000000000E+00 0. -1.
          1   -1    0    0  501    0 -0.00000000000E+00 -0.00000000000E+00 -0.14009064428E+04  0.14009064428E+04  0.00000000000E+00 0. -1.
         25    2    1    2    0    0  0.38639582608E+02  0.10606212493E+01 -0.96433759123E+01  0.13119425013E+03  0.12499917722E+03 0.  0.
          2    1    1    2  501    0 -0.22428226643E+02 -0.29961270909E+02 -0.13295845773E+04  0.13301112177E+04  0.00000000000E+00 0. -1.
          1    1    1    2  502    0 -0.16211355965E+02  0.28900649660E+02  0.42846771887E+03  0.42974718350E+03  0.00000000000E+00 0. -1.
         22    1    3    3    0    0  0.53310534750E+01  0.29323198637E+02  0.49432355053E+02  0.57721987453E+02  0.00000000000E+00 0.  1.
         22    1    3    3    0    0  0.33308529133E+02 -0.28262577388E+02 -0.59075730965E+02  0.73472262676E+02  0.00000000000E+00 0.  1.
</event>
<event>
 7    1  0.6386201E-006  0.1487319E+03  0.7818608E-02  0.1252649E+00
          2   -1    0    0  502    0  0.00000000000E+00  0.00000000000E+00  0.10637791091E+04  0.10637791091E+04  0.00000000000E+00 0. -1.
          1   -1    0    0  501    0 -0.00000000000E+00 -0.00000000000E+00 -0.15363707915E+04  0.15363707915E+04  0.00000000000E+00 0. -1.
         25    2    1    2    0    0  0.87235947857E+02  0.15508473707E+02  0.18515936382E+03  0.24033206767E+03  0.12499955753E+03 0.  0.
          2    1    1    2  501    0 -0.11185116141E+03 -0.99972631698E+02 -0.15027659981E+04  0.15102353639E+04  0.00000000000E+00 0. -1.
          1    1    1    2  502    0  0.24615213556E+02  0.84464157991E+02  0.84501495185E+03  0.84958246897E+03  0.00000000000E+00 0. -1.
         22    1    3    3    0    0  0.90809187834E+02  0.47136866730E+02  0.78312690689E+02  0.12884514086E+03  0.00000000000E+00 0. -1.
         22    1    3    3    0    0 -0.35732399761E+01 -0.31628393024E+02  0.10684667314E+03  0.11148692681E+03  0.00000000000E+00 0. -1.
</event>
<event>
 7    1  0.6386201E-006  0.1332920E+03  0.7818608E-02  0.1323777E+00
          2   -1    0    0  502    0  0.00000000000E+00  0.00000000000E+00  0.11888368954E+03  0.11888368954E+03  0.00000000000E+00 0. -1.
          1   -1    0    0  501    0 -0.00000000000E+00 -0.00000000000E+00 -0.42923110971E+04  0.42923110971E+04  0.00000000000E+00 0. -1.
         25    2    1    2    0    0  0.55050550216E+02 -0.10936225259E+03 -0.11114140800E+04  0.11251029249E+04  0.12499867667E+03 0.  0.
          2    1    1    2  501    0 -0.44114320857E+02 -0.24183561900E+02 -0.31337163360E+04  0.31341201305E+04  0.00000000000E+00 0. -1.
          1    1    1    2  502    0 -0.10936229359E+02  0.13354581449E+03  0.71703008383E+02  0.15197173123E+03  0.00000000000E+00 0. -1.
         22    1    3    3    0    0  0.31498104775E+02  0.55891662098E+01 -0.58031043947E+03  0.58119151366E+03  0.00000000000E+00 0.  1.
         22    1    3    3    0    0  0.23552445441E+02 -0.11495141880E+03 -0.53110364051E+03  0.54391141129E+03  0.00000000000E+00 0.  1.
</event>
<event>
 7    1  0.6386201E-006  0.5632242E+02  0.7818608E-02  0.1516719E+00
          2   -1    0    0  502    0  0.00000000000E+00  0.00000000000E+00  0.71075581249E+03  0.71075581249E+03  0.00000000000E+00 0. -1.
          1   -1    0    0  501    0 -0.00000000000E+00 -0.00000000000E+00 -0.20882037352E+04  0.20882037352E+04  0.00000000000E+00 0. -1.
         25    2    1    2    0    0  0.43156727583E+02  0.78732114599E+00 -0.14755124193E+03  0.19814068816E+03  0.12500096120E+03 0.  0.
          2    1    1    2  501    0 -0.49901854178E+02 -0.26746672333E+02 -0.19146767752E+04  0.19155136995E+04  0.00000000000E+00 0. -1.
          1    1    1    2  502    0  0.67451265948E+01  0.25959351187E+02  0.68478009441E+03  0.68530516002E+03  0.00000000000E+00 0. -1.
         22    1    3    3    0    0  0.42683032551E+02  0.43736049826E+02 -0.21193826431E+02  0.64682776695E+02  0.00000000000E+00 0. -1.
         22    1    3    3    0    0  0.47369503204E+00 -0.42948728680E+02 -0.12635741549E+03  0.13345791147E+03  0.00000000000E+00 0. -1.
</event>
<event>
 7    1  0.6386201E-006  0.3268487E+02  0.7818608E-02  0.1643709E+00
          2   -1    0    0  502    0  0.00000000000E+00  0.00000000000E+00  0.10224248862E+04  0.10224248862E+04  0.00000000000E+00 0. -1.
          1   -1    0    0  501    0 -0.00000000000E+00 -0.00000000000E+00 -0.87902084983E+03  0.87902084983E+03  0.00000000000E+00 0. -1.
         25    2    1    2    0    0  0.14417944215E+02 -0.19037401153E+01 -0.55521180898E+02  0.13751355723E+03  0.12496349688E+03 0.  0.
          2    1    1    2  501    0 -0.30846450254E+02 -0.11300879509E+02 -0.78204542994E+03  0.78273511986E+03  0.00000000000E+00 0. -1.
          1    1    1    2  502    0  0.16428506039E+02  0.13204619624E+02  0.98097064722E+03  0.98119705895E+03  0.00000000000E+00 0. -1.
         22    1    3    3    0    0  0.51002404849E+02 -0.26515898304E+02  0.10190298368E+02  0.58379622678E+02  0.00000000000E+00 0. -1.
         22    1    3    3    0    0 -0.36584460633E+02  0.24612158188E+02 -0.65711479266E+02  0.79133934553E+02  0.00000000000E+00 0. -1.
</event>
<event>
 7    1  0.6386201E-006  0.1210764E+03  0.7818608E-02  0.1245610E+00
          2   -1    0    0  502    0  0.00000000000E+00  0.00000000000E+00  0.88977521592E+03  0.88977521592E+03  0.00000000000E+00 0. -1.
          1   -1    0    0  501    0 -0.00000000000E+00 -0.00000000000E+00 -0.17120269798E+03  0.17120269798E+03  0.00000000000E+00 0. -1.
         25    2    1    2    0    0 -0.58671260290E+02 -0.13928848830E+03  0.17744223511E+03  0.26448963216E+03  0.12500167585E+03 0.  0.
          2    1    1    2  501    0 -0.53733564203E+02  0.11080644246E+03 -0.91436034587E+02  0.15338158962E+03  0.00000000000E+00 0. -1.
          1    1    1    2  502    0  0.11240482449E+03  0.28482045839E+02  0.63256631742E+03  0.64310669211E+03  0.00000000000E+00 0. -1.
         22    1    3    3    0    0 -0.84248865963E+02 -0.13706883797E+03  0.11734188918E+03  0.19913527241E+03  0.00000000000E+00 0.  1.
         22    1    3    3    0    0  0.25577605673E+02 -0.22196503275E+01  0.60100345922E+02  0.65354359758E+02  0.00000000000E+00 0.  1.
</event>
<event>
 7    1  0.6386201E-006  0.1783723E+03  0.7818608E-02  0.1306065E+00
          2   -1    0    0  502    0  0.00000000000E+00  0.00000000000E+00  0.40190576008E+03  0.40190576008E+03  0.00000000000E+00 0. -1.
          1   -1    0    0  501    0 -0.00000000000E+00 -0.00000000000E+00 -0.23596894199E+04  0.23596894199E+04  0.00000000000E+00 0. -1.
         25    2    1    2    0    0  0.77421843998E+02  0.19437307092E+03 -0.10332888414E+04  0.10616428617E+04  0.12499881344E+03 0.  0.
          2    1    1    2  501    0 -0.71964116390E+02 -0.15061781201E+03 -0.13056386948E+04  0.13162662955E+04  0.00000000000E+00 0. -1.
          1    1    1    2  502    0 -0.54577276089E+01 -0.43755258904E+02  0.38114387645E+03  0.38368602272E+03  0.00000000000E+00 0. -1.
         22    1    3    3    0    0  0.52399204884E+02  0.19935746507E+03 -0.99134640059E+03  0.10125496341E+04  0.00000000000E+00 0.  1.
         22    1    3    3    0    0  0.25022639114E+02 -0.49843941467E+01 -0.41942440834E+02  0.49093227602E+02  0.00000000000E+00 0.  1.
</event>
<event>
 7    1  0.6386201E-006  0.6981526E+02  0.7818608E-02  0.1513397E+00
          2   -1    0    0  502    0  0.00000000000E+00  0.00000000000E+00  0.43678603512E+03  0.43678603512E+03  0.00000000000E+00 0. -1.
          1   -1    0    0  501    0 -0.00000000000E+00 -0.00000000000E+00 -0.16700468512E+03  0.16700468512E+03  0.00000000000E+00 0. -1.
         25    2    1    2    0    0  0.59098212857E+02  0.62076297544E+02  0.25593093468E+03  0.29744187731E+03  0.12499984629E+03 0.  0.
          2    1    1    2  501    0 -0.19250624888E+02 -0.10909531963E+02 -0.13876896696E+03  0.14052199343E+03  0.00000000000E+00 0. -1.
          1    1    1    2  502    0 -0.39847587968E+02 -0.51166765581E+02  0.15261938229E+03  0.16582684950E+03  0.00000000000E+00 0. -1.
         22    1    3    3    0    0 -0.15818805103E+02  0.41219620485E+02  0.19128737701E+03  0.19631645961E+03  0.00000000000E+00 0. -1.
         22    1    3    3    0    0  0.74917017959E+02  0.20856677060E+02  0.64643557664E+02  0.10112541770E+03  0.00000000000E+00 0. -1.
</event>
<event>
 7    1  0.6386201E-006  0.9770530E+02  0.7818608E-02  0.1301825E+00
          2   -1    0    0  502    0  0.00000000000E+00  0.00000000000E+00  0.20395672180E+03  0.20395672180E+03  0.00000000000E+00 0. -1.
          1   -1    0    0  501    0 -0.00000000000E+00 -0.00000000000E+00 -0.59025771744E+03  0.59025771744E+03  0.00000000000E+00 0. -1.
         25    2    1    2    0    0  0.26759946875E+02 -0.24864588403E+02 -0.16835516979E+03  0.21284495132E+03  0.12500067038E+03 0.  0.
          2    1    1    2  501    0  0.36477198684E+02  0.99345388454E+02 -0.37872327127E+03  0.39323200332E+03  0.00000000000E+00 0. -1.
          1    1    1    2  502    0 -0.63237145559E+02 -0.74480800051E+02  0.16077744542E+03  0.18813748460E+03  0.00000000000E+00 0. -1.
         22    1    3    3    0    0 -0.24523199398E+02  0.27819738676E+02 -0.11810494187E+03  0.12379055886E+03  0.00000000000E+00 0.  1.
         22    1    3    3    0    0  0.51283146273E+02 -0.52684327078E+02 -0.50250227921E+02  0.89054392466E+02  0.00000000000E+00 0.  1.
</event>
<event>
 7    1  0.6386201E-006  0.6198514E+02  0.7818608E-02  0.1497915E+00
          2   -1    0    0  502    0  0.00000000000E+00  0.00000000000E+00  0.64818389729E+03  0.64818389729E+03  0.00000000000E+00 0. -1.
          1   -1    0    0  501    0 -0.00000000000E+00 -0.00000000000E+00 -0.65629862765E+03  0.65629862765E+03  0.00000000000E+00 0. -1.
         25    2    1    2    0    0  0.29630467868E+02  0.47891694841E+02  0.17118375093E+03  0.21931719300E+03  0.12499830200E+03 0.  0.
          2    1    1    2  501    0 -0.56871696828E+01 -0.61814194878E+02 -0.63028233100E+03  0.63333178932E+03  0.00000000000E+00 0. -1.
          1    1    1    2  502    0 -0.23943298185E+02  0.13922500037E+02  0.45098384971E+03  0.45183354262E+03  0.00000000000E+00 0. -1.
         22    1    3    3    0    0 -0.48683340571E+02  0.22244047240E+02  0.81677041364E+02  0.97652467315E+02  0.00000000000E+00 0. -1.
         22    1    3    3    0    0  0.78313808439E+02  0.25647647601E+02  0.89506709567E+02  0.12166472569E+03  0.00000000000E+00 0. -1.
</event>
<event>
 7    1  0.6386201E-006  0.4088160E+02  0.7818608E-02  0.1546421E+00
          2   -1    0    0  502    0  0.00000000000E+00  0.00000000000E+00  0.12052264505E+04  0.12052264505E+04  0.00000000000E+00 0. -1.
          1   -1    0    0  501    0 -0.00000000000E+00 -0.00000000000E+00 -0.59438477511E+03  0.59438477511E+03  0.00000000000E+00 0. -1.
         25    2    1    2    0    0 -0.49886174591E+02  0.30014946789E+02  0.96513701542E+03  0.97493770274E+03  0.12499815299E+03 0.  0.
          2    1    1    2  501    0  0.12940550964E+02 -0.27495373803E+02 -0.58763169952E+03  0.58841691658E+03  0.00000000000E+00 0. -1.
          1    1    1    2  502    0  0.36945623627E+02 -0.25195729860E+01  0.23333635947E+03  0.23625660627E+03  0.00000000000E+00 0. -1.
         22    1    3    3    0    0 -0.21249378628E+02  0.21190379615E+02  0.92158016342E+03  0.92206863404E+03  0.00000000000E+00 0.  1.
         22    1    3    3    0    0 -0.28636795963E+02  0.88245671740E+01  0.43556851998E+02  0.52869068697E+02  0.00000000000E+00 0.  1.
</event>
<event>
 7    1  0.6386201E-006  0.7968590E+02  0.7818608E-02  0.1383481E+00
          2   -1    0    0  502    0  0.00000000000E+00  0.00000000000E+00  0.22037892336E+03  0.22037892336E+03  0.00000000000E+00 0. -1.
          1   -1    0    0  501    0 -0.00000000000E+00 -0.00000000000E+00 -0.26840001498E+03  0.26840001498E+03  0.00000000000E+00 0. -1.
         25    2    1    2    0    0  0.23338513375E+02 -0.22323256816E+02  0.12353997487E+03  0.17868817981E+03  0.12499730482E+03 0.  0.
          2    1    1    2  501    0 -0.47237156602E+02  0.67029841624E+02 -0.22316423181E+03  0.23775328177E+03  0.00000000000E+00 0. -1.
          1    1    1    2  502    0  0.23898643226E+02 -0.44706584809E+02  0.51603165319E+02  0.72337476762E+02  0.00000000000E+00 0. -1.
         22    1    3    3    0    0 -0.44546949285E+02 -0.38443104519E+02  0.48829334793E+02  0.76463108176E+02  0.00000000000E+00 0. -1.
         22    1    3    3    0    0  0.67885462660E+02  0.16119847704E+02  0.74710640077E+02  0.10222507164E+03  0.00000000000E+00 0. -1.
</event>
<event>
 7    1  0.6386201E-006  0.7126612E+02  0.7818608E-02  0.1464511E+00
          2   -1    0    0  502    0  0.00000000000E+00  0.00000000000E+00  0.19164235658E+04  0.19164235658E+04  0.00000000000E+00 0. -1.
          1   -1    0    0  501    0 -0.00000000000E+00 -0.00000000000E+00 -0.10323045712E+04  0.10323045712E+04  0.00000000000E+00 0. -1.
         25    2    1    2    0    0  0.93990755811E+02 -0.70796463736E+01  0.15377505576E+04  0.15456989796E+04  0.12499669808E+03 0.  0.
          2    1    1    2  501    0 -0.70228118801E+02 -0.12023604492E+02 -0.10264731581E+04  0.10289430014E+04  0.00000000000E+00 0. -1.
          1    1    1    2  502    0 -0.23762637010E+02  0.19103250866E+02  0.37284159513E+03  0.37408615608E+03  0.00000000000E+00 0. -1.
         22    1    3    3    0    0  0.98545177726E+02 -0.32210968204E+02  0.14637076426E+04  0.14673747856E+04  0.00000000000E+00 0. -1.
         22    1    3    3    0    0 -0.45544219147E+01  0.25131321830E+02  0.74042914988E+02  0.78324193937E+02  0.00000000000E+00 0. -1.
</event>
<event>
 7    1  0.6386201E-006  0.1177492E+03  0.7818608E-02  0.1357515E+00
          2   -1    0    0  502    0  0.00000000000E+00  0.00000000000E+00  0.83439965388E+03  0.83439965388E+03  0.00000000000E+00 0. -1.
          1   -1    0    0  501    0 -0.00000000000E+00 -0.00000000000E+00 -0.79019102506E+03  0.79019102506E+03  0.00000000000E+00 0. -1.
         25    2    1    2    0    0  0.41836504850E+02  0.15258194868E+03  0.13125910667E+03  0.24059384933E+03  0.12499961220E+03 0.  0.
          2    1    1    2  501    0 -0.38618274310E+02 -0.11017714087E+03 -0.73018409945E+03  0.73945871594E+03  0.00000000000E+00 0. -1.
          1    1    1    2  502    0 -0.32182305403E+01 -0.42404807809E+02  0.64313362161E+03  0.64453811367E+03  0.00000000000E+00 0. -1.
         22    1    3    3    0    0  0.39613701747E+02  0.82362989652E+02 -0.36408064913E+00  0.91394966958E+02  0.00000000000E+00 0.  1.
         22    1    3    3    0    0  0.22228031033E+01  0.70218959028E+02  0.13162318732E+03  0.14919888237E+03  0.00000000000E+00 0.  1.
</event>
<event>
 7    1  0.6386201E-006  0.6141331E+02  0.7818608E-02  0.1432447E+00
          2   -1    0    0  502    0  0.00000000000E+00  0.00000000000E+00  0.17971725027E+03  0.17971725027E+03  0.00000000000E+00 0. -1.
          1   -1    0    0  501    0 -0.00000000000E+00 -0.00000000000E+00 -0.76100222911E+03  0.76100222911E+03  0.00000000000E+00 0. -1.
         25    2    1    2    0    0 -0.25767751569E+02 -0.27168708977E+02  0.10505336042E+02  0.13091143050E+03  0.12500129912E+03 0.  0.
          2    1    1    2  501    0  0.62095242239E+02  0.89601615573E+00 -0.69474525776E+03  0.69751530100E+03  0.00000000000E+00 0. -1.
          1    1    1    2  502    0 -0.36327490671E+02  0.26272692822E+02  0.10295494287E+03  0.11229274788E+03  0.00000000000E+00 0. -1.
         22    1    3    3    0    0 -0.23942538785E+02  0.48851882338E+02  0.27222859167E+01  0.54471666140E+02  0.00000000000E+00 0.  1.
         22    1    3    3    0    0 -0.18252127839E+01 -0.76020591316E+02  0.77830501253E+01  0.76439764357E+02  0.00000000000E+00 0.  1.
</event>
<event>
 7    1  0.6386201E-006  0.4333820E+02  0.7818608E-02  0.1510496E+00
          2   -1    0    0  502    0  0.00000000000E+00  0.00000000000E+00  0.23948555073E+02  0.23948555073E+02  0.00000000000E+00 0. -1.
          1   -1    0    0  501    0 -0.00000000000E+00 -0.00000000000E+00 -0.17495202020E+04  0.17495202020E+04  0.00000000000E+00 0. -1.
         25    2    1    2    0    0  0.64110491161E+02  0.42485184301E+02 -0.67228843453E+03  0.68812216689E+03  0.12500092560E+03 0.  0.
          2    1    1    2  501    0 -0.30737417566E+02 -0.28075054762E+02 -0.10477499322E+04  0.10485766152E+04  0.00000000000E+00 0. -1.
          1    1    1    2  502    0 -0.33373073595E+02 -0.14410129539E+02 -0.55332802736E+01  0.36769975049E+02  0.00000000000E+00 0. -1.
         22    1    3    3    0    0  0.17026846622E+02  0.10148383725E+02 -0.79882747741E+01  0.21370908544E+02  0.00000000000E+00 0.  1.
         22    1    3    3    0    0  0.47083644539E+02  0.32336800577E+02 -0.66430015975E+03  0.66675125834E+03  0.00000000000E+00 0.  1.
</event>
<event>
 7    1  0.7173088E-006  0.1283441E+03  0.7818608E-02  0.1345046E+00
          2   -1    0    0  502    0  0.00000000000E+00  0.00000000000E+00  0.20689246788E+04  0.20689246788E+04  0.00000000000E+00 0. -1.
          1   -1    0    0  501    0 -0.00000000000E+00 -0.00000000000E+00 -0.44387902577E+03  0.44387902577E+03  0.00000000000E+00 0. -1.
         25    2    1    2    0    0 -0.78740274789E+02 -0.66278644202E+02 -0.13876566576E+03  0.21324661316E+03  0.12500127392E+03 0.  0.
          2    1    1    2  501    0  0.96546537934E+01 -0.42298942838E+02 -0.26406285960E+03  0.26760345051E+03  0.00000000000E+00 0. -1.
          1    1    1    2  502    0  0.69085620996E+02  0.10857758704E+03  0.20278741784E+04  0.20319536409E+04  0.00000000000E+00 0. -1.
         22    1    3    3    0    0 -0.25037563772E+02 -0.69303588178E+02 -0.10849862889E+02  0.74482121739E+02  0.00000000000E+00 0. -1.
         22    1    3    3    0    0 -0.53702711017E+02  0.30249439768E+01 -0.12791580287E+03  0.13876449142E+03  0.00000000000E+00 0. -1.
</event>
<event>
 7    1  0.6386201E-006  0.6566974E+02  0.7818608E-02  0.1494756E+00
          2   -1    0    0  502    0  0.00000000000E+00  0.00000000000E+00  0.10833691719E+04  0.10833691719E+04  0.00000000000E+00 0. -1.
          1   -1    0    0  501    0 -0.00000000000E+00 -0.00000000000E+00 -0.13016160843E+04  0.13016160843E+04  0.00000000000E+00 0. -1.
         25    2    1    2    0    0 -0.80272423460E+02 -0.19421307086E+02 -0.14736119543E+03  0.21014554568E+03  0.12499991725E+03 0.  0.
          2    1    1    2  501    0  0.14743534368E+02  0.22283412529E+02 -0.11216810482E+04  0.11219992407E+04  0.00000000000E+00 0. -1.
          1    1    1    2  502    0  0.65528889092E+02 -0.28621054431E+01  0.10507953311E+04  0.10528404698E+04  0.00000000000E+00 0. -1.
         22    1    3    3    0    0 -0.92722838840E+02  0.30369625684E+02 -0.10737626737E+03  0.14508446437E+03  0.00000000000E+00 0. -1.
         22    1    3    3    0    0  0.12450415380E+02 -0.49790932770E+02 -0.39984928053E+02  0.65061081306E+02  0.00000000000E+00 0. -1.
</event>
<event>
 7    1  0.6386201E-006  0.3547221E+02  0.7818608E-02  0.1629331E+00
          2   -1    0    0  502    0  0.00000000000E+00  0.00000000000E+00  0.15039265339E+04  0.15039265339E+04  0.00000000000E+00 0. -1.
          1   -1    0    0  501    0 -0.00000000000E+00 -0.00000000000E+00 -0.29207084011E+03  0.29207084011E+03  0.00000000000E+00 0. -1.
         25    2    1    2    0    0 -0.38957912199E+02 -0.35793182339E+02  0.12412985679E+04  0.12486982663E+04  0.12500541813E+03 0.  0.
          2    1    1    2  501    0  0.31637979714E+02  0.16011087762E+02 -0.28684795089E+03  0.28903125025E+03  0.00000000000E+00 0. -1.
          1    1    1    2  502    0  0.73199324853E+01  0.19782094576E+02  0.25740507677E+03  0.25826785751E+03  0.00000000000E+00 0. -1.
         22    1    3    3    0    0 -0.49156774662E+02  0.23438981533E+02  0.26427934010E+03  0.26983206621E+03  0.00000000000E+00 0.  1.
         22    1    3    3    0    0  0.10198862463E+02 -0.59232163872E+02  0.97701922784E+03  0.97886620005E+03  0.00000000000E+00 0.  1.
</event>
<event>
 7    1  0.6386201E-006  0.5259018E+03  0.7818608E-02  0.1059191E+00
          2   -1    0    0  502    0  0.00000000000E+00  0.00000000000E+00  0.93980006706E+03  0.93980006706E+03  0.00000000000E+00 0. -1.
          1   -1    0    0  501    0 -0.00000000000E+00 -0.00000000000E+00 -0.25316380672E+04  0.25316380672E+04  0.00000000000E+00 0. -1.
         25    2    1    2    0    0  0.26190575024E+02  0.22267596924E+03 -0.18069309555E+04  0.18250748523E+04  0.12501281839E+03 0.  0.
          2    1    1    2  501    0 -0.92034958231E+02 -0.74443955110E+03 -0.38937150351E+03  0.84514545880E+03  0.00000000000E+00 0. -1.
          1    1    1    2  502    0  0.65844383207E+02  0.52176358186E+03  0.60446445891E+03  0.80121782321E+03  0.00000000000E+00 0. -1.
         22    1    3    3    0    0  0.14653811407E+02  0.23743591680E+03 -0.16868099149E+04  0.17035017575E+04  0.00000000000E+00 0.  1.
         22    1    3    3    0    0  0.11536763617E+02 -0.14759947557E+02 -0.12012104059E+03  0.12157309472E+03  0.00000000000E+00 0.  1.
</event>
<event>
 7    1  0.6386201E-006  0.5160066E+02  0.7818608E-02  0.1439910E+00
          2   -1    0    0  502    0  0.00000000000E+00  0.00000000000E+00  0.22243058154E+04  0.22243058154E+04  0.00000000000E+00 0. -1.
          1   -1    0    0  501    0 -0.00000000000E+00 -0.00000000000E+00 -0.14178584421E+03  0.14178584421E+03  0.00000000000E+00 0. -1.
         25    2    1    2    0    0 -0.41465222667E+02 -0.28531763054E+02  0.38796916184E+03  0.41070512123E+03  0.12500079946E+03 0.  0.
          2    1    1    2  501    0 -0.32820673884E+01  0.51828040346E+02 -0.12488457068E+03  0.13525188991E+03  0.00000000000E+00 0. -1.
          1    1    1    2  502    0  0.44747290055E+02 -0.23296277292E+02  0.18194353800E+04  0.18201346485E+04  0.00000000000E+00 0. -1.
         22    1    3    3    0    0  0.27412777857E+02  0.22503641815E+02  0.45610882773E+02  0.57777391011E+02  0.00000000000E+00 0. -1.
         22    1    3    3    0    0 -0.68878000524E+02 -0.51035404869E+02  0.34235827907E+03  0.35292773021E+03  0.00000000000E+00 0. -1.
</event>
<event>
 7    1  0.6386201E-006  0.1546740E+03  0.7818608E-02  0.1257066E+00
          2   -1    0    0  502    0  0.00000000000E+00  0.00000000000E+00  0.15770710504E+04  0.15770710504E+04  0.00000000000E+00 0. -1.
          1   -1    0    0  501    0 -0.00000000000E+00 -0.00000000000E+00 -0.62473347425E+03  0.62473347425E+03  0.00000000000E+00 0. -1.
         25    2    1    2    0    0  0.16013870654E+03  0.13883736120E+03  0.51975192175E+03  0.57505330847E+03  0.12499611683E+03 0.  0.
          2    1    1    2  501    0 -0.78792556014E+02 -0.18671938437E+02 -0.58918727599E+03  0.59472561266E+03  0.00000000000E+00 0. -1.
          1    1    1    2  502    0 -0.81346150523E+02 -0.12016542276E+03  0.10217729304E+04  0.10320256035E+04  0.00000000000E+00 0. -1.
         22    1    3    3    0    0  0.11409248365E+03  0.18021047310E+02  0.27436823368E+03  0.29769074662E+03  0.00000000000E+00 0. -1.
         22    1    3    3    0    0  0.46046222886E+02  0.12081631389E+03  0.24538368807E+03  0.27736256185E+03  0.00000000000E+00 0. -1.
</event>
<event>
 7    1  0.6386201E-006  0.6098514E+02  0.7818608E-02  0.1457654E+00
          2   -1    0    0  502    0  0.00000000000E+00  0.00000000000E+00  0.21852155503E+03  0.21852155503E+03  0.00000000000E+00 0. -1.
          1   -1    0    0  501    0 -0.00000000000E+00 -0.00000000000E+00 -0.22049828051E+03  0.22049828051E+03  0.00000000000E+00 0. -1.
         25    2    1    2    0    0 -0.22805598832E+02 -0.23392912700E+02 -0.37967388596E+02  0.13466233748E+03  0.12500039534E+03 0.  0.
          2    1    1    2  501    0  0.26450135611E+02  0.60661042280E+02 -0.12372480578E+03  0.14031108043E+03  0.00000000000E+00 0. -1.
          1    1    1    2  502    0 -0.36445367793E+01 -0.37268129580E+02  0.15971546891E+03  0.16404641763E+03  0.00000000000E+00 0. -1.
         22    1    3    3    0    0 -0.38848714150E+02  0.39983615435E+02  0.57075164542E+01  0.56040055661E+02  0.00000000000E+00 0.  1.
         22    1    3    3    0    0  0.16043115317E+02 -0.63376528135E+02 -0.43674905050E+02  0.78622281821E+02  0.00000000000E+00 0.  1.
</event>
<event>
 7    1  0.6386201E-006  0.9632617E+02  0.7818608E-02  0.1349000E+00
          2   -1    0    0  502    0  0.00000000000E+00  0.00000000000E+00  0.17278465293E+04  0.17278465293E+04  0.00000000000E+00 0. -1.
          1   -1    0    0  501    0 -0.00000000000E+00 -0.00000000000E+00 -0.10222456708E+04  0.10222456708E+04  0.00000000000E+00 0. -1.
         25    2    1    2    0    0 -0.41713240688E+02 -0.13755347032E+02  0.13901450362E+02  0.13322127628E+03  0.12500181643E+03 0.  0.
          2    1    1    2  501    0  0.97525579455E+02  0.10967509676E+02 -0.95961041781E+03  0.96461581932E+03  0.00000000000E+00 0. -1.
          1    1    1    2  502    0 -0.55812338768E+02  0.27878373559E+01  0.16513098259E+04  0.16522551045E+04  0.00000000000E+00 0. -1.
         22    1    3    3    0    0 -0.55644057356E+02 -0.60652263954E+02 -0.18875368245E+00  0.82310350927E+02  0.00000000000E+00 0. -1.
         22    1    3    3    0    0  0.13930816669E+02  0.46896916922E+02  0.14090204045E+02  0.50910925348E+02  0.00000000000E+00 0. -1.
</event>
<event>
 7    1  0.6386201E-006  0.1086916E+03  0.7818608E-02  0.1274404E+00
          2   -1    0    0  502    0  0.00000000000E+00  0.00000000000E+00  0.16378112964E+04  0.16378112964E+04  0.00000000000E+00 0. -1.
          1   -1    0    0  501    0 -0.00000000000E+00 -0.00000000000E+00 -0.30552117776E+02  0.30552117776E+02  0.00000000000E+00 0. -1.
         25    2    1    2    0    0 -0.11136321960E+03  0.87428503809E+01  0.61474301477E+03  0.63719112137E+03  0.12500138733E+03 0.  0.
          2    1    1    2  501    0  0.27866945952E+02 -0.93257956307E+02  0.14054507960E+03  0.17095769211E+03  0.00000000000E+00 0. -1.
          1    1    1    2  502    0  0.83496273647E+02  0.84515105926E+02  0.85197108424E+03  0.86021460068E+03  0.00000000000E+00 0. -1.
         22    1    3    3    0    0 -0.27157657673E+02  0.60375300856E+02  0.19310311024E+03  0.20413604902E+03  0.00000000000E+00 0.  1.
         22    1    3    3    0    0 -0.84205561926E+02 -0.51632450475E+02  0.42163990452E+03  0.43305507235E+03  0.00000000000E+00 0.  1.
</event>
<event>
 7    1  0.6386201E-006  0.2423765E+02  0.7818608E-02  0.1700864E+00
          2   -1    0    0  502    0  0.00000000000E+00  0.00000000000E+00  0.26368040698E+02  0.26368040698E+02  0.00000000000E+00 0. -1.
          1   -1    0    0  501    0 -0.00000000000E+00 -0.00000000000E+00 -0.71331806122E+03  0.71331806122E+03  0.00000000000E+00 0. -1.
         25    2    1    2    0    0 -0.91014308749E+01 -0.27864981099E+02 -0.33048105260E+03  0.35454308754E+03  0.12499512621E+03 0.  0.
          2    1    1    2  501    0 -0.10765121586E+02  0.21828816316E+02 -0.36266042973E+03  0.36347623355E+03  0.00000000000E+00 0. -1.
          1    1    1    2  502    0  0.19866552461E+02  0.60361647832E+01  0.61914618151E+01  0.21666780827E+02  0.00000000000E+00 0. -1.
         22    1    3    3    0    0  0.24330114886E+02  0.41121320951E+02 -0.17170932094E+03  0.17823301722E+03  0.00000000000E+00 0.  1.
         22    1    3    3    0    0 -0.33431545761E+02 -0.68986302049E+02 -0.15877173166E+03  0.17631007032E+03  0.00000000000E+00 0.  1.
</event>
<event>
 7    1  0.6386201E-006  0.8961644E+02  0.7818608E-02  0.1419647E+00
          2   -1    0    0  502    0  0.00000000000E+00  0.00000000000E+00  0.96942198404E+02  0.96942198404E+02  0.00000000000E+00 0. -1.
          1   -1    0    0  501    0 -0.00000000000E+00 -0.00000000000E+00 -0.32801396937E+03  0.32801396937E+03  0.00000000000E+00 0. -1.
         25    2    1    2    0    0  0.55742784637E+02 -0.73653955419E+02 -0.96279054152E+02  0.18283117652E+03  0.12500167859E+03 0.  0.
          2    1    1    2  501    0  0.21159617143E+02  0.26450257970E+02 -0.14719554094E+03  0.15104261920E+03  0.00000000000E+00 0. -1.
          1    1    1    2  502    0 -0.76902401780E+02  0.47203697449E+02  0.12402824124E+02  0.91082372052E+02  0.00000000000E+00 0. -1.
         22    1    3    3    0    0  0.66798523671E+02 -0.91475607542E+02 -0.35757569351E+02  0.11877892618E+03  0.00000000000E+00 0.  1.
         22    1    3    3    0    0 -0.11055739034E+02  0.17821652123E+02 -0.60521484801E+02  0.64052250331E+02  0.00000000000E+00 0.  1.
</event>
<event>
 7    1  0.6386201E-006  0.1040415E+03  0.7818608E-02  0.1316029E+00
          2   -1    0    0  502    0  0.00000000000E+00  0.00000000000E+00  0.13287307284E+04  0.13287307284E+04  0.00000000000E+00 0. -1.
          1   -1    0    0  501    0 -0.00000000000E+00 -0.00000000000E+00 -0.40444967869E+03  0.40444967869E+03  0.00000000000E+00 0. -1.
         25    2    1    2    0    0 -0.42580109642E+02 -0.94331369827E+02  0.82745976574E+02  0.18216299501E+03  0.12499994817E+03 0.  0.
          2    1    1    2  501    0  0.68667759600E+02 -0.74603981769E+01 -0.34904268715E+03  0.35581134918E+03  0.00000000000E+00 0. -1.
          1    1    1    2  502    0 -0.26087649958E+02  0.10179176800E+03  0.11905777603E+04  0.11952060629E+04  0.00000000000E+00 0. -1.
         22    1    3    3    0    0 -0.53272399558E+02 -0.12053428363E+03  0.78917299083E+02  0.15360469452E+03  0.00000000000E+00 0. -1.
         22    1    3    3    0    0  0.10692289917E+02  0.26202913802E+02  0.38286774906E+01  0.28558300487E+02  0.00000000000E+00 0. -1.
</event>
<event>
 7    1  0.6386201E-006  0.1091320E+03  0.7818608E-02  0.1302775E+00
          2   -1    0    0  502    0  0.00000000000E+00  0.00000000000E+00  0.97024318432E+03  0.97024318432E+03  0.00000000000E+00 0. -1.
          1   -1    0    0  501    0 -0.00000000000E+00 -0.00000000000E+00 -0.65266155429E+03  0.65266155429E+03  0.00000000000E+00 0. -1.
         25    2    1    2    0    0  0.14051367181E+03 -0.60008665010E+02 -0.10614895950E+03  0.22413872663E+03  0.12500174130E+03 0.  0.
          2    1    1    2  501    0 -0.70598447476E+02 -0.23077253143E+02 -0.48142467771E+03  0.48712054022E+03  0.00000000000E+00 0. -1.
          1    1    1    2  502    0 -0.69915224337E+02  0.83085918153E+02  0.90515526724E+03  0.91164547177E+03  0.00000000000E+00 0. -1.
         22    1    3    3    0    0  0.64891598145E+02 -0.55562506169E+02  0.94290453942E+01  0.85947766106E+02  0.00000000000E+00 0. -1.
         22    1    3    3    0    0  0.75622073668E+02 -0.44461588418E+01 -0.11557800489E+03  0.13819096052E+03  0.00000000000E+00 0. -1.
</event>
<event>
 7    1  0.6386201E-006  0.1214337E+03  0.7818608E-02  0.1347587E+00
          2   -1    0    0  502    0  0.00000000000E+00  0.00000000000E+00  0.50818400490E+03  0.50818400490E+03  0.00000000000E+00 0. -1.
          1   -1    0    0  501    0 -0.00000000000E+00 -0.00000000000E+00 -0.48260445187E+03  0.48260445187E+03  0.00000000000E+00 0. -1.
         25    2    1    2    0    0  0.11120027440E+03 -0.10939915639E+02 -0.73064457730E+02  0.18288869877E+03  0.12499871349E+03 0.  0.
          2    1    1    2  501    0  0.66912420252E+01  0.44365027868E+02 -0.34486626785E+03  0.34777258535E+03  0.00000000000E+00 0. -1.
          1    1    1    2  502    0 -0.11789151643E+03 -0.33425112229E+02  0.44351027861E+03  0.46012717264E+03  0.00000000000E+00 0. -1.
         22    1    3    3    0    0  0.10719212608E+03  0.29066688973E+02 -0.86200882930E+02  0.14059024333E+03  0.00000000000E+00 0. -1.
         22    1    3    3    0    0  0.40081483210E+01 -0.40006604612E+02  0.13136425200E+02  0.42298455440E+02  0.00000000000E+00 0. -1.
</event>
<event>
 7    1  0.6386201E-006  0.3427423E+02  0.7818608E-02  0.1567175E+00
          2   -1    0    0  502    0  0.00000000000E+00  0.00000000000E+00  0.74820491995E+03  0.74820491995E+03  0.00000000000E+00 0. -1.
          1   -1    0    0  501    0 -0.00000000000E+00 -0.00000000000E+00 -0.64370677800E+03  0.64370677800E+03  0.00000000000E+00 0. -1.
         25    2    1    2    0    0  0.58817985043E+02  0.14470240906E+02  0.44306012632E+02  0.14578487555E+03  0.12498505490E+03 0.  0.
          2    1    1    2  501    0 -0.27572363440E+02 -0.20168431258E+02 -0.59208860994E+03  0.59307328626E+03  0.00000000000E+00 0. -1.
          1    1    1    2  502    0 -0.31245621603E+02  0.56981903519E+01  0.65228073926E+03  0.65305353613E+03  0.00000000000E+00 0. -1.
         22    1    3    3    0    0 -0.78218908192E+01 -0.40641456157E+02  0.42452645767E+02  0.59288591375E+02  0.00000000000E+00 0.  1.
         22    1    3    3    0    0  0.66639875862E+02  0.55111697063E+02  0.18533668648E+01  0.86496284179E+02  0.00000000000E+00 0.  1.
</event>
<event>
 7    1  0.6386201E-006  0.1040964E+03  0.7818608E-02  0.1410521E+00
          2   -1    0    0  502    0  0.00000000000E+00  0.00000000000E+00  0.17233664422E+04  0.17233664422E+04  0.00000000000E+00 0. -1.
          1   -1    0    0  501    0 -0.00000000000E+00 -0.00000000000E+00 -0.47224529032E+03  0.47224529032E+03  0.00000000000E+00 0. -1.
         25    2    1    2    0    0  0.57193817390E+02  0.48258358157E+02  0.42428654658E+02  0.15173866766E+03  0.12499772257E+03 0.  0.
          2    1    1    2  501    0 -0.81161198513E+02 -0.68384041064E+02 -0.41069348126E+03  0.42418469181E+03  0.00000000000E+00 0. -1.
          1    1    1    2  502    0  0.23967381123E+02  0.20125682907E+02  0.16193859785E+04  0.16196883731E+04  0.00000000000E+00 0. -1.
         22    1    3    3    0    0  0.48481739217E+02  0.84851160482E+02  0.54924051460E+02  0.11210196208E+03  0.00000000000E+00 0.  1.
         22    1    3    3    0    0  0.87120781728E+01 -0.36592802325E+02 -0.12495396803E+02  0.39636705581E+02  0.00000000000E+00 0.  1.
</event>
<event>
 7    1  0.6386201E-006  0.1048590E+03  0.7818608E-02  0.1336138E+00
          2   -1    0    0  502    0  0.00000000000E+00  0.00000000000E+00  0.39973397706E+03  0.39973397706E+03  0.00000000000E+00 0. -1.
          1   -1    0    0  501    0 -0.00000000000E+00 -0.00000000000E+00 -0.41942799467E+03  0.41942799467E+03  0.00000000000E+00 0. -1.
         25    2    1    2    0    0 -0.25427914365E+02  0.76841101787E+02 -0.23638675681E+03  0.27938199301E+03  0.12499786186E+03 0.  0.
          2    1    1    2  501    0  0.45288114256E+02 -0.13065317090E+03 -0.12915076968E+03  0.18921201248E+03  0.00000000000E+00 0. -1.
          1    1    1    2  502    0 -0.19860199890E+02  0.53812069113E+02  0.34584350888E+03  0.35056796624E+03  0.00000000000E+00 0. -1.
         22    1    3    3    0    0  0.27947145820E+02  0.18270836420E+01 -0.26078205805E+01  0.28127956241E+02  0.00000000000E+00 0.  1.
         22    1    3    3    0    0 -0.53375060185E+02  0.75014018146E+02 -0.23377893623E+03  0.25125403677E+03  0.00000000000E+00 0.  1.
</event>
<event>
 7    1  0.6386201E-006  0.1090674E+03  0.7818608E-02  0.1438205E+00
          2   -1    0    0  502    0  0.00000000000E+00  0.00000000000E+00  0.71726912395E+03  0.71726912395E+03  0.00000000000E+00 0. -1.
          1   -1    0    0  501    0 -0.00000000000E+00 -0.00000000000E+00 -0.34311807794E+03  0.34311807794E+03  0.00000000000E+00 0. -1.
         25    2    1    2    0    0  0.23657032939E+02 -0.12857790336E+03  0.10848477363E+03  0.21091538098E+03  0.12499767751E+03 0.  0.
          2    1    1    2  501    0 -0.79267450407E+01  0.22837322925E+02 -0.28626438896E+03  0.28728326960E+03  0.00000000000E+00 0. -1.
          1    1    1    2  502    0 -0.15730287898E+02  0.10574058044E+03  0.55193066133E+03  0.56218855131E+03  0.00000000000E+00 0. -1.
         22    1    3    3    0    0  0.18444403019E+02 -0.11266854719E+02  0.89365842364E+02  0.91942328660E+02  0.00000000000E+00 0.  1.
         22    1    3    3    0    0  0.52126299206E+01 -0.11731104865E+03  0.19118931268E+02  0.11897305232E+03  0.00000000000E+00 0.  1.
</event>
<event>
 7    1  0.6386201E-006  0.1068725E+03  0.7818608E-02  0.1361273E+00
          2   -1    0    0  502    0  0.00000000000E+00  0.00000000000E+00  0.13749184451E+04  0.13749184451E+04  0.00000000000E+00 0. -1.
          1   -1    0    0  501    0 -0.00000000000E+00 -0.00000000000E+00 -0.25046364387E+03  0.25046364387E+03  0.00000000000E+00 0. -1.
         25    2    1    2    0    0 -0.88799893182E+02 -0.61354153154E+02 -0.12609463670E+03  0.20778516877E+03  0.12500026327E+03 0.  0.
          2    1    1    2  501    0 -0.16471831668E+02  0.42303581598E+02 -0.75036734199E+02  0.87700773849E+02  0.00000000000E+00 0. -1.
          1    1    1    2  502    0  0.10527172485E+03  0.19050571557E+02  0.13255861721E+04  0.13298961464E+04  0.00000000000E+00 0. -1.
         22    1    3    3    0    0 -0.10953462340E+03 -0.35348991947E+02 -0.13076025826E+03  0.17419997157E+03  0.00000000000E+00 0.  1.
         22    1    3    3    0    0  0.20734730215E+02 -0.26005161207E+02  0.46656215553E+01  0.33585197201E+02  0.00000000000E+00 0.  1.
</event>
<event>
 7    1  0.6386201E-006  0.6612453E+02  0.7818608E-02  0.1402487E+00
          2   -1    0    0  502    0  0.00000000000E+00  0.00000000000E+00  0.11742712744E+04  0.11742712744E+04  0.00000000000E+00 0. -1.
          1   -1    0    0  501    0 -0.00000000000E+00 -0.00000000000E+00 -0.20029946983E+03  0.20029946983E+03  0.00000000000E+00 0. -1.
         25    2    1    2    0    0  0.42802656447E+01 -0.11603325050E+03  0.28307375358E+03  0.33050881644E+03  0.12499316734E+03 0.  0.
          2    1    1    2  501    0 -0.28220153108E+01  0.52397081122E+02 -0.17148468851E+03  0.17933325479E+03  0.00000000000E+00 0. -1.
          1    1    1    2  502    0 -0.14582503339E+01  0.63636169376E+02  0.86238273949E+03  0.86472867301E+03  0.00000000000E+00 0. -1.
         22    1    3    3    0    0  0.55622382919E+02 -0.87374720850E+02  0.12797388705E+03  0.16463750208E+03  0.00000000000E+00 0.  1.
         22    1    3    3    0    0 -0.51342117274E+02 -0.28658529648E+02  0.15509986654E+03  0.16587131436E+03  0.00000000000E+00 0.  1.
</event>
<event>
 7    1  0.6386201E-006  0.3258358E+02  0.7818608E-02  0.1631930E+00
          2   -1    0    0  502    0  0.00000000000E+00  0.00000000000E+00  0.90703501034E+03  0.90703501034E+03  0.00000000000E+00 0. -1.
          1   -1    0    0  501    0 -0.00000000000E+00 -0.00000000000E+00 -0.73606640821E+02  0.73606640821E+02  0.00000000000E+00 0. -1.
         25    2    1    2    0    0  0.10593925261E+01  0.23554371101E+02  0.53059163699E+03  0.54562607255E+03  0.12499758033E+03 0.  0.
          2    1    1    2  501    0 -0.23658288919E+02 -0.22575097682E+02 -0.61672170595E+02  0.69805489009E+02  0.00000000000E+00 0. -1.
          1    1    1    2  502    0  0.22598896393E+02 -0.97927341836E+00  0.36450890312E+03  0.36521008960E+03  0.00000000000E+00 0. -1.
         22    1    3    3    0    0  0.45603629401E+02 -0.31210745572E+02  0.19434266163E+03  0.20204670694E+03  0.00000000000E+00 0. -1.
         22    1    3    3    0    0 -0.44544236875E+02  0.54765116673E+02  0.33624897536E+03  0.34357936561E+03  0.00000000000E+00 0. -1.
</event>
<event>
 7    1  0.6386201E-006  0.1182594E+03  0.7818608E-02  0.1440130E+00
          2   -1    0    0  502    0  0.00000000000E+00  0.00000000000E+00  0.23502209521E+04  0.23502209521E+04  0.00000000000E+00 0. -1.
          1   -1    0    0  501    0 -0.00000000000E+00 -0.00000000000E+00 -0.16504837489E+02  0.16504837489E+02  0.00000000000E+00 0. -1.
         25    2    1    2    0    0  0.10284115073E+03  0.37895937475E+02  0.15933153954E+04  0.16019647679E+04  0.12499905683E+03 0.  0.
          2    1    1    2  501    0 -0.10419586415E+03 -0.59830283413E+02  0.29107961226E+03  0.31490281293E+03  0.00000000000E+00 0. -1.
          1    1    1    2  502    0  0.13547134194E+01  0.21934345938E+02  0.44932110693E+03  0.44985820867E+03  0.00000000000E+00 0. -1.
         22    1    3    3    0    0  0.99912191202E+02 -0.20907814321E+02  0.11906745071E+04  0.11950419928E+04  0.00000000000E+00 0. -1.
         22    1    3    3    0    0  0.29289595242E+01  0.58803751796E+02  0.40264088827E+03  0.40692277515E+03  0.00000000000E+00 0. -1.
</event>
<event>
 7    1  0.6386201E-006  0.5471825E+02  0.7818608E-02  0.1459786E+00
          2   -1    0    0  502    0  0.00000000000E+00  0.00000000000E+00  0.48902893410E+03  0.48902893410E+03  0.00000000000E+00 0. -1.
          1   -1    0    0  501    0 -0.00000000000E+00 -0.00000000000E+00 -0.10909374115E+04  0.10909374115E+04  0.00000000000E+00 0. -1.
         25    2    1    2    0    0 -0.92593700363E+01  0.24528453600E+02  0.10796046329E+03  0.16723488497E+03  0.12499865658E+03 0.  0.
          2    1    1    2  501    0 -0.23154651969E+02 -0.49785011670E+02 -0.10593856158E+04  0.10608075076E+04  0.00000000000E+00 0. -1.
          1    1    1    2  502    0  0.32414022005E+02  0.25256558069E+02  0.34951667509E+03  0.35192395302E+03  0.00000000000E+00 0. -1.
         22    1    3    3    0    0  0.74441474090E+01 -0.50401296202E+02  0.43473795516E+02  0.66975196051E+02  0.00000000000E+00 0.  1.
         22    1    3    3    0    0 -0.16703517445E+02  0.74929749802E+02  0.64486667776E+02  0.10025968891E+03  0.00000000000E+00 0.  1.
</event>
<event>
 7    1  0.6386201E-006  0.5449020E+02  0.7818608E-02  0.1439521E+00
          2   -1    0    0  502    0  0.00000000000E+00  0.00000000000E+00  0.16823538704E+03  0.16823538704E+03  0.00000000000E+00 0. -1.
          1   -1    0    0  501    0 -0.00000000000E+00 -0.00000000000E+00 -0.15665950183E+04  0.15665950183E+04  0.00000000000E+00 0. -1.
         25    2    1    2    0    0 -0.66715498591E+02 -0.68302364667E+01 -0.10103024548E+04  0.10202125691E+04  0.12500010411E+03 0.  0.
          2    1    1    2  501    0  0.32260238143E+02 -0.35424132850E+02 -0.54570704827E+03  0.54780632954E+03  0.00000000000E+00 0. -1.
          1    1    1    2  502    0  0.34455260449E+02  0.42254369316E+02  0.15764987181E+03  0.16681150673E+03  0.00000000000E+00 0. -1.
         22    1    3    3    0    0  0.15208277054E+02  0.32414207447E+02 -0.54199798912E+03  0.54317933755E+03  0.00000000000E+00 0. -1.
         22    1    3    3    0    0 -0.81923775645E+02 -0.39244443914E+02 -0.46830446573E+03  0.47703323157E+03  0.00000000000E+00 0. -1.
</event>
<event>
 7    1  0.6386201E-006  0.1167315E+03  0.7818608E-02  0.1357939E+00
          2   -1    0    0  502    0  0.00000000000E+00  0.00000000000E+00  0.21926990101E+04  0.21926990101E+04  0.00000000000E+00 0. -1.
          1   -1    0    0  501    0 -0.00000000000E+00 -0.00000000000E+00 -0.13944512630E+04  0.13944512630E+04  0.00000000000E+00 0. -1.
         25    2    1    2    0    0 -0.13588758144E+03 -0.82358219931E+02  0.32029663157E+03  0.37876622738E+03  0.12500244649E+03 0.  0.
          2    1    1    2  501    0  0.10167485009E+03  0.56734426514E+02 -0.13624853656E+04  0.13674512576E+04  0.00000000000E+00 0. -1.
          1    1    1    2  502    0  0.34212731353E+02  0.25623793417E+02  0.18404364811E+04  0.18409327882E+04  0.00000000000E+00 0. -1.
         22    1    3    3    0    0  0.56469686356E+01 -0.24294526319E+01  0.12292462169E+03  0.12307823981E+03  0.00000000000E+00 0. -1.
         22    1    3    3    0    0 -0.14153455007E+03 -0.79928767299E+02  0.19737200987E+03  0.25568798757E+03  0.00000000000E+00 0. -1.
</event>
<event>
 7    1  0.6386201E-006  0.6923075E+02  0.7818608E-02  0.1460334E+00
          2   -1    0    0  502    0  0.00000000000E+00  0.00000000000E+00  0.29756473580E+03  0.29756473580E+03  0.00000000000E+00 0. -1.
          1   -1    0    0  501    0 -0.00000000000E+00 -0.00000000000E+00 -0.56815941043E+03  0.56815941043E+03  0.00000000000E+00 0. -1.
         25    2    1    2    0    0 -0.21528430175E+02 -0.64617944662E+02 -0.57633788344E+02  0.15357649943E+03  0.12500054216E+03 0.  0.
          2    1    1    2  501    0 -0.10538616262E+02  0.68881602350E+02 -0.45886448382E+03  0.46412536247E+03  0.00000000000E+00 0. -1.
          1    1    1    2  502    0  0.32067046436E+02 -0.42636576884E+01  0.24590359754E+03  0.24802228433E+03  0.00000000000E+00 0. -1.
         22    1    3    3    0    0  0.42455580525E+01 -0.29290560215E+02  0.38148791941E+02  0.48283454800E+02  0.00000000000E+00 0. -1.
         22    1    3    3    0    0 -0.25773988227E+02 -0.35327384447E+02 -0.95782580285E+02  0.10529304463E+03  0.00000000000E+00 0. -1.
</event>
<event>
 7    1  0.6386201E-006  0.3884087E+02  0.7818608E-02  0.1521775E+00
          2   -1    0    0  502    0  0.00000000000E+00  0.00000000000E+00  0.33129959064E+03  0.33129959064E+03  0.00000000000E+00 0. -1.
          1   -1    0    0  501    0 -0.00000000000E+00 -0.00000000000E+00 -0.24281861301E+03  0.24281861301E+03  0.00000000000E+00 0. -1.
         25    2    1    2    0    0 -0.32407992326E+02 -0.29307608678E+02  0.89167465246E+02  0.15964156966E+03  0.12500152003E+03 0.  0.
          2    1    1    2  501    0 -0.39653435038E+01  0.38828419767E+02 -0.20400793156E+03  0.20770798316E+03  0.00000000000E+00 0. -1.
          1    1    1    2  502    0  0.36373335830E+02 -0.95208110890E+01  0.20332144394E+03  0.20676865084E+03  0.00000000000E+00 0. -1.
         22    1    3    3    0    0 -0.44103245530E+02 -0.74040821803E+02  0.58266304501E+02  0.10402933144E+03  0.00000000000E+00 0.  1.
         22    1    3    3    0    0  0.11695253204E+02  0.44733213126E+02  0.30901160745E+02  0.55612238216E+02  0.00000000000E+00 0.  1.
</event>
<event>
 7    1  0.6386201E-006  0.3695223E+02  0.7818608E-02  0.1617357E+00
          2   -1    0    0  502    0  0.00000000000E+00  0.00000000000E+00  0.27866038605E+03  0.27866038605E+03  0.00000000000E+00 0. -1.
          1   -1    0    0  501    0 -0.00000000000E+00 -0.00000000000E+00 -0.63058244823E+03  0.63058244823E+03  0.00000000000E+00 0. -1.
         25    2    1    2    0    0 -0.93995538303E+01 -0.12265062624E+02 -0.32591373721E+03  0.34940436866E+03  0.12499946145E+03 0.  0.
          2    1    1    2  501    0 -0.10073142631E+02 -0.19236752155E+02 -0.29123261317E+03  0.29204101734E+03  0.00000000000E+00 0. -1.
          1    1    1    2  502    0  0.19472696462E+02  0.31501814780E+02  0.26522428821E+03  0.26779744827E+03  0.00000000000E+00 0. -1.
         22    1    3    3    0    0 -0.31238724790E+02  0.14871058218E+02 -0.30855007130E+03  0.31048373999E+03  0.00000000000E+00 0.  1.
         22    1    3    3    0    0  0.21839170960E+02 -0.27136120842E+02 -0.17363665917E+02  0.38920628677E+02  0.00000000000E+00 0.  1.
</event>
<event>
 7    1  0.6386201E-006  0.2045819E+03  0.7818608E-02  0.1250506E+00
          2   -1    0    0  502    0  0.00000000000E+00  0.00000000000E+00  0.89491986373E+03  0.89491986373E+03  0.00000000000E+00 0. -1.
          1   -1    0    0  501    0 -0.00000000000E+00 -0.00000000000E+00 -0.11116627808E+04  0.11116627808E+04  0.00000000000E+00 0. -1.
         25    2    1    2    0    0 -0.13788516873E+03  0.20905378172E+03 -0.64011936039E+02  0.28710001490E+03  0.12495233970E+03 0.  0.
          2    1    1    2  501    0 -0.32824155644E+01 -0.65258157165E+02 -0.92197293090E+03  0.92428539242E+03  0.00000000000E+00 0. -1.
          1    1    1    2  502    0  0.14116758429E+03 -0.14379562455E+03  0.76924194991E+03  0.79519723716E+03  0.00000000000E+00 0. -1.
         22    1    3    3    0    0 -0.11394552744E+02  0.12268018567E+03 -0.51115339950E+02  0.13339056101E+03  0.00000000000E+00 0.  1.
         22    1    3    3    0    0 -0.12649061598E+03  0.86373596050E+02 -0.12896596089E+02  0.15370945390E+03  0.00000000000E+00 0.  1.
</event>
<event>
 7    1  0.6386201E-006  0.6866165E+02  0.7818608E-02  0.1472932E+00
          2   -1    0    0  502    0  0.00000000000E+00  0.00000000000E+00  0.15372881136E+04  0.15372881136E+04  0.00000000000E+00 0. -1.
          1   -1    0    0  501    0 -0.00000000000E+00 -0.00000000000E+00 -0.19339876289E+03  0.19339876289E+03  0.00000000000E+00 0. -1.
         25    2    1    2    0    0  0.37524886519E+02  0.28387298313E+02  0.22583355843E+02  0.13548502733E+03  0.12502891208E+03 0.  0.
          2    1    1    2  501    0 -0.67071789525E+02 -0.24587206149E+02 -0.12746850690E+03  0.14612110015E+03  0.00000000000E+00 0. -1.
          1    1    1    2  502    0  0.29546903005E+02 -0.38000921643E+01  0.14487745018E+04  0.14490807490E+04  0.00000000000E+00 0. -1.
         22    1    3    3    0    0 -0.23488612894E+02 -0.36201557971E+02 -0.23027376041E+01  0.43215394660E+02  0.00000000000E+00 0.  1.
         22    1    3    3    0    0  0.61013499413E+02  0.64588856284E+02  0.24886093447E+02  0.92269632674E+02  0.00000000000E+00 0.  1.
</event>
<event>
 7    1  0.6386201E-006  0.8135585E+02  0.7818608E-02  0.1392289E+00
          2   -1    0    0  502    0  0.00000000000E+00  0.00000000000E+00  0.18065749899E+03  0.18065749899E+03  0.00000000000E+00 0. -1.
          1   -1    0    0  501    0 -0.00000000000E+00 -0.00000000000E+00 -0.85787147760E+03  0.85787147760E+03  0.00000000000E+00 0. -1.
         25    2    1    2    0    0  0.47585062298E+01 -0.41328421836E+02 -0.19596397681E+03  0.23613053177E+03  0.12500026399E+03 0.  0.
          2    1    1    2  501    0  0.31505572281E+02 -0.33859690087E+02 -0.63006995659E+03  0.63176516990E+03  0.00000000000E+00 0. -1.
          1    1    1    2  502    0 -0.36264078511E+02  0.75188111923E+02  0.14881995479E+03  0.17063327492E+03  0.00000000000E+00 0. -1.
         22    1    3    3    0    0  0.18215612480E+02  0.41985163888E+02 -0.52161117656E+02  0.69392684916E+02  0.00000000000E+00 0. -1.
         22    1    3    3    0    0 -0.13457106250E+02 -0.83313585724E+02 -0.14380285915E+03  0.16673784686E+03  0.00000000000E+00 0. -1.
</event>
<event>
 7    1  0.6386201E-006  0.1210076E+03  0.7818608E-02  0.1350349E+00
          2   -1    0    0  502    0  0.00000000000E+00  0.00000000000E+00  0.74995181299E+02  0.74995181299E+02  0.00000000000E+00 0. -1.
          1   -1    0    0  501    0 -0.00000000000E+00 -0.00000000000E+00 -0.24321510956E+04  0.24321510956E+04  0.00000000000E+00 0. -1.
         25    2    1    2    0    0 -0.46432059054E+02 -0.12760348635E+03 -0.88676383483E+03  0.90576679327E+03  0.12499919672E+03 0.  0.
          2    1    1    2  501    0 -0.28653637997E+02  0.33357948107E+02 -0.14798558861E+04  0.14805091109E+04  0.00000000000E+00 0. -1.
          1    1    1    2  502    0  0.75085697051E+02  0.94245538248E+02  0.94638066310E+01  0.12087037279E+03  0.00000000000E+00 0. -1.
         22    1    3    3    0    0 -0.85127973367E+02 -0.68582299875E+02 -0.63307570364E+03  0.64244466707E+03  0.00000000000E+00 0. -1.
         22    1    3    3    0    0  0.38695914313E+02 -0.59021186480E+02 -0.25368813119E+03  0.26332212620E+03  0.00000000000E+00 0. -1.
</event>
<event>
 7    1  0.6386201E-006  0.6371054E+02  0.7818608E-02  0.1392732E+00
          2   -1    0    0  502    0  0.00000000000E+00  0.00000000000E+00  0.12125017234E+03  0.12125017234E+03  0.00000000000E+00 0. -1.
          1   -1    0    0  501    0 -0.00000000000E+00 -0.00000000000E+00 -0.39712281083E+03  0.39712281083E+03  0.00000000000E+00 0. -1.
         25    2    1    2    0    0  0.30423408910E+02 -0.39561966078E+02 -0.10418651269E+02  0.13501054615E+03  0.12501426442E+03 0.  0.
          2    1    1    2  501    0  0.36587655778E+02  0.52157225541E+02 -0.30016450545E+03  0.30685136966E+03  0.00000000000E+00 0. -1.
          1    1    1    2  502    0 -0.67011064689E+02 -0.12595259464E+02  0.34710518230E+02  0.76511067353E+02  0.00000000000E+00 0. -1.
         22    1    3    3    0    0  0.26410946187E+02 -0.26850307506E+02 -0.67010895629E+02  0.76869611842E+02  0.00000000000E+00 0.  1.
         22    1    3    3    0    0  0.40124627234E+01 -0.12711658572E+02  0.56592244361E+02  0.58140934311E+02  0.00000000000E+00 0.  1.
</event>
<event>
 7    1  0.6386201E-006  0.4296153E+02  0.7818608E-02  0.1496760E+00
          2   -1    0    0  502    0  0.00000000000E+00  0.00000000000E+00  0.15719699951E+04  0.15719699951E+04  0.00000000000E+00 0. -1.
          1   -1    0    0  501    0 -0.00000000000E+00 -0.00000000000E+00 -0.42591421277E+03  0.42591421277E+03  0.00000000000E+00 0. -1.
         25    2    1    2    0    0  0.26420536721E+02  0.68676197780E+02  0.54265795426E+03  0.56170900233E+03  0.12499953231E+03 0.  0.
          2    1    1    2  501    0  0.43602109024E+01 -0.42693954591E+02 -0.41488362666E+03  0.41709736138E+03  0.00000000000E+00 0. -1.
          1    1    1    2  502    0 -0.30780747623E+02 -0.25982243189E+02  0.10182814548E+04  0.10190778442E+04  0.00000000000E+00 0. -1.
         22    1    3    3    0    0  0.44801354996E+02 -0.20502400989E+02  0.12761831527E+03  0.13679891903E+03  0.00000000000E+00 0. -1.
         22    1    3    3    0    0 -0.18380818275E+02  0.89178598770E+02  0.41503963898E+03  0.42491008330E+03  0.00000000000E+00 0. -1.
</event>
<event>
 7    1  0.8069562E-006  0.6655329E+02  0.7818608E-02  0.1404287E+00
          2   -1    0    0  502    0  0.00000000000E+00  0.00000000000E+00  0.53111643803E+03  0.53111643803E+03  0.00000000000E+00 0. -1.
          1   -1    0    0  501    0 -0.00000000000E+00 -0.00000000000E+00 -0.13174744242E+04  0.13174744242E+04  0.00000000000E+00 0. -1.
         25    2    1    2    0    0  0.81304980874E+02 -0.78328434206E+02 -0.57998579258E+03  0.60394843444E+03  0.12499739335E+03 0.  0.
          2    1    1    2  501    0 -0.44706472470E+02  0.42237022508E+02 -0.72292603395E+03  0.72553751475E+03  0.00000000000E+00 0. -1.
          1    1    1    2  502    0 -0.36598508404E+02  0.36091411698E+02  0.51655384033E+03  0.51910491308E+03  0.00000000000E+00 0. -1.
         22    1    3    3    0    0  0.30217975276E+02  0.28170165190E+02 -0.78130080228E+02  0.88379826166E+02  0.00000000000E+00 0. -1.
         22    1    3    3    0    0  0.51087005598E+02 -0.10649859940E+03 -0.50185571235E+03  0.51556860827E+03  0.00000000000E+00 0. -1.
</event>
<event>
 7    1  0.6386201E-006  0.7215817E+02  0.7818608E-02  0.1448115E+00
          2   -1    0    0  502    0  0.00000000000E+00  0.00000000000E+00  0.77995788337E+03  0.77995788337E+03  0.00000000000E+00 0. -1.
          1   -1    0    0  501    0 -0.00000000000E+00 -0.00000000000E+00 -0.64115466863E+03  0.64115466863E+03  0.00000000000E+00 0. -1.
         25    2    1    2    0    0  0.55162423536E+01  0.40162077925E+02 -0.14134826907E+03  0.19299743868E+03  0.12500102694E+03 0.  0.
          2    1    1    2  501    0  0.19193492200E+02  0.27994303596E+02 -0.47162815269E+03  0.47284795187E+03  0.00000000000E+00 0. -1.
          1    1    1    2  502    0 -0.24709734553E+02 -0.68156381521E+02  0.75177963649E+03  0.75526716145E+03  0.00000000000E+00 0. -1.
         22    1    3    3    0    0  0.53608808062E+01  0.61760211778E+02 -0.13639591664E+02  0.63475201950E+02  0.00000000000E+00 0.  1.
         22    1    3    3    0    0  0.15536154744E+00 -0.21598133853E+02 -0.12770867740E+03  0.12952223673E+03  0.00000000000E+00 0.  1.
</event>
<event>
 7    1  0.6386201E-006  0.1223636E+03  0.7818608E-02  0.1426935E+00
          2   -1    0    0  502    0  0.00000000000E+00  0.00000000000E+00  0.85395279680E+03  0.85395279680E+03  0.00000000000E+00 0. -1.
          1   -1    0    0  501    0 -0.00000000000E+00 -0.00000000000E+00 -0.16828017910E+04  0.16828017910E+04  0.00000000000E+00 0. -1.
         25    2    1    2    0    0  0.79834205791E+02 -0.10791865576E+03  0.54212250158E+03  0.57231258112E+03  0.12499978846E+03 0.  0.
          2    1    1    2  501    0 -0.87304271445E+02  0.85678151332E+02 -0.16649958236E+04  0.16694831158E+04  0.00000000000E+00 0. -1.
          1    1    1    2  502    0  0.74700656537E+01  0.22240504429E+02  0.29402432784E+03  0.29495889083E+03  0.00000000000E+00 0. -1.
         22    1    3    3    0    0  0.44887937592E+02 -0.11296377315E+03  0.24915936074E+03  0.27722937801E+03  0.00000000000E+00 0. -1.
         22    1    3    3    0    0  0.34946268200E+02  0.50451173843E+01  0.29296314084E+03  0.29508320311E+03  0.00000000000E+00 0. -1.
</event>
<event>
 7    1  0.6386201E-006  0.4695475E+02  0.7818608E-02  0.1471960E+00
          2   -1    0    0  502    0  0.00000000000E+00  0.00000000000E+00  0.22930957085E+04  0.22930957085E+04  0.00000000000E+00 0. -1.
          1   -1    0    0  501    0 -0.00000000000E+00 -0.00000000000E+00 -0.51177155162E+03  0.51177155162E+03  0.00000000000E+00 0. -1.
         25    2    1    2    0    0  0.59154038645E+02  0.18638180389E+02  0.40742595014E+03  0.43066040410E+03  0.12500358697E+03 0.  0.
          2    1    1    2  501    0 -0.41698167872E+02  0.21604200494E+02 -0.49879452408E+03  0.50100045503E+03  0.00000000000E+00 0. -1.
          1    1    1    2  502    0 -0.17455870773E+02 -0.40242380883E+02  0.18726927309E+04  0.18732064010E+04  0.00000000000E+00 0. -1.
         22    1    3    3    0    0  0.14494633619E+02 -0.49246023086E+02  0.22776344838E+03  0.23347688025E+03  0.00000000000E+00 0.  1.
         22    1    3    3    0    0  0.44659405026E+02  0.67884203476E+02  0.17966250176E+03  0.19718352385E+03  0.00000000000E+00 0.  1.
</event>
<event>
 7    1  0.6386201E-006  0.1430896E+03  0.7818608E-02  0.1301263E+00
          2   -1    0    0  502    0  0.00000000000E+00  0.00000000000E+00  0.16992224152E+04  0.16992224152E+04  0.00000000000E+00 0. -1.
          1   -1    0    0  501    0 -0.00000000000E+00 -0.00000000000E+00 -0.58061011880E+03  0.58061011880E+03  0.00000000000E+00 0. -1.
         25    2    1    2    0    0  0.13355623151E+03 -0.14492274663E+03  0.10679665865E+03  0.25665058256E+03  0.12499650301E+03 0.  0.
          2    1    1    2  501    0 -0.89888610066E+02  0.10760604593E+03 -0.49540652302E+03  0.51486565859E+03  0.00000000000E+00 0. -1.
          1    1    1    2  502    0 -0.43667621442E+02  0.37316700701E+02  0.15072221608E+04  0.15083162929E+04  0.00000000000E+00 0. -1.
         22    1    3    3    0    0  0.93900346463E+02 -0.84979764864E+02 -0.15243448752E+01  0.12665369765E+03  0.00000000000E+00 0.  1.
         22    1    3    3    0    0  0.39655885045E+02 -0.59942981768E+02  0.10832100352E+03  0.12999688491E+03  0.00000000000E+00 0.  1.
</event>
<event>
 7    1  0.6386201E-006  0.8536942E+02  0.7818608E-02  0.1373409E+00
          2   -1    0    0  502    0  0.00000000000E+00  0.00000000000E+00  0.55132234198E+03  0.55132234198E+03  0.00000000000E+00 0. -1.
          1   -1    0    0  501    0 -0.00000000000E+00 -0.00000000000E+00 -0.10636448234E+04  0.10636448234E+04  0.00000000000E+00 0. -1.
         25    2    1    2    0    0  0.45363087259E+02  0.10819172024E+02 -0.25936206650E+03  0.29166489502E+03  0.12499946111E+03 0.  0.
          2    1    1    2  501    0 -0.91596897948E+02  0.11592019791E+02 -0.78418366108E+03  0.78960013991E+03  0.00000000000E+00 0. -1.
          1    1    1    2  502    0  0.46233810690E+02 -0.22411191815E+02  0.53122324617E+03  0.53370213044E+03  0.00000000000E+00 0. -1.
         22    1    3    3    0    0  0.29278876132E+02  0.33611939608E+02 -0.25996789404E+03  0.26376186420E+03  0.00000000000E+00 0.  1.
         22    1    3    3    0    0  0.16084211126E+02 -0.22792767585E+02  0.60582754884E+00  0.27903030816E+02  0.00000000000E+00 0.  1.
</event>
<event>
 7    1  0.6386201E-006  0.6463226E+02  0.7818608E-02  0.1436259E+00
          2   -1    0    0  502    0  0.00000000000E+00  0.00000000000E+00  0.15673318061E+04  0.15673318061E+04  0.00000000000E+00 0. -1.
          1   -1    0    0  501    0 -0.00000000000E+00 -0.00000000000E+00 -0.86973082736E+02  0.86973082736E+02  0.00000000000E+00 0. -1.
         25    2    1    2    0    0 -0.50256891564E+00  0.75732002211E+02  0.77623772820E+02  0.16548774729E+03  0.12500062265E+03 0.  0.
          2    1    1    2  501    0  0.35562729151E+02 -0.53727331271E+02 -0.18457127950E+02  0.67022379862E+02  0.00000000000E+00 0. -1.
          1    1    1    2  502    0 -0.35060160235E+02 -0.22004670940E+02  0.14211920785E+04  0.14217947617E+04  0.00000000000E+00 0. -1.
         22    1    3    3    0    0 -0.62153889130E+02  0.33638367212E+02  0.46560981693E+02  0.84631972084E+02  0.00000000000E+00 0. -1.
         22    1    3    3    0    0  0.61651320214E+02  0.42093634998E+02  0.31062791127E+02  0.80855775206E+02  0.00000000000E+00 0. -1.
</event>
<event>
 7    1  0.6386201E-006  0.3555831E+02  0.7818608E-02  0.1598977E+00
          2   -1    0    0  502    0  0.00000000000E+00  0.00000000000E+00  0.76782283270E+02  0.76782283270E+02  0.00000000000E+00 0. -1.
          1   -1    0    0  501    0 -0.00000000000E+00 -0.00000000000E+00 -0.74034764054E+03  0.74034764054E+03  0.00000000000E+00 0. -1.
         25    2    1    2    0    0  0.60016008078E+02 -0.24822123400E+01 -0.20254077231E+03  0.24549110131E+03  0.12504012863E+03 0.  0.
          2    1    1    2  501    0 -0.25064447950E+02  0.23600385296E+01 -0.51046833296E+03  0.51108875481E+03  0.00000000000E+00 0. -1.
          1    1    1    2  502    0 -0.34951560128E+02  0.12217381039E+00  0.49443748003E+02  0.60550067699E+02  0.00000000000E+00 0. -1.
         22    1    3    3    0    0  0.76784677248E+02  0.29533023971E+01 -0.21199256073E+03  0.22548936662E+03  0.00000000000E+00 0.  1.
         22    1    3    3    0    0 -0.16768669169E+02 -0.54355147371E+01  0.94517884150E+01  0.20001734685E+02  0.00000000000E+00 0.  1.
</event>
<event>
 7    1  0.6386201E-006  0.3993913E+02  0.7818608E-02  0.1525461E+00
          2   -1    0    0  502    0  0.00000000000E+00  0.00000000000E+00  0.40535009027E+04  0.40535009027E+04  0.00000000000E+00 0. -1.
          1   -1    0    0  501    0 -0.00000000000E+00 -0.00000000000E+00 -0.48199937953E+01  0.48199937953E+01  0.00000000000E+00 0. -1.
         25    2    1    2    0    0 -0.95659179546E+01  0.48309092360E+02  0.18859341187E+04  0.18907138344E+04  0.12500411230E+03 0.  0.
          2    1    1    2  501    0  0.33752198180E+02 -0.22078832536E+02  0.17688917413E+03  0.18142895484E+03  0.00000000000E+00 0. -1.
          1    1    1    2  502    0 -0.24186280226E+02 -0.26230259824E+02  0.19858576160E+04  0.19861781073E+04  0.00000000000E+00 0. -1.
         22    1    3    3    0    0  0.26587067030E+02  0.17218630723E+02  0.16340013617E+04  0.16343083562E+04  0.00000000000E+00 0.  1.
         22    1    3    3    0    0 -0.36152984985E+02  0.31090461637E+02  0.25193275706E+03  0.25640547811E+03  0.00000000000E+00 0.  1.
</event>
<event>
 7    1  0.6386201E-006  0.9270696E+02  0.7818608E-02  0.1478981E+00
          2   -1    0    0  502    0  0.00000000000E+00  0.00000000000E+00  0.43487606553E+03  0.43487606553E+03  0.00000000000E+00 0. -1.
          1   -1    0    0  501    0 -0.00000000000E+00 -0.00000000000E+00 -0.45495425481E+03  0.45495425481E+03  0.00000000000E+00 0. -1.
         25    2    1    2    0    0  0.59612111416E+02  0.87665328523E+02  0.20889984547E+03  0.26552399732E+03  0.12500013626E+03 0.  0.
          2    1    1    2  501    0 -0.18965271811E+02 -0.93291685687E+01 -0.41650989775E+03  0.41704581264E+03  0.00000000000E+00 0. -1.
          1    1    1    2  502    0 -0.40646839605E+02 -0.78336159954E+02  0.18753186299E+03  0.20726051038E+03  0.00000000000E+00 0. -1.
         22    1    3    3    0    0  0.61142235129E+02 -0.38045533322E+00  0.34629539279E+02  0.70268930926E+02  0.00000000000E+00 0. -1.
         22    1    3    3    0    0 -0.15301237136E+01  0.88045783856E+02  0.17427030619E+03  0.19525506640E+03  0.00000000000E+00 0. -1.
</event>
<event>
 7    1  0.6386201E-006  0.6364895E+02  0.7818608E-02  0.1435010E+00
          2   -1    0    0  502    0  0.00000000000E+00  0.00000000000E+00  0.76056016756E+03  0.76056016756E+03  0.00000000000E+00 0. -1.
          1   -1    0    0  501    0 -0.00000000000E+00 -0.00000000000E+00 -0.32784674743E+03  0.32784674743E+03  0.00000000000E+00 0. -1.
         25    2    1    2    0    0  0.38151472618E+02  0.15145938759E+02  0.76906209636E+02  0.15239633779E+03  0.12500057747E+03 0.  0.
          2    1    1    2  501    0 -0.61365895272E+02  0.20369829921E+02 -0.28578945015E+03  0.29301247907E+03  0.00000000000E+00 0. -1.
          1    1    1    2  502    0  0.23214422653E+02 -0.35515768681E+02  0.64159666065E+03  0.64299809813E+03  0.00000000000E+00 0. -1.
         22    1    3    3    0    0  0.54512828340E+02  0.58378434766E+02  0.68898097611E+02  0.10548287991E+03  0.00000000000E+00 0.  1.
         22    1    3    3    0    0 -0.16361355722E+02 -0.43232496007E+02  0.80081120247E+01  0.46913457880E+02  0.00000000000E+00 0.  1.
</event>
<event>
 7    1  0.6386201E-006  0.9927762E+02  0.7818608E-02  0.1338213E+00
          2   -1    0    0  502    0  0.00000000000E+00  0.00000000000E+00  0.59647255094E+03  0.59647255094E+03  0.00000000000E+00 0. -1.
          1   -1    0    0  501    0 -0.00000000000E+00 -0.00000000000E+00 -0.43905071600E+03  0.43905071600E+03  0.00000000000E+00 0. -1.
         25    2    1    2    0    0  0.12085930128E+03  0.86848984252E+02  0.13226356385E+02  0.19480410375E+03  0.12499594220E+03 0.  0.
          2    1    1    2  501    0 -0.58040756344E+02 -0.13101083195E+02 -0.34089555424E+03  0.34604934139E+03  0.00000000000E+00 0. -1.
          1    1    1    2  502    0 -0.62818544933E+02 -0.73747901056E+02  0.48509103279E+03  0.49466982179E+03  0.00000000000E+00 0. -1.
         22    1    3    3    0    0  0.35059202799E+02 -0.28492672182E+02  0.23043627551E+02  0.50714779303E+02  0.00000000000E+00 0. -1.
         22    1    3    3    0    0  0.85800098478E+02  0.11534165643E+03 -0.98172711658E+01  0.14408932445E+03  0.00000000000E+00 0. -1.
</event>
<event>
 7    1  0.6386201E-006  0.1113651E+03  0.7818608E-02  0.1375303E+00
          2   -1    0    0  502    0  0.00000000000E+00  0.00000000000E+00  0.17183768179E+04  0.17183768179E+04  0.00000000000E+00 0. -1.
          1   -1    0    0  501    0 -0.00000000000E+00 -0.00000000000E+00 -0.88547632430E+02  0.88547632430E+02  0.00000000000E+00 0. -1.
         25    2    1    2    0    0 -0.69238416119E+02  0.11713216421E+03  0.26346557530E+03  0.32179929872E+03  0.12500710833E+03 0.  0.
          2    1    1    2  501    0  0.33381396769E+02 -0.10236958446E+03 -0.10070763771E+02  0.10814467049E+03  0.00000000000E+00 0. -1.
          1    1    1    2  502    0  0.35857019350E+02 -0.14762579752E+02  0.13764343739E+04  0.13769804811E+04  0.00000000000E+00 0. -1.
         22    1    3    3    0    0 -0.35134070555E+02  0.78149710758E+02  0.44032293041E+02  0.96335990345E+02  0.00000000000E+00 0.  1.
         22    1    3    3    0    0 -0.34104345564E+02  0.38982453454E+02  0.21943328226E+03  0.22546330838E+03  0.00000000000E+00 0.  1.
</event>
<event>
 7    1  0.6386201E-006  0.1776094E+03  0.7818608E-02  0.1327119E+00
          2   -1    0    0  502    0  0.00000000000E+00  0.00000000000E+00  0.95072058680E+03  0.95072058680E+03  0.00000000000E+00 0. -1.
          1   -1    0    0  501    0 -0.00000000000E+00 -0.00000000000E+00 -0.16606594040E+04  0.16606594040E+04  0.00000000000E+00 0. -1.
         25    2    1    2    0    0  0.10675557951E+02 -0.15788030515E+03  0.25736886694E+03  0.32696101836E+03  0.12499846224E+03 0.  0.
          2    1    1    2  501    0  0.20739450367E+02  0.17676389072E+03 -0.16204773912E+04  0.16302216332E+04  0.00000000000E+00 0. -1.
          1    1    1    2  502    0 -0.31415008318E+02 -0.18883585569E+02  0.65316970704E+03  0.65419733929E+03  0.00000000000E+00 0. -1.
         22    1    3    3    0    0  0.25783038625E+02 -0.12906180477E+03  0.26285507011E+03  0.29396343721E+03  0.00000000000E+00 0. -1.
         22    1    3    3    0    0 -0.15107480674E+02 -0.28818500381E+02 -0.54862031724E+01  0.32997581150E+02  0.00000000000E+00 0. -1.
</event>
<event>
 7    1  0.6386201E-006  0.1262459E+03  0.7818608E-02  0.1245957E+00
          2   -1    0    0  502    0  0.00000000000E+00  0.00000000000E+00  0.11502265303E+04  0.11502265303E+04  0.00000000000E+00 0. -1.
          1   -1    0    0  501    0 -0.00000000000E+00 -0.00000000000E+00 -0.54088268808E+02  0.54088268808E+02  0.00000000000E+00 0. -1.
         25    2    1    2    0    0 -0.15582394281E+03  0.39091433121E+02  0.50120020557E+03  0.54095853517E+03  0.12500099767E+03 0.  0.
          2    1    1    2  501    0  0.67690896800E+02 -0.10627775219E+03  0.11434817567E+03  0.17015441046E+03  0.00000000000E+00 0. -1.
          1    1    1    2  502    0  0.88133046014E+02  0.67186319067E+02  0.48058988027E+03  0.49320185349E+03  0.00000000000E+00 0. -1.
         22    1    3    3    0    0 -0.93506226037E+02  0.12979467155E+02  0.11449429039E+03  0.14839414883E+03  0.00000000000E+00 0.  1.
         22    1    3    3    0    0 -0.62317716777E+02  0.26111965967E+02  0.38670591518E+03  0.39256438634E+03  0.00000000000E+00 0.  1.
</event>
<event>
 7    1  0.6386201E-006  0.1343084E+03  0.7818608E-02  0.1286619E+00
          2   -1    0    0  502    0  0.00000000000E+00  0.00000000000E+00  0.82850071460E+03  0.82850071460E+03  0.00000000000E+00 0. -1.
          1   -1    0    0  501    0 -0.00000000000E+00 -0.00000000000E+00 -0.40209347611E+03  0.40209347611E+03  0.00000000000E+00 0. -1.
         25    2    1    2    0    0  0.15391562575E+03  0.10018479598E+03  0.24004034145E+03  0.32707772422E+03  0.12503383127E+03 0.  0.
          2    1    1    2  501    0 -0.83827360185E+02 -0.10263894263E+03 -0.34394269973E+03  0.36858968997E+03  0.00000000000E+00 0. -1.
          1    1    1    2  502    0 -0.70088265563E+02  0.24541466438E+01  0.53030959677E+03  0.53492677652E+03  0.00000000000E+00 0. -1.
         22    1    3    3    0    0  0.11453297982E+03  0.12848888893E+03  0.17032696529E+03  0.24215382126E+03  0.00000000000E+00 0. -1.
         22    1    3    3    0    0  0.39382645929E+02 -0.28304092951E+02  0.69713376168E+02  0.84923902966E+02  0.00000000000E+00 0. -1.
</event>
<event>
 7    1  0.6386201E-006  0.6149556E+02  0.7818608E-02  0.1392799E+00
          2   -1    0    0  502    0  0.00000000000E+00  0.00000000000E+00  0.72367951740E+03  0.72367951740E+03  0.00000000000E+00 0. -1.
          1   -1    0    0  501    0 -0.00000000000E+00 -0.00000000000E+00 -0.54830767232E+02  0.54830767232E+02  0.00000000000E+00 0. -1.
         25    2    1    2    0    0 -0.33711139217E+02 -0.26078683861E+01  0.46156664848E+03  0.47938699647E+03  0.12499951803E+03 0.  0.
          2    1    1    2  501    0 -0.45731396515E+02 -0.41113781726E+02 -0.11257601488E+02  0.62517495682E+02  0.00000000000E+00 0. -1.
          1    1    1    2  502    0  0.79442535732E+02  0.43721650112E+02  0.21853970318E+03  0.23660579249E+03  0.00000000000E+00 0. -1.
         22    1    3    3    0    0  0.17623677328E+02 -0.33597667874E+02  0.46511173291E+02  0.60022383576E+02  0.00000000000E+00 0.  1.
         22    1    3    3    0    0 -0.51334816545E+02  0.30989799488E+02  0.41505547519E+03  0.41936461289E+03  0.00000000000E+00 0.  1.
</event>
<event>
 7    1  0.6386201E-006  0.8903838E+02  0.7818608E-02  0.1434695E+00
          2   -1    0    0  502    0  0.00000000000E+00  0.00000000000E+00  0.22419285445E+03  0.22419285445E+03  0.00000000000E+00 0. -1.
          1   -1    0    0  501    0 -0.00000000000E+00 -0.00000000000E+00 -0.72389228287E+03  0.72389228287E+03  0.00000000000E+00 0. -1.
         25    2    1    2    0    0  0.63483364905E+02  0.75439089769E+01 -0.12454607826E+03  0.18767119782E+03  0.12498681810E+03 0.  0.
          2    1    1    2  501    0  0.27145173974E+02 -0.13691850204E+02 -0.55663693995E+03  0.55746660003E+03  0.00000000000E+00 0. -1.
          1    1    1    2  502    0 -0.90628538879E+02  0.61479412271E+01  0.18148358978E+03  0.20294733948E+03  0.00000000000E+00 0. -1.
         22    1    3    3    0    0  0.82545150976E+02  0.50736608635E+01 -0.25159920589E+02  0.86443424205E+02  0.00000000000E+00 0.  1.
         22    1    3    3    0    0 -0.19061786071E+02  0.24702481134E+01 -0.99386157671E+02  0.10122777361E+03  0.00000000000E+00 0.  1.
</event>
<event>
 7    1  0.6386201E-006  0.3572522E+02  0.7818608E-02  0.1548526E+00
          2   -1    0    0  502    0  0.00000000000E+00  0.00000000000E+00  0.62087523661E+03  0.62087523661E+03  0.00000000000E+00 0. -1.
          1   -1    0    0  501    0 -0.00000000000E+00 -0.00000000000E+00 -0.15393041963E+04  0.15393041963E+04  0.00000000000E+00 0. -1.
         25    2    1    2    0    0 -0.51493488067E+02  0.47350632168E+02 -0.21796602598E+03  0.26082245849E+03  0.12500201874E+03 0.  0.
          2    1    1    2  501    0  0.25356089849E+02 -0.23107760923E+02 -0.12991532969E+04  0.12996061668E+04  0.00000000000E+00 0. -1.
          1    1    1    2  502    0  0.26137398218E+02 -0.24242871246E+02  0.59869036314E+03  0.59975080768E+03  0.00000000000E+00 0. -1.
         22    1    3    3    0    0 -0.38819463888E+02  0.50560703644E+01 -0.21279733856E+03  0.21636825535E+03  0.00000000000E+00 0.  1.
         22    1    3    3    0    0 -0.12674024179E+02  0.42294561804E+02 -0.51686874195E+01  0.44454203139E+02  0.00000000000E+00 0.  1.
</event>
<event>
 7    1  0.6386201E-006  0.6785652E+02  0.7818608E-02  0.1398402E+00
          2   -1    0    0  502    0  0.00000000000E+00  0.00000000000E+00  0.59349396990E+02  0.59349396990E+02  0.00000000000E+00 0. -1.
          1   -1    0    0  501    0 -0.00000000000E+00 -0.00000000000E+00 -0.98795415068E+03  0.98795415068E+03  0.00000000000E+00 0. -1.
         25    2    1    2    0    0  0.12933798821E+02  0.23919687909E+02 -0.40340732884E+03  0.42320476750E+03  0.12500147059E+03 0.  0.
          2    1    1    2  501    0 -0.47844385813E+02 -0.63549585903E+02 -0.55686556793E+03  0.56251835158E+03  0.00000000000E+00 0. -1.
          1    1    1    2  502    0  0.34910586992E+02  0.39629897994E+02  0.31668143080E+02  0.61580428589E+02  0.00000000000E+00 0. -1.
         22    1    3    3    0    0  0.33112249701E+02  0.68250548174E+02 -0.29046427026E+03  0.30020667998E+03  0.00000000000E+00 0. -1.
         22    1    3    3    0    0 -0.20178450880E+02 -0.44330860264E+02 -0.11294305858E+03  0.12299808752E+03  0.00000000000E+00 0. -1.
</event>
<event>
 7    1  0.6386201E-006  0.8319547E+02  0.7818608E-02  0.1400964E+00
          2   -1    0    0  502    0  0.00000000000E+00  0.00000000000E+00  0.12327710754E+04  0.12327710754E+04  0.00000000000E+00 0. -1.
          1   -1    0    0  501    0 -0.00000000000E+00 -0.00000000000E+00 -0.11495462517E+04  0.11495462517E+04  0.00000000000E+00 0. -1.
         25    2    1    2    0    0  0.83926504625E+02  0.17306066927E+02  0.82993520918E+03  0.84365934998E+03  0.12500195691E+03 0.  0.
          2    1    1    2  501    0 -0.18377813118E+02  0.37999947746E+02 -0.11376443204E+04  0.11384271342E+04  0.00000000000E+00 0. -1.
          1    1    1    2  502    0 -0.65548691507E+02 -0.55306014674E+02  0.39093393491E+03  0.40023084299E+03  0.00000000000E+00 0. -1.
         22    1    3    3    0    0 -0.20695258981E+02  0.37366656513E+02  0.30947879874E+03  0.31241268802E+03  0.00000000000E+00 0.  1.
         22    1    3    3    0    0  0.10462176361E+03 -0.20060589585E+02  0.52045641044E+03  0.53124666196E+03  0.00000000000E+00 0.  1.
</event>
<event>
 7    1  0.6386201E-006  0.1833204E+03  0.7818608E-02  0.1351522E+00
          2   -1    0    0  502    0  0.00000000000E+00  0.00000000000E+00  0.38447107861E+03  0.38447107861E+03  0.00000000000E+00 0. -1.
          1   -1    0    0  501    0 -0.00000000000E+00 -0.00000000000E+00 -0.27897350148E+03  0.27897350148E+03  0.00000000000E+00 0. -1.
         25    2    1    2    0    0  0.16245189751E+03  0.88293587837E+02  0.24276652263E+02  0.22450179552E+03  0.12500129474E+03 0.  0.
          2    1    1    2  501    0 -0.16912176076E+02  0.23235333863E+02 -0.14495678122E+03  0.14777811361E+03  0.00000000000E+00 0. -1.
          1    1    1    2  502    0 -0.14553972144E+03 -0.11152892170E+03  0.22617770609E+03  0.29116467097E+03  0.00000000000E+00 0. -1.
         22    1    3    3    0    0  0.15012932817E+03  0.72947270581E+02 -0.27451630856E+02  0.16915587929E+03  0.00000000000E+00 0.  1.
         22    1    3    3    0    0  0.12322569347E+02  0.15346317256E+02  0.51728283119E+02  0.55345916228E+02  0.00000000000E+00 0.  1.
</event>
<event>
 7    1  0.6386201E-006  0.4074696E+02  0.7818608E-02  0.1533139E+00
          2   -1    0    0  502    0  0.00000000000E+00  0.00000000000E+00  0.91863267245E+03  0.91863267245E+03  0.00000000000E+00 0. -1.
          1   -1    0    0  501    0 -0.00000000000E+00 -0.00000000000E+00 -0.26316905788E+03  0.26316905788E+03  0.00000000000E+00 0. -1.
         25    2    1    2    0    0 -0.14183472359E+02 -0.12831999018E+02 -0.13736883347E+03  0.18671033686E+03  0.12499888957E+03 0.  0.
          2    1    1    2  501    0 -0.25840641464E+02  0.20912918586E+02 -0.97917230033E+02  0.10340634822E+03  0.00000000000E+00 0. -1.
          1    1    1    2  502    0  0.40024113823E+02 -0.80809195683E+01  0.89074967807E+03  0.89168504526E+03  0.00000000000E+00 0. -1.
         22    1    3    3    0    0 -0.54003847832E+02 -0.35572050513E+02 -0.32758265264E+02  0.72490622162E+02  0.00000000000E+00 0.  1.
         22    1    3    3    0    0  0.39820375473E+02  0.22740051495E+02 -0.10461056820E+03  0.11421971469E+03  0.00000000000E+00 0.  1.
</event>
<event>
 7    1  0.6386201E-006  0.1459567E+03  0.7818608E-02  0.1269906E+00
          2   -1    0    0  502    0  0.00000000000E+00  0.00000000000E+00  0.57530759377E+03  0.57530759377E+03  0.00000000000E+00 0. -1.
          1   -1    0    0  501    0 -0.00000000000E+00 -0.00000000000E+00 -0.21269504628E+04  0.21269504628E+04  0.00000000000E+00 0. -1.
         25    2    1    2    0    0 -0.39706983431E+02  0.70160136278E+02 -0.19371920148E+03  0.24423670168E+03  0.12500139268E+03 0.  0.
          2    1    1    2  501    0 -0.68250674953E+02  0.32728103350E+02 -0.18970953377E+04  0.18986047519E+04  0.00000000000E+00 0. -1.
          1    1    1    2  502    0  0.10795765838E+03 -0.10288823963E+03  0.53917167015E+03  0.55941660304E+03  0.00000000000E+00 0. -1.
         22    1    3    3    0    0  0.12844367793E+02  0.57462421521E+02 -0.17866356634E+03  0.18811586220E+03  0.00000000000E+00 0. -1.
         22    1    3    3    0    0 -0.52551351224E+02  0.12697714758E+02 -0.15055635134E+02  0.56120839488E+02  0.00000000000E+00 0. -1.
</event>
<event>
 7    1  0.6386201E-006  0.8757047E+02  0.7818608E-02  0.1395935E+00
          2   -1    0    0  502    0  0.00000000000E+00  0.00000000000E+00  0.93598907466E+03  0.93598907466E+03  0.00000000000E+00 0. -1.
          1   -1    0    0  501    0 -0.00000000000E+00 -0.00000000000E+00 -0.55779628710E+03  0.55779628710E+03  0.00000000000E+00 0. -1.
         25    2    1    2    0    0  0.65480481426E+02 -0.15816933076E+02  0.34829849437E+03  0.37613362252E+03  0.12500716775E+03 0.  0.
          2    1    1    2  501    0  0.10442375306E+02 -0.40407315582E+02 -0.53917791260E+03  0.54079073198E+03  0.00000000000E+00 0. -1.
          1    1    1    2  502    0 -0.75922856732E+02  0.56224248658E+02  0.56907220579E+03  0.57686100728E+03  0.00000000000E+00 0. -1.
         22    1    3    3    0    0  0.48824897183E+02 -0.16775859137E+02  0.34956627889E+02  0.62347941972E+02  0.00000000000E+00 0.  1.
         22    1    3    3    0    0  0.16655584242E+02  0.95892606146E+00  0.31334186648E+03  0.31378568054E+03  0.00000000000E+00 0.  1.
</event>
<event>
 7    1  0.6386201E-006  0.6421849E+02  0.7818608E-02  0.1387256E+00
          2   -1    0    0  502    0  0.00000000000E+00  0.00000000000E+00  0.50914904176E+03  0.50914904176E+03  0.00000000000E+00 0. -1.
          1   -1    0    0  501    0 -0.00000000000E+00 -0.00000000000E+00 -0.55762500862E+03  0.55762500862E+03  0.00000000000E+00 0. -1.
         25    2    1    2    0    0  0.82484428645E+02  0.44307194604E+02 -0.38596975675E+03  0.41637015448E+03  0.12499857580E+03 0.  0.
          2    1    1    2  501    0 -0.19724861683E+02 -0.57735047904E+02 -0.14831514717E+03  0.16037390313E+03  0.00000000000E+00 0. -1.
          1    1    1    2  502    0 -0.62759566962E+02  0.13427853300E+02  0.48580893706E+03  0.49002999277E+03  0.00000000000E+00 0. -1.
         22    1    3    3    0    0  0.70768018113E+02 -0.12651030309E+02 -0.92273795825E+02  0.11697270772E+03  0.00000000000E+00 0.  1.
         22    1    3    3    0    0  0.11716410532E+02  0.56958224913E+02 -0.29369596092E+03  0.29939744676E+03  0.00000000000E+00 0.  1.
</event>
<event>
 7    1  0.6386201E-006  0.1673993E+03  0.7818608E-02  0.1286087E+00
          2   -1    0    0  502    0  0.00000000000E+00  0.00000000000E+00  0.69054768118E+03  0.69054768118E+03  0.00000000000E+00 0. -1.
          1   -1    0    0  501    0 -0.00000000000E+00 -0.00000000000E+00 -0.29001554688E+04  0.29001554688E+04  0.00000000000E+00 0. -1.
         25    2    1    2    0    0 -0.16720445465E+03 -0.14082912508E+03  0.15321094704E+02  0.25229048252E+03  0.12500231798E+03 0.  0.
          2    1    1    2  501    0  0.13877870873E+03  0.91941939241E+02 -0.27777363357E+04  0.27827202520E+04  0.00000000000E+00 0. -1.
          1    1    1    2  502    0  0.28425745927E+02  0.48887185842E+02  0.55280745343E+03  0.55569241541E+03  0.00000000000E+00 0. -1.
         22    1    3    3    0    0 -0.10287150773E+03 -0.11840752070E+02 -0.16016159358E+02  0.10478200167E+03  0.00000000000E+00 0. -1.
         22    1    3    3    0    0 -0.64332946920E+02 -0.12898837301E+03  0.31337254062E+02  0.14750848085E+03  0.00000000000E+00 0. -1.
</event>
<event>
 7    1  0.6386201E-006  0.1354633E+03  0.7818608E-02  0.1333524E+00
          2   -1    0    0  502    0  0.00000000000E+00  0.00000000000E+00  0.73117679717E+03  0.73117679717E+03  0.00000000000E+00 0. -1.
          1   -1    0    0  501    0 -0.00000000000E+00 -0.00000000000E+00 -0.17142115153E+04  0.17142115153E+04  0.00000000000E+00 0. -1.
         25    2    1    2    0    0 -0.15524650641E+03 -0.69993371015E+02 -0.31174206096E+03  0.37658513560E+03  0.12503080440E+03 0.  0.
          2    1    1    2  501    0  0.44816449675E+02 -0.74168923566E+01 -0.13631590715E+04  0.13639157521E+04  0.00000000000E+00 0. -1.
          1    1    1    2  502    0  0.11043005673E+03  0.77410263371E+02  0.69186641436E+03  0.70488742479E+03  0.00000000000E+00 0. -1.
         22    1    3    3    0    0 -0.16272661631E+03 -0.90514837481E+02 -0.25472592281E+03  0.31552841902E+03  0.00000000000E+00 0.  1.
         22    1    3    3    0    0  0.74801099033E+01  0.20521466466E+02 -0.57016138146E+02  0.61056716577E+02  0.00000000000E+00 0.  1.
</event>
<event>
 7    1  0.6386201E-006  0.9933366E+02  0.7818608E-02  0.1363414E+00
          2   -1    0    0  502    0  0.00000000000E+00  0.00000000000E+00  0.24562987952E+03  0.24562987952E+03  0.00000000000E+00 0. -1.
          1   -1    0    0  501    0 -0.00000000000E+00 -0.00000000000E+00 -0.15438207526E+03  0.15438207526E+03  0.00000000000E+00 0. -1.
         25    2    1    2    0    0  0.99836138553E+02 -0.72013245809E+01 -0.27451974198E+02  0.16247423552E+03  0.12500061073E+03 0.  0.
          2    1    1    2  501    0 -0.14110402410E+02 -0.45852498635E+02 -0.30954271675E+02  0.57093975358E+02  0.00000000000E+00 0. -1.
          1    1    1    2  502    0 -0.85725736143E+02  0.53053823216E+02  0.14965405013E+03  0.18044374391E+03  0.00000000000E+00 0. -1.
         22    1    3    3    0    0  0.12929830793E+03  0.11591600833E+01 -0.18902567302E+02  0.13067786016E+03  0.00000000000E+00 0.  1.
         22    1    3    3    0    0 -0.29462169372E+02 -0.83604846642E+01 -0.85494068963E+01  0.31796375363E+02  0.00000000000E+00 0.  1.
</event>
<event>
 7    1  0.6386201E-006  0.1749010E+03  0.7818608E-02  0.1300859E+00
          2   -1    0    0  502    0  0.00000000000E+00  0.00000000000E+00  0.63507927177E+03  0.63507927177E+03  0.00000000000E+00 0. -1.
          1   -1    0    0  501    0 -0.00000000000E+00 -0.00000000000E+00 -0.35237590434E+03  0.35237590434E+03  0.00000000000E+00 0. -1.
         25    2    1    2    0    0  0.15732429035E+03  0.92227898655E+02  0.20475285144E+03  0.30134209668E+03  0.12500564561E+03 0.  0.
          2    1    1    2  501    0 -0.12275970532E+03 -0.12432319831E+03 -0.27729603978E+03  0.32774883152E+03  0.00000000000E+00 0. -1.
          1    1    1    2  502    0 -0.34564585025E+02  0.32095299655E+02  0.35524655576E+03  0.35836424791E+03  0.00000000000E+00 0. -1.
         22    1    3    3    0    0 -0.20820546376E+02  0.13663421385E+01  0.23749609752E+02  0.31613383330E+02  0.00000000000E+00 0.  1.
         22    1    3    3    0    0  0.17814483672E+03  0.90861556516E+02  0.18100324169E+03  0.26972871335E+03  0.00000000000E+00 0.  1.
</event>
<event>
 7    1  0.6386201E-006  0.6259043E+02  0.7818608E-02  0.1533240E+00
          2   -1    0    0  502    0  0.00000000000E+00  0.00000000000E+00  0.13527102642E+03  0.13527102642E+03  0.00000000000E+00 0. -1.
          1   -1    0    0  501    0 -0.00000000000E+00 -0.00000000000E+00 -0.14731871271E+04  0.14731871271E+04  0.00000000000E+00 0. -1.
         25    2    1    2    0    0 -0.65246812053E+02 -0.88176066209E+01 -0.71523225973E+03  0.72905119338E+03  0.12499424205E+03 0.  0.
          2    1    1    2  501    0  0.39040346472E+01  0.21271808893E+02 -0.74324787085E+03  0.74356245794E+03  0.00000000000E+00 0. -1.
          1    1    1    2  502    0  0.61342777406E+02 -0.12454202272E+02  0.12056402986E+03  0.13584450224E+03  0.00000000000E+00 0. -1.
         22    1    3    3    0    0 -0.65577156454E+02 -0.60547625590E+02 -0.47486539357E+03  0.48318062919E+03  0.00000000000E+00 0.  1.
         22    1    3    3    0    0  0.33034440106E+00  0.51730018969E+02 -0.24036686616E+03  0.24587056419E+03  0.00000000000E+00 0.  1.
</event>
<event>
 7    1  0.6386201E-006  0.6838233E+02  0.7818608E-02  0.1411636E+00
          2   -1    0    0  502    0  0.00000000000E+00  0.00000000000E+00  0.13401491838E+04  0.13401491838E+04  0.00000000000E+00 0. -1.
          1   -1    0    0  501    0 -0.00000000000E+00 -0.00000000000E+00 -0.11306175889E+03  0.11306175889E+03  0.00000000000E+00 0. -1.
         25    2    1    2    0    0 -0.28905070485E+02  0.77749060804E+02  0.60492207893E+02  0.16175456923E+03  0.12499925558E+03 0.  0.
          2    1    1    2  501    0 -0.16816615660E+02 -0.65908233331E+02 -0.43304726247E+02  0.80634937207E+02  0.00000000000E+00 0. -1.
          1    1    1    2  502    0  0.45721686145E+02 -0.11840827473E+02  0.12098999433E+04  0.12108214362E+04  0.00000000000E+00 0. -1.
         22    1    3    3    0    0 -0.36832571725E+02  0.11012476264E+03  0.52719227302E+02  0.12752810911E+03  0.00000000000E+00 0.  1.
         22    1    3    3    0    0  0.79275012398E+01 -0.32375701833E+02  0.77729805913E+01  0.34226460121E+02  0.00000000000E+00 0.  1.
</event>
<event>
 7    1  0.6386201E-006  0.1003246E+03  0.7818608E-02  0.1308768E+00
          2   -1    0    0  502    0  0.00000000000E+00  0.00000000000E+00  0.14138936865E+04  0.14138936865E+04  0.00000000000E+00 0. -1.
          1   -1    0    0  501    0 -0.00000000000E+00 -0.00000000000E+00 -0.43503088291E+03  0.43503088291E+03  0.00000000000E+00 0. -1.
         25    2    1    2    0    0 -0.49176383984E+01 -0.15659399577E+03  0.86480999809E+02  0.21828625084E+03  0.12499624515E+03 0.  0.
          2    1    1    2  501    0  0.41185372675E+02  0.64455755736E+02 -0.36319543201E+03  0.37116263444E+03  0.00000000000E+00 0. -1.
          1    1    1    2  502    0 -0.36267734276E+02  0.92138240031E+02  0.12555772358E+04  0.12594756841E+04  0.00000000000E+00 0. -1.
         22    1    3    3    0    0  0.10239711082E+02 -0.75178510707E+01 -0.27318363771E+02  0.30127442090E+02  0.00000000000E+00 0.  1.
         22    1    3    3    0    0 -0.15157349481E+02 -0.14907614470E+03  0.11379936358E+03  0.18815880875E+03  0.00000000000E+00 0.  1.
</event>
<event>
 7    1  0.6386201E-006  0.5220318E+02  0.7818608E-02  0.1474725E+00
          2   -1    0    0  502    0  0.00000000000E+00  0.00000000000E+00  0.46528432979E+03  0.46528432979E+03  0.00000000000E+00 0. -1.
          1   -1    0    0  501    0 -0.00000000000E+00 -0.00000000000E+00 -0.34312465974E+03  0.34312465974E+03  0.00000000000E+00 0. -1.
         25    2    1    2    0    0  0.38216625013E+02 -0.34861976864E+02 -0.92840009498E+02  0.16407376140E+03  0.12500025583E+03 0.  0.
          2    1    1    2  501    0 -0.42060899812E+01  0.53296289163E+02 -0.21044791408E+03  0.21713247148E+03  0.00000000000E+00 0. -1.
          1    1    1    2  502    0 -0.34010535032E+02 -0.18434312298E+02  0.42544759363E+03  0.42720275665E+03  0.00000000000E+00 0. -1.
         22    1    3    3    0    0  0.82751855504E+02 -0.21150011452E+02 -0.42240029928E+02  0.95285952281E+02  0.00000000000E+00 0. -1.
         22    1    3    3    0    0 -0.44535230491E+02 -0.13711965413E+02 -0.50599979570E+02  0.68787809115E+02  0.00000000000E+00 0. -1.
</event>
<event>
 7    1  0.6386201E-006  0.4385558E+02  0.7818608E-02  0.1598231E+00
          2   -1    0    0  502    0  0.00000000000E+00  0.00000000000E+00  0.23381208465E+03  0.23381208465E+03  0.00000000000E+00 0. -1.
          1   -1    0    0  501    0 -0.00000000000E+00 -0.00000000000E+00 -0.12780474749E+04  0.12780474749E+04  0.00000000000E+00 0. -1.
         25    2    1    2    0    0 -0.22889018772E+02  0.40070289119E+02 -0.25936207752E+02  0.13574730572E+03  0.12500043555E+03 0.  0.
          2    1    1    2  501    0  0.27247310936E+01 -0.43788521068E+02 -0.11962147579E+04  0.11970190498E+04  0.00000000000E+00 0. -1.
          1    1    1    2  502    0  0.20164287679E+02  0.37182319485E+01  0.17791557539E+03  0.17909320398E+03  0.00000000000E+00 0. -1.
         22    1    3    3    0    0 -0.24726528704E+02  0.64063654781E+02  0.29937536018E+02  0.74912009375E+02  0.00000000000E+00 0. -1.
         22    1    3    3    0    0  0.18375099320E+01 -0.23993365662E+02 -0.55873743770E+02  0.60835296345E+02  0.00000000000E+00 0. -1.
</event>
<event>
 7    1  0.6386201E-006  0.9722168E+02  0.7818608E-02  0.1341872E+00
          2   -1    0    0  502    0  0.00000000000E+00  0.00000000000E+00  0.43178852677E+03  0.43178852677E+03  0.00000000000E+00 0. -1.
          1   -1    0    0  501    0 -0.00000000000E+00 -0.00000000000E+00 -0.38045248744E+03  0.38045248744E+03  0.00000000000E+00 0. -1.
         25    2    1    2    0    0  0.28455915466E+02 -0.65064402635E+02 -0.14666389390E+03  0.20537190540E+03  0.12499682451E+03 0.  0.
          2    1    1    2  501    0 -0.49938300546E+02 -0.31162627968E+02 -0.19396171053E+03  0.20269703598E+03  0.00000000000E+00 0. -1.
          1    1    1    2  502    0  0.21482385080E+02  0.96227030603E+02  0.39196164375E+03  0.40417207284E+03  0.00000000000E+00 0. -1.
         22    1    3    3    0    0 -0.42704779845E+02 -0.54556135507E+02 -0.91242383783E+02  0.11456545178E+03  0.00000000000E+00 0.  1.
         22    1    3    3    0    0  0.71160695311E+02 -0.10508267128E+02 -0.55421510112E+02  0.90806453616E+02  0.00000000000E+00 0.  1.
</event>
<event>
 7    1  0.6386201E-006  0.1094164E+03  0.7818608E-02  0.1349461E+00
          2   -1    0    0  502    0  0.00000000000E+00  0.00000000000E+00  0.12223261296E+03  0.12223261296E+03  0.00000000000E+00 0. -1.
          1   -1    0    0  501    0 -0.00000000000E+00 -0.00000000000E+00 -0.73543499942E+03  0.73543499942E+03  0.00000000000E+00 0. -1.
         25    2    1    2    0    0  0.11874744962E+03 -0.58175929226E+02 -0.87392817472E+02  0.20186086276E+03  0.12499963134E+03 0.  0.
          2    1    1    2  501    0 -0.10757328817E+03  0.10464017057E+02 -0.57576963214E+03  0.58582606401E+03  0.00000000000E+00 0. -1.
          1    1    1    2  502    0 -0.11174161457E+02  0.47711912169E+02  0.49960063155E+02  0.69980685603E+02  0.00000000000E+00 0. -1.
         22    1    3    3    0    0  0.10117469883E+03 -0.44584199311E+02 -0.11951010068E+03  0.16280889004E+03  0.00000000000E+00 0. -1.
         22    1    3    3    0    0  0.17572750797E+02 -0.13591729915E+02  0.32117283209E+02  0.39051972721E+02  0.00000000000E+00 0. -1.
</event>
<event>
 7    1  0.6386201E-006  0.6205199E+02  0.7818608E-02  0.1406263E+00
          2   -1    0    0  502    0  0.00000000000E+00  0.00000000000E+00  0.21955852286E+04  0.21955852286E+04  0.00000000000E+00 0. -1.
          1   -1    0    0  501    0 -0.00000000000E+00 -0.00000000000E+00 -0.14979389624E+03  0.14979389624E+03  0.00000000000E+00 0. -1.
         25    2    1    2    0    0  0.20538498410E+02  0.10874060992E+03  0.36315166889E+02  0.17084887333E+03  0.12499678400E+03 0.  0.
          2    1    1    2  501    0 -0.30944388788E+01 -0.57340038304E+02 -0.72141232101E+02  0.92205275954E+02  0.00000000000E+00 0. -1.
          1    1    1    2  502    0 -0.17444059532E+02 -0.51400571618E+02  0.20816173975E+04  0.20823249755E+04  0.00000000000E+00 0. -1.
         22    1    3    3    0    0  0.53813123706E+02  0.11855214257E+02 -0.13802785461E+02  0.56805944007E+02  0.00000000000E+00 0. -1.
         22    1    3    3    0    0 -0.33274625295E+02  0.96885395665E+02  0.50117952350E+02  0.11404292933E+03  0.00000000000E+00 0. -1.
</event>
<event>
 7    1  0.6386201E-006  0.6365870E+02  0.7818608E-02  0.1458754E+00
          2   -1    0    0  502    0  0.00000000000E+00  0.00000000000E+00  0.37101739020E+03  0.37101739020E+03  0.00000000000E+00 0. -1.
          1   -1    0    0  501    0 -0.00000000000E+00 -0.00000000000E+00 -0.14215202646E+04  0.14215202646E+04  0.00000000000E+00 0. -1.
         25    2    1    2    0    0 -0.15647418457E+02  0.56329619781E+02  0.38685364145E+02  0.14331780316E+03  0.12500227012E+03 0.  0.
          2    1    1    2  501    0 -0.32888750522E+02 -0.13592879087E+02 -0.13652351957E+04  0.13656989330E+04  0.00000000000E+00 0. -1.
          1    1    1    2  502    0  0.48536168979E+02 -0.42736740694E+02  0.27604695715E+03  0.28352091855E+03  0.00000000000E+00 0. -1.
         22    1    3    3    0    0  0.33862400221E+02 -0.24743267276E+02  0.37650355657E+01  0.42107801142E+02  0.00000000000E+00 0.  1.
         22    1    3    3    0    0 -0.49509818678E+02  0.81072887057E+02  0.34920328579E+02  0.10121000202E+03  0.00000000000E+00 0.  1.
</event>
<event>
 7    1  0.6386201E-006  0.5919272E+02  0.7818608E-02  0.1402054E+00
          2   -1    0    0  502    0  0.00000000000E+00  0.00000000000E+00  0.24950800359E+04  0.24950800359E+04  0.00000000000E+00 0. -1.
          1   -1    0    0  501    0 -0.00000000000E+00 -0.00000000000E+00 -0.18322073925E+04  0.18322073925E+04  0.00000000000E+00 0. -1.
         25    2    1    2    0    0  0.19539684963E+02 -0.49311910659E+02  0.10047685605E+03  0.16891733440E+03  0.12499601369E+03 0.  0.
          2    1    1    2  501    0 -0.58655248236E+02  0.43793846366E+01 -0.17971300477E+04  0.17980923295E+04  0.00000000000E+00 0. -1.
          1    1    1    2  502    0  0.39115563274E+02  0.44932526023E+02  0.23595258350E+04  0.23602777645E+04  0.00000000000E+00 0. -1.
         22    1    3    3    0    0  0.48919276571E+01  0.29660070545E+02 -0.10572615184E+02  0.31865827037E+02  0.00000000000E+00 0. -1.
         22    1    3    3    0    0  0.14647757305E+02 -0.78971981204E+02  0.11104947123E+03  0.13705150736E+03  0.00000000000E+00 0. -1.
</event>
<event>
 7    1  0.6386201E-006  0.1962741E+03  0.7818608E-02  0.1303098E+00
          2   -1    0    0  502    0  0.00000000000E+00  0.00000000000E+00  0.39973139360E+02  0.39973139360E+02  0.00000000000E+00 0. -1.
          1   -1    0    0  501    0 -0.00000000000E+00 -0.00000000000E+00 -0.43775134610E+04  0.43775134610E+04  0.00000000000E+00 0. -1.
         25    2    1    2    0    0  0.16396039455E+03 -0.39952558150E+02 -0.57864374880E+03  0.61557516196E+03  0.12499989644E+03 0.  0.
          2    1    1    2  501    0 -0.18604105567E+03  0.74707028687E+02 -0.37552247343E+04  0.37605724590E+04  0.00000000000E+00 0. -1.
          1    1    1    2  502    0  0.22080661112E+02 -0.34754470537E+02 -0.36718385446E+01  0.41338979375E+02  0.00000000000E+00 0. -1.
         22    1    3    3    0    0  0.14753078943E+03  0.18153493625E+02 -0.43732615094E+03  0.46189722391E+03  0.00000000000E+00 0.  1.
         22    1    3    3    0    0  0.16429605124E+02 -0.58106051775E+02 -0.14131759786E+03  0.15367793805E+03  0.00000000000E+00 0.  1.
</event>
<event>
 7    1  0.6386201E-006  0.4140129E+02  0.7818608E-02  0.1517068E+00
          2   -1    0    0  502    0  0.00000000000E+00  0.00000000000E+00  0.16273777750E+04  0.16273777750E+04  0.00000000000E+00 0. -1.
          1   -1    0    0  501    0 -0.00000000000E+00 -0.00000000000E+00 -0.18834360237E+03  0.18834360237E+03  0.00000000000E+00 0. -1.
         25    2    1    2    0    0 -0.10245077821E+01  0.12995059152E+02  0.26730936437E+03  0.29537885504E+03  0.12499780217E+03 0.  0.
          2    1    1    2  501    0  0.36826899179E+02 -0.19576048582E+02 -0.17156397931E+03  0.17656058784E+03  0.00000000000E+00 0. -1.
          1    1    1    2  502    0 -0.35802391397E+02  0.65809894300E+01  0.13432887875E+04  0.13437819345E+04  0.00000000000E+00 0. -1.
         22    1    3    3    0    0 -0.50720159037E+02 -0.25319143803E+02  0.17342087411E+03  0.18245107057E+03  0.00000000000E+00 0. -1.
         22    1    3    3    0    0  0.49695651255E+02  0.38314202956E+02  0.93888490265E+02  0.11292778447E+03  0.00000000000E+00 0. -1.
</event>
<event>
 7    1  0.6386201E-006  0.8049652E+02  0.7818608E-02  0.1417575E+00
          2   -1    0    0  502    0  0.00000000000E+00  0.00000000000E+00  0.12622873749E+04  0.12622873749E+04  0.00000000000E+00 0. -1.
          1   -1    0    0  501    0 -0.00000000000E+00 -0.00000000000E+00 -0.16423749938E+04  0.16423749938E+04  0.00000000000E+00 0. -1.
         25    2    1    2    0    0  0.43545361407E+02  0.79102070745E+00  0.28136723284E+03  0.31094878194E+03  0.12499920425E+03 0.  0.
          2    1    1    2  501    0 -0.79292318353E+02 -0.14587887394E+02 -0.16262052509E+04  0.16282025661E+04  0.00000000000E+00 0. -1.
          1    1    1    2  502    0  0.35746956946E+02  0.13796866687E+02  0.96475039914E+03  0.96551102070E+03  0.00000000000E+00 0. -1.
         22    1    3    3    0    0  0.58021939213E+01  0.58478814155E+02  0.89461286582E+02  0.10703625066E+03  0.00000000000E+00 0. -1.
         22    1    3    3    0    0  0.37743167486E+02 -0.57687793448E+02  0.19190594625E+03  0.20391253128E+03  0.00000000000E+00 0. -1.
</event>
<event>
 7    1  0.6386201E-006  0.6788265E+02  0.7818608E-02  0.1476070E+00
          2   -1    0    0  502    0  0.00000000000E+00  0.00000000000E+00  0.53745828052E+03  0.53745828052E+03  0.00000000000E+00 0. -1.
          1   -1    0    0  501    0 -0.00000000000E+00 -0.00000000000E+00 -0.92578570463E+03  0.92578570463E+03  0.00000000000E+00 0. -1.
         25    2    1    2    0    0 -0.21552824648E+02  0.90783742366E+02  0.71735914918E+02  0.17168850181E+03  0.12499875214E+03 0.  0.
          2    1    1    2  501    0  0.16534797201E+02 -0.24389987344E+02 -0.87289333391E+03  0.87339054460E+03  0.00000000000E+00 0. -1.
          1    1    1    2  502    0  0.50180274474E+01 -0.66393755022E+02  0.41282999489E+03  0.41816493874E+03  0.00000000000E+00 0. -1.
         22    1    3    3    0    0  0.12500395518E+02  0.53382136571E+02  0.99781583864E+02  0.11385199547E+03  0.00000000000E+00 0.  1.
         22    1    3    3    0    0 -0.34053220166E+02  0.37401605795E+02 -0.28045668947E+02  0.57836506347E+02  0.00000000000E+00 0.  1.
</event>
<event>
 7    1  0.6386201E-006  0.2054760E+03  0.7818608E-02  0.1341614E+00
          2   -1    0    0  502    0  0.00000000000E+00  0.00000000000E+00  0.27732961313E+04  0.27732961313E+04  0.00000000000E+00 0. -1.
          1   -1    0    0  501    0 -0.00000000000E+00 -0.00000000000E+00 -0.13169960337E+04  0.13169960337E+04  0.00000000000E+00 0. -1.
         25    2    1    2    0    0  0.22481639848E+02 -0.20821220417E+03 -0.42223380501E+03  0.48761086554E+03  0.12500089604E+03 0.  0.
          2    1    1    2  501    0 -0.27770600079E+02  0.28221206783E+01 -0.85799570471E+03  0.85844964901E+03  0.00000000000E+00 0. -1.
          1    1    1    2  502    0  0.52889602310E+01  0.20539008349E+03  0.27365296073E+04  0.27442316505E+04  0.00000000000E+00 0. -1.
         22    1    3    3    0    0  0.21831695790E+02 -0.18349524076E+03 -0.23597819253E+03  0.29972125996E+03  0.00000000000E+00 0. -1.
         22    1    3    3    0    0  0.64994405814E+00 -0.24716963406E+02 -0.18625561247E+03  0.18788960558E+03  0.00000000000E+00 0. -1.
</event>
<event>
 7    1  0.6386201E-006  0.1508967E+03  0.7818608E-02  0.1234621E+00
          2   -1    0    0  502    0  0.00000000000E+00  0.00000000000E+00  0.80679638115E+03  0.80679638115E+03  0.00000000000E+00 0. -1.
          1   -1    0    0  501    0 -0.00000000000E+00 -0.00000000000E+00 -0.38189060839E+03  0.38189060839E+03  0.00000000000E+00 0. -1.
         25    2    1    2    0    0 -0.20432735208E+03 -0.11443450378E+03 -0.28893800943E+02  0.26703466705E+03  0.12501095637E+03 0.  0.
          2    1    1    2  501    0  0.13114175210E+03  0.40509677663E+02 -0.20938317495E+03  0.25036075388E+03  0.00000000000E+00 0. -1.
          1    1    1    2  502    0  0.73185599982E+02  0.73924826119E+02  0.66318274866E+03  0.67129156860E+03  0.00000000000E+00 0. -1.
         22    1    3    3    0    0 -0.40394890884E+02 -0.58701550932E+02  0.38786682788E+02  0.81129686632E+02  0.00000000000E+00 0.  1.
         22    1    3    3    0    0 -0.16393246120E+03 -0.55732952850E+02 -0.67680483731E+02  0.18590498042E+03  0.00000000000E+00 0.  1.
</event>
<event>
 7    1  0.6386201E-006  0.1483914E+03  0.7818608E-02  0.1379678E+00
          2   -1    0    0  502    0  0.00000000000E+00  0.00000000000E+00  0.78421246247E+02  0.78421246247E+02  0.00000000000E+00 0. -1.
          1   -1    0    0  501    0 -0.00000000000E+00 -0.00000000000E+00 -0.22650179145E+04  0.22650179145E+04  0.00000000000E+00 0. -1.
         25    2    1    2    0    0  0.11289573356E+03  0.50771926764E+02 -0.31144828159E+03  0.35769749633E+03  0.12499692627E+03 0.  0.
          2    1    1    2  501    0 -0.13632884252E+03 -0.66239955624E+02 -0.19236967089E+04  0.19296586001E+04  0.00000000000E+00 0. -1.
          1    1    1    2  502    0  0.23433108968E+02  0.15468028861E+02  0.48548322237E+02  0.56083064331E+02  0.00000000000E+00 0. -1.
         22    1    3    3    0    0  0.12960193762E+03  0.32020067630E+02 -0.30315797641E+03  0.33125021604E+03  0.00000000000E+00 0.  1.
         22    1    3    3    0    0 -0.16706204060E+02  0.18751859134E+02 -0.82903051777E+01  0.26447280295E+02  0.00000000000E+00 0.  1.
</event>
<event>
 7    1  0.6386201E-006  0.5937967E+02  0.7818608E-02  0.1440614E+00
          2   -1    0    0  502    0  0.00000000000E+00  0.00000000000E+00  0.11674176803E+04  0.11674176803E+04  0.00000000000E+00 0. -1.
          1   -1    0    0  501    0 -0.00000000000E+00 -0.00000000000E+00 -0.23779618319E+03  0.23779618319E+03  0.00000000000E+00 0. -1.
         25    2    1    2    0    0 -0.72953293168E+02  0.19109477372E+02  0.10801709811E+03  0.18160424512E+03  0.12500021301E+03 0.  0.
          2    1    1    2  501    0  0.34785824424E+02  0.26300699299E+02 -0.19776478613E+03  0.20251590307E+03  0.00000000000E+00 0. -1.
          1    1    1    2  502    0  0.38167468744E+02 -0.45410176671E+02  0.10193691851E+04  0.10210937153E+04  0.00000000000E+00 0. -1.
         22    1    3    3    0    0 -0.38853761335E+02  0.69967274677E+02  0.83461735264E+02  0.11563258861E+03  0.00000000000E+00 0. -1.
         22    1    3    3    0    0 -0.34099531833E+02 -0.50857797305E+02  0.24555362843E+02  0.65971656507E+02  0.00000000000E+00 0. -1.
</event>
<event>
 7    1  0.6386201E-006  0.8849033E+02  0.7818608E-02  0.1319373E+00
          2   -1    0    0  502    0  0.00000000000E+00  0.00000000000E+00  0.35701619573E+04  0.35701619573E+04  0.00000000000E+00 0. -1.
          1   -1    0    0  501    0 -0.00000000000E+00 -0.00000000000E+00 -0.57718128577E+02  0.57718128577E+02  0.00000000000E+00 0. -1.
         25    2    1    2    0    0 -0.13748297608E+02 -0.72920590927E+01  0.17938158000E+04  0.17982331727E+04  0.12500091803E+03 0.  0.
          2    1    1    2  501    0  0.33669681342E+02  0.83544227685E+02 -0.17477264568E+02  0.91753693102E+02  0.00000000000E+00 0. -1.
          1    1    1    2  502    0 -0.19921383734E+02 -0.76252168592E+02  0.17361052933E+04  0.17378932200E+04  0.00000000000E+00 0. -1.
         22    1    3    3    0    0 -0.41328121756E+02  0.37693769285E+02  0.46221834213E+03  0.46559062458E+03  0.00000000000E+00 0. -1.
         22    1    3    3    0    0  0.27579824148E+02 -0.44985828378E+02  0.13315974578E+04  0.13326425482E+04  0.00000000000E+00 0. -1.
</event>
<event>
 7    1  0.6386201E-006  0.5919044E+02  0.7818608E-02  0.1405216E+00
          2   -1    0    0  502    0  0.00000000000E+00  0.00000000000E+00  0.10808806000E+04  0.10808806000E+04  0.00000000000E+00 0. -1.
          1   -1    0    0  501    0 -0.00000000000E+00 -0.00000000000E+00 -0.72031333175E+03  0.72031333175E+03  0.00000000000E+00 0. -1.
         25    2    1    2    0    0  0.10234229117E+03 -0.43253801357E+02  0.67365064655E+03  0.69410034970E+03  0.12500106386E+03 0.  0.
          2    1    1    2  501    0 -0.58812774609E+02  0.58775173648E+01 -0.70677556031E+03  0.70924268084E+03  0.00000000000E+00 0. -1.
          1    1    1    2  502    0 -0.43529516556E+02  0.37376283993E+02  0.39369218204E+03  0.39785090124E+03  0.00000000000E+00 0. -1.
         22    1    3    3    0    0  0.50374171559E+02 -0.26901131568E+02  0.59882793021E+03  0.60154477643E+03  0.00000000000E+00 0.  1.
         22    1    3    3    0    0  0.51968119606E+02 -0.16352669790E+02  0.74822716333E+02  0.92555573274E+02  0.00000000000E+00 0.  1.
</event>
<event>
 7    1  0.6386201E-006  0.7167238E+02  0.7818608E-02  0.1433143E+00
          2   -1    0    0  502    0  0.00000000000E+00  0.00000000000E+00  0.11877598155E+02  0.11877598155E+02  0.00000000000E+00 0. -1.
          1   -1    0    0  501    0 -0.00000000000E+00 -0.00000000000E+00 -0.33437368048E+04  0.33437368048E+04  0.00000000000E+00 0. -1.
         25    2    1    2    0    0 -0.81388733411E+02 -0.56807314572E+02 -0.20288834995E+04  0.20351518489E+04  0.12499438534E+03 0.  0.
          2    1    1    2  501    0  0.44415815442E+02  0.47147928725E+02 -0.12647636770E+04  0.12664212768E+04  0.00000000000E+00 0. -1.
          1    1    1    2  502    0  0.36972917969E+02  0.96593858466E+01 -0.38212030115E+02  0.54041277220E+02  0.00000000000E+00 0. -1.
         22    1    3    3    0    0 -0.12658455983E+02 -0.65648223680E+02 -0.15321538674E+04  0.15336118802E+04  0.00000000000E+00 0. -1.
         22    1    3    3    0    0 -0.68730277428E+02  0.88409091079E+01 -0.49672963220E+03  0.50153996871E+03  0.00000000000E+00 0. -1.
</event>
<event>
 7    1  0.6386201E-006  0.1247898E+03  0.7818608E-02  0.1340652E+00
          2   -1    0    0  502    0  0.00000000000E+00  0.00000000000E+00  0.57842697207E+03  0.57842697207E+03  0.00000000000E+00 0. -1.
          1   -1    0    0  501    0 -0.00000000000E+00 -0.00000000000E+00 -0.11485094404E+03  0.11485094404E+03  0.00000000000E+00 0. -1.
         25    2    1    2    0    0 -0.11620954890E+03 -0.90753942673E+02  0.38494758350E+03  0.43075790713E+03  0.12500718038E+03 0.  0.
          2    1    1    2  501    0  0.19711997509E+02  0.41944972791E+02 -0.66793316742E+02  0.81297544549E+02  0.00000000000E+00 0. -1.
          1    1    1    2  502    0  0.96497551392E+02  0.48808969881E+02  0.14542176126E+03  0.18122246443E+03  0.00000000000E+00 0. -1.
         22    1    3    3    0    0 -0.79719823139E+02 -0.21840653827E+01  0.26784956751E+03  0.27946987523E+03  0.00000000000E+00 0. -1.
         22    1    3    3    0    0 -0.36489725761E+02 -0.88569877290E+02  0.11709801599E+03  0.15128803190E+03  0.00000000000E+00 0. -1.
</event>
<event>
 7    1  0.6386201E-006  0.1231976E+03  0.7818608E-02  0.1314920E+00
          2   -1    0    0  502    0  0.00000000000E+00  0.00000000000E+00  0.34589032988E+04  0.34589032988E+04  0.00000000000E+00 0. -1.
          1   -1    0    0  501    0 -0.00000000000E+00 -0.00000000000E+00 -0.28012533988E+04  0.28012533988E+04  0.00000000000E+00 0. -1.
         25    2    1    2    0    0 -0.73563749292E+02  0.84196183569E+02 -0.71957063596E+03  0.73885549797E+03  0.12499969685E+03 0.  0.
          2    1    1    2  501    0  0.11891922491E+03 -0.46592108074E+02 -0.20698201783E+04  0.20737570198E+04  0.00000000000E+00 0. -1.
          1    1    1    2  502    0 -0.45355475622E+02 -0.37604075495E+02  0.34470407143E+04  0.34475441798E+04  0.00000000000E+00 0. -1.
         22    1    3    3    0    0  0.50613582333E+01  0.86882610220E+02 -0.43439838113E+03  0.44303065225E+03  0.00000000000E+00 0. -1.
         22    1    3    3    0    0 -0.78625107525E+02 -0.26864266511E+01 -0.28517225483E+03  0.29582484572E+03  0.00000000000E+00 0. -1.
</event>
<event>
 7    1  0.6386201E-006  0.8095137E+02  0.7818608E-02  0.1499199E+00
          2   -1    0    0  502    0  0.00000000000E+00  0.00000000000E+00  0.19731583659E+04  0.19731583659E+04  0.00000000000E+00 0. -1.
          1   -1    0    0  501    0 -0.00000000000E+00 -0.00000000000E+00 -0.28646379445E+03  0.28646379445E+03  0.00000000000E+00 0. -1.
         25    2    1    2    0    0 -0.57573025498E+02  0.17390320329E+02 -0.63583418676E+02  0.15259465721E+03  0.12500080708E+03 0.  0.
          2    1    1    2  501    0 -0.19587493189E+02  0.76299443948E+01 -0.17689928654E+03  0.17814388432E+03  0.00000000000E+00 0. -1.
          1    1    1    2  502    0  0.77160518687E+02 -0.25020264724E+02  0.19271772766E+04  0.19288836188E+04  0.00000000000E+00 0. -1.
         22    1    3    3    0    0  0.71606710309E+01 -0.24079240155E+02  0.24905661473E+02  0.35374807271E+02  0.00000000000E+00 0.  1.
         22    1    3    3    0    0 -0.64733696529E+02  0.41469560483E+02 -0.88489080149E+02  0.11721984993E+03  0.00000000000E+00 0.  1.
</event>
<event>
 7    1  0.6386201E-006  0.8391883E+02  0.7818608E-02  0.1383446E+00
          2   -1    0    0  502    0  0.00000000000E+00  0.00000000000E+00  0.82216121460E+03  0.82216121460E+03  0.00000000000E+00 0. -1.
          1   -1    0    0  501    0 -0.00000000000E+00 -0.00000000000E+00 -0.17608800045E+03  0.17608800045E+03  0.00000000000E+00 0. -1.
         25    2    1    2    0    0  0.34390278174E+02  0.57568653439E+02  0.19519317407E+03  0.24129173079E+03  0.12499793219E+03 0.  0.
          2    1    1    2  501    0  0.44265184624E+02 -0.18948205521E+02 -0.14597153158E+03  0.15370793439E+03  0.00000000000E+00 0. -1.
          1    1    1    2  502    0 -0.78655462798E+02 -0.38620447918E+02  0.59685157167E+03  0.60324954988E+03  0.00000000000E+00 0. -1.
         22    1    3    3    0    0 -0.55120456746E+01  0.51112897859E+01  0.17087417007E+03  0.17103943968E+03  0.00000000000E+00 0. -1.
         22    1    3    3    0    0  0.39902323848E+02  0.52457363653E+02  0.24319003999E+02  0.70252291104E+02  0.00000000000E+00 0. -1.
</event>
<event>
 7    1  0.6386201E-006  0.6450048E+02  0.7818608E-02  0.1395251E+00
          2   -1    0    0  502    0  0.00000000000E+00  0.00000000000E+00  0.11637005107E+04  0.11637005107E+04  0.00000000000E+00 0. -1.
          1   -1    0    0  501    0 -0.00000000000E+00 -0.00000000000E+00 -0.31706982021E+03  0.31706982021E+03  0.00000000000E+00 0. -1.
         25    2    1    2    0    0  0.68510314865E+02 -0.92704761833E+02  0.27514373279E+03  0.32344654674E+03  0.12500303515E+03 0.  0.
          2    1    1    2  501    0 -0.44899900669E+02  0.35068020370E+02 -0.28901191007E+03  0.29457367720E+03  0.00000000000E+00 0. -1.
          1    1    1    2  502    0 -0.23610414196E+02  0.57636741463E+02  0.86049886778E+03  0.86275010697E+03  0.00000000000E+00 0. -1.
         22    1    3    3    0    0 -0.31108699880E+02 -0.55247000943E+02  0.11054338168E+03  0.12743555844E+03  0.00000000000E+00 0. -1.
         22    1    3    3    0    0  0.99619014745E+02 -0.37457760891E+02  0.16460035112E+03  0.19601098831E+03  0.00000000000E+00 0. -1.
</event>
<event>
 7    1  0.6386201E-006  0.1510945E+03  0.7818608E-02  0.1284953E+00
          2   -1    0    0  502    0  0.00000000000E+00  0.00000000000E+00  0.30383031507E+04  0.30383031507E+04  0.00000000000E+00 0. -1.
          1   -1    0    0  501    0 -0.00000000000E+00 -0.00000000000E+00 -0.22788416904E+03  0.22788416904E+03  0.00000000000E+00 0. -1.
         25    2    1    2    0    0 -0.18583755548E+03  0.21615729657E+02  0.79424676099E+03  0.82550324274E+03  0.12499939850E+03 0.  0.
          2    1    1    2  501    0  0.41607133697E+02 -0.47740029989E+02 -0.20506267576E+03  0.21461818429E+03  0.00000000000E+00 0. -1.
          1    1    1    2  502    0  0.14423042178E+03  0.26124300331E+02  0.22212348965E+04  0.22260658927E+04  0.00000000000E+00 0. -1.
         22    1    3    3    0    0  0.51713249475E+01 -0.97619415383E+01  0.37721265972E+01  0.11673347565E+02  0.00000000000E+00 0.  1.
         22    1    3    3    0    0 -0.19100888043E+03  0.31377671195E+02  0.79047463440E+03  0.81382989517E+03  0.00000000000E+00 0.  1.
</event>
<event>
 7    1  0.6386201E-006  0.5101884E+02  0.7818608E-02  0.1446035E+00
          2   -1    0    0  502    0  0.00000000000E+00  0.00000000000E+00  0.21640337815E+04  0.21640337815E+04  0.00000000000E+00 0. -1.
          1   -1    0    0  501    0 -0.00000000000E+00 -0.00000000000E+00 -0.22981361318E+03  0.22981361318E+03  0.00000000000E+00 0. -1.
         25    2    1    2    0    0  0.23140263006E+02  0.21036711756E+02  0.13444348737E+03  0.18621656221E+03  0.12499416679E+03 0.  0.
          2    1    1    2  501    0 -0.40206136891E+02  0.27569358391E+02 -0.20067719132E+03  0.20651377213E+03  0.00000000000E+00 0. -1.
          1    1    1    2  502    0  0.17065873885E+02 -0.48606070147E+02  0.20004538722E+04  0.20011170603E+04  0.00000000000E+00 0. -1.
         22    1    3    3    0    0  0.11088730405E+02  0.73574224360E+02  0.86279460602E+02  0.11393099558E+03  0.00000000000E+00 0.  1.
         22    1    3    3    0    0  0.12051532601E+02 -0.52537512604E+02  0.48164026765E+02  0.72285566629E+02  0.00000000000E+00 0.  1.
</event>
<event>
 7    1  0.6386201E-006  0.8555815E+02  0.7818608E-02  0.1350699E+00
          2   -1    0    0  502    0  0.00000000000E+00  0.00000000000E+00  0.12907597215E+04  0.12907597215E+04  0.00000000000E+00 0. -1.
          1   -1    0    0  501    0 -0.00000000000E+00 -0.00000000000E+00 -0.15972214668E+04  0.15972214668E+04  0.00000000000E+00 0. -1.
         25    2    1    2    0    0  0.10186861650E+03 -0.57548918040E+02 -0.39643683566E+02  0.17574505773E+03  0.12500244268E+03 0.  0.
          2    1    1    2  501    0 -0.16547715668E+02  0.59760830148E+02 -0.14873908646E+04  0.14886828970E+04  0.00000000000E+00 0. -1.
          1    1    1    2  502    0 -0.85320900830E+02 -0.22119121079E+01  0.12205728028E+04  0.12235532336E+04  0.00000000000E+00 0. -1.
         22    1    3    3    0    0 -0.16022292307E+01  0.19304541152E+02  0.24940328120E+02  0.31579303576E+02  0.00000000000E+00 0. -1.
         22    1    3    3    0    0  0.10347084573E+03 -0.76853459192E+02 -0.64584011686E+02  0.14416575416E+03  0.00000000000E+00 0. -1.
</event>
<event>
 7    1  0.6386201E-006  0.2228962E+03  0.7818608E-02  0.1304747E+00
          2   -1    0    0  502    0  0.00000000000E+00  0.00000000000E+00  0.10496068974E+04  0.10496068974E+04  0.00000000000E+00 0. -1.
          1   -1    0    0  501    0 -0.00000000000E+00 -0.00000000000E+00 -0.14139230550E+04  0.14139230550E+04  0.00000000000E+00 0. -1.
         25    2    1    2    0    0  0.65149307023E+01  0.24459606640E+03 -0.47272632900E+03  0.54677717044E+03  0.12500164786E+03 0.  0.
          2    1    1    2  501    0 -0.27199285612E+02 -0.23145014161E+02 -0.89159605224E+03  0.89231105181E+03  0.00000000000E+00 0. -1.
          1    1    1    2  502    0  0.20684354910E+02 -0.22145105224E+03  0.10000062236E+04  0.10244417301E+04  0.00000000000E+00 0. -1.
         22    1    3    3    0    0  0.26460367812E+02  0.17598059112E+03 -0.42525701728E+03  0.46099116072E+03  0.00000000000E+00 0.  1.
         22    1    3    3    0    0 -0.19945437110E+02  0.68615475276E+02 -0.47469311719E+02  0.85786009721E+02  0.00000000000E+00 0.  1.
</event>
<event>
 7    1  0.6386201E-006  0.7869591E+02  0.7818608E-02  0.1422006E+00
          2   -1    0    0  502    0  0.00000000000E+00  0.00000000000E+00  0.18647939354E+04  0.18647939354E+04  0.00000000000E+00 0. -1.
          1   -1    0    0  501    0 -0.00000000000E+00 -0.00000000000E+00 -0.11923852868E+03  0.11923852868E+03  0.00000000000E+00 0. -1.
         25    2    1    2    0    0  0.91513081501E+02 -0.27908692921E+02  0.11688246296E+01  0.15741620125E+03  0.12499982016E+03 0.  0.
          2    1    1    2  501    0 -0.57810320208E+02  0.45201588236E+02 -0.80013533548E+01  0.73818956625E+02  0.00000000000E+00 0. -1.
          1    1    1    2  502    0 -0.33702761293E+02 -0.17292895315E+02  0.17523879354E+04  0.17527973062E+04  0.00000000000E+00 0. -1.
         22    1    3    3    0    0  0.17210651220E+02  0.45973715773E+02  0.15905484951E+02  0.51602068843E+02  0.00000000000E+00 0. -1.
         22    1    3    3    0    0  0.74302430281E+02 -0.73882408694E+02 -0.14736660322E+02  0.10581413241E+03  0.00000000000E+00 0. -1.
</event>
<event>
 7    1  0.6386201E-006  0.1358890E+03  0.7818608E-02  0.1345877E+00
          2   -1    0    0  502    0  0.00000000000E+00  0.00000000000E+00  0.28956494885E+04  0.28956494885E+04  0.00000000000E+00 0. -1.
          1   -1    0    0  501    0 -0.00000000000E+00 -0.00000000000E+00 -0.22171521912E+04  0.22171521912E+04  0.00000000000E+00 0. -1.
         25    2    1    2    0    0  0.66526305785E+02 -0.71751478869E+02 -0.45029119442E+02  0.16500530829E+03  0.12500042434E+03 0.  0.
          2    1    1    2  501    0  0.14711810933E+02 -0.37933371513E+02 -0.21102962656E+04  0.21106884438E+04  0.00000000000E+00 0. -1.
          1    1    1    2  502    0 -0.81238116718E+02  0.10968485038E+03  0.28338226824E+04  0.28371079276E+04  0.00000000000E+00 0. -1.
         22    1    3    3    0    0  0.38734191932E+02  0.30996663864E+02 -0.28717730946E+02  0.57322237098E+02  0.00000000000E+00 0.  1.
         22    1    3    3    0    0  0.27792113853E+02 -0.10274814273E+03 -0.16311388496E+02  0.10768307120E+03  0.00000000000E+00 0.  1.
</event>
<event>
 7    1  0.6386201E-006  0.5579716E+02  0.7818608E-02  0.1421931E+00
          2   -1    0    0  502    0  0.00000000000E+00  0.00000000000E+00  0.30375583205E+03  0.30375583205E+03  0.00000000000E+00 0. -1.
          1   -1    0    0  501    0 -0.00000000000E+00 -0.00000000000E+00 -0.73603563836E+03  0.73603563836E+03  0.00000000000E+00 0. -1.
         25    2    1    2    0    0  0.29258341511E+02  0.57886660287E+02  0.10005046441E+03  0.17274917069E+03  0.12500105822E+03 0.  0.
          2    1    1    2  501    0  0.23706521929E+02 -0.50652475702E+02 -0.69426421767E+03  0.69651308417E+03  0.00000000000E+00 0. -1.
          1    1    1    2  502    0 -0.52964863439E+02 -0.72341845847E+01  0.16193394694E+03  0.17052921556E+03  0.00000000000E+00 0. -1.
         22    1    3    3    0    0 -0.20251830185E+02  0.65198166437E+02  0.10191343521E+03  0.12266737875E+03  0.00000000000E+00 0. -1.
         22    1    3    3    0    0  0.49510171696E+02 -0.73115061504E+01 -0.18629707989E+01  0.50081791938E+02  0.00000000000E+00 0. -1.
</event>
<event>
 7    1  0.6386201E-006  0.1813266E+03  0.7818608E-02  0.1263411E+00
          2   -1    0    0  502    0  0.00000000000E+00  0.00000000000E+00  0.26012427364E+03  0.26012427364E+03  0.00000000000E+00 0. -1.
          1   -1    0    0  501    0 -0.00000000000E+00 -0.00000000000E+00 -0.15272017506E+04  0.15272017506E+04  0.00000000000E+00 0. -1.
         25    2    1    2    0    0 -0.12947795222E+03  0.18531924117E+03 -0.66283725332E+02  0.26669672666E+03  0.12500340197E+03 0.  0.
          2    1    1    2  501    0  0.67605117901E+02 -0.16573325425E+03 -0.13479581928E+04  0.13597901504E+04  0.00000000000E+00 0. -1.
          1    1    1    2  502    0  0.61872834321E+02 -0.19585986919E+02  0.14716444120E+03  0.16083914718E+03  0.00000000000E+00 0. -1.
         22    1    3    3    0    0 -0.12339723250E+03  0.20329736400E+03 -0.68759770624E+02  0.24755726864E+03  0.00000000000E+00 0.  1.
         22    1    3    3    0    0 -0.60807197207E+01 -0.17978122832E+02  0.24760452917E+01  0.19139458016E+02  0.00000000000E+00 0.  1.
</event>
<event>
 7    1  0.6386201E-006  0.8986196E+02  0.7818608E-02  0.1414761E+00
          2   -1    0    0  502    0  0.00000000000E+00  0.00000000000E+00  0.63532725087E+03  0.63532725087E+03  0.00000000000E+00 0. -1.
          1   -1    0    0  501    0 -0.00000000000E+00 -0.00000000000E+00 -0.40706173601E+03  0.40706173601E+03  0.00000000000E+00 0. -1.
         25    2    1    2    0    0 -0.69420596079E+02 -0.23797436881E+02  0.40895710330E+02  0.15060877242E+03  0.12500002418E+03 0.  0.
          2    1    1    2  501    0 -0.21864884629E+02  0.27430923359E+02 -0.34744866271E+03  0.34921497957E+03  0.00000000000E+00 0. -1.
          1    1    1    2  502    0  0.91285480708E+02 -0.36334864781E+01  0.53481846724E+03  0.54256523490E+03  0.00000000000E+00 0. -1.
         22    1    3    3    0    0 -0.22996944219E+02  0.49894683462E+02  0.13512558513E+01  0.54956025817E+02  0.00000000000E+00 0. -1.
         22    1    3    3    0    0 -0.46423651860E+02 -0.73692120343E+02  0.39544454479E+02  0.95652746603E+02  0.00000000000E+00 0. -1.
</event>
<event>
 7    1  0.6386201E-006  0.8665219E+02  0.7818608E-02  0.1405701E+00
          2   -1    0    0  502    0  0.00000000000E+00  0.00000000000E+00  0.45112206880E+03  0.45112206880E+03  0.00000000000E+00 0. -1.
          1   -1    0    0  501    0 -0.00000000000E+00 -0.00000000000E+00 -0.97429089951E+02  0.97429089951E+02  0.00000000000E+00 0. -1.
         25    2    1    2    0    0  0.10012704306E+03 -0.14057846429E+02  0.33174864499E+02  0.16416044619E+03  0.12500013064E+03 0.  0.
          2    1    1    2  501    0 -0.16761705036E+02  0.35260729519E+02 -0.12064967494E+02  0.40863642062E+02  0.00000000000E+00 0. -1.
          1    1    1    2  502    0 -0.83365338026E+02 -0.21202883090E+02  0.33258308185E+03  0.34352707050E+03  0.00000000000E+00 0. -1.
         22    1    3    3    0    0  0.12379273481E+03 -0.33099681953E+02  0.37411835284E+02  0.13349110666E+03  0.00000000000E+00 0.  1.
         22    1    3    3    0    0 -0.23665691749E+02  0.19041835523E+02 -0.42369707855E+01  0.30669339535E+02  0.00000000000E+00 0.  1.
</event>
<event>
 7    1  0.6386201E-006  0.9805004E+02  0.7818608E-02  0.1470940E+00
          2   -1    0    0  502    0  0.00000000000E+00  0.00000000000E+00  0.40156638525E+03  0.40156638525E+03  0.00000000000E+00 0. -1.
          1   -1    0    0  501    0 -0.00000000000E+00 -0.00000000000E+00 -0.15921890216E+04  0.15921890216E+04  0.00000000000E+00 0. -1.
         25    2    1    2    0    0 -0.15918594015E+02  0.10914084827E+03 -0.50602820271E+02  0.17421314208E+03  0.12499778821E+03 0.  0.
          2    1    1    2  501    0 -0.13479568590E+02 -0.16311190062E+02 -0.14727268133E+04  0.14728788207E+04  0.00000000000E+00 0. -1.
          1    1    1    2  502    0  0.29398162605E+02 -0.92829658211E+02  0.33270699728E+03  0.34666344406E+03  0.00000000000E+00 0. -1.
         22    1    3    3    0    0  0.32277681567E+02  0.52606451031E+02 -0.73967742399E+02  0.96335426158E+02  0.00000000000E+00 0.  1.
         22    1    3    3    0    0 -0.48196275582E+02  0.56534397242E+02  0.23364922128E+02  0.77877715924E+02  0.00000000000E+00 0.  1.
</event>
<event>
 7    1  0.6386201E-006  0.1078262E+03  0.7818608E-02  0.1365486E+00
          2   -1    0    0  502    0  0.00000000000E+00  0.00000000000E+00  0.70101163443E+03  0.70101163443E+03  0.00000000000E+00 0. -1.
          1   -1    0    0  501    0 -0.00000000000E+00 -0.00000000000E+00 -0.16927159473E+03  0.16927159473E+03  0.00000000000E+00 0. -1.
         25    2    1    2    0    0  0.11123286984E+03  0.79101537321E+02  0.55096026548E+02  0.19310630753E+03  0.12499867730E+03 0.  0.
          2    1    1    2  501    0 -0.43370086398E+02  0.24307038270E+01 -0.90400592131E+02  0.10029526296E+03  0.00000000000E+00 0. -1.
          1    1    1    2  502    0 -0.67862783439E+02 -0.81532241148E+02  0.56704460529E+03  0.57688165867E+03  0.00000000000E+00 0. -1.
         22    1    3    3    0    0  0.10101484594E+02  0.59622959937E+02  0.66030286408E+02  0.89537344531E+02  0.00000000000E+00 0.  1.
         22    1    3    3    0    0  0.10113138524E+03  0.19478577385E+02 -0.10934259860E+02  0.10356896300E+03  0.00000000000E+00 0.  1.
</event>
<event>
 7    1  0.6386201E-006  0.2091296E+03  0.7818608E-02  0.1201545E+00
          2   -1    0    0  502    0  0.00000000000E+00  0.00000000000E+00  0.23858017765E+04  0.23858017765E+04  0.00000000000E+00 0. -1.
          1   -1    0    0  501    0 -0.00000000000E+00 -0.00000000000E+00 -0.56945128045E+03  0.56945128045E+03  0.00000000000E+00 0. -1.
         25    2    1    2    0    0  0.65792476756E+02 -0.19324629415E+03  0.22943973993E+03  0.33157236465E+03  0.12499943415E+03 0.  0.
          2    1    1    2  501    0 -0.10524755885E+03 -0.15246923867E+02 -0.50751296392E+03  0.51853536609E+03  0.00000000000E+00 0. -1.
          1    1    1    2  502    0  0.39455082094E+02  0.20849321801E+03  0.20944237201E+04  0.21051453262E+04  0.00000000000E+00 0. -1.
         22    1    3    3    0    0  0.92652475535E+02 -0.17736776088E+03  0.16272294326E+03  0.25791967758E+03  0.00000000000E+00 0. -1.
         22    1    3    3    0    0 -0.26859998779E+02 -0.15878533270E+02  0.66716796677E+02  0.73652687066E+02  0.00000000000E+00 0. -1.
</event>
<event>
 7    1  0.6386201E-006  0.5783166E+02  0.7818608E-02  0.1504298E+00
          2   -1    0    0  502    0  0.00000000000E+00  0.00000000000E+00  0.95984150174E+03  0.95984150174E+03  0.00000000000E+00 0. -1.
          1   -1    0    0  501    0 -0.00000000000E+00 -0.00000000000E+00 -0.10309836054E+04  0.10309836054E+04  0.00000000000E+00 0. -1.
         25    2    1    2    0    0  0.15738576601E+02 -0.46648044016E+02 -0.23952039279E+02  0.13646228646E+03  0.12499805053E+03 0.  0.
          2    1    1    2  501    0 -0.26459407876E+02 -0.10356503462E+02 -0.94963286516E+03  0.95005785930E+03  0.00000000000E+00 0. -1.
          1    1    1    2  502    0  0.10720831275E+02  0.57004547479E+02  0.90244280073E+03  0.90430496142E+03  0.00000000000E+00 0. -1.
         22    1    3    3    0    0  0.54429776459E+02  0.72763278711E+01  0.18185260539E+02  0.57846773579E+02  0.00000000000E+00 0.  1.
         22    1    3    3    0    0 -0.38691199858E+02 -0.53924371888E+02 -0.42137299818E+02  0.78615512883E+02  0.00000000000E+00 0.  1.
</event>
<event>
 7    1  0.6386201E-006  0.6076372E+02  0.7818608E-02  0.1429055E+00
          2   -1    0    0  502    0  0.00000000000E+00  0.00000000000E+00  0.43933276234E+03  0.43933276234E+03  0.00000000000E+00 0. -1.
          1   -1    0    0  501    0 -0.00000000000E+00 -0.00000000000E+00 -0.28993340815E+04  0.28993340815E+04  0.00000000000E+00 0. -1.
         25    2    1    2    0    0  0.77852792923E+02  0.27850906404E+01 -0.80835999365E+01  0.14750996905E+03  0.12500012914E+03 0.  0.
          2    1    1    2  501    0 -0.50034090800E+02  0.34463925220E+02 -0.28197468909E+04  0.28204013369E+04  0.00000000000E+00 0. -1.
          1    1    1    2  502    0 -0.27818702124E+02 -0.37249015861E+02  0.36782917167E+03  0.37075553792E+03  0.00000000000E+00 0. -1.
         22    1    3    3    0    0  0.67168798972E+02 -0.45170212826E+02 -0.38595924295E+02  0.89675197543E+02  0.00000000000E+00 0. -1.
         22    1    3    3    0    0  0.10683993951E+02  0.47955303467E+02  0.30512324359E+02  0.57834771506E+02  0.00000000000E+00 0. -1.
</event>
<event>
 7    1  0.6386201E-006  0.6814010E+02  0.7818608E-02  0.1517392E+00
          2   -1    0    0  502    0  0.00000000000E+00  0.00000000000E+00  0.49096731396E+03  0.49096731396E+03  0.00000000000E+00 0. -1.
          1   -1    0    0  501    0 -0.00000000000E+00 -0.00000000000E+00 -0.11776290420E+04  0.11776290420E+04  0.00000000000E+00 0. -1.
         25    2    1    2    0    0  0.45818764968E+02  0.72648067415E+02 -0.10327078290E+03  0.18349057103E+03  0.12500733631E+03 0.  0.
          2    1    1    2  501    0 -0.19646072484E+02 -0.10054914746E+02 -0.10315773597E+04  0.10318134126E+04  0.00000000000E+00 0. -1.
          1    1    1    2  502    0 -0.26172692483E+02 -0.62593152668E+02  0.44818641455E+03  0.45329237229E+03  0.00000000000E+00 0. -1.
         22    1    3    3    0    0 -0.19383922345E+01  0.86223912727E+02 -0.10233681236E+03  0.13383252091E+03  0.00000000000E+00 0. -1.
         22    1    3    3    0    0  0.47757157202E+02 -0.13575845312E+02 -0.93397054026E+00  0.49658050112E+02  0.00000000000E+00 0. -1.
</event>
<event>
 7    1  0.6386201E-006  0.1073775E+03  0.7818608E-02  0.1275641E+00
          2   -1    0    0  502    0  0.00000000000E+00  0.00000000000E+00  0.30062547525E+02  0.30062547525E+02  0.00000000000E+00 0. -1.
          1   -1    0    0  501    0 -0.00000000000E+00 -0.00000000000E+00 -0.22949075234E+04  0.22949075234E+04  0.00000000000E+00 0. -1.
         25    2    1    2    0    0  0.71306201853E+01 -0.47624890315E+02 -0.46637025001E+03  0.48522709671E+03  0.12500059743E+03 0.  0.
          2    1    1    2  501    0 -0.10079704790E+03  0.74191230493E+02 -0.16874113102E+04  0.16920464867E+04  0.00000000000E+00 0. -1.
          1    1    1    2  502    0  0.93666427711E+02 -0.26566340178E+02 -0.11106341566E+03  0.14769648746E+03  0.00000000000E+00 0. -1.
         22    1    3    3    0    0 -0.36527079706E+02 -0.29239647426E+02 -0.40503520867E+03  0.40772871471E+03  0.00000000000E+00 0. -1.
         22    1    3    3    0    0  0.43657699891E+02 -0.18385242888E+02 -0.61335041340E+02  0.77498381997E+02  0.00000000000E+00 0. -1.
</event>
<event>
 7    1  0.6386201E-006  0.1174575E+03  0.7818608E-02  0.1312788E+00
          2   -1    0    0  502    0  0.00000000000E+00  0.00000000000E+00  0.97408163809E+03  0.97408163809E+03  0.00000000000E+00 0. -1.
          1   -1    0    0  501    0 -0.00000000000E+00 -0.00000000000E+00 -0.11160779792E+03  0.11160779792E+03  0.00000000000E+00 0. -1.
         25    2    1    2    0    0 -0.74852435625E+02  0.12705300413E+03  0.32290342955E+03  0.37634613882E+03  0.12499775364E+03 0.  0.
          2    1    1    2  501    0  0.13108706792E+02 -0.11455574064E+03 -0.43235342481E+02  0.12314280631E+03  0.00000000000E+00 0. -1.
          1    1    1    2  502    0  0.61743728833E+02 -0.12497263494E+02  0.58280575311E+03  0.58620049087E+03  0.00000000000E+00 0. -1.
         22    1    3    3    0    0 -0.33867715433E+02  0.13912078337E+03  0.28620895501E+03  0.32002684332E+03  0.00000000000E+00 0. -1.
         22    1    3    3    0    0 -0.40984720192E+02 -0.12067779236E+02  0.36694474538E+02  0.56319295508E+02  0.00000000000E+00 0. -1.
</event>
<event>
 7    1  0.6386201E-006  0.7573253E+02  0.7818608E-02  0.1484037E+00
          2   -1    0    0  502    0  0.00000000000E+00  0.00000000000E+00  0.11097559732E+04  0.11097559732E+04  0.00000000000E+00 0. -1.
          1   -1    0    0  501    0 -0.00000000000E+00 -0.00000000000E+00 -0.29733037369E+03  0.29733037369E+03  0.00000000000E+00 0. -1.
         25    2    1    2    0    0  0.94807112808E+02 -0.13747007515E+02  0.55595210405E+03  0.57782792459E+03  0.12499999835E+03 0.  0.
          2    1    1    2  501    0 -0.23569085190E+02  0.82373819600E+01 -0.28349038469E+03  0.28458769202E+03  0.00000000000E+00 0. -1.
          1    1    1    2  502    0 -0.71238027618E+02  0.55096255545E+01  0.53996388016E+03  0.54467073029E+03  0.00000000000E+00 0. -1.
         22    1    3    3    0    0  0.38322230290E+02 -0.62522275389E+02  0.17687204003E+03  0.19147152999E+03  0.00000000000E+00 0.  1.
         22    1    3    3    0    0  0.56484882518E+02  0.48775267874E+02  0.37908006402E+03  0.38635639460E+03  0.00000000000E+00 0.  1.
</event>
<event>
 7    1  0.6386201E-006  0.7787957E+02  0.7818608E-02  0.1351421E+00
          2   -1    0    0  502    0  0.00000000000E+00  0.00000000000E+00  0.20491406435E+03  0.20491406435E+03  0.00000000000E+00 0. -1.
          1   -1    0    0  501    0 -0.00000000000E+00 -0.00000000000E+00 -0.21893995831E+04  0.21893995831E+04  0.00000000000E+00 0. -1.
         25    2    1    2    0    0 -0.10232471948E+03 -0.68210912054E+02 -0.37797986918E+03  0.41667356831E+03  0.12500001715E+03 0.  0.
          2    1    1    2  501    0  0.34619269352E+02  0.68329166297E+02 -0.17850483312E+04  0.17866910515E+04  0.00000000000E+00 0. -1.
          1    1    1    2  502    0  0.67705450128E+02 -0.11825424347E+00  0.17854268167E+03  0.19094902760E+03  0.00000000000E+00 0. -1.
         22    1    3    3    0    0  0.29426761274E+02 -0.14965435075E+02 -0.63152260422E+02  0.71260834422E+02  0.00000000000E+00 0. -1.
         22    1    3    3    0    0 -0.13175148075E+03 -0.53245476979E+02 -0.31482760875E+03  0.34541273389E+03  0.00000000000E+00 0. -1.
</event>
<event>
 7    1  0.6386201E-006  0.2042483E+03  0.7818608E-02  0.1241522E+00
          2   -1    0    0  502    0  0.00000000000E+00  0.00000000000E+00  0.11798411661E+04  0.11798411661E+04  0.00000000000E+00 0. -1.
          1   -1    0    0  501    0 -0.00000000000E+00 -0.00000000000E+00 -0.38601708119E+03  0.38601708119E+03  0.00000000000E+00 0. -1.
         25    2    1    2    0    0  0.15724358942E+03 -0.99941462598E+02 -0.14518542419E+03  0.26723508844E+03  0.12498777034E+03 0.  0.
          2    1    1    2  501    0 -0.32783350660E+02 -0.63692728609E+02 -0.16276521442E+03  0.17783145611E+03  0.00000000000E+00 0. -1.
          1    1    1    2  502    0 -0.12446023876E+03  0.16363419121E+03  0.11017747235E+04  0.11207917028E+04  0.00000000000E+00 0. -1.
         22    1    3    3    0    0  0.13996757052E+03 -0.92448948113E+02 -0.16816665994E+03  0.23752421839E+03  0.00000000000E+00 0.  1.
         22    1    3    3    0    0  0.17276018908E+02 -0.74925144855E+01  0.22981235752E+02  0.29710870053E+02  0.00000000000E+00 0.  1.
</event>
<event>
 7    1  0.6386201E-006  0.1402717E+03  0.7818608E-02  0.1376612E+00
          2   -1    0    0  502    0  0.00000000000E+00  0.00000000000E+00  0.52860259443E+02  0.52860259443E+02  0.00000000000E+00 0. -1.
          1   -1    0    0  501    0 -0.00000000000E+00 -0.00000000000E+00 -0.79095529152E+03  0.79095529152E+03  0.00000000000E+00 0. -1.
         25    2    1    2    0    0  0.72664142133E+02  0.14648003777E+03 -0.28125420290E+03  0.34851598885E+03  0.12499195500E+03 0.  0.
          2    1    1    2  501    0 -0.63341769962E+02 -0.11748457027E+03 -0.44142641073E+03  0.46116383224E+03  0.00000000000E+00 0. -1.
          1    1    1    2  502    0 -0.93223721706E+01 -0.28995467500E+02 -0.15414418442E+02  0.34135729879E+02  0.00000000000E+00 0. -1.
         22    1    3    3    0    0 -0.20932287711E+02 -0.91619591758E+01 -0.20187378112E+02  0.30489873725E+02  0.00000000000E+00 0. -1.
         22    1    3    3    0    0  0.93596429843E+02  0.15564199695E+03 -0.26106682479E+03  0.31802611512E+03  0.00000000000E+00 0. -1.
</event>
<event>
 7    1  0.6386201E-006  0.8683086E+02  0.7818608E-02  0.1323665E+00
          2   -1    0    0  502    0  0.00000000000E+00  0.00000000000E+00  0.39171051241E+03  0.39171051241E+03  0.00000000000E+00 0. -1.
          1   -1    0    0  501    0 -0.00000000000E+00 -0.00000000000E+00 -0.11952227169E+04  0.11952227169E+04  0.00000000000E+00 0. -1.
         25    2    1    2    0    0  0.33219159150E+02  0.81311635100E+02  0.72709494791E+02  0.16919703743E+03  0.12500348918E+03 0.  0.
          2    1    1    2  501    0 -0.77292022773E+02 -0.13440118260E+01 -0.11379320384E+04  0.11405547717E+04  0.00000000000E+00 0. -1.
          1    1    1    2  502    0  0.44072863623E+02 -0.79967623274E+02  0.26171033914E+03  0.27718142018E+03  0.00000000000E+00 0. -1.
         22    1    3    3    0    0  0.54494707061E+02 -0.87117829326E+01  0.48764728114E+02  0.73644870612E+02  0.00000000000E+00 0. -1.
         22    1    3    3    0    0 -0.21275547911E+02  0.90023418032E+02  0.23944766678E+02  0.95552166822E+02  0.00000000000E+00 0. -1.
</event>
<event>
 7    1  0.6386201E-006  0.8674787E+02  0.7818608E-02  0.1422675E+00
          2   -1    0    0  502    0  0.00000000000E+00  0.00000000000E+00  0.19739119043E+04  0.19739119043E+04  0.00000000000E+00 0. -1.
          1   -1    0    0  501    0 -0.00000000000E+00 -0.00000000000E+00 -0.51123723350E+02  0.51123723350E+02  0.00000000000E+00 0. -1.
         25    2    1    2    0    0 -0.75585857505E+02  0.60653108771E+02  0.91549451416E+03  0.92905669429E+03  0.12499645711E+03 0.  0.
          2    1    1    2  501    0  0.31782868671E+02  0.12597445313E+02 -0.35740102291E+02  0.49459086942E+02  0.00000000000E+00 0. -1.
          1    1    1    2  502    0  0.43802988834E+02 -0.73250554084E+02  0.10430337691E+04  0.10465198465E+04  0.00000000000E+00 0. -1.
         22    1    3    3    0    0 -0.93539683432E+02  0.98713587047E+01  0.72560455811E+03  0.73167553659E+03  0.00000000000E+00 0. -1.
         22    1    3    3    0    0  0.17953825927E+02  0.50781750066E+02  0.18988995605E+03  0.19738115770E+03  0.00000000000E+00 0. -1.
</event>
<event>
 7    1  0.6386201E-006  0.1746038E+03  0.7818608E-02  0.1328539E+00
          2   -1    0    0  502    0  0.00000000000E+00  0.00000000000E+00  0.88819700318E+03  0.88819700318E+03  0.00000000000E+00 0. -1.
          1   -1    0    0  501    0 -0.00000000000E+00 -0.00000000000E+00 -0.23876613300E+03  0.23876613300E+03  0.00000000000E+00 0. -1.
         25    2    1    2    0    0 -0.18581473087E+02 -0.20224621074E+03  0.87063316626E+02  0.25387638552E+03  0.12499758847E+03 0.  0.
          2    1    1    2  501    0  0.22282121448E+02  0.16561240889E+03 -0.10977510660E+03  0.19993633222E+03  0.00000000000E+00 0. -1.
          1    1    1    2  502    0 -0.37006483608E+01  0.36633801850E+02  0.67214266016E+03  0.67315041844E+03  0.00000000000E+00 0. -1.
         22    1    3    3    0    0  0.54494459328E+01 -0.10520327676E+03  0.10893303242E+03  0.15153821780E+03  0.00000000000E+00 0.  1.
         22    1    3    3    0    0 -0.24030919020E+02 -0.97042933976E+02 -0.21869715791E+02  0.10233816772E+03  0.00000000000E+00 0.  1.
</event>
<event>
 7    1  0.6386201E-006  0.4660050E+02  0.7818608E-02  0.1547893E+00
          2   -1    0    0  502    0  0.00000000000E+00  0.00000000000E+00  0.10087477124E+04  0.10087477124E+04  0.00000000000E+00 0. -1.
          1   -1    0    0  501    0 -0.00000000000E+00 -0.00000000000E+00 -0.47197305895E+02  0.47197305895E+02  0.00000000000E+00 0. -1.
         25    2    1    2    0    0  0.11724298599E+02 -0.20593470476E+02  0.15019367402E+03  0.19684004278E+03  0.12500524998E+03 0.  0.
          2    1    1    2  501    0 -0.25241235914E+02  0.43279106944E+02  0.28667624136E+01  0.50183856120E+02  0.00000000000E+00 0. -1.
          1    1    1    2  502    0  0.13516937314E+02 -0.22685636467E+02  0.80848997009E+03  0.80892111942E+03  0.00000000000E+00 0. -1.
         22    1    3    3    0    0  0.60197055782E+02 -0.22908402735E+02  0.38446736802E+02  0.75010879287E+02  0.00000000000E+00 0. -1.
         22    1    3    3    0    0 -0.48472757182E+02  0.23149322582E+01  0.11174693722E+03  0.12182916350E+03  0.00000000000E+00 0. -1.
</event>
<event>
 7    1  0.6386201E-006  0.6998320E+02  0.7818608E-02  0.1495362E+00
          2   -1    0    0  502    0  0.00000000000E+00  0.00000000000E+00  0.13790855577E+04  0.13790855577E+04  0.00000000000E+00 0. -1.
          1   -1    0    0  501    0 -0.00000000000E+00 -0.00000000000E+00 -0.41459159670E+02  0.41459159670E+02  0.00000000000E+00 0. -1.
         25    2    1    2    0    0  0.89207430147E+02  0.78993185043E+01  0.41913017012E+03  0.44644787182E+03  0.12500095166E+03 0.  0.
          2    1    1    2  501    0 -0.23128012899E+02  0.94060997371E+01 -0.20692254525E+02  0.32427597664E+02  0.00000000000E+00 0. -1.
          1    1    1    2  502    0 -0.66079417248E+02 -0.17305418241E+02  0.93918848248E+03  0.94166924793E+03  0.00000000000E+00 0. -1.
         22    1    3    3    0    0 -0.28677219368E+02  0.18085721498E+02  0.12203740916E+03  0.12665940734E+03  0.00000000000E+00 0.  1.
         22    1    3    3    0    0  0.11788464952E+03 -0.10186402994E+02  0.29709276096E+03  0.31978846447E+03  0.00000000000E+00 0.  1.
</event>
<event>
 7    1  0.6386201E-006  0.8663287E+02  0.7818608E-02  0.1378205E+00
          2   -1    0    0  502    0  0.00000000000E+00  0.00000000000E+00  0.50437744575E+03  0.50437744575E+03  0.00000000000E+00 0. -1.
          1   -1    0    0  501    0 -0.00000000000E+00 -0.00000000000E+00 -0.44806462527E+03  0.44806462527E+03  0.00000000000E+00 0. -1.
         25    2    1    2    0    0  0.40515006738E+02  0.13905385534E+02  0.79982217025E+02  0.15445610027E+03  0.12499882541E+03 0.  0.
          2    1    1    2  501    0 -0.88349036244E+02 -0.48920200295E+01 -0.40449610502E+03  0.41406108613E+03  0.00000000000E+00 0. -1.
          1    1    1    2  502    0  0.47834029506E+02 -0.90133655045E+01  0.38082670848E+03  0.38392488462E+03  0.00000000000E+00 0. -1.
         22    1    3    3    0    0  0.24333689415E+02 -0.37121189712E+02 -0.13791313885E+02  0.46479151293E+02  0.00000000000E+00 0. -1.
         22    1    3    3    0    0  0.16181317323E+02  0.51026575246E+02  0.93773530910E+02  0.10797694898E+03  0.00000000000E+00 0. -1.
</event>
<event>
 7    1  0.6386201E-006  0.5806555E+02  0.7818608E-02  0.1474487E+00
          2   -1    0    0  502    0  0.00000000000E+00  0.00000000000E+00  0.36779677582E+04  0.36779677582E+04  0.00000000000E+00 0. -1.
          1   -1    0    0  501    0 -0.00000000000E+00 -0.00000000000E+00 -0.82339107493E+03  0.82339107493E+03  0.00000000000E+00 0. -1.
         25    2    1    2    0    0  0.49189589567E+02  0.14168382432E+02  0.41678044881E+03  0.43812210496E+03  0.12499871024E+03 0.  0.
          2    1    1    2  501    0 -0.13470032124E+02  0.32128849012E+02 -0.81208376652E+03  0.81283070104E+03  0.00000000000E+00 0. -1.
          1    1    1    2  502    0 -0.35719557442E+02 -0.46297231445E+02  0.32498800009E+04  0.32504060271E+04  0.00000000000E+00 0. -1.
         22    1    3    3    0    0 -0.28132091822E+02  0.42876249801E+02  0.13107307848E+03  0.14074778609E+03  0.00000000000E+00 0.  1.
         22    1    3    3    0    0  0.77321681389E+02 -0.28707867368E+02  0.28570737033E+03  0.29737431887E+03  0.00000000000E+00 0.  1.
</event>
<event>
 7    1  0.6386201E-006  0.2293683E+03  0.7818608E-02  0.1165929E+00
          2   -1    0    0  502    0  0.00000000000E+00  0.00000000000E+00  0.20660142743E+04  0.20660142743E+04  0.00000000000E+00 0. -1.
          1   -1    0    0  501    0 -0.00000000000E+00 -0.00000000000E+00 -0.63873836508E+03  0.63873836508E+03  0.00000000000E+00 0. -1.
         25    2    1    2    0    0 -0.11245050829E+03  0.13850551986E+03 -0.24764482564E+03  0.32982084433E+03  0.12499973536E+03 0.  0.
          2    1    1    2  501    0  0.21494750122E+03 -0.24012633320E+03 -0.27257778542E+03  0.42209209100E+03  0.00000000000E+00 0. -1.
          1    1    1    2  502    0 -0.10249699293E+03  0.10162081334E+03  0.19474985203E+04  0.19528397041E+04  0.00000000000E+00 0. -1.
         22    1    3    3    0    0  0.88793139681E+01  0.81701897489E+02 -0.74715628522E+02  0.11106965119E+03  0.00000000000E+00 0. -1.
         22    1    3    3    0    0 -0.12132982226E+03  0.56803622370E+02 -0.17292919712E+03  0.21875119314E+03  0.00000000000E+00 0. -1.
</event>
<event>
 7    1  0.6386201E-006  0.7397855E+02  0.7818608E-02  0.1468437E+00
          2   -1    0    0  502    0  0.00000000000E+00  0.00000000000E+00  0.13398816685E+03  0.13398816685E+03  0.00000000000E+00 0. -1.
          1   -1    0    0  501    0 -0.00000000000E+00 -0.00000000000E+00 -0.24281930989E+04  0.24281930989E+04  0.00000000000E+00 0. -1.
         25    2    1    2    0    0  0.49751852682E+02  0.33662559755E+01 -0.31920592185E+03  0.34642017993E+03  0.12501176743E+03 0.  0.
          2    1    1    2  501    0  0.24173786498E+02 -0.15195257306E+02 -0.20836328016E+04  0.20838284286E+04  0.00000000000E+00 0. -1.
          1    1    1    2  502    0 -0.73925639180E+02  0.11829001330E+02  0.10863379143E+03  0.13193265722E+03  0.00000000000E+00 0. -1.
         22    1    3    3    0    0  0.49834648444E+02  0.36490658526E+02 -0.30357147403E+03  0.30979138173E+03  0.00000000000E+00 0.  1.
         22    1    3    3    0    0 -0.82795762438E-01 -0.33124402550E+02 -0.15634447813E+02  0.36628798204E+02  0.00000000000E+00 0.  1.
</event>
<event>
 7    1  0.6386201E-006  0.1164303E+03  0.7818608E-02  0.1343943E+00
          2   -1    0    0  502    0  0.00000000000E+00  0.00000000000E+00  0.18289805605E+04  0.18289805605E+04  0.00000000000E+00 0. -1.
          1   -1    0    0  501    0 -0.00000000000E+00 -0.00000000000E+00 -0.29015824865E+03  0.29015824865E+03  0.00000000000E+00 0. -1.
         25    2    1    2    0    0 -0.38701793745E+02 -0.57225819208E+02 -0.60558385341E+02  0.15512821595E+03  0.12499928850E+03 0.  0.
          2    1    1    2  501    0 -0.30081621846E+02 -0.37765736969E+02 -0.17715059288E+03  0.18361232916E+03  0.00000000000E+00 0. -1.
          1    1    1    2  502    0  0.68783415591E+02  0.94991556177E+02  0.17765312900E+04  0.17803982640E+04  0.00000000000E+00 0. -1.
         22    1    3    3    0    0 -0.52365640892E+02 -0.67076101199E+01 -0.82853274664E+02  0.98243663928E+02  0.00000000000E+00 0.  1.
         22    1    3    3    0    0  0.13663847147E+02 -0.50518209088E+02  0.22294889323E+02  0.56884552018E+02  0.00000000000E+00 0.  1.
</event>
<event>
 7    1  0.6386201E-006  0.5432163E+02  0.7818608E-02  0.1504331E+00
          2   -1    0    0  502    0  0.00000000000E+00  0.00000000000E+00  0.11464843286E+03  0.11464843286E+03  0.00000000000E+00 0. -1.
          1   -1    0    0  501    0 -0.00000000000E+00 -0.00000000000E+00 -0.15843570011E+03  0.15843570011E+03  0.00000000000E+00 0. -1.
         25    2    1    2    0    0 -0.71802961275E+02  0.94739669753E+01 -0.42467679631E+02  0.15057796457E+03  0.12499919321E+03 0.  0.
          2    1    1    2  501    0  0.49939490748E+02  0.11421910166E+02 -0.45800607752E+02  0.68717599190E+02  0.00000000000E+00 0. -1.
          1    1    1    2  502    0  0.21863470527E+02 -0.20895877142E+02  0.44481020135E+02  0.53788569207E+02  0.00000000000E+00 0. -1.
         22    1    3    3    0    0 -0.93622971392E+02  0.40836679675E+00  0.88906023948E+01  0.94045044242E+02  0.00000000000E+00 0. -1.
         22    1    3    3    0    0  0.21820010117E+02  0.90656001786E+01 -0.51358282026E+02  0.56532920327E+02  0.00000000000E+00 0. -1.
</event>
<event>
 7    1  0.6386201E-006  0.3151540E+02  0.7818608E-02  0.1583583E+00
          2   -1    0    0  502    0  0.00000000000E+00  0.00000000000E+00  0.44657312237E+02  0.44657312237E+02  0.00000000000E+00 0. -1.
          1   -1    0    0  501    0 -0.00000000000E+00 -0.00000000000E+00 -0.55984147439E+03  0.55984147439E+03  0.00000000000E+00 0. -1.
         25    2    1    2    0    0 -0.21983850923E+01 -0.81279078911E+01 -0.20115813540E+03  0.23698289727E+03  0.12500160950E+03 0.  0.
          2    1    1    2  501    0 -0.30344071559E+02  0.85122166119E+01 -0.32983320465E+03  0.33133542431E+03  0.00000000000E+00 0. -1.
          1    1    1    2  502    0  0.32542456652E+02 -0.38430872079E+00  0.15807177898E+02  0.36180465050E+02  0.00000000000E+00 0. -1.
         22    1    3    3    0    0  0.15508753708E+02  0.50142591407E+02 -0.44180819165E+02  0.68605726413E+02  0.00000000000E+00 0. -1.
         22    1    3    3    0    0 -0.17707138800E+02 -0.58270499298E+02 -0.15697731624E+03  0.16837717086E+03  0.00000000000E+00 0. -1.
</event>
<event>
 7    1  0.6386201E-006  0.3733038E+02  0.7818608E-02  0.1557401E+00
          2   -1    0    0  502    0  0.00000000000E+00  0.00000000000E+00  0.95028151536E+02  0.95028151536E+02  0.00000000000E+00 0. -1.
          1   -1    0    0  501    0 -0.00000000000E+00 -0.00000000000E+00 -0.66035354129E+03  0.66035354129E+03  0.00000000000E+00 0. -1.
         25    2    1    2    0    0  0.24441885739E+02 -0.27753842286E+02 -0.12522012090E+03  0.18075974273E+03  0.12500529738E+03 0.  0.
          2    1    1    2  501    0  0.50669221660E+01  0.37313791842E+02 -0.50304570697E+03  0.50445314556E+03  0.00000000000E+00 0. -1.
          1    1    1    2  502    0 -0.29508807905E+02 -0.95599495552E+01  0.62940438118E+02  0.70168804536E+02  0.00000000000E+00 0. -1.
         22    1    3    3    0    0 -0.43656139361E+02 -0.53160592794E+01 -0.10077849951E+02  0.45118533329E+02  0.00000000000E+00 0. -1.
         22    1    3    3    0    0  0.68098025100E+02 -0.22437783007E+02 -0.11514227095E+03  0.13564120940E+03  0.00000000000E+00 0. -1.
</event>
<event>
 7    1  0.6386201E-006  0.1059164E+03  0.7818608E-02  0.1414641E+00
          2   -1    0    0  502    0  0.00000000000E+00  0.00000000000E+00  0.12737134541E+04  0.12737134541E+04  0.00000000000E+00 0. -1.
          1   -1    0    0  501    0 -0.00000000000E+00 -0.00000000000E+00 -0.20921630321E+03  0.20921630321E+03  0.00000000000E+00 0. -1.
         25    2    1    2    0    0  0.13452934647E+03 -0.93950951847E+01  0.11684487417E+02  0.18425118912E+03  0.12500224226E+03 0.  0.
          2    1    1    2  501    0 -0.29786552327E+02  0.41076275671E+00 -0.11873943663E+03  0.12241920290E+03  0.00000000000E+00 0. -1.
          1    1    1    2  502    0 -0.10474279414E+03  0.89843324280E+01  0.11715521001E+04  0.11762593653E+04  0.00000000000E+00 0. -1.
         22    1    3    3    0    0  0.65136934521E+02  0.54251974709E+02 -0.15649401740E+02  0.86203252685E+02  0.00000000000E+00 0. -1.
         22    1    3    3    0    0  0.69392411950E+02 -0.63647069893E+02  0.27333889157E+02  0.98047936433E+02  0.00000000000E+00 0. -1.
</event>
<event>
 7    1  0.6386201E-006  0.1188701E+03  0.7818608E-02  0.1390509E+00
          2   -1    0    0  502    0  0.00000000000E+00  0.00000000000E+00  0.34687996083E+02  0.34687996083E+02  0.00000000000E+00 0. -1.
          1   -1    0    0  501    0 -0.00000000000E+00 -0.00000000000E+00 -0.19747091421E+04  0.19747091421E+04  0.00000000000E+00 0. -1.
         25    2    1    2    0    0  0.14443942047E+03  0.15815209454E+02 -0.14043173972E+04  0.14173373040E+04  0.12499925679E+03 0.  0.
          2    1    1    2  501    0 -0.27808010353E+02 -0.16052973350E+02 -0.44005099115E+03  0.44122087236E+03  0.00000000000E+00 0. -1.
          1    1    1    2  502    0 -0.11663141012E+03  0.23776389542E+00 -0.95652757692E+02  0.15083896185E+03  0.00000000000E+00 0. -1.
         22    1    3    3    0    0  0.12314996246E+03 -0.37860637636E+02 -0.11063284039E+04  0.11138051349E+04  0.00000000000E+00 0. -1.
         22    1    3    3    0    0  0.21289458013E+02  0.53675847090E+02 -0.29798899330E+03  0.30353216916E+03  0.00000000000E+00 0. -1.
</event>
<event>
 7    1  0.6386201E-006  0.1257554E+03  0.7818608E-02  0.1360341E+00
          2   -1    0    0  502    0  0.00000000000E+00  0.00000000000E+00  0.95013472308E+03  0.95013472308E+03  0.00000000000E+00 0. -1.
          1   -1    0    0  501    0 -0.00000000000E+00 -0.00000000000E+00 -0.41696907982E+03  0.41696907982E+03  0.00000000000E+00 0. -1.
         25    2    1    2    0    0 -0.46370756994E+02  0.92582571478E+02  0.14626498074E+03  0.21849482511E+03  0.12499905746E+03 0.  0.
          2    1    1    2  501    0  0.85205609626E+02 -0.94525270687E+02 -0.36971023909E+03  0.39099959539E+03  0.00000000000E+00 0. -1.
          1    1    1    2  502    0 -0.38834852632E+02  0.19426992090E+01  0.75661090161E+03  0.75760938240E+03  0.00000000000E+00 0. -1.
         22    1    3    3    0    0 -0.62730616089E+02  0.87706618356E+02  0.16244337561E+03  0.19497546353E+03  0.00000000000E+00 0.  1.
         22    1    3    3    0    0  0.16359859096E+02  0.48759531217E+01 -0.16178394877E+02  0.23519361583E+02  0.00000000000E+00 0.  1.
</event>
<event>
 7    1  0.6386201E-006  0.1049732E+03  0.7818608E-02  0.1362941E+00
          2   -1    0    0  502    0  0.00000000000E+00  0.00000000000E+00  0.10527928382E+04  0.10527928382E+04  0.00000000000E+00 0. -1.
          1   -1    0    0  501    0 -0.00000000000E+00 -0.00000000000E+00 -0.38783312444E+03  0.38783312444E+03  0.00000000000E+00 0. -1.
         25    2    1    2    0    0 -0.10092731085E+03 -0.44635038105E+02 -0.21260296092E+03  0.27019202141E+03  0.12500040295E+03 0.  0.
          2    1    1    2  501    0  0.30829658133E+02 -0.33567929508E+02 -0.14012030539E+03  0.14734644107E+03  0.00000000000E+00 0. -1.
          1    1    1    2  502    0  0.70097652721E+02  0.78202967613E+02  0.10176829801E+04  0.10230875002E+04  0.00000000000E+00 0. -1.
         22    1    3    3    0    0 -0.11973585362E+03 -0.58046338478E+02 -0.20755530226E+03  0.24654665999E+03  0.00000000000E+00 0. -1.
         22    1    3    3    0    0  0.18808542769E+02  0.13411300373E+02 -0.50476586555E+01  0.23645361420E+02  0.00000000000E+00 0. -1.
</event>
<event>
 7    1  0.6386201E-006  0.2492639E+03  0.7818608E-02  0.1206122E+00
          2   -1    0    0  502    0  0.00000000000E+00  0.00000000000E+00  0.10144048996E+04  0.10144048996E+04  0.00000000000E+00 0. -1.
          1   -1    0    0  501    0 -0.00000000000E+00 -0.00000000000E+00 -0.14669822530E+04  0.14669822530E+04  0.00000000000E+00 0. -1.
         25    2    1    2    0    0  0.26011772039E+03 -0.18093193658E+02  0.28031445989E+03  0.40272777561E+03  0.12499949081E+03 0.  0.
          2    1    1    2  501    0 -0.22955713063E+03  0.97327639449E+02 -0.13919737249E+04  0.14141287057E+04  0.00000000000E+00 0. -1.
          1    1    1    2  502    0 -0.30560589759E+02 -0.79234445792E+02  0.65908191148E+03  0.66453067130E+03  0.00000000000E+00 0. -1.
         22    1    3    3    0    0  0.25810039361E+03 -0.36968096161E+02  0.28151214984E+03  0.38370762805E+03  0.00000000000E+00 0. -1.
         22    1    3    3    0    0  0.20173267816E+01  0.18874902504E+02 -0.11976899496E+01  0.19020147557E+02  0.00000000000E+00 0. -1.
</event>
<event>
 7    1  0.6386201E-006  0.9032195E+02  0.7818608E-02  0.1342860E+00
          2   -1    0    0  502    0  0.00000000000E+00  0.00000000000E+00  0.14034166201E+04  0.14034166201E+04  0.00000000000E+00 0. -1.
          1   -1    0    0  501    0 -0.00000000000E+00 -0.00000000000E+00 -0.14062753705E+03  0.14062753705E+03  0.00000000000E+00 0. -1.
         25    2    1    2    0    0  0.16385905635E+02  0.13858002749E+03 -0.22988771332E+02  0.18875051961E+03  0.12500141249E+03 0.  0.
          2    1    1    2  501    0 -0.36480859989E+02 -0.51144829986E+02 -0.34794704265E+01  0.62918625972E+02  0.00000000000E+00 0. -1.
          1    1    1    2  502    0  0.20094954354E+02 -0.87435197500E+02  0.12892573248E+04  0.12923750116E+04  0.00000000000E+00 0. -1.
         22    1    3    3    0    0 -0.35672237780E+02  0.17689098826E+02  0.26831685113E+02  0.48014082220E+02  0.00000000000E+00 0.  1.
         22    1    3    3    0    0  0.52058143414E+02  0.12089092866E+03 -0.49820456445E+02  0.14073643739E+03  0.00000000000E+00 0.  1.
</event>
<event>
 7    1  0.6386201E-006  0.3365499E+02  0.7818608E-02  0.1591736E+00
          2   -1    0    0  502    0  0.00000000000E+00  0.00000000000E+00  0.25569316301E+04  0.25569316301E+04  0.00000000000E+00 0. -1.
          1   -1    0    0  501    0 -0.00000000000E+00 -0.00000000000E+00 -0.93737682438E+01  0.93737682438E+01  0.00000000000E+00 0. -1.
         25    2    1    2    0    0  0.15949177783E+02 -0.10417814287E+02  0.55885377863E+03  0.57297964035E+03  0.12500086093E+03 0.  0.
          2    1    1    2  501    0 -0.11258576769E+02  0.37809957578E+02  0.17429817278E+03  0.17870702694E+03  0.00000000000E+00 0. -1.
          1    1    1    2  502    0 -0.46906010142E+01 -0.27392143290E+02  0.18144059104E+04  0.18146187310E+04  0.00000000000E+00 0. -1.
         22    1    3    3    0    0 -0.47733196453E+02 -0.17372006151E+02  0.37194395980E+03  0.37539652885E+03  0.00000000000E+00 0.  1.
         22    1    3    3    0    0  0.63682374236E+02  0.69541918634E+01  0.18690981884E+03  0.19758311150E+03  0.00000000000E+00 0.  1.
</event>
<event>
 7    1  0.6386201E-006  0.8685048E+02  0.7818608E-02  0.1451462E+00
          2   -1    0    0  502    0  0.00000000000E+00  0.00000000000E+00  0.10934703608E+03  0.10934703608E+03  0.00000000000E+00 0. -1.
          1   -1    0    0  501    0 -0.00000000000E+00 -0.00000000000E+00 -0.32285783640E+04  0.32285783640E+04  0.00000000000E+00 0. -1.
         25    2    1    2    0    0  0.84202040063E+02 -0.74405350237E+02 -0.38417010748E+03  0.41933002573E+03  0.12499943721E+03 0.  0.
          2    1    1    2  501    0 -0.68567725852E+02  0.51765877157E+02 -0.28240980220E+04  0.28254045511E+04  0.00000000000E+00 0. -1.
          1    1    1    2  502    0 -0.15634314211E+02  0.22639473080E+02  0.89036801559E+02  0.93190823337E+02  0.00000000000E+00 0. -1.
         22    1    3    3    0    0  0.45776349231E+02 -0.66173310497E+02 -0.82975100694E+02  0.11558221535E+03  0.00000000000E+00 0.  1.
         22    1    3    3    0    0  0.38425690831E+02 -0.82320397399E+01 -0.30119500679E+03  0.30374781038E+03  0.00000000000E+00 0.  1.
</event>
<event>
 7    1  0.6386201E-006  0.4830765E+02  0.7818608E-02  0.1476775E+00
          2   -1    0    0  502    0  0.00000000000E+00  0.00000000000E+00  0.34728902905E+03  0.34728902905E+03  0.00000000000E+00 0. -1.
          1   -1    0    0  501    0 -0.00000000000E+00 -0.00000000000E+00 -0.20938492735E+04  0.20938492735E+04  0.00000000000E+00 0. -1.
         25    2    1    2    0    0  0.73778601562E+02 -0.46674929703E+02 -0.31091643517E+02  0.15561099107E+03  0.12500503643E+03 0.  0.
          2    1    1    2  501    0 -0.44934459203E+02  0.17256162137E+02 -0.19987178508E+04  0.19992973585E+04  0.00000000000E+00 0. -1.
          1    1    1    2  502    0 -0.28844142359E+02  0.29418767567E+02  0.28324924985E+03  0.28622995297E+03  0.00000000000E+00 0. -1.
         22    1    3    3    0    0 -0.13851057014E+02 -0.37034890360E+02  0.28900588390E+02  0.48976309514E+02  0.00000000000E+00 0.  1.
         22    1    3    3    0    0  0.87629658576E+02 -0.96400393437E+01 -0.59992231907E+02  0.10663468155E+03  0.00000000000E+00 0.  1.
</event>
<event>
 7    1  0.6386201E-006  0.2512049E+03  0.7818608E-02  0.1297663E+00
          2   -1    0    0  502    0  0.00000000000E+00  0.00000000000E+00  0.63761165899E+03  0.63761165899E+03  0.00000000000E+00 0. -1.
          1   -1    0    0  501    0 -0.00000000000E+00 -0.00000000000E+00 -0.11952044166E+04  0.11952044166E+04  0.00000000000E+00 0. -1.
         25    2    1    2    0    0  0.23198378090E+03 -0.11330702297E+03  0.12224943983E+03  0.31180878805E+03  0.12499935484E+03 0.  0.
          2    1    1    2  501    0  0.39963541812E+01  0.33586766700E+02 -0.10632536419E+04  0.10637914969E+04  0.00000000000E+00 0. -1.
          1    1    1    2  502    0 -0.23598013509E+03  0.79720256270E+02  0.38341144452E+03  0.45721579063E+03  0.00000000000E+00 0. -1.
         22    1    3    3    0    0  0.17990711499E+03 -0.35246412652E+02  0.41395457798E+02  0.18794271350E+03  0.00000000000E+00 0.  1.
         22    1    3    3    0    0  0.52076665911E+02 -0.78060610318E+02  0.80853982029E+02  0.12386607455E+03  0.00000000000E+00 0.  1.
</event>
<event>
 7    1  0.6386201E-006  0.5722296E+02  0.7818608E-02  0.1541473E+00
          2   -1    0    0  502    0  0.00000000000E+00  0.00000000000E+00  0.42498579984E+03  0.42498579984E+03  0.00000000000E+00 0. -1.
          1   -1    0    0  501    0 -0.00000000000E+00 -0.00000000000E+00 -0.72772654823E+03  0.72772654823E+03  0.00000000000E+00 0. -1.
         25    2    1    2    0    0 -0.13231081867E+01  0.75293770559E+02 -0.36149540349E+03  0.38983827168E+03  0.12499619521E+03 0.  0.
          2    1    1    2  501    0  0.82554264516E+01 -0.53975437382E+02 -0.34963327911E+03  0.35387134635E+03  0.00000000000E+00 0. -1.
          1    1    1    2  502    0 -0.69323182649E+01 -0.21318333176E+02  0.40838793422E+03  0.40900273004E+03  0.00000000000E+00 0. -1.
         22    1    3    3    0    0 -0.39893338000E+02  0.93595745305E+02 -0.27856991337E+03  0.29656843830E+03  0.00000000000E+00 0.  1.
         22    1    3    3    0    0  0.38570229813E+02 -0.18301974747E+02 -0.82925490117E+02  0.93269833380E+02  0.00000000000E+00 0.  1.
</event>
<event>
 7    1  0.6386201E-006  0.9892747E+02  0.7818608E-02  0.1289005E+00
          2   -1    0    0  502    0  0.00000000000E+00  0.00000000000E+00  0.18937736806E+04  0.18937736806E+04  0.00000000000E+00 0. -1.
          1   -1    0    0  501    0 -0.00000000000E+00 -0.00000000000E+00 -0.10048716660E+03  0.10048716660E+03  0.00000000000E+00 0. -1.
         25    2    1    2    0    0 -0.63929434220E+02  0.11627700199E+03  0.20228714807E+03  0.27230915499E+03  0.12499948747E+03 0.  0.
          2    1    1    2  501    0 -0.26700312445E+02 -0.94964352186E+02 -0.26206442510E+02  0.10206817574E+03  0.00000000000E+00 0. -1.
          1    1    1    2  502    0  0.90629746665E+02 -0.21312649807E+02  0.16172058084E+04  0.16198835164E+04  0.00000000000E+00 0. -1.
         22    1    3    3    0    0 -0.30466483790E+02  0.12482498265E+01 -0.68859073866E+01  0.31259886159E+02  0.00000000000E+00 0. -1.
         22    1    3    3    0    0 -0.33462950430E+02  0.11502875217E+03  0.20917305546E+03  0.24104926884E+03  0.00000000000E+00 0. -1.
</event>
<event>
 7    1  0.6386201E-006  0.1290723E+03  0.7818608E-02  0.1389329E+00
          2   -1    0    0  502    0  0.00000000000E+00  0.00000000000E+00  0.62080079792E+03  0.62080079792E+03  0.00000000000E+00 0. -1.
          1   -1    0    0  501    0 -0.00000000000E+00 -0.00000000000E+00 -0.16977101955E+03  0.16977101955E+03  0.00000000000E+00 0. -1.
         25    2    1    2    0    0 -0.10847558860E+03 -0.21001619270E+02  0.15192836226E+03  0.22563959702E+03  0.12499191634E+03 0.  0.
          2    1    1    2  501    0 -0.26022689121E+02  0.14628904279E+02 -0.12055874299E+03  0.12419982166E+03  0.00000000000E+00 0. -1.
          1    1    1    2  502    0  0.13449827772E+03  0.63727149913E+01  0.41966015910E+03  0.44073239879E+03  0.00000000000E+00 0. -1.
         22    1    3    3    0    0 -0.10693863582E+03 -0.39194889355E+02  0.54043865379E+02  0.12606684960E+03  0.00000000000E+00 0.  1.
         22    1    3    3    0    0 -0.15369527864E+01  0.18193270085E+02  0.97884496880E+02  0.99572747424E+02  0.00000000000E+00 0.  1.
</event>
<event>
 7    1  0.6386201E-006  0.4864069E+02  0.7818608E-02  0.1522831E+00
          2   -1    0    0  502    0  0.00000000000E+00  0.00000000000E+00  0.37743396540E+03  0.37743396540E+03  0.00000000000E+00 0. -1.
          1   -1    0    0  501    0 -0.00000000000E+00 -0.00000000000E+00 -0.84543401242E+02  0.84543401242E+02  0.00000000000E+00 0. -1.
         25    2    1    2    0    0  0.11436579583E+02 -0.19973012107E+02  0.65023785795E+02  0.14277077544E+03  0.12500274011E+03 0.  0.
          2    1    1    2  501    0 -0.31967771423E+02  0.41589970566E+02 -0.29457164814E+02  0.60161354874E+02  0.00000000000E+00 0. -1.
          1    1    1    2  502    0  0.20531191840E+02 -0.21616958459E+02  0.25732394318E+03  0.25904523633E+03  0.00000000000E+00 0. -1.
         22    1    3    3    0    0  0.25660247511E+02 -0.72851625445E+01 -0.33271796469E+02  0.42644276708E+02  0.00000000000E+00 0.  1.
         22    1    3    3    0    0 -0.14223667929E+02 -0.12687849562E+02  0.98295582265E+02  0.10012649873E+03  0.00000000000E+00 0.  1.
</event>
<event>
 7    1  0.6386201E-006  0.3185034E+03  0.7818608E-02  0.1145388E+00
          2   -1    0    0  502    0  0.00000000000E+00  0.00000000000E+00  0.16456634419E+04  0.16456634419E+04  0.00000000000E+00 0. -1.
          1   -1    0    0  501    0 -0.00000000000E+00 -0.00000000000E+00 -0.62939938064E+03  0.62939938064E+03  0.00000000000E+00 0. -1.
         25    2    1    2    0    0  0.12747767701E+03 -0.31104077802E+03  0.45188257549E+02  0.36147294992E+03  0.12499516462E+03 0.  0.
          2    1    1    2  501    0  0.99769220351E+02  0.86825694657E+02 -0.44382974837E+03  0.46311709547E+03  0.00000000000E+00 0. -1.
          1    1    1    2  502    0 -0.22724689736E+03  0.22421508336E+03  0.14149055520E+04  0.14504727771E+04  0.00000000000E+00 0. -1.
         22    1    3    3    0    0  0.29692986290E+02 -0.14542221562E+03  0.75902170429E+02  0.16670463013E+03  0.00000000000E+00 0. -1.
         22    1    3    3    0    0  0.97784690715E+02 -0.16561856240E+03 -0.30713912880E+02  0.19476831979E+03  0.00000000000E+00 0. -1.
</event>
<event>
 7    1  0.6386201E-006  0.5898842E+02  0.7818608E-02  0.1462012E+00
          2   -1    0    0  502    0  0.00000000000E+00  0.00000000000E+00  0.87119449732E+03  0.87119449732E+03  0.00000000000E+00 0. -1.
          1   -1    0    0  501    0 -0.00000000000E+00 -0.00000000000E+00 -0.57845803482E+03  0.57845803482E+03  0.00000000000E+00 0. -1.
         25    2    1    2    0    0  0.62131965659E+02 -0.51032088263E+02 -0.13357340335E+03  0.19983018654E+03  0.12500237670E+03 0.  0.
          2    1    1    2  501    0 -0.48770843957E+01  0.37188342229E+02 -0.40986385269E+03  0.41157640419E+03  0.00000000000E+00 0. -1.
          1    1    1    2  502    0 -0.57254881264E+02  0.13843746035E+02  0.83617371852E+03  0.83824594141E+03  0.00000000000E+00 0. -1.
         22    1    3    3    0    0 -0.26734154147E+02 -0.49962730212E+02 -0.72400581194E+02  0.91939292827E+02  0.00000000000E+00 0. -1.
         22    1    3    3    0    0  0.88866119806E+02 -0.10693580510E+01 -0.61172822152E+02  0.10789089371E+03  0.00000000000E+00 0. -1.
</event>
<event>
 7    1  0.6386201E-006  0.1142176E+03  0.7818608E-02  0.1337436E+00
          2   -1    0    0  502    0  0.00000000000E+00  0.00000000000E+00  0.25460993484E+04  0.25460993484E+04  0.00000000000E+00 0. -1.
          1   -1    0    0  501    0 -0.00000000000E+00 -0.00000000000E+00 -0.35045697433E+03  0.35045697433E+03  0.00000000000E+00 0. -1.
         25    2    1    2    0    0  0.83859716143E+02  0.12271220530E+03  0.30527222135E+03  0.36181635594E+03  0.12501683478E+03 0.  0.
          2    1    1    2  501    0 -0.33853998543E+02 -0.10820180499E+03 -0.31189377747E+03  0.33186059158E+03  0.00000000000E+00 0. -1.
          1    1    1    2  502    0 -0.50005717600E+02 -0.14510400312E+02  0.22022639302E+04  0.22028793752E+04  0.00000000000E+00 0. -1.
         22    1    3    3    0    0  0.11393536104E+03  0.11235076739E+03  0.23088069591E+03  0.28090898379E+03  0.00000000000E+00 0. -1.
         22    1    3    3    0    0 -0.30075644897E+02  0.10361437907E+02  0.74391525437E+02  0.80907372151E+02  0.00000000000E+00 0. -1.
</event>
<event>
 7    1  0.6386201E-006  0.4316744E+02  0.7818608E-02  0.1532712E+00
          2   -1    0    0  502    0  0.00000000000E+00  0.00000000000E+00  0.15993316240E+04  0.15993316240E+04  0.00000000000E+00 0. -1.
          1   -1    0    0  501    0 -0.00000000000E+00 -0.00000000000E+00 -0.76545189403E+03  0.76545189403E+03  0.00000000000E+00 0. -1.
         25    2    1    2    0    0 -0.22752901193E+01 -0.30637540160E+02  0.63067336802E+02  0.14336409351E+03  0.12502775102E+03 0.  0.
          2    1    1    2  501    0 -0.29161491251E+02  0.32014990146E+02 -0.72449143750E+03  0.72578453771E+03  0.00000000000E+00 0. -1.
          1    1    1    2  502    0  0.31436781370E+02 -0.13774499860E+01  0.14953038307E+04  0.14956348868E+04  0.00000000000E+00 0. -1.
         22    1    3    3    0    0 -0.11297214956E+02 -0.35740584725E+02  0.99056884099E+02  0.10591167428E+03  0.00000000000E+00 0. -1.
         22    1    3    3    0    0  0.90219248365E+01  0.51030445655E+01 -0.35989547297E+02  0.37452419231E+02  0.00000000000E+00 0. -1.
</event>
<event>
 7    1  0.6386201E-006  0.9882639E+02  0.7818608E-02  0.1316545E+00
          2   -1    0    0  502    0  0.00000000000E+00  0.00000000000E+00  0.14624293644E+04  0.14624293644E+04  0.00000000000E+00 0. -1.
          1   -1    0    0  501    0 -0.00000000000E+00 -0.00000000000E+00 -0.14345278543E+03  0.14345278543E+03  0.00000000000E+00 0. -1.
         25    2    1    2    0    0  0.44970861644E+02  0.18605593947E+02  0.44419495147E+03  0.46400932137E+03  0.12500779528E+03 0.  0.
          2    1    1    2  501    0  0.43424487289E+02  0.57907484452E+02 -0.12005722154E+03  0.14018808543E+03  0.00000000000E+00 0. -1.
          1    1    1    2  502    0 -0.88395348933E+02 -0.76513078399E+02  0.99483884899E+03  0.10016847430E+04  0.00000000000E+00 0. -1.
         22    1    3    3    0    0 -0.38518616121E+02  0.57583001980E+01  0.23827037457E+03  0.24143241954E+03  0.00000000000E+00 0. -1.
         22    1    3    3    0    0  0.83489477765E+02  0.12847293749E+02  0.20592457690E+03  0.22257690183E+03  0.00000000000E+00 0. -1.
</event>
<event>
 7    1  0.6386201E-006  0.8050967E+02  0.7818608E-02  0.1466955E+00
          2   -1    0    0  502    0  0.00000000000E+00  0.00000000000E+00  0.18141634735E+04  0.18141634735E+04  0.00000000000E+00 0. -1.
          1   -1    0    0  501    0 -0.00000000000E+00 -0.00000000000E+00 -0.31295004962E+03  0.31295004962E+03  0.00000000000E+00 0. -1.
         25    2    1    2    0    0 -0.31961781308E+02 -0.68771808312E+02 -0.21779238635E+02  0.14781820012E+03  0.12499907187E+03 0.  0.
          2    1    1    2  501    0  0.23926189745E+02 -0.11433210728E+02 -0.22644965724E+03  0.22799699148E+03  0.00000000000E+00 0. -1.
          1    1    1    2  502    0  0.80355915626E+01  0.80205019040E+02  0.17494423197E+04  0.17512983315E+04  0.00000000000E+00 0. -1.
         22    1    3    3    0    0 -0.53399150229E+02  0.17333050236E+02  0.12111197102E+01  0.56154881236E+02  0.00000000000E+00 0.  1.
         22    1    3    3    0    0  0.21437368921E+02 -0.86104858549E+02 -0.22990358345E+02  0.91663318884E+02  0.00000000000E+00 0.  1.
</event>
<event>
 7    1  0.6386201E-006  0.6460489E+02  0.7818608E-02  0.1382308E+00
          2   -1    0    0  502    0  0.00000000000E+00  0.00000000000E+00  0.84845695683E+03  0.84845695683E+03  0.00000000000E+00 0. -1.
          1   -1    0    0  501    0 -0.00000000000E+00 -0.00000000000E+00 -0.84702721092E+03  0.84702721092E+03  0.00000000000E+00 0. -1.
         25    2    1    2    0    0 -0.80330233142E+02  0.91703594693E+02  0.33346336128E+02  0.17776192908E+03  0.12499931864E+03 0.  0.
          2    1    1    2  501    0  0.26965448428E+02 -0.57983590841E+02 -0.77215434922E+03  0.77479776151E+03  0.00000000000E+00 0. -1.
          1    1    1    2  502    0  0.53364784715E+02 -0.33720003853E+02  0.74023775901E+03  0.74292447716E+03  0.00000000000E+00 0. -1.
         22    1    3    3    0    0 -0.53006189492E+02  0.82540781996E+01  0.65129373406E+02  0.84377847872E+02  0.00000000000E+00 0.  1.
         22    1    3    3    0    0 -0.27324043650E+02  0.83449516494E+02 -0.31783037278E+02  0.93384081208E+02  0.00000000000E+00 0.  1.
</event>
<event>
 7    1  0.6386201E-006  0.1495286E+03  0.7818608E-02  0.1260835E+00
          2   -1    0    0  502    0  0.00000000000E+00  0.00000000000E+00  0.13935968386E+04  0.13935968386E+04  0.00000000000E+00 0. -1.
          1   -1    0    0  501    0 -0.00000000000E+00 -0.00000000000E+00 -0.38366237233E+03  0.38366237233E+03  0.00000000000E+00 0. -1.
         25    2    1    2    0    0  0.79482741579E+02  0.13998703387E+03 -0.11043986663E+03  0.23181029748E+03  0.12500069607E+03 0.  0.
          2    1    1    2  501    0 -0.12986397585E+03 -0.76932294702E+02 -0.18433301426E+03  0.23824754004E+03  0.00000000000E+00 0. -1.
          1    1    1    2  502    0  0.50381234273E+02 -0.63054739168E+02  0.13047073472E+04  0.13072013734E+04  0.00000000000E+00 0. -1.
         22    1    3    3    0    0  0.42263622457E+02  0.87785157771E+02  0.73468741117E+01  0.97705804676E+02  0.00000000000E+00 0.  1.
         22    1    3    3    0    0  0.37219119122E+02  0.52201876099E+02 -0.11778674074E+03  0.13410449281E+03  0.00000000000E+00 0.  1.
</event>
<event>
 7    1  0.6386201E-006  0.9452828E+02  0.7818608E-02  0.1311364E+00
          2   -1    0    0  502    0  0.00000000000E+00  0.00000000000E+00  0.77908438828E+03  0.77908438828E+03  0.00000000000E+00 0. -1.
          1   -1    0    0  501    0 -0.00000000000E+00 -0.00000000000E+00 -0.87804570124E+02  0.87804570124E+02  0.00000000000E+00 0. -1.
         25    2    1    2    0    0  0.16513712451E+02 -0.15141966157E+03  0.17103324585E+03  0.26091606637E+03  0.12499682355E+03 0.  0.
          2    1    1    2  501    0  0.29645292260E+02  0.73540546900E+02  0.14164184292E+01  0.79303604160E+02  0.00000000000E+00 0. -1.
          1    1    1    2  502    0 -0.46159004711E+02  0.77879114667E+02  0.51883015388E+03  0.52666928788E+03  0.00000000000E+00 0. -1.
         22    1    3    3    0    0  0.46053181068E+02 -0.75567034098E+02  0.15420504258E+03  0.17779332745E+03  0.00000000000E+00 0. -1.
         22    1    3    3    0    0 -0.29539468617E+02 -0.75852627469E+02  0.16828203268E+02  0.83122738919E+02  0.00000000000E+00 0. -1.
</event>
<event>
 7    1  0.6386201E-006  0.6322091E+02  0.7818608E-02  0.1392026E+00
          2   -1    0    0  502    0  0.00000000000E+00  0.00000000000E+00  0.60832153001E+03  0.60832153001E+03  0.00000000000E+00 0. -1.
          1   -1    0    0  501    0 -0.00000000000E+00 -0.00000000000E+00 -0.16595590308E+03  0.16595590308E+03  0.00000000000E+00 0. -1.
         25    2    1    2    0    0 -0.10179233304E+02 -0.80896813459E+01  0.37856115153E+02  0.13125972878E+03  0.12500788459E+03 0.  0.
          2    1    1    2  501    0 -0.24401792476E+02  0.61014496139E+02 -0.10810980538E+03  0.12651460878E+03  0.00000000000E+00 0. -1.
          1    1    1    2  502    0  0.34581025781E+02 -0.52924814793E+02  0.51261931716E+03  0.51650309552E+03  0.00000000000E+00 0. -1.
         22    1    3    3    0    0  0.96037570735E+01  0.56209216036E+02  0.27085729112E+02  0.63129587666E+02  0.00000000000E+00 0. -1.
         22    1    3    3    0    0 -0.19782990378E+02 -0.64298897382E+02  0.10770386041E+02  0.68130141115E+02  0.00000000000E+00 0. -1.
</event>
<event>
 7    1  0.6386201E-006  0.1046587E+03  0.7818608E-02  0.1351877E+00
          2   -1    0    0  502    0  0.00000000000E+00  0.00000000000E+00  0.14261738139E+04  0.14261738139E+04  0.00000000000E+00 0. -1.
          1   -1    0    0  501    0 -0.00000000000E+00 -0.00000000000E+00 -0.11861309714E+03  0.11861309714E+03  0.00000000000E+00 0. -1.
         25    2    1    2    0    0 -0.21777367158E+02 -0.76765386624E+02  0.56297633979E+03  0.58218113957E+03  0.12500136723E+03 0.  0.
          2    1    1    2  501    0  0.71947075141E+02  0.78071030686E+02 -0.82218671777E+02  0.13428096456E+03  0.00000000000E+00 0. -1.
          1    1    1    2  502    0 -0.50169707983E+02 -0.13056440624E+01  0.82680304878E+03  0.82832480694E+03  0.00000000000E+00 0. -1.
         22    1    3    3    0    0  0.28349845069E+02 -0.57773221422E+02  0.12176107381E+03  0.13772152309E+03  0.00000000000E+00 0. -1.
         22    1    3    3    0    0 -0.50127212226E+02 -0.18992165202E+02  0.44121526598E+03  0.44445961648E+03  0.00000000000E+00 0. -1.
</event>
<event>
 7    1  0.6386201E-006  0.6136428E+02  0.7818608E-02  0.1444603E+00
          2   -1    0    0  502    0  0.00000000000E+00  0.00000000000E+00  0.27379361065E+03  0.27379361065E+03  0.00000000000E+00 0. -1.
          1   -1    0    0  501    0 -0.00000000000E+00 -0.00000000000E+00 -0.12957058419E+04  0.12957058419E+04  0.00000000000E+00 0. -1.
         25    2    1    2    0    0 -0.45375018720E+01 -0.30900451720E+02 -0.11361471875E+03  0.17178046662E+03  0.12499919022E+03 0.  0.
          2    1    1    2  501    0 -0.38366244221E+02 -0.14356180028E+02 -0.11486642570E+04  0.11493944684E+04  0.00000000000E+00 0. -1.
          1    1    1    2  502    0  0.42903746093E+02  0.45256631748E+02  0.24036674451E+03  0.24832451754E+03  0.00000000000E+00 0. -1.
         22    1    3    3    0    0  0.13720773651E+02 -0.59823552687E+02 -0.12199519971E+03  0.13656480454E+03  0.00000000000E+00 0. -1.
         22    1    3    3    0    0 -0.18258275523E+02  0.28923100966E+02  0.83804809640E+01  0.35215662081E+02  0.00000000000E+00 0. -1.
</event>
<event>
 7    1  0.6386201E-006  0.2321677E+03  0.7818608E-02  0.1135779E+00
          2   -1    0    0  502    0  0.00000000000E+00  0.00000000000E+00  0.33863114959E+03  0.33863114959E+03  0.00000000000E+00 0. -1.
          1   -1    0    0  501    0 -0.00000000000E+00 -0.00000000000E+00 -0.12662306930E+04  0.12662306930E+04  0.00000000000E+00 0. -1.
         25    2    1    2    0    0  0.95875467893E+01  0.18830455588E+03 -0.24395772700E+03  0.33270261417E+03  0.12500052038E+03 0.  0.
          2    1    1    2  501    0 -0.20236424723E+03 -0.23403436079E+02 -0.90978446363E+03  0.93231259760E+03  0.00000000000E+00 0. -1.
          1    1    1    2  502    0  0.19277670044E+03 -0.16490111980E+03  0.22614264726E+03  0.33984663078E+03  0.00000000000E+00 0. -1.
         22    1    3    3    0    0 -0.12151078275E+02  0.13817673600E+03 -0.80549393539E+02  0.16040157068E+03  0.00000000000E+00 0. -1.
         22    1    3    3    0    0  0.21738625064E+02  0.50127819873E+02 -0.16340833346E+03  0.17230104349E+03  0.00000000000E+00 0. -1.
</event>
<event>
 7    1  0.6386201E-006  0.8140317E+02  0.7818608E-02  0.1382173E+00
          2   -1    0    0  502    0  0.00000000000E+00  0.00000000000E+00  0.17835181100E+04  0.17835181100E+04  0.00000000000E+00 0. -1.
          1   -1    0    0  501    0 -0.00000000000E+00 -0.00000000000E+00 -0.16357077412E+03  0.16357077412E+03  0.00000000000E+00 0. -1.
         25    2    1    2    0    0  0.29690729477E+02 -0.54342696677E+02  0.24362182197E+01  0.13952478359E+03  0.12500624775E+03 0.  0.
          2    1    1    2  501    0 -0.78588137828E+02  0.43185908780E+02 -0.73416634215E+02  0.11589271031E+03  0.00000000000E+00 0. -1.
          1    1    1    2  502    0  0.48897408351E+02  0.11156787896E+02  0.16909277519E+04  0.16916713902E+04  0.00000000000E+00 0. -1.
         22    1    3    3    0    0 -0.26412685600E+02  0.22450678142E+01  0.42689025755E+02  0.50249609053E+02  0.00000000000E+00 0. -1.
         22    1    3    3    0    0  0.56103415077E+02 -0.56587764491E+02 -0.40252807535E+02  0.89275174532E+02  0.00000000000E+00 0. -1.
</event>
<event>
 7    1  0.6386201E-006  0.9584528E+02  0.7818608E-02  0.1292842E+00
          2   -1    0    0  502    0  0.00000000000E+00  0.00000000000E+00  0.14925713888E+04  0.14925713888E+04  0.00000000000E+00 0. -1.
          1   -1    0    0  501    0 -0.00000000000E+00 -0.00000000000E+00 -0.10812506691E+03  0.10812506691E+03  0.00000000000E+00 0. -1.
         25    2    1    2    0    0 -0.11647600486E+03  0.64343318930E+02  0.23000411832E+03  0.29365573622E+03  0.12500029828E+03 0.  0.
          2    1    1    2  501    0  0.24128077263E+02 -0.89513978233E+02 -0.45510238341E+02  0.10327680381E+03  0.00000000000E+00 0. -1.
          1    1    1    2  502    0  0.92347927600E+02  0.25170659303E+02  0.11999524419E+04  0.12037639157E+04  0.00000000000E+00 0. -1.
         22    1    3    3    0    0 -0.26257454215E+01  0.20831533575E+02  0.14145177612E+03  0.14300158145E+03  0.00000000000E+00 0. -1.
         22    1    3    3    0    0 -0.11385025944E+03  0.43511785355E+02  0.88552342197E+02  0.15065415477E+03  0.00000000000E+00 0. -1.
</event>
<event>
 7    1  0.6386201E-006  0.9267736E+02  0.7818608E-02  0.1414174E+00
          2   -1    0    0  502    0  0.00000000000E+00  0.00000000000E+00  0.66781001690E+03  0.66781001690E+03  0.00000000000E+00 0. -1.
          1   -1    0    0  501    0 -0.00000000000E+00 -0.00000000000E+00 -0.84559946211E+02  0.84559946211E+02  0.00000000000E+00 0. -1.
         25    2    1    2    0    0  0.50297034650E+02  0.61825979375E+02  0.88396186191E+02  0.17260054457E+03  0.12499927533E+03 0.  0.
          2    1    1    2  501    0 -0.83679347191E+02 -0.54539393926E+02  0.17756216714E+02  0.10144979974E+03  0.00000000000E+00 0. -1.
          1    1    1    2  502    0  0.33382312541E+02 -0.72865854483E+01  0.47709766779E+03  0.47831961880E+03  0.00000000000E+00 0. -1.
         22    1    3    3    0    0  0.36113034215E+02 -0.24701845238E+02 -0.55377698687E+01  0.44102146132E+02  0.00000000000E+00 0. -1.
         22    1    3    3    0    0  0.14184000435E+02  0.86527824613E+02  0.93933956060E+02  0.12849839844E+03  0.00000000000E+00 0. -1.
</event>
<event>
 7    1  0.6386201E-006  0.4359323E+02  0.7818608E-02  0.1527494E+00
          2   -1    0    0  502    0  0.00000000000E+00  0.00000000000E+00  0.20114577913E+04  0.20114577913E+04  0.00000000000E+00 0. -1.
          1   -1    0    0  501    0 -0.00000000000E+00 -0.00000000000E+00 -0.39629014881E+02  0.39629014881E+02  0.00000000000E+00 0. -1.
         25    2    1    2    0    0  0.15846470940E+02 -0.20746590828E+02  0.12598939675E+03  0.17939341371E+03  0.12500854818E+03 0.  0.
          2    1    1    2  501    0 -0.47808326560E+02  0.16439274763E+02  0.37201817470E+02  0.62768312597E+02  0.00000000000E+00 0. -1.
          1    1    1    2  502    0  0.31961855620E+02  0.43073160645E+01  0.18086375622E+04  0.18089250799E+04  0.00000000000E+00 0. -1.
         22    1    3    3    0    0  0.21889476979E+02  0.30943503117E+02  0.12136522520E+03  0.12714624444E+03  0.00000000000E+00 0. -1.
         22    1    3    3    0    0 -0.60430060395E+01 -0.51690093945E+02  0.46241715454E+01  0.52247169268E+02  0.00000000000E+00 0. -1.
</event>
<event>
 7    1  0.6386201E-006  0.8591671E+02  0.7818608E-02  0.1458106E+00
          2   -1    0    0  502    0  0.00000000000E+00  0.00000000000E+00  0.94962352027E+03  0.94962352027E+03  0.00000000000E+00 0. -1.
          1   -1    0    0  501    0 -0.00000000000E+00 -0.00000000000E+00 -0.52080550245E+03  0.52080550245E+03  0.00000000000E+00 0. -1.
         25    2    1    2    0    0  0.78988807198E+02 -0.93797012614E+01 -0.28250130454E+03  0.31899753281E+03  0.12500091367E+03 0.  0.
          2    1    1    2  501    0 -0.83893675182E+00 -0.26479007374E+02 -0.21726526385E+03  0.21887447664E+03  0.00000000000E+00 0. -1.
          1    1    1    2  502    0 -0.78149870447E+02  0.35858708635E+02  0.92858458621E+03  0.93255701326E+03  0.00000000000E+00 0. -1.
         22    1    3    3    0    0  0.24708601236E+02 -0.65301690723E+02 -0.14538029430E+03  0.16127695358E+03  0.00000000000E+00 0. -1.
         22    1    3    3    0    0  0.54280205963E+02  0.55921989462E+02 -0.13712101024E+03  0.15772057924E+03  0.00000000000E+00 0. -1.
</event>
<event>
 7    1  0.6386201E-006  0.6513896E+02  0.7818608E-02  0.1435880E+00
          2   -1    0    0  502    0  0.00000000000E+00  0.00000000000E+00  0.13858555632E+04  0.13858555632E+04  0.00000000000E+00 0. -1.
          1   -1    0    0  501    0 -0.00000000000E+00 -0.00000000000E+00 -0.12664036638E+02  0.12664036638E+02  0.00000000000E+00 0. -1.
         25    2    1    2    0    0 -0.72406069393E-01  0.55467358130E+01  0.52520920680E+03  0.53990786137E+03  0.12500006537E+03 0.  0.
          2    1    1    2  501    0 -0.63974865426E+02 -0.17422370903E+02  0.33395729515E+03  0.34047583967E+03  0.00000000000E+00 0. -1.
          1    1    1    2  502    0  0.64047271496E+02  0.11875635090E+02  0.51402502463E+03  0.51813589881E+03  0.00000000000E+00 0. -1.
         22    1    3    3    0    0  0.40775570196E+02  0.47717756391E+02  0.33552638386E+03  0.34134672353E+03  0.00000000000E+00 0. -1.
         22    1    3    3    0    0 -0.40847976265E+02 -0.42171020578E+02  0.18968282294E+03  0.19856113784E+03  0.00000000000E+00 0. -1.
</event>
<event>
 7    1  0.6386201E-006  0.1572853E+03  0.7818608E-02  0.1227482E+00
          2   -1    0    0  502    0  0.00000000000E+00  0.00000000000E+00  0.72462982775E+03  0.72462982775E+03  0.00000000000E+00 0. -1.
          1   -1    0    0  501    0 -0.00000000000E+00 -0.00000000000E+00 -0.31999746112E+03  0.31999746112E+03  0.00000000000E+00 0. -1.
         25    2    1    2    0    0 -0.18489964568E+03 -0.78703435785E+02  0.18779669967E+03  0.30211885418E+03  0.12500436738E+03 0.  0.
          2    1    1    2  501    0  0.15382740290E+03 -0.24123551351E+02 -0.23288141222E+03  0.28014026445E+03  0.00000000000E+00 0. -1.
          1    1    1    2  502    0  0.31072242783E+02  0.10282698714E+03  0.44971707917E+03  0.46236817024E+03  0.00000000000E+00 0. -1.
         22    1    3    3    0    0 -0.84734665605E+02 -0.87802136486E+02  0.50817178662E+02  0.13218004529E+03  0.00000000000E+00 0. -1.
         22    1    3    3    0    0 -0.10016498008E+03  0.90987007017E+01  0.13697952101E+03  0.16993880888E+03  0.00000000000E+00 0. -1.
</event>
<event>
 7    1  0.6386201E-006  0.5333938E+02  0.7818608E-02  0.1443347E+00
          2   -1    0    0  502    0  0.00000000000E+00  0.00000000000E+00  0.30404796186E+03  0.30404796186E+03  0.00000000000E+00 0. -1.
          1   -1    0    0  501    0 -0.00000000000E+00 -0.00000000000E+00 -0.10994209259E+03  0.10994209259E+03  0.00000000000E+00 0. -1.
         25    2    1    2    0    0 -0.16049799681E+02 -0.33072124799E+02 -0.69278545424E+01  0.13047742983E+03  0.12500001207E+03 0.  0.
          2    1    1    2  501    0 -0.22724684792E+02  0.60628616767E+02 -0.11464930011E+02  0.65754734355E+02  0.00000000000E+00 0. -1.
          1    1    1    2  502    0  0.38774484473E+02 -0.27556491968E+02  0.21249865383E+03  0.21775789027E+03  0.00000000000E+00 0. -1.
         22    1    3    3    0    0 -0.10342905556E+02  0.27191951006E+02 -0.48841429857E+02  0.56849478144E+02  0.00000000000E+00 0. -1.
         22    1    3    3    0    0 -0.57068941250E+01 -0.60264075805E+02  0.41913575314E+02  0.73627951681E+02  0.00000000000E+00 0. -1.
</event>
<event>
 7    1  0.6386201E-006  0.6339423E+02  0.7818608E-02  0.1407715E+00
          2   -1    0    0  502    0  0.00000000000E+00  0.00000000000E+00  0.85540124865E+03  0.85540124865E+03  0.00000000000E+00 0. -1.
          1   -1    0    0  501    0 -0.00000000000E+00 -0.00000000000E+00 -0.42320720379E+03  0.42320720379E+03  0.00000000000E+00 0. -1.
         25    2    1    2    0    0  0.28710586670E+02 -0.57012276068E+02 -0.28548908339E+01  0.14038372486E+03  0.12499896958E+03 0.  0.
          2    1    1    2  501    0  0.23749770695E+02  0.59713205631E+02 -0.34776379863E+03  0.35365149254E+03  0.00000000000E+00 0. -1.
          1    1    1    2  502    0 -0.52460357365E+02 -0.27009295633E+01  0.78281273433E+03  0.78457323504E+03  0.00000000000E+00 0. -1.
         22    1    3    3    0    0  0.66074785103E+02 -0.69373898883E+02  0.15339923239E+02  0.97025400374E+02  0.00000000000E+00 0.  1.
         22    1    3    3    0    0 -0.37364198433E+02  0.12361622816E+02 -0.18194814073E+02  0.43358324487E+02  0.00000000000E+00 0.  1.
</event>
<event>
 7    1  0.6386201E-006  0.9923762E+02  0.7818608E-02  0.1417210E+00
          2   -1    0    0  502    0  0.00000000000E+00  0.00000000000E+00  0.69463195207E+03  0.69463195207E+03  0.00000000000E+00 0. -1.
          1   -1    0    0  501    0 -0.00000000000E+00 -0.00000000000E+00 -0.80801557582E+03  0.80801557582E+03  0.00000000000E+00 0. -1.
         25    2    1    2    0    0 -0.10541349054E+03 -0.54843540782E+02 -0.33234263164E+02  0.17564658236E+03  0.12500955041E+03 0.  0.
          2    1    1    2  501    0  0.29950215923E+02 -0.86293751562E+01 -0.69932663345E+03  0.70002087240E+03  0.00000000000E+00 0. -1.
          1    1    1    2  502    0  0.75463274613E+02  0.63472915938E+02  0.61917727286E+03  0.62698007312E+03  0.00000000000E+00 0. -1.
         22    1    3    3    0    0  0.12251780070E+02  0.10460087267E+00 -0.43678322786E+02  0.45364225306E+02  0.00000000000E+00 0.  1.
         22    1    3    3    0    0 -0.11766527061E+03 -0.54948141654E+02  0.10444059622E+02  0.13028235705E+03  0.00000000000E+00 0.  1.
</event>
<event>
 7    1  0.6386201E-006  0.8149387E+02  0.7818608E-02  0.1395964E+00
          2   -1    0    0  502    0  0.00000000000E+00  0.00000000000E+00  0.30089923454E+04  0.30089923454E+04  0.00000000000E+00 0. -1.
          1   -1    0    0  501    0 -0.00000000000E+00 -0.00000000000E+00 -0.12907961666E+03  0.12907961666E+03  0.00000000000E+00 0. -1.
         25    2    1    2    0    0  0.58877964492E+02 -0.10487973045E+03  0.20210297696E+03  0.26634050108E+03  0.12500110662E+03 0.  0.
          2    1    1    2  501    0 -0.50263776472E+02  0.60878635914E+02 -0.80678393065E+02  0.11287895572E+03  0.00000000000E+00 0. -1.
          1    1    1    2  502    0 -0.86141880191E+01  0.44001094535E+02  0.27584881449E+04  0.27588525053E+04  0.00000000000E+00 0. -1.
         22    1    3    3    0    0  0.22894747948E+02 -0.22202469507E+02 -0.11960719979E+02  0.34061385148E+02  0.00000000000E+00 0.  1.
         22    1    3    3    0    0  0.35983216544E+02 -0.82677260942E+02  0.21406369694E+03  0.23227911593E+03  0.00000000000E+00 0.  1.
</event>
<event>
 7    1  0.6386201E-006  0.1851563E+03  0.7818608E-02  0.1261855E+00
          2   -1    0    0  502    0  0.00000000000E+00  0.00000000000E+00  0.92436487577E+02  0.92436487577E+02  0.00000000000E+00 0. -1.
          1   -1    0    0  501    0 -0.00000000000E+00 -0.00000000000E+00 -0.11770553517E+04  0.11770553517E+04  0.00000000000E+00 0. -1.
         25    2    1    2    0    0  0.78025977358E+01 -0.19888715186E+03 -0.45962960286E+03  0.51623751042E+03  0.12499926257E+03 0.  0.
          2    1    1    2  501    0 -0.60309311495E+02  0.22959699955E+02 -0.55187596120E+03  0.55563606563E+03  0.00000000000E+00 0. -1.
          1    1    1    2  502    0  0.52506713759E+02  0.17592745190E+03 -0.73113300101E+02  0.19761826326E+03  0.00000000000E+00 0. -1.
         22    1    3    3    0    0 -0.49456106454E+02 -0.12394817622E+03 -0.32973442454E+03  0.35571596475E+03  0.00000000000E+00 0.  1.
         22    1    3    3    0    0  0.57258704190E+02 -0.74938975634E+02 -0.12989517832E+03  0.16052154567E+03  0.00000000000E+00 0.  1.
</event>
<event>
 7    1  0.6386201E-006  0.8808657E+02  0.7818608E-02  0.1385199E+00
          2   -1    0    0  502    0  0.00000000000E+00  0.00000000000E+00  0.61105693592E+03  0.61105693592E+03  0.00000000000E+00 0. -1.
          1   -1    0    0  501    0 -0.00000000000E+00 -0.00000000000E+00 -0.27561328516E+03  0.27561328516E+03  0.00000000000E+00 0. -1.
         25    2    1    2    0    0 -0.70128237475E+02 -0.19773474859E+02 -0.17737501026E+03  0.22890174508E+03  0.12500061854E+03 0.  0.
          2    1    1    2  501    0  0.11530772646E+03  0.17741763860E+02 -0.23950290915E+02  0.11909768429E+03  0.00000000000E+00 0. -1.
          1    1    1    2  502    0 -0.45179488990E+02  0.20317109987E+01  0.53676895194E+03  0.53867079171E+03  0.00000000000E+00 0. -1.
         22    1    3    3    0    0  0.29992973756E+02 -0.17659180347E+02 -0.14504711970E+02  0.37706919718E+02  0.00000000000E+00 0.  1.
         22    1    3    3    0    0 -0.10012121123E+03 -0.21142945117E+01 -0.16287029829E+03  0.19119482536E+03  0.00000000000E+00 0.  1.
</event>
<event>
 7    1  0.6386201E-006  0.7669074E+02  0.7818608E-02  0.1370128E+00
          2   -1    0    0  502    0  0.00000000000E+00  0.00000000000E+00  0.16786420854E+04  0.16786420854E+04  0.00000000000E+00 0. -1.
          1   -1    0    0  501    0 -0.00000000000E+00 -0.00000000000E+00 -0.41337582057E+03  0.41337582057E+03  0.00000000000E+00 0. -1.
         25    2    1    2    0    0  0.66606898254E+02 -0.70985251837E+02  0.35938659884E+03  0.39277295257E+03  0.12504591144E+03 0.  0.
          2    1    1    2  501    0  0.88327559062E+01  0.58096585034E+02 -0.39337406288E+03  0.39773909051E+03  0.00000000000E+00 0. -1.
          1    1    1    2  502    0 -0.75439654160E+02  0.12888666804E+02  0.12992537289E+04  0.13015058629E+04  0.00000000000E+00 0. -1.
         22    1    3    3    0    0  0.16448633782E+02  0.28426092631E+02  0.16945558554E+03  0.17260879400E+03  0.00000000000E+00 0. -1.
         22    1    3    3    0    0  0.50158264472E+02 -0.99411344468E+02  0.18993101330E+03  0.22016415857E+03  0.00000000000E+00 0. -1.
</event>
<event>
 7    1  0.6386201E-006  0.7498386E+02  0.7818608E-02  0.1374019E+00
          2   -1    0    0  502    0  0.00000000000E+00  0.00000000000E+00  0.96772355148E+03  0.96772355148E+03  0.00000000000E+00 0. -1.
          1   -1    0    0  501    0 -0.00000000000E+00 -0.00000000000E+00 -0.31797307392E+02  0.31797307392E+02  0.00000000000E+00 0. -1.
         25    2    1    2    0    0  0.78596731665E+02 -0.76619672217E+02  0.42092311538E+03  0.45260079003E+03  0.12499274251E+03 0.  0.
          2    1    1    2  501    0 -0.10414500233E+02  0.57262933939E+02  0.50548556032E+02  0.77088662820E+02  0.00000000000E+00 0. -1.
          1    1    1    2  502    0 -0.68182231432E+02  0.19356738278E+02  0.46445457268E+03  0.46983140602E+03  0.00000000000E+00 0. -1.
         22    1    3    3    0    0  0.32012305653E+02  0.23777587148E+02  0.21647218401E+03  0.22011444253E+03  0.00000000000E+00 0. -1.
         22    1    3    3    0    0  0.46584426013E+02 -0.10039725937E+03  0.20445093137E+03  0.23248634750E+03  0.00000000000E+00 0. -1.
</event>
<event>
 7    1  0.6386201E-006  0.6224254E+02  0.7818608E-02  0.1488621E+00
          2   -1    0    0  502    0  0.00000000000E+00  0.00000000000E+00  0.13041554827E+04  0.13041554827E+04  0.00000000000E+00 0. -1.
          1   -1    0    0  501    0 -0.00000000000E+00 -0.00000000000E+00 -0.30678923444E+02  0.30678923444E+02  0.00000000000E+00 0. -1.
         25    2    1    2    0    0  0.54390687155E+02 -0.57038469651E+02  0.92802187279E+03  0.93971768836E+03  0.12503201022E+03 0.  0.
          2    1    1    2  501    0 -0.28707446192E+02  0.64294619700E+01 -0.13024514646E+02  0.32172867915E+02  0.00000000000E+00 0. -1.
          1    1    1    2  502    0 -0.25683240962E+02  0.50609007681E+02  0.35847920111E+03  0.36294384986E+03  0.00000000000E+00 0. -1.
         22    1    3    3    0    0 -0.18022425969E+02  0.27467117476E+02  0.13578415098E+03  0.13970177536E+03  0.00000000000E+00 0. -1.
         22    1    3    3    0    0  0.72413113124E+02 -0.84505587127E+02  0.79223772181E+03  0.80001591300E+03  0.00000000000E+00 0. -1.
</event>
<event>
 7    1  0.6386201E-006  0.5928473E+02  0.7818608E-02  0.1553454E+00
          2   -1    0    0  502    0  0.00000000000E+00  0.00000000000E+00  0.22300102251E+03  0.22300102251E+03  0.00000000000E+00 0. -1.
          1   -1    0    0  501    0 -0.00000000000E+00 -0.00000000000E+00 -0.19697304318E+04  0.19697304318E+04  0.00000000000E+00 0. -1.
         25    2    1    2    0    0  0.42853711483E+02  0.55222567112E+01 -0.27774741215E+01  0.13229021140E+03  0.12500419898E+03 0.  0.
          2    1    1    2  501    0 -0.59081957489E+02  0.62179142832E+01 -0.19010969104E+04  0.19020249217E+04  0.00000000000E+00 0. -1.
          1    1    1    2  502    0  0.16228246006E+02 -0.11740170994E+02  0.15714497521E+03  0.15841632119E+03  0.00000000000E+00 0. -1.
         22    1    3    3    0    0  0.44899640087E+02 -0.49615623967E+02 -0.26837478709E+02  0.72096727284E+02  0.00000000000E+00 0. -1.
         22    1    3    3    0    0 -0.20459286048E+01  0.55137880678E+02  0.24060004587E+02  0.60193484118E+02  0.00000000000E+00 0. -1.
</event>
<event>
 7    1  0.6386201E-006  0.5108245E+02  0.7818608E-02  0.1556084E+00
          2   -1    0    0  502    0  0.00000000000E+00  0.00000000000E+00  0.93003142142E+02  0.93003142142E+02  0.00000000000E+00 0. -1.
          1   -1    0    0  501    0 -0.00000000000E+00 -0.00000000000E+00 -0.95899935155E+03  0.95899935155E+03  0.00000000000E+00 0. -1.
         25    2    1    2    0    0  0.42550241567E+02 -0.56360783053E+02 -0.53626498881E+03  0.55515110131E+03  0.12500218456E+03 0.  0.
          2    1    1    2  501    0 -0.20188182133E+02  0.10722210711E+02 -0.40521148112E+03  0.40585572921E+03  0.00000000000E+00 0. -1.
          1    1    1    2  502    0 -0.22362059433E+02  0.45638572341E+02  0.75480260520E+02  0.90995663169E+02  0.00000000000E+00 0. -1.
         22    1    3    3    0    0 -0.48193665681E+01 -0.35647205949E+02 -0.46868308252E+03  0.47006146558E+03  0.00000000000E+00 0.  1.
         22    1    3    3    0    0  0.47369608135E+02 -0.20713577104E+02 -0.67581906286E+02  0.85089635729E+02  0.00000000000E+00 0.  1.
</event>
<event>
 7    1  0.6386201E-006  0.1292370E+03  0.7818608E-02  0.1235480E+00
          2   -1    0    0  502    0  0.00000000000E+00  0.00000000000E+00  0.25660542511E+03  0.25660542511E+03  0.00000000000E+00 0. -1.
          1   -1    0    0  501    0 -0.00000000000E+00 -0.00000000000E+00 -0.41171393741E+03  0.41171393741E+03  0.00000000000E+00 0. -1.
         25    2    1    2    0    0 -0.65435864001E+02  0.54355266943E+02 -0.11382971539E+03  0.18925942390E+03  0.12500231232E+03 0.  0.
          2    1    1    2  501    0  0.17779994780E+03 -0.11121411596E+02 -0.20771360656E+03  0.27364475069E+03  0.00000000000E+00 0. -1.
          1    1    1    2  502    0 -0.11236408380E+03 -0.43233855347E+02  0.16643480964E+03  0.20541518794E+03  0.00000000000E+00 0. -1.
         22    1    3    3    0    0  0.96698896284E+01  0.72907163791E+02 -0.61365858505E+02  0.95784810317E+02  0.00000000000E+00 0. -1.
         22    1    3    3    0    0 -0.75105753629E+02 -0.18551896847E+02 -0.52463856881E+02  0.93474613578E+02  0.00000000000E+00 0. -1.
</event>
<event>
 7    1  0.6386201E-006  0.9988299E+02  0.7818608E-02  0.1291588E+00
          2   -1    0    0  502    0  0.00000000000E+00  0.00000000000E+00  0.17220049894E+04  0.17220049894E+04  0.00000000000E+00 0. -1.
          1   -1    0    0  501    0 -0.00000000000E+00 -0.00000000000E+00 -0.17868880565E+03  0.17868880565E+03  0.00000000000E+00 0. -1.
         25    2    1    2    0    0 -0.97559402050E+02  0.13178771444E+03  0.49989655912E+03  0.54074735745E+03  0.12500118465E+03 0.  0.
          2    1    1    2  501    0  0.89038011484E+02 -0.42183709023E+02 -0.14105471241E+03  0.17205715530E+03  0.00000000000E+00 0. -1.
          1    1    1    2  502    0  0.85213905669E+01 -0.89604005417E+02  0.11844743370E+04  0.11878892823E+04  0.00000000000E+00 0. -1.
         22    1    3    3    0    0 -0.78739789948E+01  0.11245111691E+03  0.30973574017E+03  0.32961110719E+03  0.00000000000E+00 0. -1.
         22    1    3    3    0    0 -0.89685423056E+02  0.19336597525E+02  0.19016081895E+03  0.21113625026E+03  0.00000000000E+00 0. -1.
</event>
<event>
 7    1  0.6386201E-006  0.7337507E+02  0.7818608E-02  0.1358301E+00
          2   -1    0    0  502    0  0.00000000000E+00  0.00000000000E+00  0.86394887708E+03  0.86394887708E+03  0.00000000000E+00 0. -1.
          1   -1    0    0  501    0 -0.00000000000E+00 -0.00000000000E+00 -0.23049963775E+04  0.23049963775E+04  0.00000000000E+00 0. -1.
         25    2    1    2    0    0  0.14645105870E+02  0.50218280314E+01 -0.27587192429E+01  0.12598666416E+03  0.12500132452E+03 0.  0.
          2    1    1    2  501    0  0.44991238731E+01  0.67644948868E+02 -0.22383498035E+04  0.22393762354E+04  0.00000000000E+00 0. -1.
          1    1    1    2  502    0 -0.19144229743E+02 -0.72666776899E+02  0.80006102223E+03  0.80358235502E+03  0.00000000000E+00 0. -1.
         22    1    3    3    0    0 -0.78275932795E+01  0.54815112126E+02 -0.32072492144E+02  0.63989159131E+02  0.00000000000E+00 0. -1.
         22    1    3    3    0    0  0.22472699149E+02 -0.49793284095E+02  0.29313772901E+02  0.61997505028E+02  0.00000000000E+00 0. -1.
</event>
<event>
 7    1  0.6386201E-006  0.8892600E+02  0.7818608E-02  0.1438031E+00
          2   -1    0    0  502    0  0.00000000000E+00  0.00000000000E+00  0.70215729287E+03  0.70215729287E+03  0.00000000000E+00 0. -1.
          1   -1    0    0  501    0 -0.00000000000E+00 -0.00000000000E+00 -0.28439851194E+03  0.28439851194E+03  0.00000000000E+00 0. -1.
         25    2    1    2    0    0  0.58598073552E+02  0.15682505374E+02 -0.62176143655E+02  0.15219488321E+03  0.12497093437E+03 0.  0.
          2    1    1    2  501    0  0.29684729909E+02  0.42992378869E+00 -0.17287800253E+03  0.17540858526E+03  0.00000000000E+00 0. -1.
          1    1    1    2  502    0 -0.88282803461E+02 -0.16112429163E+02  0.65281292712E+03  0.65895233634E+03  0.00000000000E+00 0. -1.
         22    1    3    3    0    0  0.77818212792E+02 -0.22034706373E+02 -0.49713383195E+01  0.81030344512E+02  0.00000000000E+00 0. -1.
         22    1    3    3    0    0 -0.19220139239E+02  0.37717211748E+02 -0.57204805335E+02  0.71164538696E+02  0.00000000000E+00 0. -1.
</event>
<event>
 7    1  0.6386201E-006  0.2250917E+03  0.7818608E-02  0.1235137E+00
          2   -1    0    0  502    0  0.00000000000E+00  0.00000000000E+00  0.97756034756E+03  0.97756034756E+03  0.00000000000E+00 0. -1.
          1   -1    0    0  501    0 -0.00000000000E+00 -0.00000000000E+00 -0.44574770190E+03  0.44574770190E+03  0.00000000000E+00 0. -1.
         25    2    1    2    0    0  0.14900818447E+03 -0.17634889085E+03  0.33803100149E+03  0.42801019499E+03  0.12500159483E+03 0.  0.
          2    1    1    2  501    0 -0.61644948461E+02 -0.31809015205E+02 -0.37604165560E+03  0.38238624435E+03  0.00000000000E+00 0. -1.
          1    1    1    2  502    0 -0.87363236013E+02  0.20815790605E+03  0.56982329977E+03  0.61291161012E+03  0.00000000000E+00 0. -1.
         22    1    3    3    0    0  0.14035331108E+03 -0.90742806565E+02  0.16547543486E+03  0.23519232219E+03  0.00000000000E+00 0. -1.
         22    1    3    3    0    0  0.86548733931E+01 -0.85606084283E+02  0.17255556662E+03  0.19281787280E+03  0.00000000000E+00 0. -1.
</event>
<event>
 7    1  0.6386201E-006  0.1007362E+03  0.7818608E-02  0.1309103E+00
          2   -1    0    0  502    0  0.00000000000E+00  0.00000000000E+00  0.15997578073E+04  0.15997578073E+04  0.00000000000E+00 0. -1.
          1   -1    0    0  501    0 -0.00000000000E+00 -0.00000000000E+00 -0.14480683512E+04  0.14480683512E+04  0.00000000000E+00 0. -1.
         25    2    1    2    0    0 -0.43380657858E+02 -0.54127092810E+02  0.10744677125E+03  0.17883403238E+03  0.12500071534E+03 0.  0.
          2    1    1    2  501    0 -0.59824537188E+02  0.46785813433E+02 -0.14095138037E+04  0.14115583765E+04  0.00000000000E+00 0. -1.
          1    1    1    2  502    0  0.10320519505E+03  0.73412793775E+01  0.14537564885E+04  0.14574337496E+04  0.00000000000E+00 0. -1.
         22    1    3    3    0    0 -0.25518505481E+01 -0.80223685529E+02  0.26561870312E+02  0.84545163171E+02  0.00000000000E+00 0.  1.
         22    1    3    3    0    0 -0.40828807310E+02  0.26096592719E+02  0.80884900934E+02  0.94288869210E+02  0.00000000000E+00 0.  1.
</event>
<event>
 7    1  0.6386201E-006  0.1179985E+03  0.7818608E-02  0.1355931E+00
          2   -1    0    0  502    0  0.00000000000E+00  0.00000000000E+00  0.18051005538E+04  0.18051005538E+04  0.00000000000E+00 0. -1.
          1   -1    0    0  501    0 -0.00000000000E+00 -0.00000000000E+00 -0.70779561114E+03  0.70779561114E+03  0.00000000000E+00 0. -1.
         25    2    1    2    0    0 -0.87038929824E+02  0.12878473874E+03  0.55638235611E+03  0.59105606714E+03  0.12499865630E+03 0.  0.
          2    1    1    2  501    0  0.23118245076E+02 -0.36266590670E+02 -0.68721777705E+03  0.68856226440E+03  0.00000000000E+00 0. -1.
          1    1    1    2  502    0  0.63920684748E+02 -0.92518148067E+02  0.12281403636E+04  0.12332778334E+04  0.00000000000E+00 0. -1.
         22    1    3    3    0    0  0.62439726134E+01  0.95695235298E+02  0.21098549522E+03  0.23175729642E+03  0.00000000000E+00 0.  1.
         22    1    3    3    0    0 -0.93282902437E+02  0.33089503439E+02  0.34539686089E+03  0.35929877072E+03  0.00000000000E+00 0.  1.
</event>
<event>
 7    1  0.6386201E-006  0.1084226E+03  0.7818608E-02  0.1293904E+00
          2   -1    0    0  502    0  0.00000000000E+00  0.00000000000E+00  0.27016082259E+04  0.27016082259E+04  0.00000000000E+00 0. -1.
          1   -1    0    0  501    0 -0.00000000000E+00 -0.00000000000E+00 -0.41405308134E+03  0.41405308134E+03  0.00000000000E+00 0. -1.
         25    2    1    2    0    0  0.24148227901E+02 -0.30466681188E+02  0.15891534289E+03  0.20588862683E+03  0.12499873951E+03 0.  0.
          2    1    1    2  501    0 -0.13460925910E+02  0.11090756094E+03 -0.38190797383E+03  0.39791378975E+03  0.00000000000E+00 0. -1.
          1    1    1    2  502    0 -0.10687301991E+02 -0.80440879757E+02  0.25105477755E+04  0.25118588906E+04  0.00000000000E+00 0. -1.
         22    1    3    3    0    0 -0.15533839677E+02 -0.55718514223E+02  0.14610720664E+03  0.15714060212E+03  0.00000000000E+00 0.  1.
         22    1    3    3    0    0  0.39682067578E+02  0.25251833035E+02  0.12808136250E+02  0.48748024709E+02  0.00000000000E+00 0.  1.
</event>
<event>
 7    1  0.6386201E-006  0.6857717E+02  0.7818608E-02  0.1415829E+00
          2   -1    0    0  502    0  0.00000000000E+00  0.00000000000E+00  0.41307045024E+03  0.41307045024E+03  0.00000000000E+00 0. -1.
          1   -1    0    0  501    0 -0.00000000000E+00 -0.00000000000E+00 -0.11263416244E+04  0.11263416244E+04  0.00000000000E+00 0. -1.
         25    2    1    2    0    0 -0.28734641451E+01  0.27262798695E+02 -0.36881200079E+03  0.39037976059E+03  0.12499019386E+03 0.  0.
          2    1    1    2  501    0 -0.32700105594E+02  0.31764233117E+02 -0.74309039979E+03  0.74448747852E+03  0.00000000000E+00 0. -1.
          1    1    1    2  502    0  0.35573569739E+02 -0.59027031812E+02  0.39863122638E+03  0.40454483558E+03  0.00000000000E+00 0. -1.
         22    1    3    3    0    0  0.42066665905E+02  0.13052827490E+01 -0.41949446295E+02  0.59422758164E+02  0.00000000000E+00 0. -1.
         22    1    3    3    0    0 -0.44940130050E+02  0.25957515946E+02 -0.32686255449E+03  0.33095700242E+03  0.00000000000E+00 0. -1.
</event>
<event>
 7    1  0.6386201E-006  0.1192188E+03  0.7818608E-02  0.1419850E+00
          2   -1    0    0  502    0  0.00000000000E+00  0.00000000000E+00  0.31181570376E+03  0.31181570376E+03  0.00000000000E+00 0. -1.
          1   -1    0    0  501    0 -0.00000000000E+00 -0.00000000000E+00 -0.57896569313E+03  0.57896569313E+03  0.00000000000E+00 0. -1.
         25    2    1    2    0    0  0.73622450074E+02 -0.64644457940E+02 -0.31084832371E+03  0.34907300666E+03  0.12500445002E+03 0.  0.
          2    1    1    2  501    0  0.67562800219E+01 -0.24508008211E+02 -0.23598681978E+03  0.23735220432E+03  0.00000000000E+00 0. -1.
          1    1    1    2  502    0 -0.80378730096E+02  0.89152466151E+02  0.27968515411E+03  0.30435618591E+03  0.00000000000E+00 0. -1.
         22    1    3    3    0    0  0.37929203478E+01  0.25917286273E+02 -0.14668340315E+03  0.14900373396E+03  0.00000000000E+00 0. -1.
         22    1    3    3    0    0  0.69829529727E+02 -0.90561744213E+02 -0.16416492056E+03  0.20006927270E+03  0.00000000000E+00 0. -1.
</event>
<event>
 7    1  0.6386201E-006  0.8966845E+02  0.7818608E-02  0.1364311E+00
          2   -1    0    0  502    0  0.00000000000E+00  0.00000000000E+00  0.13433971178E+03  0.13433971178E+03  0.00000000000E+00 0. -1.
          1   -1    0    0  501    0 -0.00000000000E+00 -0.00000000000E+00 -0.70142369169E+03  0.70142369169E+03  0.00000000000E+00 0. -1.
         25    2    1    2    0    0 -0.14426887812E+02 -0.60683419245E+02 -0.64113208272E+02  0.15370809245E+03  0.12500024698E+03 0.  0.
          2    1    1    2  501    0 -0.51312730529E+02 -0.12225066952E+02 -0.56400015579E+03  0.56646149411E+03  0.00000000000E+00 0. -1.
          1    1    1    2  502    0  0.65739618341E+02  0.72908486196E+02  0.61029384153E+02  0.11559381692E+03  0.00000000000E+00 0. -1.
         22    1    3    3    0    0 -0.41275363752E+02 -0.35391945048E+02  0.23054817042E+02  0.59057345148E+02  0.00000000000E+00 0. -1.
         22    1    3    3    0    0  0.26848475939E+02 -0.25291474196E+02 -0.87168025313E+02  0.94650747299E+02  0.00000000000E+00 0. -1.
</event>
<event>
 7    1  0.6386201E-006  0.9604015E+02  0.7818608E-02  0.1365992E+00
          2   -1    0    0  502    0  0.00000000000E+00  0.00000000000E+00  0.69125167261E+03  0.69125167261E+03  0.00000000000E+00 0. -1.
          1   -1    0    0  501    0 -0.00000000000E+00 -0.00000000000E+00 -0.67665037988E+03  0.67665037988E+03  0.00000000000E+00 0. -1.
         25    2    1    2    0    0  0.66552365259E+02  0.12291129051E+03  0.69695952369E+02  0.20004579125E+03  0.12499756064E+03 0.  0.
          2    1    1    2  501    0 -0.31198012043E+02 -0.89616835175E+02 -0.60672076511E+03  0.61409655586E+03  0.00000000000E+00 0. -1.
          1    1    1    2  502    0 -0.35354353216E+02 -0.33294455332E+02  0.55162610548E+03  0.55375970537E+03  0.00000000000E+00 0. -1.
         22    1    3    3    0    0 -0.13495476340E+02  0.92933644322E+02  0.72491821908E+01  0.94187795234E+02  0.00000000000E+00 0. -1.
         22    1    3    3    0    0  0.80047841599E+02  0.29977646185E+02  0.62446770178E+02  0.10585799602E+03  0.00000000000E+00 0. -1.
</event>
<event>
 7    1  0.6386201E-006  0.1913508E+03  0.7818608E-02  0.1328578E+00
          2   -1    0    0  502    0  0.00000000000E+00  0.00000000000E+00  0.20918898658E+04  0.20918898658E+04  0.00000000000E+00 0. -1.
          1   -1    0    0  501    0 -0.00000000000E+00 -0.00000000000E+00 -0.12368071455E+04  0.12368071455E+04  0.00000000000E+00 0. -1.
         25    2    1    2    0    0  0.12262844959E+03 -0.16087390587E+03  0.20645724271E+03  0.31490904710E+03  0.12499985857E+03 0.  0.
          2    1    1    2  501    0 -0.32805860394E+02 -0.71977243111E+01 -0.11773831665E+04  0.11778621109E+04  0.00000000000E+00 0. -1.
          1    1    1    2  502    0 -0.89822589197E+02  0.16807163018E+03  0.18260086441E+04  0.18359258532E+04  0.00000000000E+00 0. -1.
         22    1    3    3    0    0  0.30153361566E+02  0.12218181521E+02  0.37180155264E+01  0.32746493138E+02  0.00000000000E+00 0.  1.
         22    1    3    3    0    0  0.92475088025E+02 -0.17309208739E+03  0.20273922718E+03  0.28216255397E+03  0.00000000000E+00 0.  1.
</event>
<event>
 7    1  0.6386201E-006  0.5365259E+02  0.7818608E-02  0.1448262E+00
          2   -1    0    0  502    0  0.00000000000E+00  0.00000000000E+00  0.24916807917E+04  0.24916807917E+04  0.00000000000E+00 0. -1.
          1   -1    0    0  501    0 -0.00000000000E+00 -0.00000000000E+00 -0.15036232255E+02  0.15036232255E+02  0.00000000000E+00 0. -1.
         25    2    1    2    0    0 -0.62920333595E+02  0.74524861036E+02  0.17816480967E+04  0.17886885702E+04  0.12499575014E+03 0.  0.
          2    1    1    2  501    0  0.31395777781E+02 -0.41577299509E+02  0.52666358675E+02  0.74081792858E+02  0.00000000000E+00 0. -1.
          1    1    1    2  502    0  0.31524555815E+02 -0.32947561527E+02  0.64233010407E+03  0.64394666085E+03  0.00000000000E+00 0. -1.
         22    1    3    3    0    0 -0.94643171862E+02  0.35568075704E+02  0.14160331231E+04  0.14196380608E+04  0.00000000000E+00 0.  1.
         22    1    3    3    0    0  0.31722838266E+02  0.38956785332E+02  0.36561497359E+03  0.36905050942E+03  0.00000000000E+00 0.  1.
</event>
<event>
 7    1  0.6386201E-006  0.4254735E+02  0.7818608E-02  0.1596709E+00
          2   -1    0    0  502    0  0.00000000000E+00  0.00000000000E+00  0.59769577986E+03  0.59769577986E+03  0.00000000000E+00 0. -1.
          1   -1    0    0  501    0 -0.00000000000E+00 -0.00000000000E+00 -0.71537069727E+03  0.71537069727E+03  0.00000000000E+00 0. -1.
         25    2    1    2    0    0 -0.47069763981E+02 -0.19526870064E+02  0.19407387752E+03  0.23640440095E+03  0.12500203805E+03 0.  0.
          2    1    1    2  501    0  0.29102173241E+02  0.31021483436E+02 -0.69325569356E+03  0.69455937512E+03  0.00000000000E+00 0. -1.
          1    1    1    2  502    0  0.17967590740E+02 -0.11494613373E+02  0.38150689863E+03  0.38210270106E+03  0.00000000000E+00 0. -1.
         22    1    3    3    0    0 -0.15488881870E+02 -0.26421682366E+02  0.20102167060E+03  0.20334139473E+03  0.00000000000E+00 0. -1.
         22    1    3    3    0    0 -0.31580882111E+02  0.68948123020E+01 -0.69477930787E+01  0.33063006219E+02  0.00000000000E+00 0. -1.
</event>
<event>
 7    1  0.6386201E-006  0.2971839E+03  0.7818608E-02  0.1262558E+00
          2   -1    0    0  502    0  0.00000000000E+00  0.00000000000E+00  0.47702709415E+03  0.47702709415E+03  0.00000000000E+00 0. -1.
          1   -1    0    0  501    0 -0.00000000000E+00 -0.00000000000E+00 -0.18084582372E+04  0.18084582372E+04  0.00000000000E+00 0. -1.
         25    2    1    2    0    0 -0.16866744394E+03  0.26620276749E+03 -0.28059110696E+03  0.44007854667E+03  0.12500055148E+03 0.  0.
          2    1    1    2  501    0  0.39914603754E+02 -0.10949187167E+01 -0.13931395920E+04  0.13937116980E+04  0.00000000000E+00 0. -1.
          1    1    1    2  502    0  0.12875284018E+03 -0.26510784877E+03  0.34229955590E+03  0.45169508665E+03  0.00000000000E+00 0. -1.
         22    1    3    3    0    0 -0.13871977915E+03  0.23774869666E+03 -0.17370121109E+03  0.32548384080E+03  0.00000000000E+00 0. -1.
         22    1    3    3    0    0 -0.29947664783E+02  0.28454070830E+02 -0.10688989587E+03  0.11459470587E+03  0.00000000000E+00 0. -1.
</event>
<event>
 7    1  0.6386201E-006  0.1622687E+03  0.7818608E-02  0.1399610E+00
          2   -1    0    0  502    0  0.00000000000E+00  0.00000000000E+00  0.12727861125E+04  0.12727861125E+04  0.00000000000E+00 0. -1.
          1   -1    0    0  501    0 -0.00000000000E+00 -0.00000000000E+00 -0.10182464835E+04  0.10182464835E+04  0.00000000000E+00 0. -1.
         25    2    1    2    0    0  0.15507182752E+03 -0.96293767961E+02 -0.45326368247E+03  0.50437507081E+03  0.12500593895E+03 0.  0.
          2    1    1    2  501    0 -0.13735862685E+02  0.17024291302E+02 -0.53393864941E+03  0.53438654713E+03  0.00000000000E+00 0. -1.
          1    1    1    2  502    0 -0.14133596483E+03  0.79269476659E+02  0.12417419609E+04  0.12522709780E+04  0.00000000000E+00 0. -1.
         22    1    3    3    0    0  0.24725965870E+00  0.20318414660E+02 -0.93886192926E+02  0.96059962179E+02  0.00000000000E+00 0.  1.
         22    1    3    3    0    0  0.15482456786E+03 -0.11661218262E+03 -0.35937748955E+03  0.40831510864E+03  0.00000000000E+00 0.  1.
</event>
<event>
 7    1  0.6386201E-006  0.1778334E+03  0.7818608E-02  0.1184040E+00
          2   -1    0    0  502    0  0.00000000000E+00  0.00000000000E+00  0.64617422650E+03  0.64617422650E+03  0.00000000000E+00 0. -1.
          1   -1    0    0  501    0 -0.00000000000E+00 -0.00000000000E+00 -0.42624919150E+03  0.42624919150E+03  0.00000000000E+00 0. -1.
         25    2    1    2    0    0  0.19024379267E+02  0.30435266069E+03  0.84748202342E+02  0.34029229033E+03  0.12499646387E+03 0.  0.
          2    1    1    2  501    0 -0.51482628459E+02 -0.15626411765E+03 -0.26066809318E+03  0.30824793641E+03  0.00000000000E+00 0. -1.
          1    1    1    2  502    0  0.32458249192E+02 -0.14808854304E+03  0.39584492584E+03  0.42388319126E+03  0.00000000000E+00 0. -1.
         22    1    3    3    0    0 -0.44706899949E+02  0.21393742816E+03  0.64078613104E+02  0.22775864139E+03  0.00000000000E+00 0. -1.
         22    1    3    3    0    0  0.63731279216E+02  0.90415232538E+02  0.20669589238E+02  0.11253364894E+03  0.00000000000E+00 0. -1.
</event>
<event>
 7    1  0.6386201E-006  0.9132128E+02  0.7818608E-02  0.1377845E+00
          2   -1    0    0  502    0  0.00000000000E+00  0.00000000000E+00  0.25384643895E+04  0.25384643895E+04  0.00000000000E+00 0. -1.
          1   -1    0    0  501    0 -0.00000000000E+00 -0.00000000000E+00 -0.11468197386E+03  0.11468197386E+03  0.00000000000E+00 0. -1.
         25    2    1    2    0    0  0.54758945179E+02  0.10672820237E+02  0.14353066809E+03  0.19833978731E+03  0.12500066951E+03 0.  0.
          2    1    1    2  501    0 -0.86630596497E+02 -0.44275032388E+02 -0.59864705153E+02  0.11423187675E+03  0.00000000000E+00 0. -1.
          1    1    1    2  502    0  0.31871651318E+02  0.33602212151E+02  0.23401164527E+04  0.23405746993E+04  0.00000000000E+00 0. -1.
         22    1    3    3    0    0 -0.18104996287E+02  0.96194196045E+01 -0.13962594452E+02  0.24804801308E+02  0.00000000000E+00 0.  1.
         22    1    3    3    0    0  0.72863941466E+02  0.10534006321E+01  0.15749326255E+03  0.17353498600E+03  0.00000000000E+00 0.  1.
</event>
<event>
 7    1  0.6386201E-006  0.4892159E+02  0.7818608E-02  0.1485238E+00
          2   -1    0    0  502    0  0.00000000000E+00  0.00000000000E+00  0.26800251884E+04  0.26800251884E+04  0.00000000000E+00 0. -1.
          1   -1    0    0  501    0 -0.00000000000E+00 -0.00000000000E+00 -0.20137730266E+02  0.20137730266E+02  0.00000000000E+00 0. -1.
         25    2    1    2    0    0  0.41788062586E+02  0.57453006597E+02  0.85322065685E+03  0.86525643266E+03  0.12504445144E+03 0.  0.
          2    1    1    2  501    0  0.24456739936E+01 -0.38247391085E+02  0.12821770459E+02  0.40413389412E+02  0.00000000000E+00 0. -1.
          1    1    1    2  502    0 -0.44233736580E+02 -0.19205615512E+02  0.17938450308E+04  0.17944930966E+04  0.00000000000E+00 0. -1.
         22    1    3    3    0    0  0.79942810485E+01  0.17439813546E+02  0.74276491775E+03  0.74301263695E+03  0.00000000000E+00 0.  1.
         22    1    3    3    0    0  0.33793781538E+02  0.40013193050E+02  0.11045573910E+03  0.12224379571E+03  0.00000000000E+00 0.  1.
</event>
<event>
 7    1  0.6386201E-006  0.8518023E+02  0.7818608E-02  0.1361854E+00
          2   -1    0    0  502    0  0.00000000000E+00  0.00000000000E+00  0.10435156185E+04  0.10435156185E+04  0.00000000000E+00 0. -1.
          1   -1    0    0  501    0 -0.00000000000E+00 -0.00000000000E+00 -0.14777797405E+03  0.14777797405E+03  0.00000000000E+00 0. -1.
         25    2    1    2    0    0  0.91883723523E+02 -0.32963764480E+02  0.30390429154E+03  0.34280050715E+03  0.12500056347E+03 0.  0.
          2    1    1    2  501    0 -0.42786519085E+02 -0.37176566144E+02 -0.11937585584E+03  0.13214907583E+03  0.00000000000E+00 0. -1.
          1    1    1    2  502    0 -0.49097204438E+02  0.70140330624E+02  0.71120920879E+03  0.71634400962E+03  0.00000000000E+00 0. -1.
         22    1    3    3    0    0 -0.28154477073E+01 -0.21360368167E+02  0.20222179464E+03  0.20336628605E+03  0.00000000000E+00 0. -1.
         22    1    3    3    0    0  0.94699171230E+02 -0.11603396313E+02  0.10168249690E+03  0.13943422110E+03  0.00000000000E+00 0. -1.
</event>
<event>
 7    1  0.6386201E-006  0.1115805E+03  0.7818608E-02  0.1422175E+00
          2   -1    0    0  502    0  0.00000000000E+00  0.00000000000E+00  0.46358055645E+03  0.46358055645E+03  0.00000000000E+00 0. -1.
          1   -1    0    0  501    0 -0.00000000000E+00 -0.00000000000E+00 -0.64050505905E+03  0.64050505905E+03  0.00000000000E+00 0. -1.
         25    2    1    2    0    0  0.78182039463E+02  0.11095396622E+03 -0.16731231489E+03  0.24909025649E+03  0.12501732379E+03 0.  0.
          2    1    1    2  501    0 -0.76584012671E+01 -0.25559051704E+02 -0.42462322212E+03  0.42546068795E+03  0.00000000000E+00 0. -1.
          1    1    1    2  502    0 -0.70523638196E+02 -0.85394914517E+02  0.41501103441E+03  0.42953467107E+03  0.00000000000E+00 0. -1.
         22    1    3    3    0    0  0.32874894338E+02  0.14475706314E+02  0.14176463888E+02  0.38617054255E+02  0.00000000000E+00 0. -1.
         22    1    3    3    0    0  0.45307145125E+02  0.96478259907E+02 -0.18148877878E+03  0.21047320223E+03  0.00000000000E+00 0. -1.
</event>
<event>
 7    1  0.6386201E-006  0.5109288E+02  0.7818608E-02  0.1456374E+00
          2   -1    0    0  502    0  0.00000000000E+00  0.00000000000E+00  0.58825741838E+02  0.58825741838E+02  0.00000000000E+00 0. -1.
          1   -1    0    0  501    0 -0.00000000000E+00 -0.00000000000E+00 -0.31362270650E+03  0.31362270650E+03  0.00000000000E+00 0. -1.
         25    2    1    2    0    0 -0.81046039956E+01 -0.36173327571E+00 -0.10908479979E+03  0.16610337974E+03  0.12500009504E+03 0.  0.
          2    1    1    2  501    0  0.72042962545E+01  0.51446679320E+02 -0.14629945903E+03  0.15524881452E+03  0.00000000000E+00 0. -1.
          1    1    1    2  502    0  0.90030774114E+00 -0.51084946044E+02  0.58729415556E+00  0.51096254078E+02  0.00000000000E+00 0. -1.
         22    1    3    3    0    0  0.17220792556E+02  0.19700054261E+02 -0.12665267046E+03  0.12932728548E+03  0.00000000000E+00 0.  1.
         22    1    3    3    0    0 -0.25325396552E+02 -0.20061787537E+02  0.17567870669E+02  0.36776094267E+02  0.00000000000E+00 0.  1.
</event>
<event>
 7    1  0.6386201E-006  0.5851426E+02  0.7818608E-02  0.1438431E+00
          2   -1    0    0  502    0  0.00000000000E+00  0.00000000000E+00  0.39296371227E+03  0.39296371227E+03  0.00000000000E+00 0. -1.
          1   -1    0    0  501    0 -0.00000000000E+00 -0.00000000000E+00 -0.10605632117E+04  0.10605632117E+04  0.00000000000E+00 0. -1.
         25    2    1    2    0    0  0.63689636598E+02 -0.70084430177E+02 -0.11691200233E+03  0.19560654179E+03  0.12500122296E+03 0.  0.
          2    1    1    2  501    0 -0.41939289576E+02  0.16264240672E+02 -0.90135698047E+03  0.90247871763E+03  0.00000000000E+00 0. -1.
          1    1    1    2  502    0 -0.21750347022E+02  0.53820189505E+02  0.35066948332E+03  0.35544166459E+03  0.00000000000E+00 0. -1.
         22    1    3    3    0    0  0.29604784947E+02  0.23003320715E+02 -0.82590232776E+02  0.90701392523E+02  0.00000000000E+00 0. -1.
         22    1    3    3    0    0  0.34084851651E+02 -0.93087750892E+02 -0.34321769553E+02  0.10490514927E+03  0.00000000000E+00 0. -1.
</event>
<event>
 7    1  0.6386201E-006  0.5742229E+02  0.7818608E-02  0.1420370E+00
          2   -1    0    0  502    0  0.00000000000E+00  0.00000000000E+00  0.42098058142E+04  0.42098058142E+04  0.00000000000E+00 0. -1.
          1   -1    0    0  501    0 -0.00000000000E+00 -0.00000000000E+00 -0.16122653294E+04  0.16122653294E+04  0.00000000000E+00 0. -1.
         25    2    1    2    0    0 -0.40180799804E+02 -0.10186133557E+03 -0.57538450567E+03  0.59890102310E+03  0.12499951098E+03 0.  0.
          2    1    1    2  501    0  0.14453432729E+02  0.50544285817E+02 -0.10242521876E+04  0.10256003950E+04  0.00000000000E+00 0. -1.
          1    1    1    2  502    0  0.25727367075E+02  0.51317049753E+02  0.41971771780E+04  0.41975697255E+04  0.00000000000E+00 0. -1.
         22    1    3    3    0    0 -0.41993613880E+02 -0.13068840415E+03 -0.47141549705E+03  0.49099439248E+03  0.00000000000E+00 0. -1.
         22    1    3    3    0    0  0.18128140761E+01  0.28827068584E+02 -0.10396900862E+03  0.10790663062E+03  0.00000000000E+00 0. -1.
</event>
<event>
 7    1  0.6386201E-006  0.2288287E+03  0.7818608E-02  0.1310596E+00
          2   -1    0    0  502    0  0.00000000000E+00  0.00000000000E+00  0.98276228196E+03  0.98276228196E+03  0.00000000000E+00 0. -1.
          1   -1    0    0  501    0 -0.00000000000E+00 -0.00000000000E+00 -0.37017323987E+03  0.37017323987E+03  0.00000000000E+00 0. -1.
         25    2    1    2    0    0 -0.14001688208E+03  0.15620180319E+03 -0.29032448030E+03  0.37936082785E+03  0.12499041267E+03 0.  0.
          2    1    1    2  501    0 -0.32645775632E+02 -0.47077414550E+01 -0.81707310704E+01  0.33980440586E+02  0.00000000000E+00 0. -1.
          1    1    1    2  502    0  0.17266265771E+03 -0.15149406173E+03  0.91108425346E+03  0.93959425339E+03  0.00000000000E+00 0. -1.
         22    1    3    3    0    0  0.21826998237E+02  0.17179997605E+02 -0.16787536235E+02  0.32455993939E+02  0.00000000000E+00 0. -1.
         22    1    3    3    0    0 -0.16184388032E+03  0.13902180558E+03 -0.27353694406E+03  0.34690483391E+03  0.00000000000E+00 0. -1.
</event>
<event>
 7    1  0.6386201E-006  0.1187296E+03  0.7818608E-02  0.1389968E+00
          2   -1    0    0  502    0  0.00000000000E+00  0.00000000000E+00  0.44756527169E+03  0.44756527169E+03  0.00000000000E+00 0. -1.
          1   -1    0    0  501    0 -0.00000000000E+00 -0.00000000000E+00 -0.60516240595E+03  0.60516240595E+03  0.00000000000E+00 0. -1.
         25    2    1    2    0    0  0.73846099500E+02  0.12787279192E+03 -0.22636081752E+02  0.19478501246E+03  0.12499644618E+03 0.  0.
          2    1    1    2  501    0 -0.10052389833E+02 -0.30682265828E+02 -0.48655581348E+03  0.48762589309E+03  0.00000000000E+00 0. -1.
          1    1    1    2  502    0 -0.63793709666E+02 -0.97190526092E+02  0.35159476097E+03  0.37031677209E+03  0.00000000000E+00 0. -1.
         22    1    3    3    0    0  0.34892943244E+02  0.12144349055E+03  0.29140611781E+02  0.12967349050E+03  0.00000000000E+00 0. -1.
         22    1    3    3    0    0  0.38953156255E+02  0.64293013743E+01 -0.51776693533E+02  0.65111521957E+02  0.00000000000E+00 0. -1.
</event>
<event>
 7    1  0.6386201E-006  0.9876744E+02  0.7818608E-02  0.1312281E+00
          2   -1    0    0  502    0  0.00000000000E+00  0.00000000000E+00  0.16338436982E+04  0.16338436982E+04  0.00000000000E+00 0. -1.
          1   -1    0    0  501    0 -0.00000000000E+00 -0.00000000000E+00 -0.78716847458E+02  0.78716847458E+02  0.00000000000E+00 0. -1.
         25    2    1    2    0    0 -0.31695647415E+02  0.12507019371E+03  0.17092335658E+03  0.24796578892E+03  0.12500028493E+03 0.  0.
          2    1    1    2  501    0 -0.34293063613E+02 -0.88880462412E+02  0.18781828793E+02  0.97100504136E+02  0.00000000000E+00 0. -1.
          1    1    1    2  502    0  0.65988711028E+02 -0.36189731297E+02  0.13654216654E+04  0.13674942526E+04  0.00000000000E+00 0. -1.
         22    1    3    3    0    0  0.46414156736E+02  0.25268208719E+02  0.53338809088E+02  0.75085184106E+02  0.00000000000E+00 0.  1.
         22    1    3    3    0    0 -0.78109804151E+02  0.99801984991E+02  0.11758454749E+03  0.17288060482E+03  0.00000000000E+00 0.  1.
</event>
<event>
 7    1  0.6386201E-006  0.4596167E+02  0.7818608E-02  0.1560782E+00
          2   -1    0    0  502    0  0.00000000000E+00  0.00000000000E+00  0.78535555418E+03  0.78535555418E+03  0.00000000000E+00 0. -1.
          1   -1    0    0  501    0 -0.00000000000E+00 -0.00000000000E+00 -0.12786292344E+03  0.12786292344E+03  0.00000000000E+00 0. -1.
         25    2    1    2    0    0  0.55612682497E+02  0.34012916487E+02  0.86531229900E+02  0.16544607034E+03  0.12504039147E+03 0.  0.
          2    1    1    2  501    0 -0.24653675056E+02 -0.50009592026E+00 -0.85879158463E+02  0.89349222985E+02  0.00000000000E+00 0. -1.
          1    1    1    2  502    0 -0.30959007441E+02 -0.33512820566E+02  0.65684055930E+03  0.65842318430E+03  0.00000000000E+00 0. -1.
         22    1    3    3    0    0  0.87774358616E+02  0.25287022782E+02  0.23770042336E+02  0.94386368001E+02  0.00000000000E+00 0.  1.
         22    1    3    3    0    0 -0.32161676120E+02  0.87258937045E+01  0.62761187564E+02  0.71059702337E+02  0.00000000000E+00 0.  1.
</event>
<event>
 7    1  0.6386201E-006  0.1422080E+03  0.7818608E-02  0.1386051E+00
          2   -1    0    0  502    0  0.00000000000E+00  0.00000000000E+00  0.22720014176E+04  0.22720014176E+04  0.00000000000E+00 0. -1.
          1   -1    0    0  501    0 -0.00000000000E+00 -0.00000000000E+00 -0.50263921865E+03  0.50263921865E+03  0.00000000000E+00 0. -1.
         25    2    1    2    0    0 -0.64029838652E+02  0.14403609426E+03  0.76594858777E+03  0.79192690316E+03  0.12499905662E+03 0.  0.
          2    1    1    2  501    0  0.76932418148E+02 -0.11938789203E+03 -0.47921758821E+03  0.49982153072E+03  0.00000000000E+00 0. -1.
          1    1    1    2  502    0 -0.12902579496E+02 -0.24648202233E+02  0.14826311994E+04  0.14828922024E+04  0.00000000000E+00 0. -1.
         22    1    3    3    0    0  0.13814911680E+02  0.11065532503E+03  0.51936391265E+03  0.53120083443E+03  0.00000000000E+00 0.  1.
         22    1    3    3    0    0 -0.77844750332E+02  0.33380769228E+02  0.24658467513E+03  0.26072606873E+03  0.00000000000E+00 0.  1.
</event>
<event>
 7    1  0.9564666E-006  0.1249252E+03  0.7818608E-02  0.1419243E+00
          2   -1    0    0  502    0  0.00000000000E+00  0.00000000000E+00  0.12879945795E+04  0.12879945795E+04  0.00000000000E+00 0. -1.
          1   -1    0    0  501    0 -0.00000000000E+00 -0.00000000000E+00 -0.17852730102E+04  0.17852730102E+04  0.00000000000E+00 0. -1.
         25    2    1    2    0    0 -0.13488844561E+03 -0.57867879570E+02 -0.97136228177E+03  0.99030993366E+03  0.12500199205E+03 0.  0.
          2    1    1    2  501    0  0.24373336967E+02 -0.23644057240E+00 -0.80120273454E+03  0.80157341354E+03  0.00000000000E+00 0. -1.
          1    1    1    2  502    0  0.11051510864E+03  0.58104320142E+02  0.12752865856E+04  0.12813842424E+04  0.00000000000E+00 0. -1.
         22    1    3    3    0    0 -0.26042982447E+02 -0.74827595238E+02 -0.31770611470E+03  0.32743637743E+03  0.00000000000E+00 0. -1.
         22    1    3    3    0    0 -0.10884546316E+03  0.16959715668E+02 -0.65365616706E+03  0.66287355623E+03  0.00000000000E+00 0. -1.
</event>
<event>
 7    1  0.6386201E-006  0.5637375E+02  0.7818608E-02  0.1459610E+00
          2   -1    0    0  502    0  0.00000000000E+00  0.00000000000E+00  0.63219823160E+03  0.63219823160E+03  0.00000000000E+00 0. -1.
          1   -1    0    0  501    0 -0.00000000000E+00 -0.00000000000E+00 -0.52334697539E+03  0.52334697539E+03  0.00000000000E+00 0. -1.
         25    2    1    2    0    0 -0.67416540248E+02  0.90285440656E+01 -0.26749520859E+03  0.30298427959E+03  0.12497712813E+03 0.  0.
          2    1    1    2  501    0  0.40720594581E+02 -0.38731159826E+02 -0.23412965577E+03  0.24077991045E+03  0.00000000000E+00 0. -1.
          1    1    1    2  502    0  0.26695945666E+02  0.29702615760E+02  0.61047612058E+03  0.61178101695E+03  0.00000000000E+00 0. -1.
         22    1    3    3    0    0 -0.36126023823E+02 -0.36348915846E+02 -0.23161064196E+03  0.23721261086E+03  0.00000000000E+00 0.  1.
         22    1    3    3    0    0 -0.31290516425E+02  0.45377459912E+02 -0.35884566629E+02  0.65771668736E+02  0.00000000000E+00 0.  1.
</event>
<event>
 7    1  0.6386201E-006  0.9208940E+02  0.7818608E-02  0.1407773E+00
          2   -1    0    0  502    0  0.00000000000E+00  0.00000000000E+00  0.31727198961E+03  0.31727198961E+03  0.00000000000E+00 0. -1.
          1   -1    0    0  501    0 -0.00000000000E+00 -0.00000000000E+00 -0.16482833156E+03  0.16482833156E+03  0.00000000000E+00 0. -1.
         25    2    1    2    0    0 -0.83239050798E+01 -0.96011805233E+02  0.69830184630E+01  0.15799073334E+03  0.12499902054E+03 0.  0.
          2    1    1    2  501    0 -0.33456320166E+02  0.13679919756E+02 -0.76009263608E+02  0.84165751454E+02  0.00000000000E+00 0. -1.
          1    1    1    2  502    0  0.41780225246E+02  0.82331885478E+02  0.22146990320E+03  0.23994383637E+03  0.00000000000E+00 0. -1.
         22    1    3    3    0    0 -0.41427160777E+02  0.11197283333E+02 -0.11132726897E+02  0.44334257773E+02  0.00000000000E+00 0. -1.
         22    1    3    3    0    0  0.33103255698E+02 -0.10720908857E+03  0.18115745360E+02  0.11365647557E+03  0.00000000000E+00 0. -1.
</event>
<event>
 7    1  0.6386201E-006  0.1555981E+03  0.7818608E-02  0.1259831E+00
          2   -1    0    0  502    0  0.00000000000E+00  0.00000000000E+00  0.60766668465E+03  0.60766668465E+03  0.00000000000E+00 0. -1.
          1   -1    0    0  501    0 -0.00000000000E+00 -0.00000000000E+00 -0.37784167323E+04  0.37784167323E+04  0.00000000000E+00 0. -1.
         25    2    1    2    0    0 -0.27747570209E+02 -0.85893338918E+02 -0.85754360187E+01  0.15442852127E+03  0.12500814676E+03 0.  0.
          2    1    1    2  501    0 -0.47987259286E+01  0.15714251464E+03 -0.36923644568E+04  0.36957099561E+04  0.00000000000E+00 0. -1.
          1    1    1    2  502    0  0.32546296137E+02 -0.71249175724E+02  0.53018984513E+03  0.53594493963E+03  0.00000000000E+00 0. -1.
         22    1    3    3    0    0  0.43271762541E+02 -0.68557521325E+02 -0.34613270438E+01  0.81145301457E+02  0.00000000000E+00 0. -1.
         22    1    3    3    0    0 -0.71019332750E+02 -0.17335817593E+02 -0.51141089749E+01  0.73283219815E+02  0.00000000000E+00 0. -1.
</event>
<event>
 7    1  0.6386201E-006  0.7583251E+02  0.7818608E-02  0.1437857E+00
          2   -1    0    0  502    0  0.00000000000E+00  0.00000000000E+00  0.36838228039E+03  0.36838228039E+03  0.00000000000E+00 0. -1.
          1   -1    0    0  501    0 -0.00000000000E+00 -0.00000000000E+00 -0.37435974596E+03  0.37435974596E+03  0.00000000000E+00 0. -1.
         25    2    1    2    0    0  0.14778381681E+02 -0.45693297328E+02 -0.54645610047E+02  0.14462621769E+03  0.12499728861E+03 0.  0.
          2    1    1    2  501    0 -0.14853686569E+02 -0.31536478290E+02 -0.26897212794E+03  0.27122165672E+03  0.00000000000E+00 0. -1.
          1    1    1    2  502    0  0.75304887914E-01  0.77229775619E+02  0.31764027242E+03  0.32689415194E+03  0.00000000000E+00 0. -1.
         22    1    3    3    0    0 -0.18588588596E+02 -0.60244966733E+02  0.16094616273E+02  0.65069411521E+02  0.00000000000E+00 0. -1.
         22    1    3    3    0    0  0.33366970278E+02  0.14551669405E+02 -0.70740226320E+02  0.79556806169E+02  0.00000000000E+00 0. -1.
</event>
<event>
 7    1  0.6386201E-006  0.3994859E+02  0.7818608E-02  0.1523170E+00
          2   -1    0    0  502    0  0.00000000000E+00  0.00000000000E+00  0.91994451495E+01  0.91994451495E+01  0.00000000000E+00 0. -1.
          1   -1    0    0  501    0 -0.00000000000E+00 -0.00000000000E+00 -0.13012628016E+04  0.13012628016E+04  0.00000000000E+00 0. -1.
         25    2    1    2    0    0  0.37202055758E+02  0.16513614836E+02 -0.61751125970E+03  0.63134924211E+03  0.12500006893E+03 0.  0.
          2    1    1    2  501    0 -0.10319073052E+02 -0.40783886909E+02 -0.39123377125E+03  0.39348910082E+03  0.00000000000E+00 0. -1.
          1    1    1    2  502    0 -0.26882982706E+02  0.24270272072E+02 -0.28331832554E+03  0.28562390386E+03  0.00000000000E+00 0. -1.
         22    1    3    3    0    0 -0.32175264534E+02  0.41044265414E+02 -0.35148469435E+03  0.35533275916E+03  0.00000000000E+00 0. -1.
         22    1    3    3    0    0  0.69377320292E+02 -0.24530650577E+02 -0.26602656535E+03  0.27601648295E+03  0.00000000000E+00 0. -1.
</event>
<event>
 7    1  0.6386201E-006  0.9633886E+02  0.7818608E-02  0.1384677E+00
          2   -1    0    0  502    0  0.00000000000E+00  0.00000000000E+00  0.66155391412E+03  0.66155391412E+03  0.00000000000E+00 0. -1.
          1   -1    0    0  501    0 -0.00000000000E+00 -0.00000000000E+00 -0.73280669443E+03  0.73280669443E+03  0.00000000000E+00 0. -1.
         25    2    1    2    0    0 -0.35244166206E+02 -0.69438792454E+02 -0.26743274946E+03  0.30530198362E+03  0.12500051427E+03 0.  0.
          2    1    1    2  501    0  0.76770404473E+02  0.69457826215E+02 -0.43975103307E+03  0.45177323484E+03  0.00000000000E+00 0. -1.
          1    1    1    2  502    0 -0.41526238267E+02 -0.19033761703E-01  0.63593100223E+03  0.63728539009E+03  0.00000000000E+00 0. -1.
         22    1    3    3    0    0 -0.92448684600E+01 -0.92969591696E+02 -0.24843085578E+03  0.26541797730E+03  0.00000000000E+00 0.  1.
         22    1    3    3    0    0 -0.25999297746E+02  0.23530799242E+02 -0.19001893687E+02  0.39884006318E+02  0.00000000000E+00 0.  1.
</event>
<event>
 7    1  0.6386201E-006  0.9011516E+02  0.7818608E-02  0.1319956E+00
          2   -1    0    0  502    0  0.00000000000E+00  0.00000000000E+00  0.12683503987E+04  0.12683503987E+04  0.00000000000E+00 0. -1.
          1   -1    0    0  501    0 -0.00000000000E+00 -0.00000000000E+00 -0.52106216785E+02  0.52106216785E+02  0.00000000000E+00 0. -1.
         25    2    1    2    0    0  0.18108483904E+02  0.11338681554E+03  0.30782860187E+03  0.35152236041E+03  0.12500013844E+03 0.  0.
          2    1    1    2  501    0  0.52130495772E+02 -0.56653381473E+02  0.25042268172E+02  0.80958689570E+02  0.00000000000E+00 0. -1.
          1    1    1    2  502    0 -0.70238979677E+02 -0.56733434070E+02  0.88337331188E+03  0.88797556551E+03  0.00000000000E+00 0. -1.
         22    1    3    3    0    0  0.70175032631E+01  0.52639424111E+02  0.27784838047E+03  0.28287784794E+03  0.00000000000E+00 0.  1.
         22    1    3    3    0    0  0.11090980641E+02  0.60747391432E+02  0.29980221400E+02  0.68644512472E+02  0.00000000000E+00 0.  1.
</event>
<event>
 7    1  0.6386201E-006  0.1467650E+03  0.7818608E-02  0.1235327E+00
          2   -1    0    0  502    0  0.00000000000E+00  0.00000000000E+00  0.22089585490E+04  0.22089585490E+04  0.00000000000E+00 0. -1.
          1   -1    0    0  501    0 -0.00000000000E+00 -0.00000000000E+00 -0.29718053047E+03  0.29718053047E+03  0.00000000000E+00 0. -1.
         25    2    1    2    0    0 -0.10241051745E+03 -0.67603943080E+02  0.74177348305E+01  0.17532418284E+03  0.12500135636E+03 0.  0.
          2    1    1    2  501    0  0.72161874477E+02 -0.77892579816E+02 -0.19721981545E+03  0.22398715527E+03  0.00000000000E+00 0. -1.
          1    1    1    2  502    0  0.30248642974E+02  0.14549652290E+03  0.21015800992E+04  0.21068277414E+04  0.00000000000E+00 0. -1.
         22    1    3    3    0    0 -0.31833523466E+02 -0.77449731042E+02 -0.36792905604E+02  0.91463391352E+02  0.00000000000E+00 0. -1.
         22    1    3    3    0    0 -0.70576993985E+02  0.98457879622E+01  0.44210640435E+02  0.83860791484E+02  0.00000000000E+00 0. -1.
</event>
<event>
 7    1  0.6386201E-006  0.7647063E+02  0.7818608E-02  0.1390963E+00
          2   -1    0    0  502    0  0.00000000000E+00  0.00000000000E+00  0.31945910082E+03  0.31945910082E+03  0.00000000000E+00 0. -1.
          1   -1    0    0  501    0 -0.00000000000E+00 -0.00000000000E+00 -0.18397328639E+04  0.18397328639E+04  0.00000000000E+00 0. -1.
         25    2    1    2    0    0 -0.50465078923E+02  0.37271838719E+02 -0.29811536093E+03  0.32929277990E+03  0.12500020928E+03 0.  0.
          2    1    1    2  501    0 -0.26286787626E+02 -0.42215193885E+02 -0.15207492024E+04  0.15215621099E+04  0.00000000000E+00 0. -1.
          1    1    1    2  502    0  0.76751866549E+02  0.49433551666E+01  0.29859080023E+03  0.30833707490E+03  0.00000000000E+00 0. -1.
         22    1    3    3    0    0 -0.32920826982E+02 -0.40613610343E+02 -0.17427928089E+03  0.18195195504E+03  0.00000000000E+00 0. -1.
         22    1    3    3    0    0 -0.17544251941E+02  0.77885449061E+02 -0.12383608003E+03  0.14734082486E+03  0.00000000000E+00 0. -1.
</event>
<event>
 7    1  0.6386201E-006  0.6111754E+02  0.7818608E-02  0.1505722E+00
          2   -1    0    0  502    0  0.00000000000E+00  0.00000000000E+00  0.23557932961E+03  0.23557932961E+03  0.00000000000E+00 0. -1.
          1   -1    0    0  501    0 -0.00000000000E+00 -0.00000000000E+00 -0.83963206670E+03  0.83963206670E+03  0.00000000000E+00 0. -1.
         25    2    1    2    0    0 -0.76908604027E+01  0.44395562293E+02 -0.73273915106E+02  0.15173908242E+03  0.12500226884E+03 0.  0.
          2    1    1    2  501    0  0.21232433437E+02  0.16066963949E+02 -0.72198589096E+03  0.72247670572E+03  0.00000000000E+00 0. -1.
          1    1    1    2  502    0 -0.13541573034E+02 -0.60462526242E+02  0.19120706897E+03  0.20099560817E+03  0.00000000000E+00 0. -1.
         22    1    3    3    0    0 -0.39423928699E+01 -0.37176870216E+02 -0.57478308807E+02  0.68566887956E+02  0.00000000000E+00 0.  1.
         22    1    3    3    0    0 -0.37484675327E+01  0.81572432510E+02 -0.15795606299E+02  0.83172194469E+02  0.00000000000E+00 0.  1.
</event>
<event>
 7    1  0.6386201E-006  0.1230728E+03  0.7818608E-02  0.1253618E+00
          2   -1    0    0  502    0  0.00000000000E+00  0.00000000000E+00  0.23557016208E+04  0.23557016208E+04  0.00000000000E+00 0. -1.
          1   -1    0    0  501    0 -0.00000000000E+00 -0.00000000000E+00 -0.45738215033E+03  0.45738215033E+03  0.00000000000E+00 0. -1.
         25    2    1    2    0    0 -0.13617914155E+03 -0.80901774769E+00  0.17819908286E+02  0.18570808061E+03  0.12499811586E+03 0.  0.
          2    1    1    2  501    0  0.52090375138E+02  0.91514472731E+02 -0.36427845979E+03  0.37919269793E+03  0.00000000000E+00 0. -1.
          1    1    1    2  502    0  0.84088766416E+02 -0.90705454983E+02  0.22447780220E+04  0.22481829926E+04  0.00000000000E+00 0. -1.
         22    1    3    3    0    0 -0.96758875495E+02  0.57149601210E+02  0.25383923648E+02  0.11520720674E+03  0.00000000000E+00 0.  1.
         22    1    3    3    0    0 -0.39420266059E+02 -0.57958618958E+02 -0.75640153618E+01  0.70500873867E+02  0.00000000000E+00 0.  1.
</event>
<event>
 7    1  0.6386201E-006  0.1837798E+03  0.7818608E-02  0.1273699E+00
          2   -1    0    0  502    0  0.00000000000E+00  0.00000000000E+00  0.17367591041E+04  0.17367591041E+04  0.00000000000E+00 0. -1.
          1   -1    0    0  501    0 -0.00000000000E+00 -0.00000000000E+00 -0.19044996764E+04  0.19044996764E+04  0.00000000000E+00 0. -1.
         25    2    1    2    0    0 -0.11158992666E+03 -0.78558107084E+02  0.42096197425E+03  0.45984514584E+03  0.12499954584E+03 0.  0.
          2    1    1    2  501    0  0.16926750540E+03  0.72887320284E+02 -0.18799021498E+04  0.18889140114E+04  0.00000000000E+00 0. -1.
          1    1    1    2  502    0 -0.57677578745E+02  0.56707868001E+01  0.12911996032E+04  0.12924996233E+04  0.00000000000E+00 0. -1.
         22    1    3    3    0    0 -0.10674975669E+03 -0.40485527790E+00  0.24521799832E+03  0.26744633324E+03  0.00000000000E+00 0. -1.
         22    1    3    3    0    0 -0.48401699699E+01 -0.78153251806E+02  0.17574397593E+03  0.19239881260E+03  0.00000000000E+00 0. -1.
</event>
<event>
 7    1  0.7467501E-006  0.1567596E+03  0.7818608E-02  0.1349459E+00
          2   -1    0    0  502    0  0.00000000000E+00  0.00000000000E+00  0.18105961618E+04  0.18105961618E+04  0.00000000000E+00 0. -1.
          1   -1    0    0  501    0 -0.00000000000E+00 -0.00000000000E+00 -0.75765300342E+03  0.75765300342E+03  0.00000000000E+00 0. -1.
         25    2    1    2    0    0 -0.44178738940E+02  0.15176755534E+03 -0.32697822068E+03  0.38408649269E+03  0.12499010056E+03 0.  0.
          2    1    1    2  501    0  0.33882947043E+02  0.46767381350E+01 -0.39793717853E+03  0.39940446171E+03  0.00000000000E+00 0. -1.
          1    1    1    2  502    0  0.10295791897E+02 -0.15644429348E+03  0.17778585576E+04  0.17847582109E+04  0.00000000000E+00 0. -1.
         22    1    3    3    0    0 -0.15958403912E+02 -0.21035071918E+02 -0.41127482027E+02  0.48873455821E+02  0.00000000000E+00 0. -1.
         22    1    3    3    0    0 -0.28220335028E+02  0.17280262726E+03 -0.28585073865E+03  0.33521303687E+03  0.00000000000E+00 0. -1.
</event>
<event>
 7    1  0.6386201E-006  0.5038602E+02  0.7818608E-02  0.1572930E+00
          2   -1    0    0  502    0  0.00000000000E+00  0.00000000000E+00  0.21586510252E+03  0.21586510252E+03  0.00000000000E+00 0. -1.
          1   -1    0    0  501    0 -0.00000000000E+00 -0.00000000000E+00 -0.23428408670E+03  0.23428408670E+03  0.00000000000E+00 0. -1.
         25    2    1    2    0    0  0.35142494462E+02  0.77465871932E+01  0.79528758166E+02  0.15246682192E+03  0.12500521541E+03 0.  0.
          2    1    1    2  501    0  0.18243136714E+02 -0.10076394762E+02 -0.19005629921E+03  0.19119556124E+03  0.00000000000E+00 0. -1.
          1    1    1    2  502    0 -0.53385631176E+02  0.23298075687E+01  0.92108556865E+02  0.10648680607E+03  0.00000000000E+00 0. -1.
         22    1    3    3    0    0  0.69730798419E+02  0.33211742439E+02  0.77579211943E+02  0.10947117525E+03  0.00000000000E+00 0. -1.
         22    1    3    3    0    0 -0.34588303957E+02 -0.25465155246E+02  0.19495462233E+01  0.42995646672E+02  0.00000000000E+00 0. -1.
</event>
<event>
 7    1  0.6386201E-006  0.6983501E+02  0.7818608E-02  0.1493074E+00
          2   -1    0    0  502    0  0.00000000000E+00  0.00000000000E+00  0.36949330483E+03  0.36949330483E+03  0.00000000000E+00 0. -1.
          1   -1    0    0  501    0 -0.00000000000E+00 -0.00000000000E+00 -0.22937879455E+04  0.22937879455E+04  0.00000000000E+00 0. -1.
         25    2    1    2    0    0  0.76039286784E+02  0.32065945154E+02 -0.10066970524E+04  0.10177790799E+04  0.12500040883E+03 0.  0.
          2    1    1    2  501    0 -0.67723606937E+02 -0.80443290027E+01 -0.12801972470E+04  0.12820125543E+04  0.00000000000E+00 0. -1.
          1    1    1    2  502    0 -0.83156798461E+01 -0.24021616152E+02  0.36259965869E+03  0.36348961616E+03  0.00000000000E+00 0. -1.
         22    1    3    3    0    0  0.35904741775E+02 -0.19129168515E+02 -0.80118434741E+03  0.80221657556E+03  0.00000000000E+00 0. -1.
         22    1    3    3    0    0  0.40134545009E+02  0.51195113669E+02 -0.20551270498E+03  0.21556250433E+03  0.00000000000E+00 0. -1.
</event>
<event>
 7    1  0.6386201E-006  0.8439289E+02  0.7818608E-02  0.1442475E+00
          2   -1    0    0  502    0  0.00000000000E+00  0.00000000000E+00  0.54302061029E+03  0.54302061029E+03  0.00000000000E+00 0. -1.
          1   -1    0    0  501    0 -0.00000000000E+00 -0.00000000000E+00 -0.22812598464E+03  0.22812598464E+03  0.00000000000E+00 0. -1.
         25    2    1    2    0    0  0.59635863216E+02 -0.32066806822E+02  0.18159893600E+02  0.14332082609E+03  0.12500544458E+03 0.  0.
          2    1    1    2  501    0 -0.60967217538E+02  0.62298718424E+02 -0.15352794778E+03  0.17654733836E+03  0.00000000000E+00 0. -1.
          1    1    1    2  502    0  0.13313543224E+01 -0.30231911602E+02  0.45026267982E+03  0.45127843049E+03  0.00000000000E+00 0. -1.
         22    1    3    3    0    0 -0.20401249696E+02 -0.52730503383E+02  0.21756635326E+02  0.60581087452E+02  0.00000000000E+00 0. -1.
         22    1    3    3    0    0  0.80037112911E+02  0.20663696562E+02 -0.35967417253E+01  0.82739738638E+02  0.00000000000E+00 0. -1.
</event>
<event>
 7    1  0.6386201E-006  0.1116133E+03  0.7818608E-02  0.1332437E+00
          2   -1    0    0  502    0  0.00000000000E+00  0.00000000000E+00  0.14008117300E+03  0.14008117300E+03  0.00000000000E+00 0. -1.
          1   -1    0    0  501    0 -0.00000000000E+00 -0.00000000000E+00 -0.97295893045E+03  0.97295893045E+03  0.00000000000E+00 0. -1.
         25    2    1    2    0    0 -0.27761128260E+02  0.10578007574E+03 -0.21831310810E+03  0.27430770547E+03  0.12499599772E+03 0.  0.
          2    1    1    2  501    0 -0.50364537250E+02 -0.23695005844E+02 -0.69660916578E+03  0.69882928513E+03  0.00000000000E+00 0. -1.
          1    1    1    2  502    0  0.78125665511E+02 -0.82085069891E+02  0.82044516418E+02  0.13990311285E+03  0.00000000000E+00 0. -1.
         22    1    3    3    0    0  0.14318219051E+02  0.12025638689E+03 -0.15012355799E+03  0.19288258772E+03  0.00000000000E+00 0.  1.
         22    1    3    3    0    0 -0.42079347312E+02 -0.14476311154E+02 -0.68189550111E+02  0.81425117741E+02  0.00000000000E+00 0.  1.
</event>
<event>
 7    1  0.6386201E-006  0.5531721E+02  0.7818608E-02  0.1542038E+00
          2   -1    0    0  502    0  0.00000000000E+00  0.00000000000E+00  0.15880683555E+04  0.15880683555E+04  0.00000000000E+00 0. -1.
          1   -1    0    0  501    0 -0.00000000000E+00 -0.00000000000E+00 -0.88821473316E+03  0.88821473316E+03  0.00000000000E+00 0. -1.
         25    2    1    2    0    0  0.35419648490E+02  0.41457707064E+01 -0.39072053242E+03  0.41177153561E+03  0.12498609591E+03 0.  0.
          2    1    1    2  501    0 -0.58515534601E+02 -0.35143462675E+01 -0.48511951245E+03  0.48864850330E+03  0.00000000000E+00 0. -1.
          1    1    1    2  502    0  0.23095886111E+02 -0.63142443895E+00  0.15756936672E+04  0.15758630498E+04  0.00000000000E+00 0. -1.
         22    1    3    3    0    0 -0.22858385937E+02 -0.38204835399E+01 -0.31518264231E+03  0.31603354239E+03  0.00000000000E+00 0.  1.
         22    1    3    3    0    0  0.58278034426E+02  0.79662542463E+01 -0.75537890108E+02  0.95737993218E+02  0.00000000000E+00 0.  1.
</event>
<event>
 7    1  0.6386201E-006  0.1642726E+03  0.7818608E-02  0.1300684E+00
          2   -1    0    0  502    0  0.00000000000E+00  0.00000000000E+00  0.15781162160E+04  0.15781162160E+04  0.00000000000E+00 0. -1.
          1   -1    0    0  501    0 -0.00000000000E+00 -0.00000000000E+00 -0.15045271161E+03  0.15045271161E+03  0.00000000000E+00 0. -1.
         25    2    1    2    0    0  0.17957295783E+03  0.14052096131E+02  0.21855560341E+03  0.30957472786E+03  0.12500420698E+03 0.  0.
          2    1    1    2  501    0 -0.15179296985E+03 -0.55985863674E+02 -0.41779443597E+02  0.16709591418E+03  0.00000000000E+00 0. -1.
          1    1    1    2  502    0 -0.27779987974E+02  0.41933767543E+02  0.12508873446E+04  0.12518982856E+04  0.00000000000E+00 0. -1.
         22    1    3    3    0    0  0.82562191548E+02 -0.32143332292E+02  0.31832731340E+02  0.94143677794E+02  0.00000000000E+00 0. -1.
         22    1    3    3    0    0  0.97010766279E+02  0.46195428423E+02  0.18672287207E+03  0.21543105007E+03  0.00000000000E+00 0. -1.
</event>
<event>
 7    1  0.6386201E-006  0.1126710E+03  0.7818608E-02  0.1362751E+00
          2   -1    0    0  502    0  0.00000000000E+00  0.00000000000E+00  0.31391958679E+03  0.31391958679E+03  0.00000000000E+00 0. -1.
          1   -1    0    0  501    0 -0.00000000000E+00 -0.00000000000E+00 -0.16813075333E+04  0.16813075333E+04  0.00000000000E+00 0. -1.
         25    2    1    2    0    0 -0.36384652106E+00 -0.13572014956E+03 -0.33754327081E+02  0.18757563145E+03  0.12500068614E+03 0.  0.
          2    1    1    2  501    0  0.32181401364E+02  0.10749753065E+03 -0.15667116078E+04  0.15707248721E+04  0.00000000000E+00 0. -1.
          1    1    1    2  502    0 -0.31817554842E+02  0.28222618914E+02  0.23307798834E+03  0.23692661662E+03  0.00000000000E+00 0. -1.
         22    1    3    3    0    0 -0.55851937888E+02 -0.82440530065E+02 -0.45984190499E+02  0.10968329745E+03  0.00000000000E+00 0.  1.
         22    1    3    3    0    0  0.55488091367E+02 -0.53279619495E+02  0.12229863417E+02  0.77892334002E+02  0.00000000000E+00 0.  1.
</event>
<event>
 7    1  0.6386201E-006  0.1391056E+03  0.7818608E-02  0.1339094E+00
          2   -1    0    0  502    0  0.00000000000E+00  0.00000000000E+00  0.40314505074E+03  0.40314505074E+03  0.00000000000E+00 0. -1.
          1   -1    0    0  501    0 -0.00000000000E+00 -0.00000000000E+00 -0.24010681952E+04  0.24010681952E+04  0.00000000000E+00 0. -1.
         25    2    1    2    0    0  0.12017486319E+03 -0.85693881302E+02 -0.95266907818E+02  0.21560515283E+03  0.12499743664E+03 0.  0.
          2    1    1    2  501    0  0.11154627600E+02  0.40638412862E+02 -0.22313734654E+04  0.22317713701E+04  0.00000000000E+00 0. -1.
          1    1    1    2  502    0 -0.13132949079E+03  0.45055468440E+02  0.32871722877E+03  0.35683672299E+03  0.00000000000E+00 0. -1.
         22    1    3    3    0    0 -0.10312521258E+02 -0.70032694932E+01  0.20668456983E+02  0.24136673183E+02  0.00000000000E+00 0.  1.
         22    1    3    3    0    0  0.13048738445E+03 -0.78690611809E+02 -0.11593536480E+03  0.19146847965E+03  0.00000000000E+00 0.  1.
</event>
<event>
 7    1  0.6386201E-006  0.1207195E+03  0.7818608E-02  0.1395739E+00
          2   -1    0    0  502    0  0.00000000000E+00  0.00000000000E+00  0.95632931569E+03  0.95632931569E+03  0.00000000000E+00 0. -1.
          1   -1    0    0  501    0 -0.00000000000E+00 -0.00000000000E+00 -0.22454222013E+04  0.22454222013E+04  0.00000000000E+00 0. -1.
         25    2    1    2    0    0  0.99726590111E+02 -0.18420075234E+02  0.16593854657E+03  0.23117934972E+03  0.12499439409E+03 0.  0.
          2    1    1    2  501    0 -0.11168879852E+03  0.46282576552E+02 -0.22108462291E+04  0.22141493883E+04  0.00000000000E+00 0. -1.
          1    1    1    2  502    0  0.11962208405E+02 -0.27862501318E+02  0.75581479692E+03  0.75642277904E+03  0.00000000000E+00 0. -1.
         22    1    3    3    0    0 -0.86814002301E+01  0.34709796757E+02  0.63330739877E+02  0.72738705751E+02  0.00000000000E+00 0. -1.
         22    1    3    3    0    0  0.10840799034E+03 -0.53129871991E+02  0.10260780670E+03  0.15844064397E+03  0.00000000000E+00 0. -1.
</event>
<event>
 7    1  0.6386201E-006  0.1105540E+03  0.7818608E-02  0.1294892E+00
          2   -1    0    0  502    0  0.00000000000E+00  0.00000000000E+00  0.78873109092E+03  0.78873109092E+03  0.00000000000E+00 0. -1.
          1   -1    0    0  501    0 -0.00000000000E+00 -0.00000000000E+00 -0.65238468257E+03  0.65238468257E+03  0.00000000000E+00 0. -1.
         25    2    1    2    0    0 -0.45446886427E+02 -0.39332515122E+02  0.60275378137E+03  0.61850614660E+03  0.12500106477E+03 0.  0.
          2    1    1    2  501    0  0.11099255960E+03 -0.45071345048E+01 -0.63068150835E+03  0.64038959042E+03  0.00000000000E+00 0. -1.
          1    1    1    2  502    0 -0.65545673171E+02  0.43839649627E+02  0.16427413533E+03  0.18222003647E+03  0.00000000000E+00 0. -1.
         22    1    3    3    0    0  0.27398028264E+02 -0.36935782150E+02  0.94974524894E+02  0.10552281429E+03  0.00000000000E+00 0. -1.
         22    1    3    3    0    0 -0.72844914691E+02 -0.23967329717E+01  0.50777925647E+03  0.51298333231E+03  0.00000000000E+00 0. -1.
</event>
<event>
 7    1  0.6386201E-006  0.1279115E+03  0.7818608E-02  0.1428679E+00
          2   -1    0    0  502    0  0.00000000000E+00  0.00000000000E+00  0.37285780934E+04  0.37285780934E+04  0.00000000000E+00 0. -1.
          1   -1    0    0  501    0 -0.00000000000E+00 -0.00000000000E+00 -0.15760662717E+03  0.15760662717E+03  0.00000000000E+00 0. -1.
         25    2    1    2    0    0 -0.10623746704E+03  0.38010134860E+02  0.68740634955E+03  0.70772976596E+03  0.12499104957E+03 0.  0.
          2    1    1    2  501    0 -0.10407415356E+02  0.19550714196E+02 -0.14520932533E+03  0.14688870917E+03  0.00000000000E+00 0. -1.
          1    1    1    2  502    0  0.11664488240E+03 -0.57560849057E+02  0.30287744420E+04  0.30315662455E+04  0.00000000000E+00 0. -1.
         22    1    3    3    0    0 -0.48357613744E+02 -0.44073336803E+02  0.21365892566E+03  0.22345257738E+03  0.00000000000E+00 0.  1.
         22    1    3    3    0    0 -0.57879853300E+02  0.82083471663E+02  0.47374742389E+03  0.48427718858E+03  0.00000000000E+00 0.  1.
</event>
<event>
 7    1  0.6386201E-006  0.1822890E+03  0.7818608E-02  0.1246928E+00
          2   -1    0    0  502    0  0.00000000000E+00  0.00000000000E+00  0.13669629039E+03  0.13669629039E+03  0.00000000000E+00 0. -1.
          1   -1    0    0  501    0 -0.00000000000E+00 -0.00000000000E+00 -0.14275229670E+04  0.14275229670E+04  0.00000000000E+00 0. -1.
         25    2    1    2    0    0 -0.12339462705E+03  0.82112377193E+02 -0.82938674253E+02  0.21088568829E+03  0.12500109346E+03 0.  0.
          2    1    1    2  501    0 -0.52138524299E+02  0.55302861563E+02 -0.11053475074E+04  0.11079575553E+04  0.00000000000E+00 0. -1.
          1    1    1    2  502    0  0.17553315135E+03 -0.13741523876E+03 -0.10254049500E+03  0.24537601386E+03  0.00000000000E+00 0. -1.
         22    1    3    3    0    0 -0.19935306026E+02  0.32334102822E+02  0.31077722623E+02  0.49078869945E+02  0.00000000000E+00 0.  1.
         22    1    3    3    0    0 -0.10345932102E+03  0.49778274370E+02 -0.11401639688E+03  0.16180681834E+03  0.00000000000E+00 0.  1.
</event>
<event>
 7    1  0.6386201E-006  0.3322751E+02  0.7818608E-02  0.1648634E+00
          2   -1    0    0  502    0  0.00000000000E+00  0.00000000000E+00  0.14398970328E+04  0.14398970328E+04  0.00000000000E+00 0. -1.
          1   -1    0    0  501    0 -0.00000000000E+00 -0.00000000000E+00 -0.83977858559E+02  0.83977858559E+02  0.00000000000E+00 0. -1.
         25    2    1    2    0    0  0.35100488220E+02  0.20965262524E+02  0.26318978431E+02  0.13412237331E+03  0.12499814355E+03 0.  0.
          2    1    1    2  501    0 -0.18942050385E+01 -0.20072639217E+02 -0.26470844324E+02  0.33274681923E+02  0.00000000000E+00 0. -1.
          1    1    1    2  502    0 -0.33206283181E+02 -0.89262330718E+00  0.13560710401E+04  0.13564778361E+04  0.00000000000E+00 0. -1.
         22    1    3    3    0    0 -0.21676697422E+02  0.54585322822E+02  0.33720931948E+02  0.67723983419E+02  0.00000000000E+00 0.  1.
         22    1    3    3    0    0  0.56777185642E+02 -0.33620060298E+02 -0.74019535167E+01  0.66398389888E+02  0.00000000000E+00 0.  1.
</event>
<event>
 7    1  0.6386201E-006  0.5727614E+02  0.7818608E-02  0.1472627E+00
          2   -1    0    0  502    0  0.00000000000E+00  0.00000000000E+00  0.15837088252E+04  0.15837088252E+04  0.00000000000E+00 0. -1.
          1   -1    0    0  501    0 -0.00000000000E+00 -0.00000000000E+00 -0.10479045851E+04  0.10479045851E+04  0.00000000000E+00 0. -1.
         25    2    1    2    0    0  0.27537780756E+02  0.72568876251E+02  0.52121002999E+03  0.54158060387E+03  0.12500033583E+03 0.  0.
          2    1    1    2  501    0  0.12857843923E+02 -0.33400461791E+02 -0.10366581190E+04  0.10372757448E+04  0.00000000000E+00 0. -1.
          1    1    1    2  502    0 -0.40395624679E+02 -0.39168414460E+02  0.10512523292E+04  0.10527570617E+04  0.00000000000E+00 0. -1.
         22    1    3    3    0    0  0.48118781401E+02 -0.18954655206E+02  0.22517077241E+03  0.23103370496E+03  0.00000000000E+00 0. -1.
         22    1    3    3    0    0 -0.20581000645E+02  0.91523531458E+02  0.29603925758E+03  0.31054689892E+03  0.00000000000E+00 0. -1.
</event>
<event>
 7    1  0.6386201E-006  0.1476513E+03  0.7818608E-02  0.1304902E+00
          2   -1    0    0  502    0  0.00000000000E+00  0.00000000000E+00  0.44512619150E+03  0.44512619150E+03  0.00000000000E+00 0. -1.
          1   -1    0    0  501    0 -0.00000000000E+00 -0.00000000000E+00 -0.27174694112E+04  0.27174694112E+04  0.00000000000E+00 0. -1.
         25    2    1    2    0    0  0.13269488539E+03 -0.82990369361E+02 -0.63340408080E+03  0.66432004933E+03  0.12500025740E+03 0.  0.
          2    1    1    2  501    0 -0.14435332545E+03  0.30429611211E+02 -0.20642780311E+04  0.20695428561E+04  0.00000000000E+00 0. -1.
          1    1    1    2  502    0  0.11658440060E+02  0.52560758150E+02  0.42533889216E+03  0.42873269726E+03  0.00000000000E+00 0. -1.
         22    1    3    3    0    0  0.15515551626E+03 -0.58990205059E+02 -0.49597675656E+03  0.52301627276E+03  0.00000000000E+00 0. -1.
         22    1    3    3    0    0 -0.22460630874E+02 -0.24000164302E+02 -0.13742732424E+03  0.14130377657E+03  0.00000000000E+00 0. -1.
</event>
<event>
 7    1  0.6386201E-006  0.1477383E+03  0.7818608E-02  0.1296865E+00
          2   -1    0    0  502    0  0.00000000000E+00  0.00000000000E+00  0.10579773571E+04  0.10579773571E+04  0.00000000000E+00 0. -1.
          1   -1    0    0  501    0 -0.00000000000E+00 -0.00000000000E+00 -0.12997298579E+04  0.12997298579E+04  0.00000000000E+00 0. -1.
         25    2    1    2    0    0  0.14704597096E+03 -0.11797492655E+03  0.63002092060E+03  0.66939647962E+03  0.12499874263E+03 0.  0.
          2    1    1    2  501    0 -0.13407221046E+03  0.61508210957E+02 -0.12737084105E+04  0.12822214055E+04  0.00000000000E+00 0. -1.
          1    1    1    2  502    0 -0.12973760500E+02  0.56466715592E+02  0.40193498910E+03  0.40608932994E+03  0.00000000000E+00 0. -1.
         22    1    3    3    0    0  0.54092531205E+02 -0.10943044340E+03  0.25182866669E+03  0.27985478600E+03  0.00000000000E+00 0.  1.
         22    1    3    3    0    0  0.92953439755E+02 -0.85444831459E+01  0.37819225390E+03  0.38954169362E+03  0.00000000000E+00 0.  1.
</event>
<event>
 7    1  0.6386201E-006  0.1024109E+03  0.7818608E-02  0.1318670E+00
          2   -1    0    0  502    0  0.00000000000E+00  0.00000000000E+00  0.21397160825E+03  0.21397160825E+03  0.00000000000E+00 0. -1.
          1   -1    0    0  501    0 -0.00000000000E+00 -0.00000000000E+00 -0.27999005693E+03  0.27999005693E+03  0.00000000000E+00 0. -1.
         25    2    1    2    0    0  0.89624274838E+02  0.23673502040E+01 -0.16863993255E+03  0.22825949595E+03  0.12499942261E+03 0.  0.
          2    1    1    2  501    0 -0.75588794477E+01 -0.68110400276E+02 -0.46804241665E+02  0.82986747870E+02  0.00000000000E+00 0. -1.
          1    1    1    2  502    0 -0.82065395390E+02  0.65743050072E+02  0.14942572554E+03  0.18271542137E+03  0.00000000000E+00 0. -1.
         22    1    3    3    0    0  0.54648550665E+01  0.46364907869E+02 -0.10220265680E+03  0.11236081336E+03  0.00000000000E+00 0.  1.
         22    1    3    3    0    0  0.84159419771E+02 -0.43997557665E+02 -0.66437275755E+02  0.11589868259E+03  0.00000000000E+00 0.  1.
</event>
<event>
 7    1  0.6386201E-006  0.6494626E+02  0.7818608E-02  0.1422488E+00
          2   -1    0    0  502    0  0.00000000000E+00  0.00000000000E+00  0.81451038761E+03  0.81451038761E+03  0.00000000000E+00 0. -1.
          1   -1    0    0  501    0 -0.00000000000E+00 -0.00000000000E+00 -0.25540676398E+02  0.25540676398E+02  0.00000000000E+00 0. -1.
         25    2    1    2    0    0  0.43690971467E+02 -0.50673984895E+02  0.29330768405E+03  0.32577738008E+03  0.12499900047E+03 0.  0.
          2    1    1    2  501    0 -0.42783105929E+02 -0.16152158924E+02  0.71464722101E+02  0.84843932581E+02  0.00000000000E+00 0. -1.
          1    1    1    2  502    0 -0.90786553868E+00  0.66826143819E+02  0.42419730507E+03  0.42942975135E+03  0.00000000000E+00 0. -1.
         22    1    3    3    0    0  0.22945310666E+02  0.31670324740E+02  0.17989347415E+03  0.18409551540E+03  0.00000000000E+00 0.  1.
         22    1    3    3    0    0  0.20745660801E+02 -0.82344309635E+02  0.11341420990E+03  0.14168186468E+03  0.00000000000E+00 0.  1.
</event>
<event>
 7    1  0.9721009E-006  0.6824626E+02  0.7818608E-02  0.1416296E+00
          2   -1    0    0  502    0  0.00000000000E+00  0.00000000000E+00  0.16652791533E+04  0.16652791533E+04  0.00000000000E+00 0. -1.
          1   -1    0    0  501    0 -0.00000000000E+00 -0.00000000000E+00 -0.47792036307E+03  0.47792036307E+03  0.00000000000E+00 0. -1.
         25    2    1    2    0    0  0.41188103307E+01 -0.54236410532E+02 -0.22895637891E+03  0.26646660192E+03  0.12499949469E+03 0.  0.
          2    1    1    2  501    0  0.45123719016E+02  0.68703294004E+01 -0.22722961674E+03  0.23176852713E+03  0.00000000000E+00 0. -1.
          1    1    1    2  502    0 -0.49242529347E+02  0.47366081132E+02  0.16435447859E+04  0.16449643873E+04  0.00000000000E+00 0. -1.
         22    1    3    3    0    0  0.16477850423E+02 -0.46840441774E+02 -0.24199608480E+03  0.24703775338E+03  0.00000000000E+00 0. -1.
         22    1    3    3    0    0 -0.12359040092E+02 -0.73959687578E+01  0.13039705889E+02  0.19428848539E+02  0.00000000000E+00 0. -1.
</event>
<event>
 7    1  0.6386201E-006  0.1030748E+03  0.7818608E-02  0.1437954E+00
          2   -1    0    0  502    0  0.00000000000E+00  0.00000000000E+00  0.41359008099E+03  0.41359008099E+03  0.00000000000E+00 0. -1.
          1   -1    0    0  501    0 -0.00000000000E+00 -0.00000000000E+00 -0.89679648240E+03  0.89679648240E+03  0.00000000000E+00 0. -1.
         25    2    1    2    0    0 -0.25050324480E+02  0.95831066947E+02  0.29937843235E+02  0.16227171983E+03  0.12499889780E+03 0.  0.
          2    1    1    2  501    0  0.24311073220E+02  0.81081792780E+01 -0.82191705722E+03  0.82231649613E+03  0.00000000000E+00 0. -1.
          1    1    1    2  502    0  0.73925126033E+00 -0.10393924623E+03  0.30877281258E+03  0.32579834743E+03  0.00000000000E+00 0. -1.
         22    1    3    3    0    0  0.31157497711E+02  0.82893031615E+02 -0.14143684318E+02  0.89677690425E+02  0.00000000000E+00 0. -1.
         22    1    3    3    0    0 -0.56207822191E+02  0.12938035332E+02  0.44081527553E+02  0.72594029404E+02  0.00000000000E+00 0. -1.
</event>
<event>
 7    1  0.6386201E-006  0.6459407E+02  0.7818608E-02  0.1446795E+00
          2   -1    0    0  502    0  0.00000000000E+00  0.00000000000E+00  0.73537148895E+03  0.73537148895E+03  0.00000000000E+00 0. -1.
          1   -1    0    0  501    0 -0.00000000000E+00 -0.00000000000E+00 -0.89362737235E+03  0.89362737235E+03  0.00000000000E+00 0. -1.
         25    2    1    2    0    0 -0.24356606990E+02  0.34172850847E+02 -0.46832577450E+02  0.13993828366E+03  0.12501361879E+03 0.  0.
          2    1    1    2  501    0  0.61106192243E+02 -0.23425640055E+02 -0.79836998306E+03  0.80104766225E+03  0.00000000000E+00 0. -1.
          1    1    1    2  502    0 -0.36749585253E+02 -0.10747210792E+02  0.68694667711E+03  0.68801291539E+03  0.00000000000E+00 0. -1.
         22    1    3    3    0    0  0.43601472143E+02  0.23411339781E+02 -0.50926292526E+02  0.71011734762E+02  0.00000000000E+00 0. -1.
         22    1    3    3    0    0 -0.67958079132E+02  0.10761511066E+02  0.40937150761E+01  0.68926548897E+02  0.00000000000E+00 0. -1.
</event>
<event>
 7    1  0.6386201E-006  0.1975135E+03  0.7818608E-02  0.1272552E+00
          2   -1    0    0  502    0  0.00000000000E+00  0.00000000000E+00  0.66516342863E+03  0.66516342863E+03  0.00000000000E+00 0. -1.
          1   -1    0    0  501    0 -0.00000000000E+00 -0.00000000000E+00 -0.39806693778E+03  0.39806693778E+03  0.00000000000E+00 0. -1.
         25    2    1    2    0    0 -0.89793327597E+02 -0.21146628547E+03  0.44556109722E+03  0.51665326082E+03  0.12500027595E+03 0.  0.
          2    1    1    2  501    0  0.38833953501E+02  0.19207453783E+03 -0.33096211113E+03  0.38462530212E+03  0.00000000000E+00 0. -1.
          1    1    1    2  502    0  0.50959374096E+02  0.19391747635E+02  0.15249750477E+03  0.16195180346E+03  0.00000000000E+00 0. -1.
         22    1    3    3    0    0 -0.82515776457E+01 -0.34489322128E+02  0.61734816953E+01  0.35996024096E+02  0.00000000000E+00 0. -1.
         22    1    3    3    0    0 -0.81541749951E+02 -0.17697696334E+03  0.43938761552E+03  0.48065723672E+03  0.00000000000E+00 0. -1.
</event>
<event>
 7    1  0.6386201E-006  0.6789978E+02  0.7818608E-02  0.1410777E+00
          2   -1    0    0  502    0  0.00000000000E+00  0.00000000000E+00  0.10161542886E+04  0.10161542886E+04  0.00000000000E+00 0. -1.
          1   -1    0    0  501    0 -0.00000000000E+00 -0.00000000000E+00 -0.16474060116E+03  0.16474060116E+03  0.00000000000E+00 0. -1.
         25    2    1    2    0    0  0.67411609039E+02  0.53566581087E+02  0.96672020825E+01  0.15208968296E+03  0.12499645285E+03 0.  0.
          2    1    1    2  501    0 -0.66763084353E+02 -0.56859019620E+01 -0.80827607188E+02  0.10498924229E+03  0.00000000000E+00 0. -1.
          1    1    1    2  502    0 -0.64852468584E+00 -0.47880679125E+02  0.92257409258E+03  0.92381596452E+03  0.00000000000E+00 0. -1.
         22    1    3    3    0    0 -0.30964523796E+01  0.60781497212E+02  0.42244630373E+02  0.74084999939E+02  0.00000000000E+00 0. -1.
         22    1    3    3    0    0  0.70508061418E+02 -0.72149161250E+01 -0.32577428291E+02  0.78004683024E+02  0.00000000000E+00 0. -1.
</event>
<event>
 7    1  0.6386201E-006  0.1380108E+03  0.7818608E-02  0.1240958E+00
          2   -1    0    0  502    0  0.00000000000E+00  0.00000000000E+00  0.61975670477E+03  0.61975670477E+03  0.00000000000E+00 0. -1.
          1   -1    0    0  501    0 -0.00000000000E+00 -0.00000000000E+00 -0.16317721425E+03  0.16317721425E+03  0.00000000000E+00 0. -1.
         25    2    1    2    0    0  0.63136396338E+02 -0.98388728875E+02  0.23348089914E+03  0.28949098480E+03  0.12500061402E+03 0.  0.
          2    1    1    2  501    0  0.33826224568E+02  0.14273742333E+03 -0.83529493305E+02  0.16880569226E+03  0.00000000000E+00 0. -1.
          1    1    1    2  502    0 -0.96962620906E+02 -0.44348694457E+02  0.30662808469E+03  0.32463724197E+03  0.00000000000E+00 0. -1.
         22    1    3    3    0    0 -0.10641770269E+02 -0.54317827576E+02  0.19144609555E+02  0.58567821729E+02  0.00000000000E+00 0. -1.
         22    1    3    3    0    0  0.73778166607E+02 -0.44070901299E+02  0.21433628958E+03  0.23092316307E+03  0.00000000000E+00 0. -1.
</event>
<event>
 7    1  0.6386201E-006  0.3452020E+02  0.7818608E-02  0.1573702E+00
          2   -1    0    0  502    0  0.00000000000E+00  0.00000000000E+00  0.70290883159E+01  0.70290883159E+01  0.00000000000E+00 0. -1.
          1   -1    0    0  501    0 -0.00000000000E+00 -0.00000000000E+00 -0.27970104677E+04  0.27970104677E+04  0.00000000000E+00 0. -1.
         25    2    1    2    0    0  0.32057179536E+02  0.32071230663E+01 -0.13456553964E+04  0.13518328282E+04  0.12500240375E+03 0.  0.
          2    1    1    2  501    0 -0.18607186193E+02 -0.30329046548E+02 -0.13863140602E+04  0.13867706198E+04  0.00000000000E+00 0. -1.
          1    1    1    2  502    0 -0.13449993342E+02  0.27121923481E+02 -0.58011922647E+02  0.65436107949E+02  0.00000000000E+00 0. -1.
         22    1    3    3    0    0 -0.22086449398E+02  0.21372492147E+02 -0.94448840676E+02  0.99323603300E+02  0.00000000000E+00 0.  1.
         22    1    3    3    0    0  0.54143628934E+02 -0.18165369081E+02 -0.12512065558E+04  0.12525092249E+04  0.00000000000E+00 0.  1.
</event>
<event>
 7    1  0.6386201E-006  0.3989277E+02  0.7818608E-02  0.1515059E+00
          2   -1    0    0  502    0  0.00000000000E+00  0.00000000000E+00  0.23409052997E+04  0.23409052997E+04  0.00000000000E+00 0. -1.
          1   -1    0    0  501    0 -0.00000000000E+00 -0.00000000000E+00 -0.22379308227E+03  0.22379308227E+03  0.00000000000E+00 0. -1.
         25    2    1    2    0    0 -0.11353362245E+02  0.30272405757E+02  0.35742448869E+03  0.38002878872E+03  0.12499719100E+03 0.  0.
          2    1    1    2  501    0  0.39756940670E+02 -0.45906776718E+01 -0.21041880797E+03  0.21419095079E+03  0.00000000000E+00 0. -1.
          1    1    1    2  502    0 -0.28403578425E+02 -0.25681728085E+02  0.19701065367E+04  0.19704786424E+04  0.00000000000E+00 0. -1.
         22    1    3    3    0    0  0.39448084114E+02  0.31587780512E+02  0.60698550510E+02  0.78982613606E+02  0.00000000000E+00 0.  1.
         22    1    3    3    0    0 -0.50801446359E+02 -0.13153747546E+01  0.29672593818E+03  0.30104617512E+03  0.00000000000E+00 0.  1.
</event>
<event>
 7    1  0.6386201E-006  0.8145950E+02  0.7818608E-02  0.1354586E+00
          2   -1    0    0  502    0  0.00000000000E+00  0.00000000000E+00  0.20506323963E+04  0.20506323963E+04  0.00000000000E+00 0. -1.
          1   -1    0    0  501    0 -0.00000000000E+00 -0.00000000000E+00 -0.10048791838E+03  0.10048791838E+03  0.00000000000E+00 0. -1.
         25    2    1    2    0    0 -0.50411263320E+02 -0.11554389617E+03  0.12802321388E+03  0.21887510285E+03  0.12499871976E+03 0.  0.
          2    1    1    2  501    0 -0.10277906009E+02  0.62169703734E+02 -0.35862828074E+02  0.72504136791E+02  0.00000000000E+00 0. -1.
          1    1    1    2  502    0  0.60689169329E+02  0.53374192434E+02  0.18579840921E+04  0.18597410750E+04  0.00000000000E+00 0. -1.
         22    1    3    3    0    0 -0.76379874286E+02 -0.21882532906E+02  0.68481088706E+02  0.10489227785E+03  0.00000000000E+00 0.  1.
         22    1    3    3    0    0  0.25968610966E+02 -0.93661363262E+02  0.59542125178E+02  0.11398282500E+03  0.00000000000E+00 0.  1.
</event>
<event>
 7    1  0.6386201E-006  0.4132383E+02  0.7818608E-02  0.1557332E+00
          2   -1    0    0  502    0  0.00000000000E+00  0.00000000000E+00  0.17978460410E+04  0.17978460410E+04  0.00000000000E+00 0. -1.
          1   -1    0    0  501    0 -0.00000000000E+00 -0.00000000000E+00 -0.48063191119E+02  0.48063191119E+02  0.00000000000E+00 0. -1.
         25    2    1    2    0    0  0.36575053492E+02  0.12295545602E+02  0.13227224431E+04  0.13291764009E+04  0.12500531358E+03 0.  0.
          2    1    1    2  501    0 -0.21070128339E+02 -0.35650822673E+02 -0.34757465696E+02  0.54064895145E+02  0.00000000000E+00 0. -1.
          1    1    1    2  502    0 -0.15504925153E+02  0.23355277070E+02  0.46181787256E+03  0.46266793609E+03  0.00000000000E+00 0. -1.
         22    1    3    3    0    0 -0.37440938714E+00 -0.46783615137E+02  0.85634081883E+03  0.85761788975E+03  0.00000000000E+00 0. -1.
         22    1    3    3    0    0  0.36949462879E+02  0.59079160739E+02  0.46638162422E+03  0.47155851117E+03  0.00000000000E+00 0. -1.
</event>
<event>
 7    1  0.6386201E-006  0.1273320E+03  0.7818608E-02  0.1270799E+00
          2   -1    0    0  502    0  0.00000000000E+00  0.00000000000E+00  0.25346595708E+04  0.25346595708E+04  0.00000000000E+00 0. -1.
          1   -1    0    0  501    0 -0.00000000000E+00 -0.00000000000E+00 -0.22047775529E+03  0.22047775529E+03  0.00000000000E+00 0. -1.
         25    2    1    2    0    0 -0.16872922842E+02 -0.44307006705E+02  0.12798967768E+04  0.12868598994E+04  0.12499933968E+03 0.  0.
          2    1    1    2  501    0  0.83987265055E+02 -0.95705618414E+02 -0.19299469969E+03  0.23121500858E+03  0.00000000000E+00 0. -1.
          1    1    1    2  502    0 -0.67114342213E+02  0.14001262512E+03  0.12272797384E+04  0.12370624181E+04  0.00000000000E+00 0. -1.
         22    1    3    3    0    0 -0.84194868863E+01 -0.75180739896E+02  0.11687418959E+04  0.11711877094E+04  0.00000000000E+00 0. -1.
         22    1    3    3    0    0 -0.84534359553E+01  0.30873733191E+02  0.11115488094E+03  0.11567219000E+03  0.00000000000E+00 0. -1.
</event>
<event>
 7    1  0.6386201E-006  0.8064895E+02  0.7818608E-02  0.1348480E+00
          2   -1    0    0  502    0  0.00000000000E+00  0.00000000000E+00  0.41608719948E+03  0.41608719948E+03  0.00000000000E+00 0. -1.
          1   -1    0    0  501    0 -0.00000000000E+00 -0.00000000000E+00 -0.12545983445E+04  0.12545983445E+04  0.00000000000E+00 0. -1.
         25    2    1    2    0    0  0.12126780487E+03 -0.64160086069E+02 -0.40617195867E+03  0.44656754771E+03  0.12499807006E+03 0.  0.
          2    1    1    2  501    0 -0.74355650552E+02  0.16265911393E+02 -0.82362290562E+03  0.82713241582E+03  0.00000000000E+00 0. -1.
          1    1    1    2  502    0 -0.46912154318E+02  0.47894174676E+02  0.39128371922E+03  0.39698558049E+03  0.00000000000E+00 0. -1.
         22    1    3    3    0    0  0.13243531430E+03 -0.71703370378E+02 -0.26539877728E+03  0.30515077713E+03  0.00000000000E+00 0.  1.
         22    1    3    3    0    0 -0.11167509435E+02  0.75432843085E+01 -0.14077318138E+03  0.14141677058E+03  0.00000000000E+00 0.  1.
</event>
<event>
 7    1  0.6386201E-006  0.6147205E+02  0.7818608E-02  0.1515044E+00
          2   -1    0    0  502    0  0.00000000000E+00  0.00000000000E+00  0.58553504563E+03  0.58553504563E+03  0.00000000000E+00 0. -1.
          1   -1    0    0  501    0 -0.00000000000E+00 -0.00000000000E+00 -0.17770839437E+04  0.17770839437E+04  0.00000000000E+00 0. -1.
         25    2    1    2    0    0  0.44047956456E+02 -0.52822389637E+02  0.15971020516E+03  0.21415593345E+03  0.12499994754E+03 0.  0.
          2    1    1    2  501    0 -0.24321001502E+02 -0.51137662449E+01 -0.17474228903E+04  0.17475996164E+04  0.00000000000E+00 0. -1.
          1    1    1    2  502    0 -0.19726954954E+02  0.57936155882E+02  0.39616378708E+03  0.40086343947E+03  0.00000000000E+00 0. -1.
         22    1    3    3    0    0  0.36479281599E+02  0.27945489885E+02  0.10950251895E+03  0.11875390540E+03  0.00000000000E+00 0. -1.
         22    1    3    3    0    0  0.75686748577E+01 -0.80767879522E+02  0.50207686209E+02  0.95402028050E+02  0.00000000000E+00 0. -1.
</event>
<event>
 7    1  0.6386201E-006  0.4545461E+02  0.7818608E-02  0.1478656E+00
          2   -1    0    0  502    0  0.00000000000E+00  0.00000000000E+00  0.16004318866E+04  0.16004318866E+04  0.00000000000E+00 0. -1.
          1   -1    0    0  501    0 -0.00000000000E+00 -0.00000000000E+00 -0.15430202674E+04  0.15430202674E+04  0.00000000000E+00 0. -1.
         25    2    1    2    0    0 -0.19219263562E+02  0.16496958480E+02 -0.38379021323E+02  0.13318946244E+03  0.12499981559E+03 0.  0.
          2    1    1    2  501    0 -0.21162506279E+02 -0.37668846779E+02 -0.14565809613E+04  0.14572216340E+04  0.00000000000E+00 0. -1.
          1    1    1    2  502    0  0.40381769841E+02  0.21171888299E+02  0.15523716019E+04  0.15530410575E+04  0.00000000000E+00 0. -1.
         22    1    3    3    0    0  0.29996993463E+02  0.48411230539E+02 -0.47077299056E+02  0.73890046322E+02  0.00000000000E+00 0.  1.
         22    1    3    3    0    0 -0.49216257025E+02 -0.31914272059E+02  0.86982777331E+01  0.59299416120E+02  0.00000000000E+00 0.  1.
</event>
<event>
 7    1  0.6386201E-006  0.9254827E+02  0.7818608E-02  0.1371087E+00
          2   -1    0    0  502    0  0.00000000000E+00  0.00000000000E+00  0.23258642848E+04  0.23258642848E+04  0.00000000000E+00 0. -1.
          1   -1    0    0  501    0 -0.00000000000E+00 -0.00000000000E+00 -0.17777947446E+03  0.17777947446E+03  0.00000000000E+00 0. -1.
         25    2    1    2    0    0  0.12182628245E+03 -0.46734736113E+02  0.75090580719E+03  0.77234047710E+03  0.12499801055E+03 0.  0.
          2    1    1    2  501    0 -0.34313324069E+02  0.34007213535E+02 -0.16229049144E+03  0.16932837445E+03  0.00000000000E+00 0. -1.
          1    1    1    2  502    0 -0.87512958381E+02  0.12727522578E+02  0.15594694946E+04  0.15619749077E+04  0.00000000000E+00 0. -1.
         22    1    3    3    0    0  0.13425198039E+03 -0.47110155235E+02  0.74520272789E+03  0.75866334208E+03  0.00000000000E+00 0.  1.
         22    1    3    3    0    0 -0.12425697940E+02  0.37541912175E+00  0.57030793012E+01  0.13677135019E+02  0.00000000000E+00 0.  1.
</event>
<event>
 7    1  0.6386201E-006  0.1016020E+03  0.7818608E-02  0.1284721E+00
          2   -1    0    0  502    0  0.00000000000E+00  0.00000000000E+00  0.12030778220E+04  0.12030778220E+04  0.00000000000E+00 0. -1.
          1   -1    0    0  501    0 -0.00000000000E+00 -0.00000000000E+00 -0.99729654226E+03  0.99729654226E+03  0.00000000000E+00 0. -1.
         25    2    1    2    0    0  0.34385147745E+02  0.17160006648E+03 -0.36636901025E+01  0.21509910506E+03  0.12500112468E+03 0.  0.
          2    1    1    2  501    0  0.25353412070E+02 -0.90911972201E+02 -0.88309903901E+03  0.88812819733E+03  0.00000000000E+00 0. -1.
          1    1    1    2  502    0 -0.59738559815E+02 -0.80688094279E+02  0.10925440089E+04  0.10971470619E+04  0.00000000000E+00 0. -1.
         22    1    3    3    0    0 -0.13747698038E+02  0.13439564792E+03  0.39212358173E+02  0.14067266407E+03  0.00000000000E+00 0.  1.
         22    1    3    3    0    0  0.48132845783E+02  0.37204418558E+02 -0.42876048276E+02  0.74426440995E+02  0.00000000000E+00 0.  1.
</event>
<event>
 7    1  0.6386201E-006  0.1691155E+03  0.7818608E-02  0.1275272E+00
          2   -1    0    0  502    0  0.00000000000E+00  0.00000000000E+00  0.15582251929E+03  0.15582251929E+03  0.00000000000E+00 0. -1.
          1   -1    0    0  501    0 -0.00000000000E+00 -0.00000000000E+00 -0.78343814265E+03  0.78343814265E+03  0.00000000000E+00 0. -1.
         25    2    1    2    0    0 -0.17237065416E+03  0.65431222918E+02 -0.19405018522E+03  0.29542021027E+03  0.12499895561E+03 0.  0.
          2    1    1    2  501    0  0.52527003836E+01 -0.61814408005E+02 -0.46890292321E+03  0.47298896741E+03  0.00000000000E+00 0. -1.
          1    1    1    2  502    0  0.16711795377E+03 -0.36168149133E+01  0.35337485075E+02  0.17085148426E+03  0.00000000000E+00 0. -1.
         22    1    3    3    0    0 -0.10206068453E+03  0.10018321817E+03 -0.14027971982E+03  0.20032838122E+03  0.00000000000E+00 0.  1.
         22    1    3    3    0    0 -0.70309969628E+02 -0.34751995250E+02 -0.53770465406E+02  0.95091829054E+02  0.00000000000E+00 0.  1.
</event>
<event>
 7    1  0.6386201E-006  0.1526117E+03  0.7818608E-02  0.1311873E+00
          2   -1    0    0  502    0  0.00000000000E+00  0.00000000000E+00  0.24865289290E+04  0.24865289290E+04  0.00000000000E+00 0. -1.
          1   -1    0    0  501    0 -0.00000000000E+00 -0.00000000000E+00 -0.58824440510E+03  0.58824440510E+03  0.00000000000E+00 0. -1.
         25    2    1    2    0    0  0.13209999077E+03  0.47681073120E+02  0.50504855553E+03  0.53890911601E+03  0.12500039834E+03 0.  0.
          2    1    1    2  501    0 -0.11990430027E+03 -0.95022769176E+02 -0.56076057155E+03  0.58125621415E+03  0.00000000000E+00 0. -1.
          1    1    1    2  502    0 -0.12195690500E+02  0.47341696056E+02  0.19539965400E+04  0.19546080040E+04  0.00000000000E+00 0. -1.
         22    1    3    3    0    0  0.13807743033E+03  0.33845641436E+02  0.50414970855E+03  0.52381087507E+03  0.00000000000E+00 0. -1.
         22    1    3    3    0    0 -0.59774395606E+01  0.13835431684E+02  0.89884697495E+00  0.15098240939E+02  0.00000000000E+00 0. -1.
</event>
<event>
 7    1  0.6386201E-006  0.1797461E+03  0.7818608E-02  0.1274041E+00
          2   -1    0    0  502    0  0.00000000000E+00  0.00000000000E+00  0.11591616268E+03  0.11591616268E+03  0.00000000000E+00 0. -1.
          1   -1    0    0  501    0 -0.00000000000E+00 -0.00000000000E+00 -0.15620472246E+04  0.15620472246E+04  0.00000000000E+00 0. -1.
         25    2    1    2    0    0 -0.10029146795E+03 -0.99666291671E+02 -0.44259629425E+03  0.48115275779E+03  0.12499899361E+03 0.  0.
          2    1    1    2  501    0  0.15398938334E+03  0.12426009178E+03 -0.10812459521E+04  0.10992024879E+04  0.00000000000E+00 0. -1.
          1    1    1    2  502    0 -0.53697915391E+02 -0.24593800108E+02  0.77711184399E+02  0.97608141575E+02  0.00000000000E+00 0. -1.
         22    1    3    3    0    0 -0.86044406039E+02 -0.12944127183E+03 -0.37468815677E+03  0.40564750398E+03  0.00000000000E+00 0.  1.
         22    1    3    3    0    0 -0.14247061909E+02  0.29774980156E+02 -0.67908137481E+02  0.75505253808E+02  0.00000000000E+00 0.  1.
</event>
<event>
 7    1  0.6386201E-006  0.7664834E+02  0.7818608E-02  0.1350195E+00
          2   -1    0    0  502    0  0.00000000000E+00  0.00000000000E+00  0.13705476024E+02  0.13705476024E+02  0.00000000000E+00 0. -1.
          1   -1    0    0  501    0 -0.00000000000E+00 -0.00000000000E+00 -0.33203920844E+04  0.33203920844E+04  0.00000000000E+00 0. -1.
         25    2    1    2    0    0  0.37408750801E+01 -0.49581118291E+02 -0.50755124412E+03  0.52507687354E+03  0.12500070512E+03 0.  0.
          2    1    1    2  501    0 -0.71884395859E+02  0.35837749462E+02 -0.25227100982E+04  0.25239885004E+04  0.00000000000E+00 0. -1.
          1    1    1    2  502    0  0.68143520779E+02  0.13743368828E+02 -0.27642526605E+03  0.28503218646E+03  0.00000000000E+00 0. -1.
         22    1    3    3    0    0 -0.24712107897E+00 -0.48170878351E+02 -0.57525193265E+02  0.75030943284E+02  0.00000000000E+00 0.  1.
         22    1    3    3    0    0  0.39879961591E+01 -0.14102399395E+01 -0.45002605086E+03  0.45004593025E+03  0.00000000000E+00 0.  1.
</event>
<event>
 7    1  0.6386201E-006  0.1880512E+03  0.7818608E-02  0.1284618E+00
          2   -1    0    0  502    0  0.00000000000E+00  0.00000000000E+00  0.28531035085E+03  0.28531035085E+03  0.00000000000E+00 0. -1.
          1   -1    0    0  501    0 -0.00000000000E+00 -0.00000000000E+00 -0.13862330108E+04  0.13862330108E+04  0.00000000000E+00 0. -1.
         25    2    1    2    0    0 -0.16328232787E+03  0.35879001801E+02 -0.24630520402E+03  0.32286192147E+03  0.12500058177E+03 0.  0.
          2    1    1    2  501    0 -0.75207465491E+01  0.50485642647E+02 -0.10638728400E+04  0.10650966066E+04  0.00000000000E+00 0. -1.
          1    1    1    2  502    0  0.17080307442E+03 -0.86364644448E+02  0.20925538409E+03  0.28358483354E+03  0.00000000000E+00 0. -1.
         22    1    3    3    0    0 -0.42184131503E+02  0.37474627336E+02 -0.99655985462E+01  0.57298881307E+02  0.00000000000E+00 0. -1.
         22    1    3    3    0    0 -0.12109819637E+03 -0.15956255348E+01 -0.23633960547E+03  0.26556304016E+03  0.00000000000E+00 0. -1.
</event>
<event>
 7    1  0.6386201E-006  0.9984816E+02  0.7818608E-02  0.1405440E+00
          2   -1    0    0  502    0  0.00000000000E+00  0.00000000000E+00  0.29095959980E+03  0.29095959980E+03  0.00000000000E+00 0. -1.
          1   -1    0    0  501    0 -0.00000000000E+00 -0.00000000000E+00 -0.39426753592E+03  0.39426753592E+03  0.00000000000E+00 0. -1.
         25    2    1    2    0    0 -0.76112468248E+02  0.14919370208E+02  0.56522078305E+02  0.15759286953E+03  0.12500028704E+03 0.  0.
          2    1    1    2  501    0 -0.30971742334E+02 -0.13909514113E+02 -0.32718901781E+03  0.32894585692E+03  0.00000000000E+00 0. -1.
          1    1    1    2  502    0  0.10708421058E+03 -0.10098560958E+01  0.16735900339E+03  0.19868840928E+03  0.00000000000E+00 0. -1.
         22    1    3    3    0    0 -0.11867002539E+02  0.64689035252E+02  0.22843299770E+02  0.69622649874E+02  0.00000000000E+00 0. -1.
         22    1    3    3    0    0 -0.64245465709E+02 -0.49769665043E+02  0.33678778535E+02  0.87970219656E+02  0.00000000000E+00 0. -1.
</event>
<event>
 7    1  0.6386201E-006  0.4991283E+02  0.7818608E-02  0.1470989E+00
          2   -1    0    0  502    0  0.00000000000E+00  0.00000000000E+00  0.22720973504E+03  0.22720973504E+03  0.00000000000E+00 0. -1.
          1   -1    0    0  501    0 -0.00000000000E+00 -0.00000000000E+00 -0.84456647306E+03  0.84456647306E+03  0.00000000000E+00 0. -1.
         25    2    1    2    0    0  0.50860953490E+02  0.74433125203E+02 -0.95993479632E+02  0.18156732409E+03  0.12499927331E+03 0.  0.
          2    1    1    2  501    0 -0.26722122894E+02 -0.31821086827E+02 -0.70190943781E+03  0.70313833085E+03  0.00000000000E+00 0. -1.
          1    1    1    2  502    0 -0.24138830597E+02 -0.42612038376E+02  0.18054617942E+03  0.18707055316E+03  0.00000000000E+00 0. -1.
         22    1    3    3    0    0  0.51822833527E+02  0.82437571704E+02 -0.12098783654E+03  0.15530491266E+03  0.00000000000E+00 0. -1.
         22    1    3    3    0    0 -0.96188003703E+00 -0.80044465012E+01  0.24994356913E+02  0.26262411437E+02  0.00000000000E+00 0. -1.
</event>
<event>
 7    1  0.6386201E-006  0.1311433E+03  0.7818608E-02  0.1369152E+00
          2   -1    0    0  502    0  0.00000000000E+00  0.00000000000E+00  0.14741095006E+04  0.14741095006E+04  0.00000000000E+00 0. -1.
          1   -1    0    0  501    0 -0.00000000000E+00 -0.00000000000E+00 -0.29623230436E+03  0.29623230436E+03  0.00000000000E+00 0. -1.
         25    2    1    2    0    0  0.11619391141E+03  0.10347934949E+03 -0.19818195091E+03  0.28126249858E+03  0.12499402634E+03 0.  0.
          2    1    1    2  501    0 -0.51333742637E+01 -0.34260660421E+02 -0.47902573440E+02  0.59116841306E+02  0.00000000000E+00 0. -1.
          1    1    1    2  502    0 -0.11106053715E+03 -0.69218689066E+02  0.14239617206E+04  0.14299624651E+04  0.00000000000E+00 0. -1.
         22    1    3    3    0    0  0.65356550581E+02 -0.13189995607E+02 -0.10149481201E+03  0.12143579189E+03  0.00000000000E+00 0.  1.
         22    1    3    3    0    0  0.50837360829E+02  0.11666934510E+03 -0.96687138897E+02  0.15982670668E+03  0.00000000000E+00 0.  1.
</event>
<event>
 7    1  0.6386201E-006  0.8948198E+02  0.7818608E-02  0.1437007E+00
          2   -1    0    0  502    0  0.00000000000E+00  0.00000000000E+00  0.15364891971E+04  0.15364891971E+04  0.00000000000E+00 0. -1.
          1   -1    0    0  501    0 -0.00000000000E+00 -0.00000000000E+00 -0.17948068670E+04  0.17948068670E+04  0.00000000000E+00 0. -1.
         25    2    1    2    0    0 -0.14781253780E+02  0.11750086709E+03 -0.86798059111E+02  0.19282907892E+03  0.12499684549E+03 0.  0.
          2    1    1    2  501    0  0.13524667364E+02 -0.87796499626E+02 -0.16536520880E+04  0.16560363432E+04  0.00000000000E+00 0. -1.
          1    1    1    2  502    0  0.12565864157E+01 -0.29704367459E+02  0.14821324772E+04  0.14824306420E+04  0.00000000000E+00 0. -1.
         22    1    3    3    0    0  0.52422635994E+02  0.69832947518E+02 -0.60909254924E+02  0.10646459815E+03  0.00000000000E+00 0.  1.
         22    1    3    3    0    0 -0.67203889774E+02  0.47667919567E+02 -0.25888804187E+02  0.86364480771E+02  0.00000000000E+00 0.  1.
</event>
<event>
 7    1  0.6386201E-006  0.1784429E+03  0.7818608E-02  0.1254507E+00
          2   -1    0    0  502    0  0.00000000000E+00  0.00000000000E+00  0.19421351116E+04  0.19421351116E+04  0.00000000000E+00 0. -1.
          1   -1    0    0  501    0 -0.00000000000E+00 -0.00000000000E+00 -0.33538770458E+03  0.33538770458E+03  0.00000000000E+00 0. -1.
         25    2    1    2    0    0  0.10025457810E+02 -0.12931653305E+03  0.45007472764E+03  0.48478332470E+03  0.12499734368E+03 0.  0.
          2    1    1    2  501    0 -0.24558981910E+02 -0.67669975084E+02 -0.30724014791E+03  0.31556121056E+03  0.00000000000E+00 0. -1.
          1    1    1    2  502    0  0.14533524101E+02  0.19698650813E+03  0.14639128273E+04  0.14771782809E+04  0.00000000000E+00 0. -1.
         22    1    3    3    0    0  0.24731481252E+02  0.12566421636E+02  0.14983709486E+03  0.15238345092E+03  0.00000000000E+00 0.  1.
         22    1    3    3    0    0 -0.14706023442E+02 -0.14188295468E+03  0.30023763278E+03  0.33239987378E+03  0.00000000000E+00 0.  1.
</event>
<event>
 7    1  0.6386201E-006  0.1747210E+03  0.7818608E-02  0.1246816E+00
          2   -1    0    0  502    0  0.00000000000E+00  0.00000000000E+00  0.51178997593E+03  0.51178997593E+03  0.00000000000E+00 0. -1.
          1   -1    0    0  501    0 -0.00000000000E+00 -0.00000000000E+00 -0.45347762894E+03  0.45347762894E+03  0.00000000000E+00 0. -1.
         25    2    1    2    0    0  0.11703936765E+03  0.11118252206E+03  0.23469316818E+03  0.31107208740E+03  0.12500077431E+03 0.  0.
          2    1    1    2  501    0 -0.59925939455E+02 -0.16632180045E+03 -0.38897353178E+03  0.42726393242E+03  0.00000000000E+00 0. -1.
          1    1    1    2  502    0 -0.57113428190E+02  0.55139278393E+02  0.21259271058E+03  0.22693158505E+03  0.00000000000E+00 0. -1.
         22    1    3    3    0    0  0.11697480075E+03  0.34717877342E+02  0.10726692897E+03  0.16246423936E+03  0.00000000000E+00 0.  1.
         22    1    3    3    0    0  0.64566891832E-01  0.76464644718E+02  0.12742623921E+03  0.14860784804E+03  0.00000000000E+00 0.  1.
</event>
<event>
 7    1  0.6386201E-006  0.8529959E+02  0.7818608E-02  0.1436569E+00
          2   -1    0    0  502    0  0.00000000000E+00  0.00000000000E+00  0.53501738326E+03  0.53501738326E+03  0.00000000000E+00 0. -1.
          1   -1    0    0  501    0 -0.00000000000E+00 -0.00000000000E+00 -0.36963528602E+03  0.36963528602E+03  0.00000000000E+00 0. -1.
         25    2    1    2    0    0  0.46553680332E+02  0.28557414348E+02  0.25469625047E+03  0.28892502422E+03  0.12499887420E+03 0.  0.
          2    1    1    2  501    0 -0.72591343289E+02 -0.45912068314E+02 -0.34632594701E+03  0.35681799662E+03  0.00000000000E+00 0. -1.
          1    1    1    2  502    0  0.26037662958E+02  0.17354653965E+02  0.25701179379E+03  0.25890964843E+03  0.00000000000E+00 0. -1.
         22    1    3    3    0    0  0.34822477954E+02  0.77911778124E+02  0.14971553746E+03  0.17232989380E+03  0.00000000000E+00 0.  1.
         22    1    3    3    0    0  0.11731202377E+02 -0.49354363776E+02  0.10498071301E+03  0.11659513042E+03  0.00000000000E+00 0.  1.
</event>
<event>
 7    1  0.6386201E-006  0.5734225E+02  0.7818608E-02  0.1508106E+00
          2   -1    0    0  502    0  0.00000000000E+00  0.00000000000E+00  0.14516963947E+02  0.14516963947E+02  0.00000000000E+00 0. -1.
          1   -1    0    0  501    0 -0.00000000000E+00 -0.00000000000E+00 -0.27788661291E+04  0.27788661291E+04  0.00000000000E+00 0. -1.
         25    2    1    2    0    0 -0.60697021008E+02 -0.46635406339E+02 -0.12891071306E+04  0.12974129266E+04  0.12499647435E+03 0.  0.
          2    1    1    2  501    0  0.79407280218E+01  0.26769709934E+02 -0.14077737849E+04  0.14080506745E+04  0.00000000000E+00 0. -1.
          1    1    1    2  502    0  0.52756292986E+02  0.19865696405E+02 -0.67468249680E+02  0.87919491912E+02  0.00000000000E+00 0. -1.
         22    1    3    3    0    0 -0.13937013777E+02 -0.66039046430E+02 -0.32280330784E+03  0.32978382549E+03  0.00000000000E+00 0.  1.
         22    1    3    3    0    0 -0.46760007231E+02  0.19403640092E+02 -0.96630382273E+03  0.96762910112E+03  0.00000000000E+00 0.  1.
</event>
<event>
 7    1  0.6386201E-006  0.7043670E+02  0.7818608E-02  0.1385574E+00
          2   -1    0    0  502    0  0.00000000000E+00  0.00000000000E+00  0.18002721319E+04  0.18002721319E+04  0.00000000000E+00 0. -1.
          1   -1    0    0  501    0 -0.00000000000E+00 -0.00000000000E+00 -0.24240463462E+04  0.24240463462E+04  0.00000000000E+00 0. -1.
         25    2    1    2    0    0 -0.37379744505E+01  0.32540588012E+02 -0.29813720758E+02  0.13261462218E+03  0.12499967100E+03 0.  0.
          2    1    1    2  501    0  0.59847542821E+02 -0.38120183681E+02 -0.23418401715E+04  0.23429149079E+04  0.00000000000E+00 0. -1.
          1    1    1    2  502    0 -0.56109568370E+02  0.55795956692E+01  0.17478796781E+04  0.17487889480E+04  0.00000000000E+00 0. -1.
         22    1    3    3    0    0  0.53364465735E+02 -0.13596467281E+02 -0.57952293228E+01  0.55373412471E+02  0.00000000000E+00 0.  1.
         22    1    3    3    0    0 -0.57102440186E+02  0.46137055293E+02 -0.24018491435E+02  0.77241209708E+02  0.00000000000E+00 0.  1.
</event>
<event>
 7    1  0.6386201E-006  0.1370792E+03  0.7818608E-02  0.1429327E+00
          2   -1    0    0  502    0  0.00000000000E+00  0.00000000000E+00  0.21416847702E+03  0.21416847702E+03  0.00000000000E+00 0. -1.
          1   -1    0    0  501    0 -0.00000000000E+00 -0.00000000000E+00 -0.77213211325E+03  0.77213211325E+03  0.00000000000E+00 0. -1.
         25    2    1    2    0    0  0.13898093092E+03 -0.70579535819E+02 -0.29928952369E+02  0.20203175351E+03  0.12499566873E+03 0.  0.
          2    1    1    2  501    0 -0.12215576532E+03  0.58753480005E+02 -0.64826869083E+03  0.66228868172E+03  0.00000000000E+00 0. -1.
          1    1    1    2  502    0 -0.16825165595E+02  0.11826055814E+02  0.12023400696E+03  0.12198015504E+03  0.00000000000E+00 0. -1.
         22    1    3    3    0    0  0.74934166282E+02 -0.84453886475E+02  0.26019935187E+02  0.11586468506E+03  0.00000000000E+00 0.  1.
         22    1    3    3    0    0  0.64046764638E+02  0.13874350656E+02 -0.55948887556E+02  0.86167068451E+02  0.00000000000E+00 0.  1.
</event>
<event>
 7    1  0.6386201E-006  0.1022835E+03  0.7818608E-02  0.1395082E+00
          2   -1    0    0  502    0  0.00000000000E+00  0.00000000000E+00  0.13034322046E+04  0.13034322046E+04  0.00000000000E+00 0. -1.
          1   -1    0    0  501    0 -0.00000000000E+00 -0.00000000000E+00 -0.41414267954E+03  0.41414267954E+03  0.00000000000E+00 0. -1.
         25    2    1    2    0    0  0.11422382984E+03  0.29774256859E+02  0.19272388522E+03  0.25826809924E+03  0.12500530179E+03 0.  0.
          2    1    1    2  501    0 -0.27600087714E+02  0.23074809703E+02 -0.37812687641E+03  0.37983436699E+03  0.00000000000E+00 0. -1.
          1    1    1    2  502    0 -0.86623742123E+02 -0.52849066562E+02  0.10746925163E+04  0.10794724180E+04  0.00000000000E+00 0. -1.
         22    1    3    3    0    0  0.29347615175E+02  0.31608787907E+02 -0.46775207702E+01  0.43385218565E+02  0.00000000000E+00 0. -1.
         22    1    3    3    0    0  0.84876214662E+02 -0.18345310481E+01  0.19740140599E+03  0.21488288067E+03  0.00000000000E+00 0. -1.
</event>
<event>
 7    1  0.6386201E-006  0.2918429E+02  0.7818608E-02  0.1672856E+00
          2   -1    0    0  502    0  0.00000000000E+00  0.00000000000E+00  0.59332016229E+03  0.59332016229E+03  0.00000000000E+00 0. -1.
          1   -1    0    0  501    0 -0.00000000000E+00 -0.00000000000E+00 -0.36812637872E+03  0.36812637872E+03  0.00000000000E+00 0. -1.
         25    2    1    2    0    0 -0.35996133743E+02 -0.67775232385E+01 -0.22925154811E+03  0.26367375370E+03  0.12500367839E+03 0.  0.
          2    1    1    2  501    0  0.90223200580E+01  0.17913227989E+02 -0.12046449405E+03  0.12212280837E+03  0.00000000000E+00 0. -1.
          1    1    1    2  502    0  0.26973813685E+02 -0.11135704750E+02  0.57490982573E+03  0.57564997895E+03  0.00000000000E+00 0. -1.
         22    1    3    3    0    0  0.45105388560E+02 -0.94418848481E+01 -0.11172247541E+03  0.12085345166E+03  0.00000000000E+00 0. -1.
         22    1    3    3    0    0 -0.81101522304E+02  0.26643616095E+01 -0.11752907270E+03  0.14282030203E+03  0.00000000000E+00 0. -1.
</event>
<event>
 7    1  0.6386201E-006  0.6961034E+02  0.7818608E-02  0.1462701E+00
          2   -1    0    0  502    0  0.00000000000E+00  0.00000000000E+00  0.35482788264E+03  0.35482788264E+03  0.00000000000E+00 0. -1.
          1   -1    0    0  501    0 -0.00000000000E+00 -0.00000000000E+00 -0.15099172888E+03  0.15099172888E+03  0.00000000000E+00 0. -1.
         25    2    1    2    0    0 -0.81327109821E+02 -0.50167429440E+02  0.16870581506E+03  0.23069123317E+03  0.12500369297E+03 0.  0.
          2    1    1    2  501    0  0.49878613310E+02  0.46825642216E+02 -0.10838429125E+03  0.12817047798E+03  0.00000000000E+00 0. -1.
          1    1    1    2  502    0  0.31448496512E+02  0.33417872231E+01  0.14351462995E+03  0.14695790038E+03  0.00000000000E+00 0. -1.
         22    1    3    3    0    0 -0.86523648497E+02  0.86755024528E+01  0.55959831404E+02  0.10340748920E+03  0.00000000000E+00 0.  1.
         22    1    3    3    0    0  0.51965386751E+01 -0.58842931892E+02  0.11274598365E+03  0.12728374397E+03  0.00000000000E+00 0.  1.
</event>
<event>
 7    1  0.6386201E-006  0.7274376E+02  0.7818608E-02  0.1492769E+00
          2   -1    0    0  502    0  0.00000000000E+00  0.00000000000E+00  0.87216079046E+03  0.87216079046E+03  0.00000000000E+00 0. -1.
          1   -1    0    0  501    0 -0.00000000000E+00 -0.00000000000E+00 -0.97660145256E+03  0.97660145256E+03  0.00000000000E+00 0. -1.
         25    2    1    2    0    0 -0.51331740458E+02 -0.26034909797E+01  0.11927120614E+03  0.18025666064E+03  0.12500046940E+03 0.  0.
          2    1    1    2  501    0 -0.21330674310E+02 -0.11961229287E+02 -0.94404935393E+03  0.94436605791E+03  0.00000000000E+00 0. -1.
          1    1    1    2  502    0  0.72662414768E+02  0.14564720267E+02  0.72033748569E+03  0.72413952446E+03  0.00000000000E+00 0. -1.
         22    1    3    3    0    0 -0.17689551312E+02 -0.55031233374E+01  0.13961245170E+03  0.14083622141E+03  0.00000000000E+00 0.  1.
         22    1    3    3    0    0 -0.33642189146E+02  0.28996323577E+01 -0.20341245561E+02  0.39420439233E+02  0.00000000000E+00 0.  1.
</event>
<event>
 7    1  0.6386201E-006  0.1276028E+03  0.7818608E-02  0.1251451E+00
          2   -1    0    0  502    0  0.00000000000E+00  0.00000000000E+00  0.99519332695E+03  0.99519332695E+03  0.00000000000E+00 0. -1.
          1   -1    0    0  501    0 -0.00000000000E+00 -0.00000000000E+00 -0.36573443865E+03  0.36573443865E+03  0.00000000000E+00 0. -1.
         25    2    1    2    0    0 -0.28868100355E+02  0.65514516279E+02  0.38020655257E+02  0.14898201541E+03  0.12499820650E+03 0.  0.
          2    1    1    2  501    0 -0.51827412622E+02 -0.13076583630E+03 -0.29111255475E+03  0.32331455918E+03  0.00000000000E+00 0. -1.
          1    1    1    2  502    0  0.80695512977E+02  0.65251320022E+02  0.88255078780E+03  0.88863119101E+03  0.00000000000E+00 0. -1.
         22    1    3    3    0    0 -0.34595345164E+02  0.30311695265E+02  0.80989736537E+02  0.93139541556E+02  0.00000000000E+00 0.  1.
         22    1    3    3    0    0  0.57272448089E+01  0.35202821014E+02 -0.42969081280E+02  0.55842473857E+02  0.00000000000E+00 0.  1.
</event>
<event>
 7    1  0.6386201E-006  0.1037704E+03  0.7818608E-02  0.1347605E+00
          2   -1    0    0  502    0  0.00000000000E+00  0.00000000000E+00  0.63839812320E+03  0.63839812320E+03  0.00000000000E+00 0. -1.
          1   -1    0    0  501    0 -0.00000000000E+00 -0.00000000000E+00 -0.34841695008E+03  0.34841695008E+03  0.00000000000E+00 0. -1.
         25    2    1    2    0    0 -0.14727788867E+03 -0.45972444118E+02  0.18042209814E+03  0.26828773380E+03  0.12498772939E+03 0.  0.
          2    1    1    2  501    0  0.97769969534E+02  0.28514274160E+02 -0.29422116145E+03  0.31134887605E+03  0.00000000000E+00 0. -1.
          1    1    1    2  502    0  0.49507919135E+02  0.17458169958E+02  0.40378023643E+03  0.40717846343E+03  0.00000000000E+00 0. -1.
         22    1    3    3    0    0 -0.14964724279E+03 -0.47218172313E+02  0.19679441607E+03  0.25169802397E+03  0.00000000000E+00 0. -1.
         22    1    3    3    0    0  0.23693541231E+01  0.12457281946E+01 -0.16372317932E+02  0.16589709827E+02  0.00000000000E+00 0. -1.
</event>
<event>
 7    1  0.6386201E-006  0.1309950E+03  0.7818608E-02  0.1377802E+00
          2   -1    0    0  502    0  0.00000000000E+00  0.00000000000E+00  0.25808513453E+03  0.25808513453E+03  0.00000000000E+00 0. -1.
          1   -1    0    0  501    0 -0.00000000000E+00 -0.00000000000E+00 -0.78900118657E+03  0.78900118657E+03  0.00000000000E+00 0. -1.
         25    2    1    2    0    0 -0.24754885041E+02 -0.98059014582E+02 -0.18548927053E+00  0.16078870463E+03  0.12499839381E+03 0.  0.
          2    1    1    2  501    0  0.35440189492E+02  0.12853811497E+03 -0.70070693557E+03  0.71327993354E+03  0.00000000000E+00 0. -1.
          1    1    1    2  502    0 -0.10685304451E+02 -0.30479100384E+02  0.16997637281E+03  0.17301768293E+03  0.00000000000E+00 0. -1.
         22    1    3    3    0    0  0.13119464859E+02 -0.10400402038E+03 -0.33445158733E+02  0.11003424584E+03  0.00000000000E+00 0.  1.
         22    1    3    3    0    0 -0.37874349899E+02  0.59450058029E+01  0.33259669463E+02  0.50754458790E+02  0.00000000000E+00 0.  1.
</event>
<event>
 7    1  0.6386201E-006  0.1273948E+03  0.7818608E-02  0.1349413E+00
          2   -1    0    0  502    0  0.00000000000E+00  0.00000000000E+00  0.80262653804E+03  0.80262653804E+03  0.00000000000E+00 0. -1.
          1   -1    0    0  501    0 -0.00000000000E+00 -0.00000000000E+00 -0.16388276539E+03  0.16388276539E+03  0.00000000000E+00 0. -1.
         25    2    1    2    0    0 -0.12111961041E+03 -0.18240037713E+01  0.20050110239E+02  0.17521355433E+03  0.12499798272E+03 0.  0.
          2    1    1    2  501    0  0.12551792310E+03  0.43698511300E+02 -0.34046781666E+02  0.13719873269E+03  0.00000000000E+00 0. -1.
          1    1    1    2  502    0 -0.43983126888E+01 -0.41874507529E+02  0.65274044408E+03  0.65409701641E+03  0.00000000000E+00 0. -1.
         22    1    3    3    0    0 -0.13487858850E+03  0.30741949986E+02  0.20557060788E+02  0.13985669049E+03  0.00000000000E+00 0.  1.
         22    1    3    3    0    0  0.13758978090E+02 -0.32565953757E+02 -0.50695054865E+00  0.35356863846E+02  0.00000000000E+00 0.  1.
</event>
<event>
 7    1  0.6386201E-006  0.5558557E+02  0.7818608E-02  0.1454179E+00
          2   -1    0    0  502    0  0.00000000000E+00  0.00000000000E+00  0.54832293797E+03  0.54832293797E+03  0.00000000000E+00 0. -1.
          1   -1    0    0  501    0 -0.00000000000E+00 -0.00000000000E+00 -0.10837438943E+03  0.10837438943E+03  0.00000000000E+00 0. -1.
         25    2    1    2    0    0 -0.66594344447E+02  0.34348614541E+02  0.34681570874E+03  0.37620857145E+03  0.12504846808E+03 0.  0.
          2    1    1    2  501    0  0.13980824653E+02 -0.39753027198E+02 -0.84890743869E+02  0.94774495641E+02  0.00000000000E+00 0. -1.
          1    1    1    2  502    0  0.52613519794E+02  0.54044126567E+01  0.17802358367E+03  0.18571426031E+03  0.00000000000E+00 0. -1.
         22    1    3    3    0    0 -0.20420969339E+02  0.77870858311E+02  0.22289520331E+03  0.23698767525E+03  0.00000000000E+00 0.  1.
         22    1    3    3    0    0 -0.46173375108E+02 -0.43522243770E+02  0.12392050543E+03  0.13922089620E+03  0.00000000000E+00 0.  1.
</event>
<event>
 7    1  0.6386201E-006  0.1484741E+03  0.7818608E-02  0.1259416E+00
          2   -1    0    0  502    0  0.00000000000E+00  0.00000000000E+00  0.43724160044E+03  0.43724160044E+03  0.00000000000E+00 0. -1.
          1   -1    0    0  501    0 -0.00000000000E+00 -0.00000000000E+00 -0.48423096897E+03  0.48423096897E+03  0.00000000000E+00 0. -1.
         25    2    1    2    0    0  0.15014447965E+03  0.15682224013E+03  0.77443280380E+02  0.26221864809E+03  0.12499831184E+03 0.  0.
          2    1    1    2  501    0 -0.49762730935E+02 -0.65707687215E+02 -0.36982806994E+03  0.37890187498E+03  0.00000000000E+00 0. -1.
          1    1    1    2  502    0 -0.10038174871E+03 -0.91114552919E+02  0.24539542102E+03  0.28035204634E+03  0.00000000000E+00 0. -1.
         22    1    3    3    0    0  0.10232510603E+03  0.46101070034E+02  0.85877761852E+02  0.14131781898E+03  0.00000000000E+00 0. -1.
         22    1    3    3    0    0  0.47819373620E+02  0.11072117010E+03 -0.84344814721E+01  0.12090082911E+03  0.00000000000E+00 0. -1.
</event>
<event>
 7    1  0.6386201E-006  0.1663641E+03  0.7818608E-02  0.1212944E+00
          2   -1    0    0  502    0  0.00000000000E+00  0.00000000000E+00  0.73241033890E+03  0.73241033890E+03  0.00000000000E+00 0. -1.
          1   -1    0    0  501    0 -0.00000000000E+00 -0.00000000000E+00 -0.54082593352E+03  0.54082593352E+03  0.00000000000E+00 0. -1.
         25    2    1    2    0    0 -0.23725627339E+03  0.31133751240E+01 -0.32848654387E+02  0.27019117155E+03  0.12499601082E+03 0.  0.
          2    1    1    2  501    0  0.14172266713E+03 -0.72879370277E+02 -0.36688954001E+03  0.40000581441E+03  0.00000000000E+00 0. -1.
          1    1    1    2  502    0  0.95533606260E+02  0.69765995153E+02  0.59132259977E+03  0.60303928646E+03  0.00000000000E+00 0. -1.
         22    1    3    3    0    0 -0.61416283817E+02  0.18081996031E+02  0.44024876761E+02  0.77698830571E+02  0.00000000000E+00 0. -1.
         22    1    3    3    0    0 -0.17583998958E+03 -0.14968620906E+02 -0.76873531148E+02  0.19249234098E+03  0.00000000000E+00 0. -1.
</event>
<event>
 7    1  0.6386201E-006  0.7998806E+02  0.7818608E-02  0.1362601E+00
          2   -1    0    0  502    0  0.00000000000E+00  0.00000000000E+00  0.98592471194E+03  0.98592471194E+03  0.00000000000E+00 0. -1.
          1   -1    0    0  501    0 -0.00000000000E+00 -0.00000000000E+00 -0.99695730974E+02  0.99695730974E+02  0.00000000000E+00 0. -1.
         25    2    1    2    0    0 -0.21146518576E+02  0.20374495581E+02  0.13370409175E+03  0.18537609003E+03  0.12500086114E+03 0.  0.
          2    1    1    2  501    0  0.73873273689E+02 -0.48975212744E+02 -0.45732697428E+02  0.99736210289E+02  0.00000000000E+00 0. -1.
          1    1    1    2  502    0 -0.52726755113E+02  0.28600717163E+02  0.79825758664E+03  0.80050814260E+03  0.00000000000E+00 0. -1.
         22    1    3    3    0    0 -0.44518332922E+02 -0.27565824514E+02  0.11906407672E+03  0.13006925468E+03  0.00000000000E+00 0.  1.
         22    1    3    3    0    0  0.23371814346E+02  0.47940320095E+02  0.14640015030E+02  0.55306835353E+02  0.00000000000E+00 0.  1.
</event>
<event>
 7    1  0.6386201E-006  0.4764904E+02  0.7818608E-02  0.1488882E+00
          2   -1    0    0  502    0  0.00000000000E+00  0.00000000000E+00  0.44715200360E+04  0.44715200360E+04  0.00000000000E+00 0. -1.
          1   -1    0    0  501    0 -0.00000000000E+00 -0.00000000000E+00 -0.47777144933E+03  0.47777144933E+03  0.00000000000E+00 0. -1.
         25    2    1    2    0    0 -0.20752940956E+02 -0.46026249261E+00  0.19637771795E+04  0.19678609466E+04  0.12499999211E+03 0.  0.
          2    1    1    2  501    0 -0.18037633127E+02 -0.33853294377E+02 -0.47468821081E+03  0.47623555016E+03  0.00000000000E+00 0. -1.
          1    1    1    2  502    0  0.38790574083E+02  0.34313556870E+02  0.25046596180E+04  0.25051949886E+04  0.00000000000E+00 0. -1.
         22    1    3    3    0    0 -0.27283197410E+01  0.59167137106E+02  0.68050597415E+03  0.68307874707E+03  0.00000000000E+00 0.  1.
         22    1    3    3    0    0 -0.18024621215E+02 -0.59627399599E+02  0.12832712053E+04  0.12847821995E+04  0.00000000000E+00 0.  1.
</event>
<event>
 7    1  0.6386201E-006  0.1148814E+03  0.7818608E-02  0.1370987E+00
          2   -1    0    0  502    0  0.00000000000E+00  0.00000000000E+00  0.27996441655E+03  0.27996441655E+03  0.00000000000E+00 0. -1.
          1   -1    0    0  501    0 -0.00000000000E+00 -0.00000000000E+00 -0.10291873200E+04  0.10291873200E+04  0.00000000000E+00 0. -1.
         25    2    1    2    0    0  0.74143441821E+02 -0.61030075684E+02 -0.30430164944E+03  0.34270358715E+03  0.12499733874E+03 0.  0.
          2    1    1    2  501    0 -0.11085243277E+03  0.48005760678E+02 -0.69902002854E+03  0.70938129043E+03  0.00000000000E+00 0. -1.
          1    1    1    2  502    0  0.36708990950E+02  0.13024315006E+02  0.25409877450E+03  0.25706685901E+03  0.00000000000E+00 0. -1.
         22    1    3    3    0    0  0.55840073849E+02 -0.14366463114E+02 -0.28201245256E+03  0.28784636962E+03  0.00000000000E+00 0.  1.
         22    1    3    3    0    0  0.18303367971E+02 -0.46663612570E+02 -0.22289196888E+02  0.54857217529E+02  0.00000000000E+00 0.  1.
</event>
<event>
 7    1  0.6386201E-006  0.8248874E+02  0.7818608E-02  0.1449911E+00
          2   -1    0    0  502    0  0.00000000000E+00  0.00000000000E+00  0.13921037169E+04  0.13921037169E+04  0.00000000000E+00 0. -1.
          1   -1    0    0  501    0 -0.00000000000E+00 -0.00000000000E+00 -0.46723332407E+03  0.46723332407E+03  0.00000000000E+00 0. -1.
         25    2    1    2    0    0  0.82798669864E+02  0.74241194170E+02 -0.13797951327E+03  0.21686587227E+03  0.12500034333E+03 0.  0.
          2    1    1    2  501    0 -0.18910692172E+02 -0.22381043036E+02 -0.28781468729E+03  0.28930229793E+03  0.00000000000E+00 0. -1.
          1    1    1    2  502    0 -0.63887977692E+02 -0.51860151134E+02  0.13506645934E+04  0.13531688708E+04  0.00000000000E+00 0. -1.
         22    1    3    3    0    0  0.36776068041E+02  0.87334098926E+02 -0.31049812263E+02  0.99718678578E+02  0.00000000000E+00 0.  1.
         22    1    3    3    0    0  0.46022601823E+02 -0.13092904756E+02 -0.10692970101E+03  0.11714719370E+03  0.00000000000E+00 0.  1.
</event>
<event>
 7    1  0.6386201E-006  0.2434466E+03  0.7818608E-02  0.1221507E+00
          2   -1    0    0  502    0  0.00000000000E+00  0.00000000000E+00  0.19802416275E+03  0.19802416275E+03  0.00000000000E+00 0. -1.
          1   -1    0    0  501    0 -0.00000000000E+00 -0.00000000000E+00 -0.14072522289E+04  0.14072522289E+04  0.00000000000E+00 0. -1.
         25    2    1    2    0    0  0.28329779728E+01  0.25308243451E+03 -0.82004275532E+03  0.86726747275E+03  0.12499601720E+03 0.  0.
          2    1    1    2  501    0 -0.71260970080E+02 -0.19416435295E+02 -0.47434927465E+03  0.48006495204E+03  0.00000000000E+00 0. -1.
          1    1    1    2  502    0  0.68427992107E+02 -0.23366599922E+03  0.85163963833E+02  0.25794396684E+03  0.00000000000E+00 0. -1.
         22    1    3    3    0    0 -0.34566788451E+01  0.23575389426E+03 -0.57404538555E+03  0.62058033482E+03  0.00000000000E+00 0.  1.
         22    1    3    3    0    0  0.62896568180E+01  0.17328540256E+02 -0.24599736977E+03  0.24668713793E+03  0.00000000000E+00 0.  1.
</event>
<event>
 7    1  0.6386201E-006  0.1010814E+03  0.7818608E-02  0.1278988E+00
          2   -1    0    0  502    0  0.00000000000E+00  0.00000000000E+00  0.17039186413E+04  0.17039186413E+04  0.00000000000E+00 0. -1.
          1   -1    0    0  501    0 -0.00000000000E+00 -0.00000000000E+00 -0.22235659535E+03  0.22235659535E+03  0.00000000000E+00 0. -1.
         25    2    1    2    0    0 -0.89567368314E+02  0.41091663625E+02  0.22053542588E+03  0.27197574057E+03  0.12499636435E+03 0.  0.
          2    1    1    2  501    0  0.79750644816E+02  0.62107102697E+02 -0.18166229942E+03  0.20789095359E+03  0.00000000000E+00 0. -1.
          1    1    1    2  502    0  0.98167234979E+01 -0.10319876632E+03  0.14426889195E+04  0.14464085425E+04  0.00000000000E+00 0. -1.
         22    1    3    3    0    0 -0.22222376802E+02 -0.43673417574E+02  0.50231383256E+02  0.70174021527E+02  0.00000000000E+00 0.  1.
         22    1    3    3    0    0 -0.67344991512E+02  0.84765081200E+02  0.17030404262E+03  0.20180171904E+03  0.00000000000E+00 0.  1.
</event>
<event>
 7    1  0.6386201E-006  0.8318568E+02  0.7818608E-02  0.1395007E+00
          2   -1    0    0  502    0  0.00000000000E+00  0.00000000000E+00  0.28138895996E+04  0.28138895996E+04  0.00000000000E+00 0. -1.
          1   -1    0    0  501    0 -0.00000000000E+00 -0.00000000000E+00 -0.12038289596E+03  0.12038289596E+03  0.00000000000E+00 0. -1.
         25    2    1    2    0    0  0.24772151394E+02  0.58606784103E+02  0.18583820595E+01  0.14027266105E+03  0.12499820489E+03 0.  0.
          2    1    1    2  501    0 -0.67154377769E+02 -0.71365003368E+02 -0.39166813295E+01  0.98071476750E+02  0.00000000000E+00 0. -1.
          1    1    1    2  502    0  0.42382226375E+02  0.12758219264E+02  0.26955650029E+04  0.26959283577E+04  0.00000000000E+00 0. -1.
         22    1    3    3    0    0  0.69741165447E+02  0.22668567893E+02  0.26061712988E+02  0.77826133221E+02  0.00000000000E+00 0.  1.
         22    1    3    3    0    0 -0.44969014053E+02  0.35938216211E+02 -0.24203330928E+02  0.62446527824E+02  0.00000000000E+00 0.  1.
</event>
<event>
 7    1  0.6386201E-006  0.4458756E+02  0.7818608E-02  0.1495072E+00
          2   -1    0    0  502    0  0.00000000000E+00  0.00000000000E+00  0.16809887913E+03  0.16809887913E+03  0.00000000000E+00 0. -1.
          1   -1    0    0  501    0 -0.00000000000E+00 -0.00000000000E+00 -0.38893041734E+03  0.38893041734E+03  0.00000000000E+00 0. -1.
         25    2    1    2    0    0  0.10231068174E+02  0.26403948672E+02  0.10524653448E+03  0.16584236845E+03  0.12500005956E+03 0.  0.
          2    1    1    2  501    0  0.28069995460E+02 -0.35060882311E+02 -0.34478035321E+03  0.34769337364E+03  0.00000000000E+00 0. -1.
          1    1    1    2  502    0 -0.38301063635E+02  0.86569336393E+01  0.18702280521E+02  0.43493554376E+02  0.00000000000E+00 0. -1.
         22    1    3    3    0    0 -0.46253037123E+02 -0.19104801477E+02  0.19949331570E+02  0.53873116790E+02  0.00000000000E+00 0. -1.
         22    1    3    3    0    0  0.56484105298E+02  0.45508750149E+02  0.85297202914E+02  0.11196925166E+03  0.00000000000E+00 0. -1.
</event>
<event>
 7    1  0.6386201E-006  0.7427856E+02  0.7818608E-02  0.1365210E+00
          2   -1    0    0  502    0  0.00000000000E+00  0.00000000000E+00  0.91831410964E+03  0.91831410964E+03  0.00000000000E+00 0. -1.
          1   -1    0    0  501    0 -0.00000000000E+00 -0.00000000000E+00 -0.83935413028E+02  0.83935413028E+02  0.00000000000E+00 0. -1.
         25    2    1    2    0    0 -0.96910363279E+01 -0.12875396471E+03  0.42855199256E+03  0.46471798410E+03  0.12503797343E+03 0.  0.
          2    1    1    2  501    0 -0.14745072535E+02  0.70466745763E+02 -0.43279090058E+02  0.84000351540E+02  0.00000000000E+00 0. -1.
          1    1    1    2  502    0  0.24436108863E+02  0.58287218949E+02  0.44910579410E+03  0.45353118703E+03  0.00000000000E+00 0. -1.
         22    1    3    3    0    0  0.35560566685E+02  0.66064070570E+01  0.69713222922E+02  0.78537455824E+02  0.00000000000E+00 0. -1.
         22    1    3    3    0    0 -0.45251603013E+02 -0.13536037177E+03  0.35883876964E+03  0.38618052827E+03  0.00000000000E+00 0. -1.
</event>
<event>
 7    1  0.6386201E-006  0.7503335E+02  0.7818608E-02  0.1434610E+00
          2   -1    0    0  502    0  0.00000000000E+00  0.00000000000E+00  0.74999872232E+02  0.74999872232E+02  0.00000000000E+00 0. -1.
          1   -1    0    0  501    0 -0.00000000000E+00 -0.00000000000E+00 -0.62638432389E+03  0.62638432389E+03  0.00000000000E+00 0. -1.
         25    2    1    2    0    0  0.44279729925E+02  0.77246984723E+02 -0.85135136178E+02  0.17550029096E+03  0.12499827833E+03 0.  0.
          2    1    1    2  501    0 -0.35629167931E+02 -0.58154384799E+01 -0.45086018751E+03  0.45230317887E+03  0.00000000000E+00 0. -1.
          1    1    1    2  502    0 -0.86505619938E+01 -0.71431546243E+02 -0.15389127967E+02  0.73580726288E+02  0.00000000000E+00 0. -1.
         22    1    3    3    0    0  0.75805056414E+02  0.54655760984E+02 -0.97243335338E+02  0.13487003023E+03  0.00000000000E+00 0. -1.
         22    1    3    3    0    0 -0.31525326489E+02  0.22591223739E+02  0.12108199160E+02  0.40630260732E+02  0.00000000000E+00 0. -1.
</event>
<event>
 7    1  0.6386201E-006  0.8311951E+02  0.7818608E-02  0.1348685E+00
          2   -1    0    0  502    0  0.00000000000E+00  0.00000000000E+00  0.14926644890E+04  0.14926644890E+04  0.00000000000E+00 0. -1.
          1   -1    0    0  501    0 -0.00000000000E+00 -0.00000000000E+00 -0.87644877095E+03  0.87644877095E+03  0.00000000000E+00 0. -1.
         25    2    1    2    0    0 -0.76799485338E+02 -0.39766053573E+02  0.75647423262E+01  0.15218635020E+03  0.12499583951E+03 0.  0.
          2    1    1    2  501    0 -0.28212539377E+01  0.64874360213E+02 -0.80159052777E+03  0.80421639893E+03  0.00000000000E+00 0. -1.
          1    1    1    2  502    0  0.79620739276E+02 -0.25108306640E+02  0.14102415035E+04  0.14127105108E+04  0.00000000000E+00 0. -1.
         22    1    3    3    0    0 -0.36993777926E+02 -0.42086365780E+02 -0.54662544932E+02  0.78280237661E+02  0.00000000000E+00 0. -1.
         22    1    3    3    0    0 -0.39805707413E+02  0.23203122071E+01  0.62227287258E+02  0.73906112540E+02  0.00000000000E+00 0. -1.
</event>
<event>
 7    1  0.6386201E-006  0.7725971E+02  0.7818608E-02  0.1365704E+00
          2   -1    0    0  502    0  0.00000000000E+00  0.00000000000E+00  0.18337438254E+03  0.18337438254E+03  0.00000000000E+00 0. -1.
          1   -1    0    0  501    0 -0.00000000000E+00 -0.00000000000E+00 -0.64287116249E+03  0.64287116249E+03  0.00000000000E+00 0. -1.
         25    2    1    2    0    0 -0.13858727645E+02 -0.27851147098E+02 -0.57754130460E+02  0.14116671882E+03  0.12499900876E+03 0.  0.
          2    1    1    2  501    0 -0.59028762676E+02 -0.13324162677E+02 -0.52916700377E+03  0.53261585220E+03  0.00000000000E+00 0. -1.
          1    1    1    2  502    0  0.72887490321E+02  0.41175309775E+02  0.12742435427E+03  0.15246297400E+03  0.00000000000E+00 0. -1.
         22    1    3    3    0    0  0.33035220771E+02  0.16245550040E+02 -0.66692797286E+02  0.76178559433E+02  0.00000000000E+00 0.  1.
         22    1    3    3    0    0 -0.46893948415E+02 -0.44096697138E+02  0.89386668260E+01  0.64988159391E+02  0.00000000000E+00 0.  1.
</event>
<event>
 7    1  0.6386201E-006  0.1653371E+03  0.7818608E-02  0.1241183E+00
          2   -1    0    0  502    0  0.00000000000E+00  0.00000000000E+00  0.60503499478E+03  0.60503499478E+03  0.00000000000E+00 0. -1.
          1   -1    0    0  501    0 -0.00000000000E+00 -0.00000000000E+00 -0.12071172690E+04  0.12071172690E+04  0.00000000000E+00 0. -1.
         25    2    1    2    0    0  0.90628254165E+02  0.73675526636E+02 -0.39060207395E+03  0.42642202269E+03  0.12499679032E+03 0.  0.
          2    1    1    2  501    0 -0.31875981753E+02  0.82879866040E+02 -0.78414217679E+03  0.78915404315E+03  0.00000000000E+00 0. -1.
          1    1    1    2  502    0 -0.58752272412E+02 -0.15655539268E+03  0.57266197655E+03  0.59657619788E+03  0.00000000000E+00 0. -1.
         22    1    3    3    0    0  0.57350314087E+02  0.61414451698E+02 -0.38032665105E+03  0.38949859422E+03  0.00000000000E+00 0.  1.
         22    1    3    3    0    0  0.33277940078E+02  0.12261074938E+02 -0.10275422897E+02  0.36923428473E+02  0.00000000000E+00 0.  1.
</event>
<event>
 7    1  0.6386201E-006  0.1921116E+03  0.7818608E-02  0.1161072E+00
          2   -1    0    0  502    0  0.00000000000E+00  0.00000000000E+00  0.43258425558E+03  0.43258425558E+03  0.00000000000E+00 0. -1.
          1   -1    0    0  501    0 -0.00000000000E+00 -0.00000000000E+00 -0.88537022235E+03  0.88537022235E+03  0.00000000000E+00 0. -1.
         25    2    1    2    0    0  0.71640066743E+02  0.53102468551E+02  0.37193786626E+02  0.15798800042E+03  0.12499863672E+03 0.  0.
          2    1    1    2  501    0  0.17323044644E+02 -0.21220422695E+03 -0.78489736440E+03  0.81326170109E+03  0.00000000000E+00 0. -1.
          1    1    1    2  502    0 -0.88963111387E+02  0.15910175840E+03  0.29491761101E+03  0.34670477642E+03  0.00000000000E+00 0. -1.
         22    1    3    3    0    0  0.91914618728E+02  0.11220304042E+02  0.55533331422E+02  0.10797288205E+03  0.00000000000E+00 0.  1.
         22    1    3    3    0    0 -0.20274551984E+02  0.41882164509E+02 -0.18339544796E+02  0.50015118369E+02  0.00000000000E+00 0.  1.
</event>
<event>
 7    1  0.6386201E-006  0.4397692E+02  0.7818608E-02  0.1499424E+00
          2   -1    0    0  502    0  0.00000000000E+00  0.00000000000E+00  0.91304791117E+03  0.91304791117E+03  0.00000000000E+00 0. -1.
          1   -1    0    0  501    0 -0.00000000000E+00 -0.00000000000E+00 -0.85857160679E+02  0.85857160679E+02  0.00000000000E+00 0. -1.
         25    2    1    2    0    0  0.19055070441E+01  0.15893413505E+02  0.11355635865E+03  0.16963252832E+03  0.12499566603E+03 0.  0.
          2    1    1    2  501    0 -0.36552395874E+02  0.12513418149E+02 -0.50634914330E+02  0.63691112622E+02  0.00000000000E+00 0. -1.
          1    1    1    2  502    0  0.34646888830E+02 -0.28406831654E+02  0.76426930617E+03  0.76558143091E+03  0.00000000000E+00 0. -1.
         22    1    3    3    0    0  0.41438279917E+02  0.40477804073E+02  0.10825359516E+03  0.12277794807E+03  0.00000000000E+00 0. -1.
         22    1    3    3    0    0 -0.39532772873E+02 -0.24584390568E+02  0.53027634857E+01  0.46854580259E+02  0.00000000000E+00 0. -1.
</event>
<event>
 7    1  0.6386201E-006  0.7011795E+02  0.7818608E-02  0.1433122E+00
          2   -1    0    0  502    0  0.00000000000E+00  0.00000000000E+00  0.16364905087E+04  0.16364905087E+04  0.00000000000E+00 0. -1.
          1   -1    0    0  501    0 -0.00000000000E+00 -0.00000000000E+00 -0.53131812141E+02  0.53131812141E+02  0.00000000000E+00 0. -1.
         25    2    1    2    0    0 -0.45581413378E+02 -0.24946787993E+01  0.29671985412E+03  0.32519488285E+03  0.12500060533E+03 0.  0.
          2    1    1    2  501    0 -0.15621839523E+02 -0.35807884976E+02 -0.27836965829E+02  0.47970232052E+02  0.00000000000E+00 0. -1.
          1    1    1    2  502    0  0.61203252901E+02  0.38302563775E+02  0.13144758083E+04  0.13164572060E+04  0.00000000000E+00 0. -1.
         22    1    3    3    0    0 -0.60202138764E+02 -0.35209339209E+02  0.82635644106E+02  0.10813253329E+03  0.00000000000E+00 0. -1.
         22    1    3    3    0    0  0.14620725386E+02  0.32714660410E+02  0.21408421001E+03  0.21706234955E+03  0.00000000000E+00 0. -1.
</event>
<event>
 7    1  0.6386201E-006  0.4026790E+02  0.7818608E-02  0.1539831E+00
          2   -1    0    0  502    0  0.00000000000E+00  0.00000000000E+00  0.27706594454E+03  0.27706594454E+03  0.00000000000E+00 0. -1.
          1   -1    0    0  501    0 -0.00000000000E+00 -0.00000000000E+00 -0.20435262957E+04  0.20435262957E+04  0.00000000000E+00 0. -1.
         25    2    1    2    0    0 -0.12007214761E+02 -0.95734099590E+01 -0.13695345931E+03  0.18605622257E+03  0.12499937822E+03 0.  0.
          2    1    1    2  501    0  0.90830319588E+01 -0.30890175398E+02 -0.18802532708E+04  0.18805289327E+04  0.00000000000E+00 0. -1.
          1    1    1    2  502    0  0.29241828023E+01  0.40463585357E+02  0.25074637902E+03  0.25400708489E+03  0.00000000000E+00 0. -1.
         22    1    3    3    0    0 -0.23600678757E+02 -0.64545940899E+02 -0.87067451077E+02  0.11092299834E+03  0.00000000000E+00 0.  1.
         22    1    3    3    0    0  0.11593463995E+02  0.54972530940E+02 -0.49886008234E+02  0.75133224228E+02  0.00000000000E+00 0.  1.
</event>
<event>
 7    1  0.6386201E-006  0.7124065E+02  0.7818608E-02  0.1395048E+00
          2   -1    0    0  502    0  0.00000000000E+00  0.00000000000E+00  0.39448083378E+03  0.39448083378E+03  0.00000000000E+00 0. -1.
          1   -1    0    0  501    0 -0.00000000000E+00 -0.00000000000E+00 -0.67391958489E+03  0.67391958489E+03  0.00000000000E+00 0. -1.
         25    2    1    2    0    0  0.51332657110E+02 -0.52912701046E+02 -0.16287933162E+03  0.21815114452E+03  0.12500179827E+03 0.  0.
          2    1    1    2  501    0 -0.35570827323E+01  0.72579537023E+02 -0.47883031019E+03  0.48431282038E+03  0.00000000000E+00 0. -1.
          1    1    1    2  502    0 -0.47775574377E+02 -0.19666835978E+02  0.36227089070E+03  0.36593645376E+03  0.00000000000E+00 0. -1.
         22    1    3    3    0    0  0.61709163193E+02 -0.11320671400E+02 -0.16366392544E+03  0.17527709181E+03  0.00000000000E+00 0.  1.
         22    1    3    3    0    0 -0.10376506083E+02 -0.41592029646E+02  0.78459381968E+00  0.42874052713E+02  0.00000000000E+00 0.  1.
</event>
<event>
 7    1  0.6386201E-006  0.1162554E+03  0.7818608E-02  0.1279588E+00
          2   -1    0    0  502    0  0.00000000000E+00  0.00000000000E+00  0.72228244093E+03  0.72228244093E+03  0.00000000000E+00 0. -1.
          1   -1    0    0  501    0 -0.00000000000E+00 -0.00000000000E+00 -0.10529558373E+03  0.10529558373E+03  0.00000000000E+00 0. -1.
         25    2    1    2    0    0  0.68705614547E+01 -0.16398624327E+03  0.16692238850E+03  0.26537916272E+03  0.12499729448E+03 0.  0.
          2    1    1    2  501    0 -0.58118389358E+02  0.64199794441E+02 -0.11354256537E+02  0.87340024785E+02  0.00000000000E+00 0. -1.
          1    1    1    2  502    0  0.51247827904E+02  0.99786448825E+02  0.46141872524E+03  0.47485883716E+03  0.00000000000E+00 0. -1.
         22    1    3    3    0    0  0.14650815435E+01 -0.53192416659E+02  0.14206320082E+03  0.15170211825E+03  0.00000000000E+00 0.  1.
         22    1    3    3    0    0  0.54054799112E+01 -0.11079382661E+03  0.24859187679E+02  0.11367704447E+03  0.00000000000E+00 0.  1.
</event>
<event>
 7    1  0.6386201E-006  0.6427461E+02  0.7818608E-02  0.1426176E+00
          2   -1    0    0  502    0  0.00000000000E+00  0.00000000000E+00  0.43650349087E+04  0.43650349087E+04  0.00000000000E+00 0. -1.
          1   -1    0    0  501    0 -0.00000000000E+00 -0.00000000000E+00 -0.30445890798E+03  0.30445890798E+03  0.00000000000E+00 0. -1.
         25    2    1    2    0    0  0.13167650592E+02  0.10434229604E+03  0.16869262745E+03  0.23482504205E+03  0.12499958421E+03 0.  0.
          2    1    1    2  501    0  0.84623574144E+01 -0.44120033558E+02 -0.26928592554E+03  0.27300750640E+03  0.00000000000E+00 0. -1.
          1    1    1    2  502    0 -0.21630008006E+02 -0.60222262481E+02  0.41611692988E+04  0.41616612683E+04  0.00000000000E+00 0. -1.
         22    1    3    3    0    0 -0.23461847458E+02  0.65275755242E+02  0.13517595162E+02  0.70669002310E+02  0.00000000000E+00 0. -1.
         22    1    3    3    0    0  0.36629498050E+02  0.39066540796E+02  0.15517503229E+03  0.16415603974E+03  0.00000000000E+00 0. -1.
</event>
<event>
 7    1  0.6386201E-006  0.1177685E+03  0.7818608E-02  0.1338457E+00
          2   -1    0    0  502    0  0.00000000000E+00  0.00000000000E+00  0.30431187606E+04  0.30431187606E+04  0.00000000000E+00 0. -1.
          1   -1    0    0  501    0 -0.00000000000E+00 -0.00000000000E+00 -0.29945606637E+02  0.29945606637E+02  0.00000000000E+00 0. -1.
         25    2    1    2    0    0 -0.66359840296E+02  0.14711732591E+03  0.10689683019E+04  0.10882868255E+04  0.12501139258E+03 0.  0.
          2    1    1    2  501    0  0.43026854154E+02 -0.10283642760E+03  0.13585980840E+03  0.17573994583E+03  0.00000000000E+00 0. -1.
          1    1    1    2  502    0  0.23332986142E+02 -0.44280898302E+02  0.18083450437E+04  0.18090375959E+04  0.00000000000E+00 0. -1.
         22    1    3    3    0    0 -0.44419096920E+02  0.16762193729E+03  0.87637364023E+03  0.89336494633E+03  0.00000000000E+00 0.  1.
         22    1    3    3    0    0 -0.21940743376E+02 -0.20504611384E+02  0.19259466163E+03  0.19492187921E+03  0.00000000000E+00 0.  1.
</event>
<event>
 7    1  0.6386201E-006  0.6232912E+02  0.7818608E-02  0.1399972E+00
          2   -1    0    0  502    0  0.00000000000E+00  0.00000000000E+00  0.10284707999E+03  0.10284707999E+03  0.00000000000E+00 0. -1.
          1   -1    0    0  501    0 -0.00000000000E+00 -0.00000000000E+00 -0.86734919386E+03  0.86734919386E+03  0.00000000000E+00 0. -1.
         25    2    1    2    0    0 -0.39490754587E+02  0.10978639754E+03 -0.13535418703E+03  0.21807774476E+03  0.12499829610E+03 0.  0.
          2    1    1    2  501    0  0.26331162625E+02 -0.54546452298E+02 -0.67587226787E+03  0.67858084858E+03  0.00000000000E+00 0. -1.
          1    1    1    2  502    0  0.13159591961E+02 -0.55239945245E+02  0.46724341030E+02  0.73537680518E+02  0.00000000000E+00 0. -1.
         22    1    3    3    0    0  0.25765654619E+02  0.51943610905E+02 -0.11050679396E+01  0.57993351748E+02  0.00000000000E+00 0. -1.
         22    1    3    3    0    0 -0.65256409206E+02  0.57842786638E+02 -0.13424911909E+03  0.16008439301E+03  0.00000000000E+00 0. -1.
</event>
<event>
 7    1  0.6386201E-006  0.1619462E+03  0.7818608E-02  0.1339785E+00
          2   -1    0    0  502    0  0.00000000000E+00  0.00000000000E+00  0.60474932242E+03  0.60474932242E+03  0.00000000000E+00 0. -1.
          1   -1    0    0  501    0 -0.00000000000E+00 -0.00000000000E+00 -0.66074280461E+03  0.66074280461E+03  0.00000000000E+00 0. -1.
         25    2    1    2    0    0  0.14287773913E+03  0.12489018739E+03  0.12866797937E+02  0.22760141320E+03  0.12500096622E+03 0.  0.
          2    1    1    2  501    0 -0.13160265298E+02 -0.33488425503E+02 -0.53976760349E+03  0.54096555621E+03  0.00000000000E+00 0. -1.
          1    1    1    2  502    0 -0.12971747383E+03 -0.91401761890E+02  0.47090732335E+03  0.49692515763E+03  0.00000000000E+00 0. -1.
         22    1    3    3    0    0 -0.58797957214E+01  0.63622818570E+02  0.18829129419E+02  0.66610593416E+02  0.00000000000E+00 0.  1.
         22    1    3    3    0    0  0.14875753485E+03  0.61267368823E+02 -0.59623314823E+01  0.16099081978E+03  0.00000000000E+00 0.  1.
</event>
<event>
 7    1  0.6386201E-006  0.4613597E+02  0.7818608E-02  0.1482900E+00
          2   -1    0    0  502    0  0.00000000000E+00  0.00000000000E+00  0.89969704189E+03  0.89969704189E+03  0.00000000000E+00 0. -1.
          1   -1    0    0  501    0 -0.00000000000E+00 -0.00000000000E+00 -0.33670312537E+03  0.33670312537E+03  0.00000000000E+00 0. -1.
         25    2    1    2    0    0 -0.77561050925E+02  0.35893578571E+02  0.28679616082E+03  0.32431660480E+03  0.12500062674E+03 0.  0.
          2    1    1    2  501    0  0.35998748750E+02 -0.20268273891E+02 -0.31576591426E+03  0.31845694441E+03  0.00000000000E+00 0. -1.
          1    1    1    2  502    0  0.41562302175E+02 -0.15625304680E+02  0.59196366995E+03  0.59362661805E+03  0.00000000000E+00 0. -1.
         22    1    3    3    0    0  0.10334168057E+02  0.34091517960E+02  0.19100381911E+03  0.19429741517E+03  0.00000000000E+00 0.  1.
         22    1    3    3    0    0 -0.87895218982E+02  0.18020606118E+01  0.95792341712E+02  0.13001918963E+03  0.00000000000E+00 0.  1.
</event>
<event>
 7    1  0.6386201E-006  0.2315409E+03  0.7818608E-02  0.1131814E+00
          2   -1    0    0  502    0  0.00000000000E+00  0.00000000000E+00  0.80906348192E+03  0.80906348192E+03  0.00000000000E+00 0. -1.
          1   -1    0    0  501    0 -0.00000000000E+00 -0.00000000000E+00 -0.11605691625E+04  0.11605691625E+04  0.00000000000E+00 0. -1.
         25    2    1    2    0    0  0.69476944920E+01 -0.17510052010E+02  0.70199835998E+02  0.14459002548E+03  0.12499354429E+03 0.  0.
          2    1    1    2  501    0  0.16050196885E+03  0.17742195630E+03 -0.10909503659E+04  0.11168760600E+04  0.00000000000E+00 0. -1.
          1    1    1    2  502    0 -0.16744966335E+03 -0.15991190429E+03  0.66924484930E+03  0.70816655894E+03  0.00000000000E+00 0. -1.
         22    1    3    3    0    0 -0.31767649348E+02 -0.52787190581E+02  0.62452051619E+01  0.61924741599E+02  0.00000000000E+00 0.  1.
         22    1    3    3    0    0  0.38715343840E+02  0.35277138572E+02  0.63954630836E+02  0.82665283885E+02  0.00000000000E+00 0.  1.
</event>
<event>
 7    1  0.6386201E-006  0.7070632E+02  0.7818608E-02  0.1398654E+00
          2   -1    0    0  502    0  0.00000000000E+00  0.00000000000E+00  0.14285485354E+04  0.14285485354E+04  0.00000000000E+00 0. -1.
          1   -1    0    0  501    0 -0.00000000000E+00 -0.00000000000E+00 -0.62855840369E+02  0.62855840369E+02  0.00000000000E+00 0. -1.
         25    2    1    2    0    0  0.19946019798E+02 -0.11307543531E+02  0.97637086155E+02  0.16026028000E+03  0.12499861002E+03 0.  0.
          2    1    1    2  501    0  0.50209182571E+02 -0.61420633887E+01 -0.95649637011E+01  0.51479855164E+02  0.00000000000E+00 0. -1.
          1    1    1    2  502    0 -0.70155202369E+02  0.17449606920E+02  0.12776205726E+04  0.12796642406E+04  0.00000000000E+00 0. -1.
         22    1    3    3    0    0 -0.52712205547E+02  0.34327088745E+01  0.37180014911E+02  0.64596544897E+02  0.00000000000E+00 0.  1.
         22    1    3    3    0    0  0.72658225345E+02 -0.14740252405E+02  0.60457071243E+02  0.95663735107E+02  0.00000000000E+00 0.  1.
</event>
<event>
 7    1  0.6386201E-006  0.1344725E+03  0.7818608E-02  0.1321448E+00
          2   -1    0    0  502    0  0.00000000000E+00  0.00000000000E+00  0.33204284947E+04  0.33204284947E+04  0.00000000000E+00 0. -1.
          1   -1    0    0  501    0 -0.00000000000E+00 -0.00000000000E+00 -0.70020382801E+03  0.70020382801E+03  0.00000000000E+00 0. -1.
         25    2    1    2    0    0 -0.14178875330E+03 -0.17022469130E+02  0.64974828819E+02  0.20060591382E+03  0.12500875673E+03 0.  0.
          2    1    1    2  501    0  0.13048720608E+03 -0.32617966711E+02 -0.62503045226E+03  0.63933864967E+03  0.00000000000E+00 0. -1.
          1    1    1    2  502    0  0.11301547222E+02  0.49640435842E+02  0.31802802902E+04  0.31806877593E+04  0.00000000000E+00 0. -1.
         22    1    3    3    0    0 -0.63412436093E+02 -0.69733026515E+02  0.43166217577E+02  0.10366848305E+03  0.00000000000E+00 0.  1.
         22    1    3    3    0    0 -0.78376317211E+02  0.52710557384E+02  0.21808611242E+02  0.96937430767E+02  0.00000000000E+00 0.  1.
</event>
<event>
 7    1  0.6386201E-006  0.6460819E+02  0.7818608E-02  0.1440433E+00
          2   -1    0    0  502    0  0.00000000000E+00  0.00000000000E+00  0.32300737722E+04  0.32300737722E+04  0.00000000000E+00 0. -1.
          1   -1    0    0  501    0 -0.00000000000E+00 -0.00000000000E+00 -0.12895354774E+04  0.12895354774E+04  0.00000000000E+00 0. -1.
         25    2    1    2    0    0 -0.66911712531E+02  0.65716384545E+02  0.14858507505E+04  0.14940460214E+04  0.12500096325E+03 0.  0.
          2    1    1    2  501    0  0.27435147111E+02 -0.58479829810E+02 -0.12843946634E+04  0.12860179738E+04  0.00000000000E+00 0. -1.
          1    1    1    2  502    0  0.39476565420E+02 -0.72365547348E+01  0.17390822077E+04  0.17395452544E+04  0.00000000000E+00 0. -1.
         22    1    3    3    0    0 -0.62417940485E+02 -0.23483983477E+02  0.67893451529E+03  0.68220200295E+03  0.00000000000E+00 0. -1.
         22    1    3    3    0    0 -0.44937720458E+01  0.89200368022E+02  0.80691623517E+03  0.81184401841E+03  0.00000000000E+00 0. -1.
</event>
<event>
 7    1  0.6386201E-006  0.1425365E+03  0.7818608E-02  0.1250188E+00
          2   -1    0    0  502    0  0.00000000000E+00  0.00000000000E+00  0.50433446281E+03  0.50433446281E+03  0.00000000000E+00 0. -1.
          1   -1    0    0  501    0 -0.00000000000E+00 -0.00000000000E+00 -0.35318616411E+04  0.35318616411E+04  0.00000000000E+00 0. -1.
         25    2    1    2    0    0  0.50790802701E+02 -0.14856936268E+02  0.78293569721E+02  0.15669797631E+03  0.12499575404E+03 0.  0.
          2    1    1    2  501    0 -0.14369225073E+03  0.50288759399E-02 -0.34854368599E+04  0.34883975644E+04  0.00000000000E+00 0. -1.
          1    1    1    2  502    0  0.92901448033E+02  0.14851907392E+02  0.37961611184E+03  0.39110056324E+03  0.00000000000E+00 0. -1.
         22    1    3    3    0    0  0.64478228747E+02 -0.51526221817E+02  0.83267351400E+02  0.11724267707E+03  0.00000000000E+00 0.  1.
         22    1    3    3    0    0 -0.13687426046E+02  0.36669285549E+02 -0.49737816790E+01  0.39455299246E+02  0.00000000000E+00 0.  1.
</event>
<event>
 7    1  0.6386201E-006  0.8502976E+02  0.7818608E-02  0.1422093E+00
          2   -1    0    0  502    0  0.00000000000E+00  0.00000000000E+00  0.10329119423E+04  0.10329119423E+04  0.00000000000E+00 0. -1.
          1   -1    0    0  501    0 -0.00000000000E+00 -0.00000000000E+00 -0.39742000360E+03  0.39742000360E+03  0.00000000000E+00 0. -1.
         25    2    1    2    0    0  0.99282307087E+02  0.57830668841E+02 -0.13138842231E+03  0.21468985212E+03  0.12500980892E+03 0.  0.
          2    1    1    2  501    0 -0.69910912530E+02 -0.38731318445E+02 -0.21694217583E+03  0.23119593070E+03  0.00000000000E+00 0. -1.
          1    1    1    2  502    0 -0.29371394558E+02 -0.19099350396E+02  0.98382253682E+03  0.98444616306E+03  0.00000000000E+00 0. -1.
         22    1    3    3    0    0  0.11612257677E+03  0.87898588051E+01 -0.77375025485E+02  0.13981634032E+03  0.00000000000E+00 0. -1.
         22    1    3    3    0    0 -0.16840269679E+02  0.49040810036E+02 -0.54013396826E+02  0.74873511795E+02  0.00000000000E+00 0. -1.
</event>
<event>
 7    1  0.6386201E-006  0.6546322E+02  0.7818608E-02  0.1508582E+00
          2   -1    0    0  502    0  0.00000000000E+00  0.00000000000E+00  0.58279544835E+03  0.58279544835E+03  0.00000000000E+00 0. -1.
          1   -1    0    0  501    0 -0.00000000000E+00 -0.00000000000E+00 -0.11045873750E+04  0.11045873750E+04  0.00000000000E+00 0. -1.
         25    2    1    2    0    0 -0.71182999005E+02  0.54460449763E+02  0.70451486965E+02  0.16917883430E+03  0.12500042409E+03 0.  0.
          2    1    1    2  501    0  0.51418624160E+02 -0.40186499707E+02 -0.10538927539E+04  0.10559113440E+04  0.00000000000E+00 0. -1.
          1    1    1    2  502    0  0.19764374846E+02 -0.14273950056E+02  0.46164934035E+03  0.46229264499E+03  0.00000000000E+00 0. -1.
         22    1    3    3    0    0  0.13754628899E+00  0.76303077400E+02  0.52008904474E+02  0.92342323364E+02  0.00000000000E+00 0. -1.
         22    1    3    3    0    0 -0.71320545294E+02 -0.21842627637E+02  0.18442582491E+02  0.76836510932E+02  0.00000000000E+00 0. -1.
</event>
<event>
 7    1  0.6386201E-006  0.6793143E+02  0.7818608E-02  0.1522448E+00
          2   -1    0    0  502    0  0.00000000000E+00  0.00000000000E+00  0.21670003832E+04  0.21670003832E+04  0.00000000000E+00 0. -1.
          1   -1    0    0  501    0 -0.00000000000E+00 -0.00000000000E+00 -0.41496499550E+03  0.41496499550E+03  0.00000000000E+00 0. -1.
         25    2    1    2    0    0  0.46362112273E+02  0.75646348622E+02  0.79341659502E+02  0.17260138401E+03  0.12499729324E+03 0.  0.
          2    1    1    2  501    0 -0.13953180691E+02 -0.16227597010E+02 -0.36746259219E+03  0.36808529286E+03  0.00000000000E+00 0. -1.
          1    1    1    2  502    0 -0.32408931582E+02 -0.59418751612E+02  0.20401563203E+04  0.20412787018E+04  0.00000000000E+00 0. -1.
         22    1    3    3    0    0  0.32843143507E+02  0.29519916881E+01 -0.27316332461E+02  0.42820186238E+02  0.00000000000E+00 0. -1.
         22    1    3    3    0    0  0.13518968766E+02  0.72694356934E+02  0.10665799196E+03  0.12978119778E+03  0.00000000000E+00 0. -1.
</event>
<event>
 7    1  0.6386201E-006  0.2661119E+02  0.7818608E-02  0.1689888E+00
          2   -1    0    0  502    0  0.00000000000E+00  0.00000000000E+00  0.68404958711E+03  0.68404958711E+03  0.00000000000E+00 0. -1.
          1   -1    0    0  501    0 -0.00000000000E+00 -0.00000000000E+00 -0.10265494771E+04  0.10265494771E+04  0.00000000000E+00 0. -1.
         25    2    1    2    0    0 -0.29971891380E+01  0.11548897053E+02 -0.66425108599E+03  0.67601372010E+03  0.12499073711E+03 0.  0.
          2    1    1    2  501    0  0.16506285840E+02  0.11386602680E+02 -0.35587351301E+03  0.35643803031E+03  0.00000000000E+00 0. -1.
          1    1    1    2  502    0 -0.13509096702E+02 -0.22935499733E+02  0.67762470905E+03  0.67814731376E+03  0.00000000000E+00 0. -1.
         22    1    3    3    0    0  0.21078698435E+02 -0.51204553949E+02 -0.37432956489E+03  0.37840301403E+03  0.00000000000E+00 0.  1.
         22    1    3    3    0    0 -0.24075887574E+02  0.62753451002E+02 -0.28992152110E+03  0.29761070607E+03  0.00000000000E+00 0.  1.
</event>
<event>
 7    1  0.6386201E-006  0.1776051E+03  0.7818608E-02  0.1252314E+00
          2   -1    0    0  502    0  0.00000000000E+00  0.00000000000E+00  0.57298389272E+03  0.57298389272E+03  0.00000000000E+00 0. -1.
          1   -1    0    0  501    0 -0.00000000000E+00 -0.00000000000E+00 -0.25112290871E+04  0.25112290871E+04  0.00000000000E+00 0. -1.
         25    2    1    2    0    0 -0.11961647804E+03  0.12909260977E+03 -0.39577934923E+03  0.45082007164E+03  0.12499776001E+03 0.  0.
          2    1    1    2  501    0 -0.44272790771E+02 -0.59197568475E+02 -0.20727033389E+04  0.20740211096E+04  0.00000000000E+00 0. -1.
          1    1    1    2  502    0  0.16388926882E+03 -0.69895041293E+02  0.53023749375E+03  0.55937179855E+03  0.00000000000E+00 0. -1.
         22    1    3    3    0    0  0.19381955528E+02  0.34692496927E+02 -0.13390000032E+03  0.13967261589E+03  0.00000000000E+00 0.  1.
         22    1    3    3    0    0 -0.13899843357E+03  0.94400112841E+02 -0.26187934890E+03  0.31114745575E+03  0.00000000000E+00 0.  1.
</event>
<event>
 7    1  0.6386201E-006  0.5466579E+02  0.7818608E-02  0.1544937E+00
          2   -1    0    0  502    0  0.00000000000E+00  0.00000000000E+00  0.22579938587E+03  0.22579938587E+03  0.00000000000E+00 0. -1.
          1   -1    0    0  501    0 -0.00000000000E+00 -0.00000000000E+00 -0.74281653767E+02  0.74281653767E+02  0.00000000000E+00 0. -1.
         25    2    1    2    0    0 -0.69986449658E+01  0.56896797255E+02  0.86756553597E+02  0.16259482447E+03  0.12499660309E+03 0.  0.
          2    1    1    2  501    0 -0.15550929997E+02 -0.52656703178E+02 -0.12989500905E+02  0.56420625193E+02  0.00000000000E+00 0. -1.
          1    1    1    2  502    0  0.22549574963E+02 -0.42400940768E+01  0.77750679414E+02  0.81065589976E+02  0.00000000000E+00 0. -1.
         22    1    3    3    0    0 -0.52879079314E+02 -0.10197022262E+02  0.20116667252E+02  0.57487882145E+02  0.00000000000E+00 0.  1.
         22    1    3    3    0    0  0.45880434348E+02  0.67093819517E+02  0.66639886346E+02  0.10510694233E+03  0.00000000000E+00 0.  1.
</event>
<event>
 7    1  0.6386201E-006  0.4327793E+02  0.7818608E-02  0.1576265E+00
          2   -1    0    0  502    0  0.00000000000E+00  0.00000000000E+00  0.18444746772E+04  0.18444746772E+04  0.00000000000E+00 0. -1.
          1   -1    0    0  501    0 -0.00000000000E+00 -0.00000000000E+00 -0.26504584888E+03  0.26504584888E+03  0.00000000000E+00 0. -1.
         25    2    1    2    0    0  0.34724038665E+02 -0.10638982826E+02 -0.19380276535E+02  0.13160598058E+03  0.12500236873E+03 0.  0.
          2    1    1    2  501    0 -0.70529492185E+01 -0.22695288847E+02 -0.18854426788E+03  0.19003621018E+03  0.00000000000E+00 0. -1.
          1    1    1    2  502    0 -0.27671089446E+02  0.33334271672E+02  0.17873533728E+04  0.17878783353E+04  0.00000000000E+00 0. -1.
         22    1    3    3    0    0  0.40357662103E+01 -0.23855404134E+02 -0.68246602436E+02  0.72408331423E+02  0.00000000000E+00 0. -1.
         22    1    3    3    0    0  0.30688272454E+02  0.13216421308E+02  0.48866325902E+02  0.59197649156E+02  0.00000000000E+00 0. -1.
</event>
<event>
 7    1  0.6386201E-006  0.7012867E+02  0.7818608E-02  0.1434494E+00
          2   -1    0    0  502    0  0.00000000000E+00  0.00000000000E+00  0.29594511010E+03  0.29594511010E+03  0.00000000000E+00 0. -1.
          1   -1    0    0  501    0 -0.00000000000E+00 -0.00000000000E+00 -0.94283460087E+03  0.94283460087E+03  0.00000000000E+00 0. -1.
         25    2    1    2    0    0  0.53487900773E+02 -0.78247113392E+02 -0.45940996368E+03  0.48545504372E+03  0.12500207382E+03 0.  0.
          2    1    1    2  501    0 -0.53340689101E+02  0.39588212752E+02 -0.46671870620E+03  0.47142211066E+03  0.00000000000E+00 0. -1.
          1    1    1    2  502    0 -0.14721167288E+00  0.38658900640E+02  0.27923917910E+03  0.28190255660E+03  0.00000000000E+00 0. -1.
         22    1    3    3    0    0  0.38832662447E+02 -0.32586721279E+02 -0.43527747682E+02  0.66817175147E+02  0.00000000000E+00 0. -1.
         22    1    3    3    0    0  0.14655238327E+02 -0.45660392113E+02 -0.41588221600E+03  0.41863786857E+03  0.00000000000E+00 0. -1.
</event>
<event>
 7    1  0.6386201E-006  0.4607508E+02  0.7818608E-02  0.1506298E+00
          2   -1    0    0  502    0  0.00000000000E+00  0.00000000000E+00  0.48136046834E+03  0.48136046834E+03  0.00000000000E+00 0. -1.
          1   -1    0    0  501    0 -0.00000000000E+00 -0.00000000000E+00 -0.41627029313E+03  0.41627029313E+03  0.00000000000E+00 0. -1.
         25    2    1    2    0    0 -0.13325934237E+02  0.26816741395E+00  0.49290878169E+02  0.13502528157E+03  0.12499833421E+03 0.  0.
          2    1    1    2  501    0  0.42157610921E+02  0.19892179234E+02 -0.37114712223E+03  0.37406302850E+03  0.00000000000E+00 0. -1.
          1    1    1    2  502    0 -0.28831676685E+02 -0.20160346648E+02  0.38694641926E+03  0.38854245140E+03  0.00000000000E+00 0. -1.
         22    1    3    3    0    0 -0.54806939434E+02  0.35383379831E+01  0.69652635769E+02  0.88700677085E+02  0.00000000000E+00 0. -1.
         22    1    3    3    0    0  0.41481005198E+02 -0.32701705691E+01 -0.20361757600E+02  0.46324604481E+02  0.00000000000E+00 0. -1.
</event>
<event>
 7    1  0.6386201E-006  0.1459543E+03  0.7818608E-02  0.1385904E+00
          2   -1    0    0  502    0  0.00000000000E+00  0.00000000000E+00  0.62235731833E+03  0.62235731833E+03  0.00000000000E+00 0. -1.
          1   -1    0    0  501    0 -0.00000000000E+00 -0.00000000000E+00 -0.31720051871E+04  0.31720051871E+04  0.00000000000E+00 0. -1.
         25    2    1    2    0    0  0.10678799816E+03 -0.11452201165E+03 -0.12585200436E+04  0.12743695903E+04  0.12500473966E+03 0.  0.
          2    1    1    2  501    0 -0.11251340951E+03  0.87993645219E+02 -0.19025822950E+04  0.19079364607E+04  0.00000000000E+00 0. -1.
          1    1    1    2  502    0  0.57254113459E+01  0.26528366435E+02  0.61145446986E+03  0.61205645432E+03  0.00000000000E+00 0. -1.
         22    1    3    3    0    0  0.58094065311E-01  0.23842815049E+02 -0.21518284740E+03  0.21649974832E+03  0.00000000000E+00 0.  1.
         22    1    3    3    0    0  0.10672990410E+03 -0.13836482670E+03 -0.10433371962E+04  0.10578698420E+04  0.00000000000E+00 0.  1.
</event>
<event>
 7    1  0.6386201E-006  0.6996073E+02  0.7818608E-02  0.1504281E+00
          2   -1    0    0  502    0  0.00000000000E+00  0.00000000000E+00  0.24206000850E+04  0.24206000850E+04  0.00000000000E+00 0. -1.
          1   -1    0    0  501    0 -0.00000000000E+00 -0.00000000000E+00 -0.43218471104E+03  0.43218471104E+03  0.00000000000E+00 0. -1.
         25    2    1    2    0    0  0.30730598330E+02  0.38499245853E+02  0.93036150333E+03  0.94001294562E+03  0.12500099782E+03 0.  0.
          2    1    1    2  501    0 -0.53108988480E+02 -0.45642070978E+02 -0.42439666948E+03  0.43013520708E+03  0.00000000000E+00 0. -1.
          1    1    1    2  502    0  0.22378390150E+02  0.71428251247E+01  0.14824505401E+04  0.14826366433E+04  0.00000000000E+00 0. -1.
         22    1    3    3    0    0 -0.11887718264E+02 -0.25298197071E+01  0.56360365528E+01  0.13397116903E+02  0.00000000000E+00 0.  1.
         22    1    3    3    0    0  0.42618316594E+02  0.41029065560E+02  0.92472546677E+03  0.92661582872E+03  0.00000000000E+00 0.  1.
</event>
<event>
 7    1  0.6386201E-006  0.2251273E+03  0.7818608E-02  0.1239658E+00
          2   -1    0    0  502    0  0.00000000000E+00  0.00000000000E+00  0.73649932165E+03  0.73649932165E+03  0.00000000000E+00 0. -1.
          1   -1    0    0  501    0 -0.00000000000E+00 -0.00000000000E+00 -0.94289788015E+03  0.94289788015E+03  0.00000000000E+00 0. -1.
         25    2    1    2    0    0 -0.20302620551E+03  0.79381621884E+02  0.35130637254E+03  0.43192883302E+03  0.12500106954E+03 0.  0.
          2    1    1    2  501    0  0.14931273975E+02  0.64526810765E+02 -0.86050512318E+03  0.86305024146E+03  0.00000000000E+00 0. -1.
          1    1    1    2  502    0  0.18809493154E+03 -0.14390843265E+03  0.30280019214E+03  0.38441812733E+03  0.00000000000E+00 0. -1.
         22    1    3    3    0    0 -0.19773842023E+02  0.62966635019E+02  0.11301316822E+03  0.13087313760E+03  0.00000000000E+00 0. -1.
         22    1    3    3    0    0 -0.18325236349E+03  0.16414986865E+02  0.23829320433E+03  0.30105569542E+03  0.00000000000E+00 0. -1.
</event>
<event>
 7    1  0.6386201E-006  0.4959150E+02  0.7818608E-02  0.1493529E+00
          2   -1    0    0  502    0  0.00000000000E+00  0.00000000000E+00  0.20707792159E+04  0.20707792159E+04  0.00000000000E+00 0. -1.
          1   -1    0    0  501    0 -0.00000000000E+00 -0.00000000000E+00 -0.87155851941E+02  0.87155851941E+02  0.00000000000E+00 0. -1.
         25    2    1    2    0    0 -0.42691333601E+02  0.69510212462E+02  0.64512884808E+03  0.66217126485E+03  0.12500133506E+03 0.  0.
          2    1    1    2  501    0  0.99038049935E+01 -0.34282384341E+02 -0.74155318719E+02  0.82294462291E+02  0.00000000000E+00 0. -1.
          1    1    1    2  502    0  0.32787528607E+02 -0.35227828122E+02  0.14126498346E+04  0.14134693407E+04  0.00000000000E+00 0. -1.
         22    1    3    3    0    0 -0.59862507867E+02  0.39679945201E+02  0.60523588385E+03  0.60948215150E+03  0.00000000000E+00 0. -1.
         22    1    3    3    0    0  0.17171174266E+02  0.29830267261E+02  0.39892964239E+02  0.52689113357E+02  0.00000000000E+00 0. -1.
</event>
<event>
 7    1  0.6386201E-006  0.3623009E+02  0.7818608E-02  0.1543317E+00
          2   -1    0    0  502    0  0.00000000000E+00  0.00000000000E+00  0.10441525610E+04  0.10441525610E+04  0.00000000000E+00 0. -1.
          1   -1    0    0  501    0 -0.00000000000E+00 -0.00000000000E+00 -0.80313954124E+03  0.80313954124E+03  0.00000000000E+00 0. -1.
         25    2    1    2    0    0 -0.13628480673E+01  0.15360695468E+02  0.61258389387E+03  0.62539770955E+03  0.12500183902E+03 0.  0.
          2    1    1    2  501    0 -0.34895789583E+02  0.24979187527E+01 -0.79538665843E+03  0.79615569591E+03  0.00000000000E+00 0. -1.
          1    1    1    2  502    0  0.36258637651E+02 -0.17858614221E+02  0.42381578433E+03  0.42573869680E+03  0.00000000000E+00 0. -1.
         22    1    3    3    0    0  0.35891880327E+01 -0.43945239399E+02  0.45192096904E+03  0.45406676667E+03  0.00000000000E+00 0.  1.
         22    1    3    3    0    0 -0.49520361001E+01  0.59305934868E+02  0.16066292483E+03  0.17133094288E+03  0.00000000000E+00 0.  1.
</event>
<event>
 7    1  0.6386201E-006  0.5959905E+02  0.7818608E-02  0.1449560E+00
          2   -1    0    0  502    0  0.00000000000E+00  0.00000000000E+00  0.69287891647E+03  0.69287891647E+03  0.00000000000E+00 0. -1.
          1   -1    0    0  501    0 -0.00000000000E+00 -0.00000000000E+00 -0.38187315691E+03  0.38187315691E+03  0.00000000000E+00 0. -1.
         25    2    1    2    0    0 -0.31075011503E+02  0.73751244209E+02  0.18884194907E+03  0.24018947404E+03  0.12499919740E+03 0.  0.
          2    1    1    2  501    0 -0.15358659181E+02 -0.37646288347E+02 -0.35322071627E+03  0.35555309849E+03  0.00000000000E+00 0. -1.
          1    1    1    2  502    0  0.46433670684E+02 -0.36104955862E+02  0.47538452677E+03  0.47900950085E+03  0.00000000000E+00 0. -1.
         22    1    3    3    0    0 -0.35078459810E+02  0.46853464320E+02  0.10105164331E+02  0.59395789477E+02  0.00000000000E+00 0.  1.
         22    1    3    3    0    0  0.40034483073E+01  0.26897779889E+02  0.17873678474E+03  0.18079368457E+03  0.00000000000E+00 0.  1.
</event>
<event>
 7    1  0.6386201E-006  0.8974093E+02  0.7818608E-02  0.1393074E+00
          2   -1    0    0  502    0  0.00000000000E+00  0.00000000000E+00  0.30646999313E+03  0.30646999313E+03  0.00000000000E+00 0. -1.
          1   -1    0    0  501    0 -0.00000000000E+00 -0.00000000000E+00 -0.76289089217E+03  0.76289089217E+03  0.00000000000E+00 0. -1.
         25    2    1    2    0    0  0.39356338379E+02 -0.11126710597E+03 -0.31358011131E+01  0.17194166652E+03  0.12499925278E+03 0.  0.
          2    1    1    2  501    0  0.11303459002E+02  0.40103492530E+02 -0.66608544140E+03  0.66738734896E+03  0.00000000000E+00 0. -1.
          1    1    1    2  502    0 -0.50659797381E+02  0.71163613443E+02  0.21280034347E+03  0.23003186982E+03  0.00000000000E+00 0. -1.
         22    1    3    3    0    0  0.67393654924E+02 -0.96620857790E+02 -0.39028212557E+02  0.12409954174E+03  0.00000000000E+00 0.  1.
         22    1    3    3    0    0 -0.28037316545E+02 -0.14646248183E+02  0.35892411443E+02  0.47842124787E+02  0.00000000000E+00 0.  1.
</event>
<event>
 7    1  0.6386201E-006  0.1936469E+03  0.7818608E-02  0.1305916E+00
          2   -1    0    0  502    0  0.00000000000E+00  0.00000000000E+00  0.20181645694E+04  0.20181645694E+04  0.00000000000E+00 0. -1.
          1   -1    0    0  501    0 -0.00000000000E+00 -0.00000000000E+00 -0.29213835783E+03  0.29213835783E+03  0.00000000000E+00 0. -1.
         25    2    1    2    0    0  0.25519958282E+01  0.17538724783E+03  0.39208008400E+03  0.44734150430E+03  0.12498171795E+03 0.  0.
          2    1    1    2  501    0 -0.39961912323E+02 -0.19134570999E+03 -0.22809237394E+03  0.30039351894E+03  0.00000000000E+00 0. -1.
          1    1    1    2  502    0  0.37409916495E+02  0.15958462167E+02  0.15620385015E+04  0.15625679040E+04  0.00000000000E+00 0. -1.
         22    1    3    3    0    0  0.19045244053E+02  0.44310799378E+02  0.19483198358E+02  0.52016951860E+02  0.00000000000E+00 0.  1.
         22    1    3    3    0    0 -0.16493248225E+02  0.13107644845E+03  0.37259688564E+03  0.39532455244E+03  0.00000000000E+00 0.  1.
</event>
<event>
 7    1  0.6386201E-006  0.2621562E+03  0.7818608E-02  0.1259792E+00
          2   -1    0    0  502    0  0.00000000000E+00  0.00000000000E+00  0.98967717354E+03  0.98967717354E+03  0.00000000000E+00 0. -1.
          1   -1    0    0  501    0 -0.00000000000E+00 -0.00000000000E+00 -0.72670378445E+03  0.72670378445E+03  0.00000000000E+00 0. -1.
         25    2    1    2    0    0 -0.42835325823E+01  0.30029639865E+03  0.13294087457E+03  0.35141762235E+03  0.12499917389E+03 0.  0.
          2    1    1    2  501    0  0.84504238619E+01 -0.45735836786E+02 -0.59485284653E+03  0.59666832114E+03  0.00000000000E+00 0. -1.
          1    1    1    2  502    0 -0.41668912796E+01 -0.25456056187E+03  0.72488536105E+03  0.76829501450E+03  0.00000000000E+00 0. -1.
         22    1    3    3    0    0 -0.61572022720E+01  0.20957379779E+03  0.15165874193E+03  0.25876526402E+03  0.00000000000E+00 0. -1.
         22    1    3    3    0    0  0.18736696897E+01  0.90722600862E+02 -0.18717867364E+02  0.92652358329E+02  0.00000000000E+00 0. -1.
</event>
<event>
 7    1  0.6386201E-006  0.3260724E+03  0.7818608E-02  0.1224370E+00
          2   -1    0    0  502    0  0.00000000000E+00  0.00000000000E+00  0.37832032420E+03  0.37832032420E+03  0.00000000000E+00 0. -1.
          1   -1    0    0  501    0 -0.00000000000E+00 -0.00000000000E+00 -0.28951780520E+04  0.28951780520E+04  0.00000000000E+00 0. -1.
         25    2    1    2    0    0 -0.16429402947E+03 -0.34032585448E+03  0.17240803137E+03  0.43377895268E+03  0.12500174065E+03 0.  0.
          2    1    1    2  501    0  0.14296056562E+03  0.29124300709E+03 -0.27440320610E+04  0.27631453390E+04  0.00000000000E+00 0. -1.
          1    1    1    2  502    0  0.21333463850E+02  0.49082847387E+02  0.54766301911E+02  0.76574084470E+02  0.00000000000E+00 0. -1.
         22    1    3    3    0    0 -0.17086804722E+03 -0.34811923636E+03  0.16912559484E+03  0.42306779494E+03  0.00000000000E+00 0.  1.
         22    1    3    3    0    0  0.65740177533E+01  0.77933818844E+01  0.32824365261E+01  0.10711157742E+02  0.00000000000E+00 0.  1.
</event>
<event>
 7    1  0.9936343E-006  0.8036464E+02  0.7818608E-02  0.1367756E+00
          2   -1    0    0  502    0  0.00000000000E+00  0.00000000000E+00  0.19541002995E+04  0.19541002995E+04  0.00000000000E+00 0. -1.
          1   -1    0    0  501    0 -0.00000000000E+00 -0.00000000000E+00 -0.70116774217E+03  0.70116774217E+03  0.00000000000E+00 0. -1.
         25    2    1    2    0    0  0.58703233802E+02 -0.94973470101E+02 -0.23009439285E+03  0.28466492098E+03  0.12499863174E+03 0.  0.
          2    1    1    2  501    0 -0.67729820498E+02  0.38498799303E+02 -0.43994052826E+03  0.44678535622E+03  0.00000000000E+00 0. -1.
          1    1    1    2  502    0  0.90265866957E+01  0.56474670798E+02  0.19229674784E+04  0.19238177644E+04  0.00000000000E+00 0. -1.
         22    1    3    3    0    0  0.55416076542E+02 -0.39032156829E+02 -0.25313052095E+02  0.72354691709E+02  0.00000000000E+00 0. -1.
         22    1    3    3    0    0  0.32871572604E+01 -0.55941313273E+02 -0.20478134075E+03  0.21231022927E+03  0.00000000000E+00 0. -1.
</event>
<event>
 7    1  0.6386201E-006  0.4744498E+02  0.7818608E-02  0.1575194E+00
          2   -1    0    0  502    0  0.00000000000E+00  0.00000000000E+00  0.65232953647E+03  0.65232953647E+03  0.00000000000E+00 0. -1.
          1   -1    0    0  501    0 -0.00000000000E+00 -0.00000000000E+00 -0.38807068791E+03  0.38807068791E+03  0.00000000000E+00 0. -1.
         25    2    1    2    0    0 -0.92661336318E+00  0.59772073225E+02 -0.10379399982E+03  0.17312514665E+03  0.12500225060E+03 0.  0.
          2    1    1    2  501    0 -0.14664483559E+02 -0.44502255983E+02 -0.24721703913E+03  0.25161828690E+03  0.00000000000E+00 0. -1.
          1    1    1    2  502    0  0.15591096922E+02 -0.15269817241E+02  0.61526988751E+03  0.61565679083E+03  0.00000000000E+00 0. -1.
         22    1    3    3    0    0 -0.16661666835E+02  0.58676273053E+02 -0.12939738379E+03  0.14305313381E+03  0.00000000000E+00 0. -1.
         22    1    3    3    0    0  0.15735053472E+02  0.10958001711E+01  0.25603383969E+02  0.30072012844E+02  0.00000000000E+00 0. -1.
</event>
<event>
 7    1  0.6386201E-006  0.4355523E+02  0.7818608E-02  0.1537646E+00
          2   -1    0    0  502    0  0.00000000000E+00  0.00000000000E+00  0.28374846270E+04  0.28374846270E+04  0.00000000000E+00 0. -1.
          1   -1    0    0  501    0 -0.00000000000E+00 -0.00000000000E+00 -0.24810298532E+03  0.24810298532E+03  0.00000000000E+00 0. -1.
         25    2    1    2    0    0 -0.18470707526E+02  0.20189436057E+02 -0.46242741404E+02  0.13604249698E+03  0.12498155658E+03 0.  0.
          2    1    1    2  501    0  0.19076267486E+02  0.23405702433E+02 -0.15533635904E+03  0.15824384768E+03  0.00000000000E+00 0. -1.
          1    1    1    2  502    0 -0.60555996007E+00 -0.43595138491E+02  0.27909607421E+04  0.27913012677E+04  0.00000000000E+00 0. -1.
         22    1    3    3    0    0  0.28678830613E+02  0.44135903642E+02  0.15383581709E+02  0.54837103332E+02  0.00000000000E+00 0. -1.
         22    1    3    3    0    0 -0.47149538139E+02 -0.23946467584E+02 -0.61626323113E+02  0.81205393644E+02  0.00000000000E+00 0. -1.
</event>
<event>
 7    1  0.6386201E-006  0.6706242E+02  0.7818608E-02  0.1509823E+00
          2   -1    0    0  502    0  0.00000000000E+00  0.00000000000E+00  0.99939226155E+03  0.99939226155E+03  0.00000000000E+00 0. -1.
          1   -1    0    0  501    0 -0.00000000000E+00 -0.00000000000E+00 -0.17780514827E+03  0.17780514827E+03  0.00000000000E+00 0. -1.
         25    2    1    2    0    0  0.49693411484E+02 -0.57042522900E+02  0.67507571507E+02  0.16095484930E+03  0.12500362691E+03 0.  0.
          2    1    1    2  501    0 -0.56988316811E+02  0.34599575281E+02 -0.12243524947E+03  0.13941014732E+03  0.00000000000E+00 0. -1.
          1    1    1    2  502    0  0.72949053273E+01  0.22442947619E+02  0.87651479125E+03  0.87683241319E+03  0.00000000000E+00 0. -1.
         22    1    3    3    0    0 -0.34578887336E+02 -0.12335734968E+02 -0.99883576633E+01  0.38047826421E+02  0.00000000000E+00 0. -1.
         22    1    3    3    0    0  0.84272298819E+02 -0.44706787932E+02  0.77495929170E+02  0.12290702288E+03  0.00000000000E+00 0. -1.
</event>
<event>
 7    1  0.6386201E-006  0.9390091E+02  0.7818608E-02  0.1307379E+00
          2   -1    0    0  502    0  0.00000000000E+00  0.00000000000E+00  0.38280280122E+03  0.38280280122E+03  0.00000000000E+00 0. -1.
          1   -1    0    0  501    0 -0.00000000000E+00 -0.00000000000E+00 -0.26092367340E+03  0.26092367340E+03  0.00000000000E+00 0. -1.
         25    2    1    2    0    0 -0.48525579918E+01 -0.13570361551E+02  0.55686301454E+02  0.13759975252E+03  0.12500010276E+03 0.  0.
          2    1    1    2  501    0  0.73744629132E+02 -0.58130120460E+02 -0.20055489313E+03  0.22144897017E+03  0.00000000000E+00 0. -1.
          1    1    1    2  502    0 -0.68892071140E+02  0.71700482011E+02  0.26674771950E+03  0.28467775193E+03  0.00000000000E+00 0. -1.
         22    1    3    3    0    0  0.56511537325E+02 -0.15279423036E+02  0.64283864799E+01  0.58892603711E+02  0.00000000000E+00 0.  1.
         22    1    3    3    0    0 -0.61364095317E+02  0.17090614849E+01  0.49257914975E+02  0.78707148804E+02  0.00000000000E+00 0.  1.
</event>
<event>
 7    1  0.6386201E-006  0.9547749E+02  0.7818608E-02  0.1306555E+00
          2   -1    0    0  502    0  0.00000000000E+00  0.00000000000E+00  0.11688301995E+04  0.11688301995E+04  0.00000000000E+00 0. -1.
          1   -1    0    0  501    0 -0.00000000000E+00 -0.00000000000E+00 -0.75768940924E+02  0.75768940924E+02  0.00000000000E+00 0. -1.
         25    2    1    2    0    0 -0.10665080697E+03  0.12015881903E+03  0.63183177848E+03  0.66381368227E+03  0.12499868825E+03 0.  0.
          2    1    1    2  501    0  0.65684548821E+02 -0.49104050252E+02 -0.26517338683E+02  0.86190701098E+02  0.00000000000E+00 0. -1.
          1    1    1    2  502    0  0.40966258153E+02 -0.71054768773E+02  0.48774681879E+03  0.49459475706E+03  0.00000000000E+00 0. -1.
         22    1    3    3    0    0 -0.70774518835E+02  0.12755698192E+03  0.34388342607E+03  0.37354467855E+03  0.00000000000E+00 0.  1.
         22    1    3    3    0    0 -0.35876288139E+02 -0.73981628940E+01  0.28794835241E+03  0.29026900372E+03  0.00000000000E+00 0.  1.
</event>
<event>
 7    1  0.6386201E-006  0.4194447E+02  0.7818608E-02  0.1593247E+00
          2   -1    0    0  502    0  0.00000000000E+00  0.00000000000E+00  0.13206329212E+03  0.13206329212E+03  0.00000000000E+00 0. -1.
          1   -1    0    0  501    0 -0.00000000000E+00 -0.00000000000E+00 -0.57436066177E+03  0.57436066177E+03  0.00000000000E+00 0. -1.
         25    2    1    2    0    0 -0.13509896963E+02  0.30899491100E+02 -0.56731711369E+02  0.14135807060E+03  0.12500528462E+03 0.  0.
          2    1    1    2  501    0  0.18954620030E+02  0.11353440423E+02 -0.46998599603E+03  0.47050506341E+03  0.00000000000E+00 0. -1.
          1    1    1    2  502    0 -0.54447230666E+01 -0.42252931523E+02  0.84420337746E+02  0.94560819882E+02  0.00000000000E+00 0. -1.
         22    1    3    3    0    0  0.28728463304E+02  0.63811449267E+02 -0.52804653745E+02  0.87667309292E+02  0.00000000000E+00 0. -1.
         22    1    3    3    0    0 -0.42238360267E+02 -0.32911958167E+02 -0.39270576241E+01  0.53690761310E+02  0.00000000000E+00 0. -1.
</event>
<event>
 7    1  0.6386201E-006  0.9813423E+02  0.7818608E-02  0.1294690E+00
          2   -1    0    0  502    0  0.00000000000E+00  0.00000000000E+00  0.15200593080E+04  0.15200593080E+04  0.00000000000E+00 0. -1.
          1   -1    0    0  501    0 -0.00000000000E+00 -0.00000000000E+00 -0.40413767213E+03  0.40413767213E+03  0.00000000000E+00 0. -1.
         25    2    1    2    0    0 -0.27252475777E+02 -0.57220877362E+02  0.66406169692E+03  0.67868976800E+03  0.12499975055E+03 0.  0.
          2    1    1    2  501    0  0.98677859588E+02  0.41190111795E+01 -0.38829123419E+03  0.40065492481E+03  0.00000000000E+00 0. -1.
          1    1    1    2  502    0 -0.71425383811E+02  0.53101866183E+02  0.84015117315E+03  0.84485228732E+03  0.00000000000E+00 0. -1.
         22    1    3    3    0    0 -0.66837642518E+02 -0.79890914697E+00  0.41145477213E+03  0.41684881939E+03  0.00000000000E+00 0. -1.
         22    1    3    3    0    0  0.39585166741E+02 -0.56421968215E+02  0.25260692479E+03  0.26184094862E+03  0.00000000000E+00 0. -1.
</event>
<event>
 7    1  0.6386201E-006  0.5920067E+02  0.7818608E-02  0.1412391E+00
          2   -1    0    0  502    0  0.00000000000E+00  0.00000000000E+00  0.56978714305E+03  0.56978714305E+03  0.00000000000E+00 0. -1.
          1   -1    0    0  501    0 -0.00000000000E+00 -0.00000000000E+00 -0.10754575411E+04  0.10754575411E+04  0.00000000000E+00 0. -1.
         25    2    1    2    0    0 -0.88464790863E+02  0.44059570782E+02 -0.23351768818E+02  0.16104905376E+03  0.12499691040E+03 0.  0.
          2    1    1    2  501    0  0.54122224777E+02  0.35044890622E+01 -0.98078769837E+03  0.98228611205E+03  0.00000000000E+00 0. -1.
          1    1    1    2  502    0  0.34342566085E+02 -0.47564059844E+02  0.49846906918E+03  0.50190951830E+03  0.00000000000E+00 0. -1.
         22    1    3    3    0    0 -0.68694773139E+02 -0.34773147986E+02 -0.20714870213E+02  0.79732361845E+02  0.00000000000E+00 0. -1.
         22    1    3    3    0    0 -0.19770017724E+02  0.78832718768E+02 -0.26368986052E+01  0.81316691911E+02  0.00000000000E+00 0. -1.
</event>
<event>
 7    1  0.6386201E-006  0.7314916E+02  0.7818608E-02  0.1444297E+00
          2   -1    0    0  502    0  0.00000000000E+00  0.00000000000E+00  0.22068353684E+04  0.22068353684E+04  0.00000000000E+00 0. -1.
          1   -1    0    0  501    0 -0.00000000000E+00 -0.00000000000E+00 -0.93993096494E+03  0.93993096494E+03  0.00000000000E+00 0. -1.
         25    2    1    2    0    0  0.75728430489E+02 -0.75395964436E+02 -0.17754167635E+02  0.16541030248E+03  0.12500404418E+03 0.  0.
          2    1    1    2  501    0 -0.50577606280E+02  0.51864310470E+02 -0.84666280008E+03  0.84975637567E+03  0.00000000000E+00 0. -1.
          1    1    1    2  502    0 -0.25150824209E+02  0.23531653966E+02  0.21313213712E+04  0.21315996552E+04  0.00000000000E+00 0. -1.
         22    1    3    3    0    0 -0.30730813482E+02  0.23247462491E+01  0.62119994073E+01  0.31438452236E+02  0.00000000000E+00 0.  1.
         22    1    3    3    0    0  0.10645924397E+03 -0.77720710685E+02 -0.23966167042E+02  0.13397185025E+03  0.00000000000E+00 0.  1.
</event>
<event>
 7    1  0.6386201E-006  0.1143584E+03  0.7818608E-02  0.1280568E+00
          2   -1    0    0  502    0  0.00000000000E+00  0.00000000000E+00  0.44621884600E+03  0.44621884600E+03  0.00000000000E+00 0. -1.
          1   -1    0    0  501    0 -0.00000000000E+00 -0.00000000000E+00 -0.95095326837E+03  0.95095326837E+03  0.00000000000E+00 0. -1.
         25    2    1    2    0    0  0.11995035010E+03  0.80599009606E+01 -0.96535386972E+02  0.19848703265E+03  0.12499989080E+03 0.  0.
          2    1    1    2  501    0 -0.30549446029E+02 -0.81693279613E+02 -0.79251304025E+03  0.79729792396E+03  0.00000000000E+00 0. -1.
          1    1    1    2  502    0 -0.89400904067E+02  0.73633378653E+02  0.38431400485E+03  0.40138715777E+03  0.00000000000E+00 0. -1.
         22    1    3    3    0    0  0.58309842424E+02  0.23960238262E+02 -0.11591132741E+03  0.13194531656E+03  0.00000000000E+00 0. -1.
         22    1    3    3    0    0  0.61640507672E+02 -0.15900337302E+02  0.19375940436E+02  0.66541716090E+02  0.00000000000E+00 0. -1.
</event>
<event>
 7    1  0.6386201E-006  0.5217179E+02  0.7818608E-02  0.1455145E+00
          2   -1    0    0  502    0  0.00000000000E+00  0.00000000000E+00  0.24522322790E+04  0.24522322790E+04  0.00000000000E+00 0. -1.
          1   -1    0    0  501    0 -0.00000000000E+00 -0.00000000000E+00 -0.10708789008E+03  0.10708789008E+03  0.00000000000E+00 0. -1.
         25    2    1    2    0    0 -0.56049991818E+02  0.56833305795E+01  0.14525320545E+04  0.14589888366E+04  0.12500061670E+03 0.  0.
          2    1    1    2  501    0  0.30636194438E+02 -0.42311228921E+02 -0.96757120331E+02  0.10995797760E+03  0.00000000000E+00 0. -1.
          1    1    1    2  502    0  0.25413797380E+02  0.36627898341E+02  0.98936945473E+03  0.99037335485E+03  0.00000000000E+00 0. -1.
         22    1    3    3    0    0 -0.68070324148E+02  0.72622230769E+01  0.14397323587E+04  0.14413589329E+04  0.00000000000E+00 0. -1.
         22    1    3    3    0    0  0.12020332331E+02 -0.15788924974E+01  0.12799695845E+02  0.17629903703E+02  0.00000000000E+00 0. -1.
</event>
<event>
 7    1  0.6386201E-006  0.4812172E+02  0.7818608E-02  0.1539760E+00
          2   -1    0    0  502    0  0.00000000000E+00  0.00000000000E+00  0.43381092293E+03  0.43381092293E+03  0.00000000000E+00 0. -1.
          1   -1    0    0  501    0 -0.00000000000E+00 -0.00000000000E+00 -0.31404992309E+03  0.31404992309E+03  0.00000000000E+00 0. -1.
         25    2    1    2    0    0 -0.73129124321E+01 -0.45184193935E+02 -0.11318028171E+01  0.13312116750E+03  0.12499949675E+03 0.  0.
          2    1    1    2  501    0  0.32604364723E+02  0.35860072502E+02 -0.24404330472E+03  0.24880941296E+03  0.00000000000E+00 0. -1.
          1    1    1    2  502    0 -0.25291452291E+02  0.93241214339E+01  0.36493610737E+03  0.36593026557E+03  0.00000000000E+00 0. -1.
         22    1    3    3    0    0 -0.25540466194E+02 -0.83636885611E+02  0.12718734905E+02  0.88369736141E+02  0.00000000000E+00 0.  1.
         22    1    3    3    0    0  0.18227553762E+02  0.38452691675E+02 -0.13850537722E+02  0.44751431356E+02  0.00000000000E+00 0.  1.
</event>
<event>
 7    1  0.6386201E-006  0.8366765E+02  0.7818608E-02  0.1496449E+00
          2   -1    0    0  502    0  0.00000000000E+00  0.00000000000E+00  0.89890346436E+03  0.89890346436E+03  0.00000000000E+00 0. -1.
          1   -1    0    0  501    0 -0.00000000000E+00 -0.00000000000E+00 -0.23207983117E+03  0.23207983117E+03  0.00000000000E+00 0. -1.
         25    2    1    2    0    0 -0.55734749694E+02  0.85743631346E+02 -0.58715782396E+02  0.17184697921E+03  0.12500203406E+03 0.  0.
          2    1    1    2  501    0  0.16898645315E+02 -0.12002987119E+02 -0.11379850333E+03  0.11567080562E+03  0.00000000000E+00 0. -1.
          1    1    1    2  502    0  0.38836104379E+02 -0.73740644228E+02  0.83933791892E+03  0.84346551070E+03  0.00000000000E+00 0. -1.
         22    1    3    3    0    0  0.25988680655E+02  0.25612563643E+02 -0.60176417562E+02  0.70374826246E+02  0.00000000000E+00 0.  1.
         22    1    3    3    0    0 -0.81723430349E+02  0.60131067704E+02  0.14606351656E+01  0.10147215296E+03  0.00000000000E+00 0.  1.
</event>
<event>
 7    1  0.6386201E-006  0.7820365E+02  0.7818608E-02  0.1428895E+00
          2   -1    0    0  502    0  0.00000000000E+00  0.00000000000E+00  0.28849149620E+02  0.28849149620E+02  0.00000000000E+00 0. -1.
          1   -1    0    0  501    0 -0.00000000000E+00 -0.00000000000E+00 -0.11228882906E+04  0.11228882906E+04  0.00000000000E+00 0. -1.
         25    2    1    2    0    0 -0.33685022825E+02 -0.54934318425E+02 -0.32108591718E+03  0.35053284950E+03  0.12499860906E+03 0.  0.
          2    1    1    2  501    0  0.82491920526E+01  0.80645104272E+02 -0.75758211994E+03  0.76190704844E+03  0.00000000000E+00 0. -1.
          1    1    1    2  502    0  0.25435830772E+02 -0.25710785847E+02 -0.15371103880E+02  0.39297542294E+02  0.00000000000E+00 0. -1.
         22    1    3    3    0    0  0.25546704996E+02  0.27213670869E+02 -0.62166117396E+02  0.72510993445E+02  0.00000000000E+00 0.  1.
         22    1    3    3    0    0 -0.59231727821E+02 -0.82147989294E+02 -0.25891979978E+03  0.27802185606E+03  0.00000000000E+00 0.  1.
</event>
<event>
 7    1  0.6386201E-006  0.1194362E+03  0.7818608E-02  0.1352139E+00
          2   -1    0    0  502    0  0.00000000000E+00  0.00000000000E+00  0.35778926145E+03  0.35778926145E+03  0.00000000000E+00 0. -1.
          1   -1    0    0  501    0 -0.00000000000E+00 -0.00000000000E+00 -0.25577279951E+03  0.25577279951E+03  0.00000000000E+00 0. -1.
         25    2    1    2    0    0 -0.10215660278E+03  0.90497322888E+02 -0.80782277511E+02  0.20193440062E+03  0.12500395534E+03 0.  0.
          2    1    1    2  501    0  0.10322805702E+03 -0.46631059878E+02 -0.84142289238E+02  0.14110426053E+03  0.00000000000E+00 0. -1.
          1    1    1    2  502    0 -0.10714542476E+01 -0.43866263010E+02  0.26694102869E+03  0.27052339981E+03  0.00000000000E+00 0. -1.
         22    1    3    3    0    0 -0.11199018353E+03  0.19936625730E+02 -0.52529575709E+02  0.12529416019E+03  0.00000000000E+00 0.  1.
         22    1    3    3    0    0  0.98335807559E+01  0.70560697157E+02 -0.28252701803E+02  0.76640240429E+02  0.00000000000E+00 0.  1.
</event>
<event>
 7    1  0.6386201E-006  0.9535960E+02  0.7818608E-02  0.1291591E+00
          2   -1    0    0  502    0  0.00000000000E+00  0.00000000000E+00  0.28759605088E+03  0.28759605088E+03  0.00000000000E+00 0. -1.
          1   -1    0    0  501    0 -0.00000000000E+00 -0.00000000000E+00 -0.12479184379E+04  0.12479184379E+04  0.00000000000E+00 0. -1.
         25    2    1    2    0    0  0.21050734157E+02 -0.12485592383E+03 -0.20755713143E+02  0.17913057429E+03  0.12499931157E+03 0.  0.
          2    1    1    2  501    0  0.59691766353E+02  0.72970948310E+02 -0.11348664511E+04  0.11387755390E+04  0.00000000000E+00 0. -1.
          1    1    1    2  502    0 -0.80742500510E+02  0.51884975523E+02  0.19529977728E+03  0.21760837548E+03  0.00000000000E+00 0. -1.
         22    1    3    3    0    0 -0.30527227739E+02  0.99607747386E+01 -0.12790384116E+02  0.34564759404E+02  0.00000000000E+00 0. -1.
         22    1    3    3    0    0  0.51577961897E+02 -0.13481669857E+03 -0.79653290264E+01  0.14456581489E+03  0.00000000000E+00 0. -1.
</event>
<event>
 7    1  0.6386201E-006  0.5456583E+02  0.7818608E-02  0.1496658E+00
          2   -1    0    0  502    0  0.00000000000E+00  0.00000000000E+00  0.12578469079E+03  0.12578469079E+03  0.00000000000E+00 0. -1.
          1   -1    0    0  501    0 -0.00000000000E+00 -0.00000000000E+00 -0.21754480174E+04  0.21754480174E+04  0.00000000000E+00 0. -1.
         25    2    1    2    0    0  0.81209068633E+02 -0.21736412577E+02 -0.80596674702E+02  0.17086646913E+03  0.12502856409E+03 0.  0.
          2    1    1    2  501    0 -0.29737619636E+02  0.11085865433E+02 -0.20410159452E+04  0.20412626756E+04  0.00000000000E+00 0. -1.
          1    1    1    2  502    0 -0.51471448997E+02  0.10650547144E+02  0.71949293270E+02  0.89103563443E+02  0.00000000000E+00 0. -1.
         22    1    3    3    0    0  0.48643875108E+02  0.45484874137E+02 -0.67887481203E+02  0.95098950914E+02  0.00000000000E+00 0. -1.
         22    1    3    3    0    0  0.32565193525E+02 -0.67221286714E+02 -0.12709193498E+02  0.75767518213E+02  0.00000000000E+00 0. -1.
</event>
<event>
 7    1  0.6386201E-006  0.9208098E+02  0.7818608E-02  0.1327527E+00
          2   -1    0    0  502    0  0.00000000000E+00  0.00000000000E+00  0.50764404996E+03  0.50764404996E+03  0.00000000000E+00 0. -1.
          1   -1    0    0  501    0 -0.00000000000E+00 -0.00000000000E+00 -0.24728301979E+03  0.24728301979E+03  0.00000000000E+00 0. -1.
         25    2    1    2    0    0 -0.10423239985E+02 -0.12920181032E+03  0.36663448381E+02  0.18376814197E+03  0.12499907934E+03 0.  0.
          2    1    1    2  501    0 -0.42874803075E+02  0.55894533446E+02 -0.16110156523E+03  0.17582992330E+03  0.00000000000E+00 0. -1.
          1    1    1    2  502    0  0.53298043060E+02  0.73307276876E+02  0.38479914702E+03  0.39532900448E+03  0.00000000000E+00 0. -1.
         22    1    3    3    0    0  0.41757231088E+02 -0.44349035179E+02 -0.25841425181E+02  0.66168591679E+02  0.00000000000E+00 0. -1.
         22    1    3    3    0    0 -0.52180471073E+02 -0.84852775142E+02  0.62504873561E+02  0.11759955030E+03  0.00000000000E+00 0. -1.
</event>
<event>
 7    1  0.6386201E-006  0.8766021E+02  0.7818608E-02  0.1312693E+00
          2   -1    0    0  502    0  0.00000000000E+00  0.00000000000E+00  0.11306472312E+04  0.11306472312E+04  0.00000000000E+00 0. -1.
          1   -1    0    0  501    0 -0.00000000000E+00 -0.00000000000E+00 -0.52017526245E+02  0.52017526245E+02  0.00000000000E+00 0. -1.
         25    2    1    2    0    0  0.10628085707E+02 -0.45247087651E+02  0.23513134197E+03  0.27031572619E+03  0.12499435469E+03 0.  0.
          2    1    1    2  501    0  0.72170547277E+02  0.74034207877E+02  0.51487105097E+02  0.11550140182E+03  0.00000000000E+00 0. -1.
          1    1    1    2  502    0 -0.82798632983E+02 -0.28787120226E+02  0.79201125791E+03  0.79684762946E+03  0.00000000000E+00 0. -1.
         22    1    3    3    0    0 -0.46975166379E+00 -0.87964647033E+02  0.13837432471E+03  0.16396784299E+03  0.00000000000E+00 0. -1.
         22    1    3    3    0    0  0.11097837370E+02  0.42717559383E+02  0.96757017255E+02  0.10634788320E+03  0.00000000000E+00 0. -1.
</event>
<event>
 7    1  0.6386201E-006  0.5637196E+02  0.7818608E-02  0.1553430E+00
          2   -1    0    0  502    0  0.00000000000E+00  0.00000000000E+00  0.20334549690E+04  0.20334549690E+04  0.00000000000E+00 0. -1.
          1   -1    0    0  501    0 -0.00000000000E+00 -0.00000000000E+00 -0.98561882697E+02  0.98561882697E+02  0.00000000000E+00 0. -1.
         25    2    1    2    0    0  0.37323784164E+02  0.57668540692E+02  0.12854815390E+04  0.12933700294E+04  0.12499808155E+03 0.  0.
          2    1    1    2  501    0 -0.16613847926E+02 -0.53801676670E+02 -0.86075912150E+02  0.10285768327E+03  0.00000000000E+00 0. -1.
          1    1    1    2  502    0 -0.20709936238E+02 -0.38668640220E+01  0.73548745941E+03  0.73578913898E+03  0.00000000000E+00 0. -1.
         22    1    3    3    0    0  0.50640105555E+02  0.22260194323E+00  0.20081630954E+03  0.20710301789E+03  0.00000000000E+00 0.  1.
         22    1    3    3    0    0 -0.13316321391E+02  0.57445938749E+02  0.10846652295E+04  0.10862670115E+04  0.00000000000E+00 0.  1.
</event>
<event>
 7    1  0.6386201E-006  0.5050845E+02  0.7818608E-02  0.1527074E+00
          2   -1    0    0  502    0  0.00000000000E+00  0.00000000000E+00  0.36295119362E+03  0.36295119362E+03  0.00000000000E+00 0. -1.
          1   -1    0    0  501    0 -0.00000000000E+00 -0.00000000000E+00 -0.13171464282E+04  0.13171464282E+04  0.00000000000E+00 0. -1.
         25    2    1    2    0    0  0.24710772263E+02 -0.11350186118E+02 -0.11445742642E+03  0.17165076101E+03  0.12499612915E+03 0.  0.
          2    1    1    2  501    0 -0.34628595422E+02  0.37441665839E+02 -0.11729546944E+04  0.11740629170E+04  0.00000000000E+00 0. -1.
          1    1    1    2  502    0  0.99178231590E+01 -0.26091479721E+02  0.33321688629E+03  0.33438394375E+03  0.00000000000E+00 0. -1.
         22    1    3    3    0    0 -0.41044336266E+02  0.21848685820E+02 -0.17044166978E+02  0.49522785054E+02  0.00000000000E+00 0.  1.
         22    1    3    3    0    0  0.65755108529E+02 -0.33198871938E+02 -0.97413259439E+02  0.12212797595E+03  0.00000000000E+00 0.  1.
</event>
<event>
 7    1  0.6386201E-006  0.6956550E+02  0.7818608E-02  0.1464456E+00
          2   -1    0    0  502    0  0.00000000000E+00  0.00000000000E+00  0.23526221938E+03  0.23526221938E+03  0.00000000000E+00 0. -1.
          1   -1    0    0  501    0 -0.00000000000E+00 -0.00000000000E+00 -0.28524712096E+03  0.28524712096E+03  0.00000000000E+00 0. -1.
         25    2    1    2    0    0 -0.28345640060E+02 -0.83479625559E+02  0.52547876730E+02  0.16174059417E+03  0.12500566891E+03 0.  0.
          2    1    1    2  501    0  0.41352053989E+02  0.55068149935E+02 -0.22348019534E+03  0.23385014693E+03  0.00000000000E+00 0. -1.
          1    1    1    2  502    0 -0.13006413929E+02  0.28411475624E+02  0.12094741703E+03  0.12491859925E+03  0.00000000000E+00 0. -1.
         22    1    3    3    0    0 -0.62761201304E+02 -0.77010250091E+02  0.91135107285E+00  0.99349773875E+02  0.00000000000E+00 0.  1.
         22    1    3    3    0    0  0.34415561244E+02 -0.64693754679E+01  0.51636525657E+02  0.62390820291E+02  0.00000000000E+00 0.  1.
</event>
<event>
 7    1  0.6386201E-006  0.7046048E+02  0.7818608E-02  0.1437368E+00
          2   -1    0    0  502    0  0.00000000000E+00  0.00000000000E+00  0.90449055227E+02  0.90449055227E+02  0.00000000000E+00 0. -1.
          1   -1    0    0  501    0 -0.00000000000E+00 -0.00000000000E+00 -0.17225106837E+04  0.17225106837E+04  0.00000000000E+00 0. -1.
         25    2    1    2    0    0 -0.33107341468E+02 -0.13362927628E+02  0.16651974966E+02  0.13106083461E+03  0.12499996082E+03 0.  0.
          2    1    1    2  501    0  0.56217952909E+02  0.43091447948E+02 -0.16421492212E+04  0.16436761834E+04  0.00000000000E+00 0. -1.
          1    1    1    2  502    0 -0.23110611441E+02 -0.29728520320E+02 -0.65643822335E+01  0.38222720935E+02  0.00000000000E+00 0. -1.
         22    1    3    3    0    0  0.12640283682E+02 -0.61968483164E+02  0.74841820059E+01  0.63685812058E+02  0.00000000000E+00 0.  1.
         22    1    3    3    0    0 -0.45747625150E+02  0.48605555536E+02  0.91677929602E+01  0.67375022550E+02  0.00000000000E+00 0.  1.
</event>
<event>
 7    1  0.6386201E-006  0.9765268E+02  0.7818608E-02  0.1432342E+00
          2   -1    0    0  502    0  0.00000000000E+00  0.00000000000E+00  0.51508763331E+03  0.51508763331E+03  0.00000000000E+00 0. -1.
          1   -1    0    0  501    0 -0.00000000000E+00 -0.00000000000E+00 -0.50646094286E+03  0.50646094286E+03  0.00000000000E+00 0. -1.
         25    2    1    2    0    0  0.12385285869E+03 -0.13238401405E+02  0.11451349643E+03  0.21036391192E+03  0.12499939478E+03 0.  0.
          2    1    1    2  501    0 -0.95676893577E+02  0.14764272679E+02 -0.45284681145E+03  0.46307913617E+03  0.00000000000E+00 0. -1.
          1    1    1    2  502    0 -0.28175965113E+02 -0.15258712741E+01  0.34696000546E+03  0.34810552808E+03  0.00000000000E+00 0. -1.
         22    1    3    3    0    0  0.62906882123E+01  0.44881048809E+02  0.29638380020E+02  0.54150852907E+02  0.00000000000E+00 0.  1.
         22    1    3    3    0    0  0.11756217048E+03 -0.58119450213E+02  0.84875116414E+02  0.15621305902E+03  0.00000000000E+00 0.  1.
</event>
<event>
 7    1  0.6386201E-006  0.1749603E+03  0.7818608E-02  0.1340322E+00
          2   -1    0    0  502    0  0.00000000000E+00  0.00000000000E+00  0.12599438373E+04  0.12599438373E+04  0.00000000000E+00 0. -1.
          1   -1    0    0  501    0 -0.00000000000E+00 -0.00000000000E+00 -0.62502525858E+02  0.62502525858E+02  0.00000000000E+00 0. -1.
         25    2    1    2    0    0 -0.15924639649E+03  0.17747418512E+02  0.52817683218E+03  0.56592388550E+03  0.12499876987E+03 0.  0.
          2    1    1    2  501    0  0.18038563348E+03  0.77886693895E+01  0.14596876344E+03  0.23217777679E+03  0.00000000000E+00 0. -1.
          1    1    1    2  502    0 -0.21139236988E+02 -0.25536087902E+02  0.52329571581E+03  0.52434470086E+03  0.00000000000E+00 0. -1.
         22    1    3    3    0    0 -0.88389648379E+02  0.51270072070E+02  0.16263229454E+03  0.19206929338E+03  0.00000000000E+00 0.  1.
         22    1    3    3    0    0 -0.70856748113E+02 -0.33522653558E+02  0.36554453764E+03  0.37385459213E+03  0.00000000000E+00 0.  1.
</event>
<event>
 7    1  0.6386201E-006  0.6764190E+02  0.7818608E-02  0.1382226E+00
          2   -1    0    0  502    0  0.00000000000E+00  0.00000000000E+00  0.53772717764E+03  0.53772717764E+03  0.00000000000E+00 0. -1.
          1   -1    0    0  501    0 -0.00000000000E+00 -0.00000000000E+00 -0.31802287023E+03  0.31802287023E+03  0.00000000000E+00 0. -1.
         25    2    1    2    0    0 -0.12783079910E+02  0.19896447287E+02 -0.62965422255E+02  0.14193967131E+03  0.12499180031E+03 0.  0.
          2    1    1    2  501    0 -0.10964840994E+02 -0.75357442991E+02 -0.20693532783E+03  0.22050215839E+03  0.00000000000E+00 0. -1.
          1    1    1    2  502    0  0.23747920904E+02  0.55460995703E+02  0.48960505749E+03  0.49330821817E+03  0.00000000000E+00 0. -1.
         22    1    3    3    0    0  0.29349802090E+02 -0.26250161388E+02 -0.68705378326E+02  0.79189083001E+02  0.00000000000E+00 0. -1.
         22    1    3    3    0    0 -0.42132881999E+02  0.46146608675E+02  0.57399560706E+01  0.62750588312E+02  0.00000000000E+00 0. -1.
</event>
<event>
 7    1  0.6386201E-006  0.4202228E+02  0.7818608E-02  0.1540359E+00
          2   -1    0    0  502    0  0.00000000000E+00  0.00000000000E+00  0.22101935936E+04  0.22101935936E+04  0.00000000000E+00 0. -1.
          1   -1    0    0  501    0 -0.00000000000E+00 -0.00000000000E+00 -0.25673668658E+03  0.25673668658E+03  0.00000000000E+00 0. -1.
         25    2    1    2    0    0 -0.49587069267E+02  0.49858631048E+01  0.35752152345E+03  0.38200942433E+03  0.12500329708E+03 0.  0.
          2    1    1    2  501    0  0.13976264709E+02 -0.27387993329E+02 -0.24328449201E+03  0.24521986503E+03  0.00000000000E+00 0. -1.
          1    1    1    2  502    0  0.35610804558E+02  0.22402130224E+02  0.18392198756E+04  0.18397009908E+04  0.00000000000E+00 0. -1.
         22    1    3    3    0    0 -0.56365502552E+02  0.50999546704E+00  0.52973918926E+02  0.77353513557E+02  0.00000000000E+00 0. -1.
         22    1    3    3    0    0  0.67784332853E+01  0.44758676377E+01  0.30454760453E+03  0.30465591078E+03  0.00000000000E+00 0. -1.
</event>
<event>
 7    1  0.6386201E-006  0.2531265E+03  0.7818608E-02  0.1246221E+00
          2   -1    0    0  502    0  0.00000000000E+00  0.00000000000E+00  0.93290657318E+03  0.93290657318E+03  0.00000000000E+00 0. -1.
          1   -1    0    0  501    0 -0.00000000000E+00 -0.00000000000E+00 -0.85579852835E+03  0.85579852835E+03  0.00000000000E+00 0. -1.
         25    2    1    2    0    0 -0.20713643913E+03  0.68056645315E+02 -0.70643848930E+02  0.26105728368E+03  0.12499256211E+03 0.  0.
          2    1    1    2  501    0  0.25840535522E+03 -0.47799859172E+02 -0.66395619007E+03  0.71407000811E+03  0.00000000000E+00 0. -1.
          1    1    1    2  502    0 -0.51268916088E+02 -0.20256786143E+02  0.81170808384E+03  0.81357780974E+03  0.00000000000E+00 0. -1.
         22    1    3    3    0    0 -0.13816690017E+03 -0.10633757927E+02 -0.73586059758E+01  0.13877073968E+03  0.00000000000E+00 0.  1.
         22    1    3    3    0    0 -0.68969538963E+02  0.78690403242E+02 -0.63285242954E+02  0.12228654400E+03  0.00000000000E+00 0.  1.
</event>
<event>
 7    1  0.6386201E-006  0.1096276E+03  0.7818608E-02  0.1270345E+00
          2   -1    0    0  502    0  0.00000000000E+00  0.00000000000E+00  0.17642376115E+04  0.17642376115E+04  0.00000000000E+00 0. -1.
          1   -1    0    0  501    0 -0.00000000000E+00 -0.00000000000E+00 -0.14629319177E+03  0.14629319177E+03  0.00000000000E+00 0. -1.
         25    2    1    2    0    0 -0.80571847724E+02 -0.18022000508E+03  0.16492582249E+03  0.28600234882E+03  0.12500297488E+03 0.  0.
          2    1    1    2  501    0  0.67965731394E+02  0.73828041352E+02 -0.53830455630E+02  0.11387553858E+03  0.00000000000E+00 0. -1.
          1    1    1    2  502    0  0.12606116330E+02  0.10639196373E+03  0.15068490529E+04  0.15106529159E+04  0.00000000000E+00 0. -1.
         22    1    3    3    0    0 -0.57429546979E+02 -0.17117765211E+03  0.79941271309E+02  0.19746024488E+03  0.00000000000E+00 0. -1.
         22    1    3    3    0    0 -0.23142300744E+02 -0.90423529652E+01  0.84984551177E+02  0.88542103937E+02  0.00000000000E+00 0. -1.
</event>
<event>
 7    1  0.6386201E-006  0.6743198E+02  0.7818608E-02  0.1437877E+00
          2   -1    0    0  502    0  0.00000000000E+00  0.00000000000E+00  0.18128372752E+03  0.18128372752E+03  0.00000000000E+00 0. -1.
          1   -1    0    0  501    0 -0.00000000000E+00 -0.00000000000E+00 -0.57069741613E+03  0.57069741613E+03  0.00000000000E+00 0. -1.
         25    2    1    2    0    0  0.26604495156E+02  0.39657160700E+02  0.25113126532E+02  0.13614845892E+03  0.12500097673E+03 0.  0.
          2    1    1    2  501    0  0.24416786374E+00 -0.68213900547E+02 -0.50900027743E+03  0.51355085266E+03  0.00000000000E+00 0. -1.
          1    1    1    2  502    0 -0.26848663019E+02  0.28556739847E+02  0.94473462283E+02  0.10228183207E+03  0.00000000000E+00 0. -1.
         22    1    3    3    0    0  0.46514864566E+02  0.73752790425E+02  0.37283003727E+02  0.94832110005E+02  0.00000000000E+00 0. -1.
         22    1    3    3    0    0 -0.19910369411E+02 -0.34095629725E+02 -0.12169877194E+02  0.41316348911E+02  0.00000000000E+00 0. -1.
</event>
<event>
 7    1  0.6386201E-006  0.5079642E+02  0.7818608E-02  0.1463599E+00
          2   -1    0    0  502    0  0.00000000000E+00  0.00000000000E+00  0.48793288038E+03  0.48793288038E+03  0.00000000000E+00 0. -1.
          1   -1    0    0  501    0 -0.00000000000E+00 -0.00000000000E+00 -0.12521033695E+03  0.12521033695E+03  0.00000000000E+00 0. -1.
         25    2    1    2    0    0 -0.97611024712E+01 -0.42268275026E+00  0.59970823210E+02  0.13900013439E+03  0.12501631870E+03 0.  0.
          2    1    1    2  501    0 -0.41879094498E+02 -0.10008483829E+02 -0.78358017501E+02  0.89409212116E+02  0.00000000000E+00 0. -1.
          1    1    1    2  502    0  0.51640196969E+02  0.10431166579E+02  0.38110973771E+03  0.38473387082E+03  0.00000000000E+00 0. -1.
         22    1    3    3    0    0 -0.54953576473E+02 -0.37542947313E+02  0.37167933943E+02  0.76228759492E+02  0.00000000000E+00 0.  1.
         22    1    3    3    0    0  0.45192474002E+02  0.37120264563E+02  0.22802889267E+02  0.62771374898E+02  0.00000000000E+00 0.  1.
</event>
<event>
 7    1  0.6386201E-006  0.1544504E+03  0.7818608E-02  0.1239710E+00
          2   -1    0    0  502    0  0.00000000000E+00  0.00000000000E+00  0.27073839894E+03  0.27073839894E+03  0.00000000000E+00 0. -1.
          1   -1    0    0  501    0 -0.00000000000E+00 -0.00000000000E+00 -0.15131668707E+04  0.15131668707E+04  0.00000000000E+00 0. -1.
         25    2    1    2    0    0 -0.92311922721E+01  0.13255014934E+03  0.10077001585E+03  0.20841594694E+03  0.12501141485E+03 0.  0.
          2    1    1    2  501    0  0.80596455239E+02  0.53048809620E+02 -0.13712793001E+04  0.13746697362E+04  0.00000000000E+00 0. -1.
          1    1    1    2  502    0 -0.71365262967E+02 -0.18559895896E+03  0.28080812393E+02  0.20081958657E+03  0.00000000000E+00 0. -1.
         22    1    3    3    0    0  0.68883112468E+01 -0.17198452425E+02  0.43500875910E+02  0.47281727999E+02  0.00000000000E+00 0.  1.
         22    1    3    3    0    0 -0.16119503519E+02  0.14974860177E+03  0.57269139942E+02  0.16113421894E+03  0.00000000000E+00 0.  1.
</event>
<event>
 7    1  0.6386201E-006  0.1096707E+03  0.7818608E-02  0.1439652E+00
          2   -1    0    0  502    0  0.00000000000E+00  0.00000000000E+00  0.67665889122E+03  0.67665889122E+03  0.00000000000E+00 0. -1.
          1   -1    0    0  501    0 -0.00000000000E+00 -0.00000000000E+00 -0.80672863277E+02  0.80672863277E+02  0.00000000000E+00 0. -1.
         25    2    1    2    0    0  0.41354552569E+02  0.12021921694E+03  0.29103511626E+03  0.34130714204E+03  0.12500506859E+03 0.  0.
          2    1    1    2  501    0 -0.23744512777E+02 -0.10423578077E+03 -0.32033523126E+01  0.10695401510E+03  0.00000000000E+00 0. -1.
          1    1    1    2  502    0 -0.17610039792E+02 -0.15983436172E+02  0.30815426399E+03  0.30907059736E+03  0.00000000000E+00 0. -1.
         22    1    3    3    0    0  0.36302802524E+02  0.12356215082E+03  0.30225984520E+03  0.32855214595E+03  0.00000000000E+00 0.  1.
         22    1    3    3    0    0  0.50517500448E+01 -0.33429338791E+01 -0.11224728944E+02  0.12754996092E+02  0.00000000000E+00 0.  1.
</event>
<event>
 7    1  0.6386201E-006  0.1225272E+03  0.7818608E-02  0.1274169E+00
          2   -1    0    0  502    0  0.00000000000E+00  0.00000000000E+00  0.19109656946E+04  0.19109656946E+04  0.00000000000E+00 0. -1.
          1   -1    0    0  501    0 -0.00000000000E+00 -0.00000000000E+00 -0.16882892046E+03  0.16882892046E+03  0.00000000000E+00 0. -1.
         25    2    1    2    0    0  0.17084818729E+02 -0.13117917042E+03  0.17222454601E+03  0.25056688379E+03  0.12499041253E+03 0.  0.
          2    1    1    2  501    0  0.65758808794E+02  0.10616760846E+03 -0.98202737409E+02  0.15886963100E+03  0.00000000000E+00 0. -1.
          1    1    1    2  502    0 -0.82843627522E+02  0.25011561954E+02  0.16681149656E+04  0.16703581003E+04  0.00000000000E+00 0. -1.
         22    1    3    3    0    0  0.62200953197E+02 -0.11125865362E+03  0.95145027881E+02  0.15905980924E+03  0.00000000000E+00 0. -1.
         22    1    3    3    0    0 -0.45116134469E+02 -0.19920516793E+02  0.77079518126E+02  0.91507074553E+02  0.00000000000E+00 0. -1.
</event>
<event>
 7    1  0.6386201E-006  0.1060170E+03  0.7818608E-02  0.1293229E+00
          2   -1    0    0  502    0  0.00000000000E+00  0.00000000000E+00  0.17383302165E+04  0.17383302165E+04  0.00000000000E+00 0. -1.
          1   -1    0    0  501    0 -0.00000000000E+00 -0.00000000000E+00 -0.12157124414E+04  0.12157124414E+04  0.00000000000E+00 0. -1.
         25    2    1    2    0    0  0.12137628658E+03  0.10954194956E+03  0.85692004617E+02  0.22293573920E+03  0.12500232998E+03 0.  0.
          2    1    1    2  501    0 -0.82649526282E+02 -0.11974571538E+02 -0.11438274693E+04  0.11468721001E+04  0.00000000000E+00 0. -1.
          1    1    1    2  502    0 -0.38726760296E+02 -0.97567378022E+02  0.15807532398E+04  0.15842348186E+04  0.00000000000E+00 0. -1.
         22    1    3    3    0    0  0.49441510226E+02  0.70960523811E+01  0.84020158151E+02  0.97745607925E+02  0.00000000000E+00 0.  1.
         22    1    3    3    0    0  0.71934776352E+02  0.10244589718E+03  0.16718464654E+01  0.12519013127E+03  0.00000000000E+00 0.  1.
</event>
<event>
 7    1  0.6386201E-006  0.6899589E+02  0.7818608E-02  0.1523112E+00
          2   -1    0    0  502    0  0.00000000000E+00  0.00000000000E+00  0.39697673329E+02  0.39697673329E+02  0.00000000000E+00 0. -1.
          1   -1    0    0  501    0 -0.00000000000E+00 -0.00000000000E+00 -0.95224873058E+03  0.95224873058E+03  0.00000000000E+00 0. -1.
         25    2    1    2    0    0 -0.64195296292E+01 -0.84000649776E+02 -0.21277362173E+03  0.26075783650E+03  0.12499886267E+03 0.  0.
          2    1    1    2  501    0  0.16993445868E+02  0.65882085253E+02 -0.70602805409E+03  0.70929883654E+03  0.00000000000E+00 0. -1.
          1    1    1    2  502    0 -0.10573916239E+02  0.18118564523E+02  0.62506185671E+01  0.21889730868E+02  0.00000000000E+00 0. -1.
         22    1    3    3    0    0  0.22880560058E+02 -0.39950852660E+02 -0.49479483329E+01  0.46304134259E+02  0.00000000000E+00 0. -1.
         22    1    3    3    0    0 -0.29300089687E+02 -0.44049797116E+02 -0.20782567340E+03  0.21445370224E+03  0.00000000000E+00 0. -1.
</event>
<event>
 7    1  0.6386201E-006  0.9859767E+02  0.7818608E-02  0.1425697E+00
          2   -1    0    0  502    0  0.00000000000E+00  0.00000000000E+00  0.55015881115E+03  0.55015881115E+03  0.00000000000E+00 0. -1.
          1   -1    0    0  501    0 -0.00000000000E+00 -0.00000000000E+00 -0.10004037976E+03  0.10004037976E+03  0.00000000000E+00 0. -1.
         25    2    1    2    0    0  0.53586069296E+02 -0.53069257713E+02  0.16521924501E+03  0.22047571917E+03  0.12499732350E+03 0.  0.
          2    1    1    2  501    0 -0.80870720687E+02  0.63999954944E+02 -0.34671896215E+02  0.10880352974E+03  0.00000000000E+00 0. -1.
          1    1    1    2  502    0  0.27284651391E+02 -0.10930697231E+02  0.31957108260E+03  0.32091994200E+03  0.00000000000E+00 0. -1.
         22    1    3    3    0    0 -0.86560874389E+01 -0.20824027879E+02  0.14608082711E+03  0.14781128521E+03  0.00000000000E+00 0. -1.
         22    1    3    3    0    0  0.62242156735E+02 -0.32245229834E+02  0.19138417904E+02  0.72664433954E+02  0.00000000000E+00 0. -1.
</event>
<event>
 7    1  0.6386201E-006  0.4005231E+02  0.7818608E-02  0.1532074E+00
          2   -1    0    0  502    0  0.00000000000E+00  0.00000000000E+00  0.26239135018E+03  0.26239135018E+03  0.00000000000E+00 0. -1.
          1   -1    0    0  501    0 -0.00000000000E+00 -0.00000000000E+00 -0.55972217515E+03  0.55972217515E+03  0.00000000000E+00 0. -1.
         25    2    1    2    0    0  0.17552973857E+02  0.61973519047E+02 -0.41371551348E+03  0.43696102442E+03  0.12500234722E+03 0.  0.
          2    1    1    2  501    0  0.96462026145E+01 -0.32662414754E+02 -0.13059195590E+03  0.13495977737E+03  0.00000000000E+00 0. -1.
          1    1    1    2  502    0 -0.27199176471E+02 -0.29311104292E+02  0.24697664440E+03  0.25019272355E+03  0.00000000000E+00 0. -1.
         22    1    3    3    0    0  0.60232675653E+02  0.14705855199E+02 -0.30262036573E+03  0.30890665767E+03  0.00000000000E+00 0.  1.
         22    1    3    3    0    0 -0.42679701796E+02  0.47267663848E+02 -0.11109514774E+03  0.12805436675E+03  0.00000000000E+00 0.  1.
</event>
<event>
 7    1  0.6386201E-006  0.8458156E+02  0.7818608E-02  0.1411285E+00
          2   -1    0    0  502    0  0.00000000000E+00  0.00000000000E+00  0.19731093009E+03  0.19731093009E+03  0.00000000000E+00 0. -1.
          1   -1    0    0  501    0 -0.00000000000E+00 -0.00000000000E+00 -0.30738817116E+04  0.30738817116E+04  0.00000000000E+00 0. -1.
         25    2    1    2    0    0  0.28139183467E+02  0.64609644126E+02 -0.68000285935E+03  0.69497847934E+03  0.12499991306E+03 0.  0.
          2    1    1    2  501    0  0.31448532486E+01 -0.86685561222E+02 -0.23836633015E+04  0.23852410804E+04  0.00000000000E+00 0. -1.
          1    1    1    2  502    0 -0.31284036716E+02  0.22075917096E+02  0.18709537934E+03  0.19097308197E+03  0.00000000000E+00 0. -1.
         22    1    3    3    0    0 -0.51168347277E+01 -0.36594059297E+02 -0.18005327000E+03  0.18380556904E+03  0.00000000000E+00 0.  1.
         22    1    3    3    0    0  0.33256018195E+02  0.10120370342E+03 -0.49994958935E+03  0.51117291030E+03  0.00000000000E+00 0.  1.
</event>
<event>
 7    1  0.6386201E-006  0.5602642E+02  0.7818608E-02  0.1420225E+00
          2   -1    0    0  502    0  0.00000000000E+00  0.00000000000E+00  0.15481964743E+04  0.15481964743E+04  0.00000000000E+00 0. -1.
          1   -1    0    0  501    0 -0.00000000000E+00 -0.00000000000E+00 -0.67241493451E+03  0.67241493451E+03  0.00000000000E+00 0. -1.
         25    2    1    2    0    0 -0.69858280414E+02 -0.64159214101E+02  0.64593266626E+00  0.15691323211E+03  0.12499904434E+03 0.  0.
          2    1    1    2  501    0  0.15422419038E+02  0.51688221338E+02 -0.59252516338E+03  0.59497528727E+03  0.00000000000E+00 0. -1.
          1    1    1    2  502    0  0.54435861376E+02  0.12470992763E+02  0.14676607705E+04  0.14687228894E+04  0.00000000000E+00 0. -1.
         22    1    3    3    0    0 -0.86899679530E+02 -0.80442589662E+02  0.27103782725E+02  0.12147913225E+03  0.00000000000E+00 0. -1.
         22    1    3    3    0    0  0.17041399116E+02  0.16283375561E+02 -0.26457850059E+02  0.35434099865E+02  0.00000000000E+00 0. -1.
</event>
<event>
 7    1  0.6386201E-006  0.5537891E+02  0.7818608E-02  0.1439654E+00
          2   -1    0    0  502    0  0.00000000000E+00  0.00000000000E+00  0.19423760407E+04  0.19423760407E+04  0.00000000000E+00 0. -1.
          1   -1    0    0  501    0 -0.00000000000E+00 -0.00000000000E+00 -0.10349690341E+04  0.10349690341E+04  0.00000000000E+00 0. -1.
         25    2    1    2    0    0  0.26423336800E+02 -0.22513998223E+02  0.13913961961E+02  0.13047490215E+03  0.12500011564E+03 0.  0.
          2    1    1    2  501    0 -0.53413114924E+02 -0.16081636328E+02 -0.97559522927E+03  0.97718863647E+03  0.00000000000E+00 0. -1.
          1    1    1    2  502    0  0.26989778124E+02  0.38595634552E+02  0.18690882739E+04  0.18696815362E+04  0.00000000000E+00 0. -1.
         22    1    3    3    0    0  0.95689080423E+01 -0.52094483293E+02  0.55508267640E+02  0.76723966055E+02  0.00000000000E+00 0.  1.
         22    1    3    3    0    0  0.16854428758E+02  0.29580485070E+02 -0.41594305680E+02  0.53750936091E+02  0.00000000000E+00 0.  1.
</event>
<event>
 7    1  0.6386201E-006  0.1148868E+03  0.7818608E-02  0.1367569E+00
          2   -1    0    0  502    0  0.00000000000E+00  0.00000000000E+00  0.45299333784E+03  0.45299333784E+03  0.00000000000E+00 0. -1.
          1   -1    0    0  501    0 -0.00000000000E+00 -0.00000000000E+00 -0.34604012904E+03  0.34604012904E+03  0.00000000000E+00 0. -1.
         25    2    1    2    0    0  0.81649251593E+02 -0.90142200031E+02  0.16006934973E+03  0.23672761004E+03  0.12500219246E+03 0.  0.
          2    1    1    2  501    0 -0.44762600029E+02  0.10578969335E+03 -0.29528674695E+03  0.31684288300E+03  0.00000000000E+00 0. -1.
          1    1    1    2  502    0 -0.36886651564E+02 -0.15647493318E+02  0.24217060602E+03  0.24546297385E+03  0.00000000000E+00 0. -1.
         22    1    3    3    0    0  0.73711168037E+02 -0.11770464217E+03  0.10317128708E+03  0.17300876729E+03  0.00000000000E+00 0.  1.
         22    1    3    3    0    0  0.79380835558E+01  0.27562442142E+02  0.56898062650E+02  0.63718842744E+02  0.00000000000E+00 0.  1.
</event>
<event>
 7    1  0.6386201E-006  0.3652558E+02  0.7818608E-02  0.1559539E+00
          2   -1    0    0  502    0  0.00000000000E+00  0.00000000000E+00  0.35404200689E+02  0.35404200689E+02  0.00000000000E+00 0. -1.
          1   -1    0    0  501    0 -0.00000000000E+00 -0.00000000000E+00 -0.24100284296E+04  0.24100284296E+04  0.00000000000E+00 0. -1.
         25    2    1    2    0    0  0.49055018887E+02  0.25528946004E+02 -0.17053029453E+03  0.21854893006E+03  0.12499972607E+03 0.  0.
          2    1    1    2  501    0 -0.14280959093E+02 -0.27823651433E+02 -0.21884674861E+04  0.21886909418E+04  0.00000000000E+00 0. -1.
          1    1    1    2  502    0 -0.34774059794E+02  0.22947054295E+01 -0.15626448367E+02  0.38192758426E+02  0.00000000000E+00 0. -1.
         22    1    3    3    0    0 -0.38428496277E+02  0.91007455314E+01 -0.21513557616E+02  0.44971169171E+02  0.00000000000E+00 0. -1.
         22    1    3    3    0    0  0.87483515164E+02  0.16428200472E+02 -0.14901673691E+03  0.17357776089E+03  0.00000000000E+00 0. -1.
</event>
<event>
 7    1  0.6386201E-006  0.9539972E+02  0.7818608E-02  0.1334785E+00
          2   -1    0    0  502    0  0.00000000000E+00  0.00000000000E+00  0.34238362440E+04  0.34238362440E+04  0.00000000000E+00 0. -1.
          1   -1    0    0  501    0 -0.00000000000E+00 -0.00000000000E+00 -0.16002796250E+03  0.16002796250E+03  0.00000000000E+00 0. -1.
         25    2    1    2    0    0 -0.13025512716E+03 -0.70662236595E+02  0.19158404136E+03  0.27255766331E+03  0.12499474027E+03 0.  0.
          2    1    1    2  501    0  0.89044620960E+02  0.21962706266E+02 -0.10158248255E+03  0.13685870725E+03  0.00000000000E+00 0. -1.
          1    1    1    2  502    0  0.41210506202E+02  0.48699530329E+02  0.31738067226E+04  0.31744478359E+04  0.00000000000E+00 0. -1.
         22    1    3    3    0    0 -0.13749539290E+03 -0.76811767992E+02  0.11407544204E+03  0.19446911644E+03  0.00000000000E+00 0.  1.
         22    1    3    3    0    0  0.72402657415E+01  0.61495313969E+01  0.77508599321E+02  0.78088546875E+02  0.00000000000E+00 0.  1.
</event>
<event>
 7    1  0.8391963E-006  0.8389884E+02  0.7818608E-02  0.1414113E+00
          2   -1    0    0  502    0  0.00000000000E+00  0.00000000000E+00  0.18541042451E+04  0.18541042451E+04  0.00000000000E+00 0. -1.
          1   -1    0    0  501    0 -0.00000000000E+00 -0.00000000000E+00 -0.65973202779E+03  0.65973202779E+03  0.00000000000E+00 0. -1.
         25    2    1    2    0    0 -0.67085164898E+02  0.44044125758E+02 -0.64461726079E+02  0.16192522886E+03  0.12499664495E+03 0.  0.
          2    1    1    2  501    0 -0.16320779348E+02 -0.34052028194E+02 -0.54490764458E+03  0.54621447215E+03  0.00000000000E+00 0. -1.
          1    1    1    2  502    0  0.83405944245E+02 -0.99920975640E+01  0.18037415880E+04  0.18056965719E+04  0.00000000000E+00 0. -1.
         22    1    3    3    0    0 -0.36772952899E+02 -0.41077227083E+02 -0.88847597256E+01  0.55843778572E+02  0.00000000000E+00 0.  1.
         22    1    3    3    0    0 -0.30312211998E+02  0.85121352841E+02 -0.55576966353E+02  0.10608145029E+03  0.00000000000E+00 0.  1.
</event>
<event>
 7    1  0.6386201E-006  0.6755452E+02  0.7818608E-02  0.1380959E+00
          2   -1    0    0  502    0  0.00000000000E+00  0.00000000000E+00  0.64794799095E+03  0.64794799095E+03  0.00000000000E+00 0. -1.
          1   -1    0    0  501    0 -0.00000000000E+00 -0.00000000000E+00 -0.45068433169E+03  0.45068433169E+03  0.00000000000E+00 0. -1.
         25    2    1    2    0    0 -0.84409550014E+02  0.20371319395E+02  0.99611423612E+02  0.18189922702E+03  0.12499972116E+03 0.  0.
          2    1    1    2  501    0  0.48468989555E+02  0.37096151043E+02 -0.40497881591E+03  0.40955244927E+03  0.00000000000E+00 0. -1.
          1    1    1    2  502    0  0.35940560459E+02 -0.57467470438E+02  0.50263105155E+03  0.50718064635E+03  0.00000000000E+00 0. -1.
         22    1    3    3    0    0 -0.63832134318E+02 -0.44860942782E+01  0.12527322920E+03  0.14066999810E+03  0.00000000000E+00 0. -1.
         22    1    3    3    0    0 -0.20577415696E+02  0.24857413674E+02 -0.25661805583E+02  0.41229228917E+02  0.00000000000E+00 0. -1.
</event>
<event>
 7    1  0.9040760E-006  0.5827644E+02  0.7818608E-02  0.1457688E+00
          2   -1    0    0  502    0  0.00000000000E+00  0.00000000000E+00  0.13685045063E+04  0.13685045063E+04  0.00000000000E+00 0. -1.
          1   -1    0    0  501    0 -0.00000000000E+00 -0.00000000000E+00 -0.12928584163E+04  0.12928584163E+04  0.00000000000E+00 0. -1.
         25    2    1    2    0    0  0.61524621225E+02 -0.26150810646E+01 -0.23499823514E+03  0.27320521746E+03  0.12499921064E+03 0.  0.
          2    1    1    2  501    0 -0.44708561012E+02  0.37999045200E+02 -0.10376433563E+04  0.10393009756E+04  0.00000000000E+00 0. -1.
          1    1    1    2  502    0 -0.16816060213E+02 -0.35383964136E+02  0.13482876815E+04  0.13488567295E+04  0.00000000000E+00 0. -1.
         22    1    3    3    0    0  0.29599033761E+02  0.19652337792E+02 -0.53514958435E+00  0.35533133345E+02  0.00000000000E+00 0. -1.
         22    1    3    3    0    0  0.31925587464E+02 -0.22267418856E+02 -0.23446308556E+03  0.23767208412E+03  0.00000000000E+00 0. -1.
</event>
<event>
 7    1  0.6386201E-006  0.6139992E+02  0.7818608E-02  0.1522555E+00
          2   -1    0    0  502    0  0.00000000000E+00  0.00000000000E+00  0.41262400944E+03  0.41262400944E+03  0.00000000000E+00 0. -1.
          1   -1    0    0  501    0 -0.00000000000E+00 -0.00000000000E+00 -0.25885059055E+03  0.25885059055E+03  0.00000000000E+00 0. -1.
         25    2    1    2    0    0  0.74811769112E+02  0.78407771118E+01  0.92103260438E+02  0.17252099106E+03  0.12498881226E+03 0.  0.
          2    1    1    2  501    0 -0.56578647561E+02 -0.22920725071E+02 -0.21386381476E+03  0.22240556256E+03  0.00000000000E+00 0. -1.
          1    1    1    2  502    0 -0.18233121551E+02  0.15079947960E+02  0.27553397321E+03  0.27654804636E+03  0.00000000000E+00 0. -1.
         22    1    3    3    0    0  0.24356423184E+02 -0.17257460371E+02 -0.27322723464E+02  0.40467104002E+02  0.00000000000E+00 0.  1.
         22    1    3    3    0    0  0.50455345928E+02  0.25098237483E+02  0.11942598390E+03  0.13205388706E+03  0.00000000000E+00 0.  1.
</event>
<event>
 7    1  0.6386201E-006  0.6269560E+02  0.7818608E-02  0.1538428E+00
          2   -1    0    0  502    0  0.00000000000E+00  0.00000000000E+00  0.27187129883E+03  0.27187129883E+03  0.00000000000E+00 0. -1.
          1   -1    0    0  501    0 -0.00000000000E+00 -0.00000000000E+00 -0.80040577253E+03  0.80040577253E+03  0.00000000000E+00 0. -1.
         25    2    1    2    0    0 -0.51089312881E+02  0.55357590384E+02  0.97245567963E+02  0.17537580011E+03  0.12500156028E+03 0.  0.
          2    1    1    2  501    0  0.20687165625E+02 -0.27558683624E+01 -0.75438174279E+03  0.75467037008E+03  0.00000000000E+00 0. -1.
          1    1    1    2  502    0  0.30402147256E+02 -0.52601722022E+02  0.12860170112E+03  0.14223090117E+03  0.00000000000E+00 0. -1.
         22    1    3    3    0    0 -0.70954055624E+00 -0.30575909041E+02 -0.68027534665E+01  0.31331567407E+02  0.00000000000E+00 0.  1.
         22    1    3    3    0    0 -0.50379772325E+02  0.85933499425E+02  0.10404832143E+03  0.14404423270E+03  0.00000000000E+00 0.  1.
</event>
<event>
 7    1  0.6386201E-006  0.1280228E+03  0.7818608E-02  0.1371470E+00
          2   -1    0    0  502    0  0.00000000000E+00  0.00000000000E+00  0.11391915456E+04  0.11391915456E+04  0.00000000000E+00 0. -1.
          1   -1    0    0  501    0 -0.00000000000E+00 -0.00000000000E+00 -0.49724921652E+03  0.49724921652E+03  0.00000000000E+00 0. -1.
         25    2    1    2    0    0  0.99843545264E+02  0.80453705443E+02  0.38044508589E+03  0.42048430119E+03  0.12500820743E+03 0.  0.
          2    1    1    2  501    0 -0.74448678109E+02 -0.10426710293E+03 -0.46820842381E+03  0.48542080976E+03  0.00000000000E+00 0. -1.
          1    1    1    2  502    0 -0.25394867155E+02  0.23813397482E+02  0.72970566698E+03  0.73053565115E+03  0.00000000000E+00 0. -1.
         22    1    3    3    0    0  0.77502892038E+02  0.11034695688E+03  0.33833919269E+03  0.36422048058E+03  0.00000000000E+00 0.  1.
         22    1    3    3    0    0  0.22340653226E+02 -0.29893251433E+02  0.42105893199E+02  0.56263820612E+02  0.00000000000E+00 0.  1.
</event>
<event>
 7    1  0.6386201E-006  0.4005538E+02  0.7818608E-02  0.1511093E+00
          2   -1    0    0  502    0  0.00000000000E+00  0.00000000000E+00  0.24614391784E+03  0.24614391784E+03  0.00000000000E+00 0. -1.
          1   -1    0    0  501    0 -0.00000000000E+00 -0.00000000000E+00 -0.80142702670E+03  0.80142702670E+03  0.00000000000E+00 0. -1.
         25    2    1    2    0    0  0.18284522880E+02 -0.23256809985E+02 -0.20647213460E+03  0.24316792729E+03  0.12499878202E+03 0.  0.
          2    1    1    2  501    0 -0.40082114005E+02 -0.92899982325E+01 -0.57418140055E+03  0.57565368119E+03  0.00000000000E+00 0. -1.
          1    1    1    2  502    0  0.21797591125E+02  0.32546808218E+02  0.22537042628E+03  0.22874933606E+03  0.00000000000E+00 0. -1.
         22    1    3    3    0    0  0.11127049321E+02 -0.36402514774E+02 -0.19671639361E+01  0.38115928985E+02  0.00000000000E+00 0.  1.
         22    1    3    3    0    0  0.71574735589E+01  0.13145704788E+02 -0.20450497066E+03  0.20505199830E+03  0.00000000000E+00 0.  1.
</event>
<event>
 7    1  0.6386201E-006  0.9857518E+02  0.7818608E-02  0.1416232E+00
          2   -1    0    0  502    0  0.00000000000E+00  0.00000000000E+00  0.10094460512E+04  0.10094460512E+04  0.00000000000E+00 0. -1.
          1   -1    0    0  501    0 -0.00000000000E+00 -0.00000000000E+00 -0.31565225304E+03  0.31565225304E+03  0.00000000000E+00 0. -1.
         25    2    1    2    0    0  0.93427720263E+02  0.44406064056E+02 -0.86983655326E+02  0.18409865871E+03  0.12500208961E+03 0.  0.
          2    1    1    2  501    0 -0.97424107493E+02 -0.13043628008E+02 -0.16641707558E+03  0.19327761380E+03  0.00000000000E+00 0. -1.
          1    1    1    2  502    0  0.39963872308E+01 -0.31362436048E+02  0.94719452905E+03  0.94772203169E+03  0.00000000000E+00 0. -1.
         22    1    3    3    0    0  0.35468914214E+01 -0.84272591997E+01  0.27662993315E+02  0.29134864605E+02  0.00000000000E+00 0.  1.
         22    1    3    3    0    0  0.89880828841E+02  0.52833323256E+02 -0.11464664864E+03  0.15496379411E+03  0.00000000000E+00 0.  1.
</event>
<event>
 7    1  0.6386201E-006  0.5628052E+02  0.7818608E-02  0.1509716E+00
          2   -1    0    0  502    0  0.00000000000E+00  0.00000000000E+00  0.10438469122E+03  0.10438469122E+03  0.00000000000E+00 0. -1.
          1   -1    0    0  501    0 -0.00000000000E+00 -0.00000000000E+00 -0.21796433963E+04  0.21796433963E+04  0.00000000000E+00 0. -1.
         25    2    1    2    0    0  0.31886466533E+02  0.11784363584E+02 -0.13792735168E+03  0.18921991672E+03  0.12499841827E+03 0.  0.
          2    1    1    2  501    0  0.12651286791E+02  0.25135890054E+02 -0.20053316466E+04  0.20055290776E+04  0.00000000000E+00 0. -1.
          1    1    1    2  502    0 -0.44537753325E+02 -0.36920253638E+02  0.68000293251E+02  0.89279093197E+02  0.00000000000E+00 0. -1.
         22    1    3    3    0    0 -0.27585622416E+02 -0.65367102447E+01 -0.12163132492E+03  0.12489145025E+03  0.00000000000E+00 0.  1.
         22    1    3    3    0    0  0.59472088949E+02  0.18321073829E+02 -0.16296026761E+02  0.64328466470E+02  0.00000000000E+00 0.  1.
</event>
<event>
 7    1  0.6386201E-006  0.1528729E+03  0.7818608E-02  0.1331861E+00
          2   -1    0    0  502    0  0.00000000000E+00  0.00000000000E+00  0.77590768332E+03  0.77590768332E+03  0.00000000000E+00 0. -1.
          1   -1    0    0  501    0 -0.00000000000E+00 -0.00000000000E+00 -0.73308397401E+03  0.73308397401E+03  0.00000000000E+00 0. -1.
         25    2    1    2    0    0  0.42886043969E+01 -0.12578417607E+03 -0.86783307094E+02  0.19747601041E+03  0.12500152488E+03 0.  0.
          2    1    1    2  501    0  0.32831624933E+02 -0.24295986264E+02 -0.58193745873E+03  0.58336902250E+03  0.00000000000E+00 0. -1.
          1    1    1    2  502    0 -0.37120229330E+02  0.15008016233E+03  0.71154447513E+03  0.72814662441E+03  0.00000000000E+00 0. -1.
         22    1    3    3    0    0 -0.16204461365E+02 -0.14660576432E+03 -0.65819646304E+02  0.16151798829E+03  0.00000000000E+00 0. -1.
         22    1    3    3    0    0  0.20493065762E+02  0.20821588251E+02 -0.20963660790E+02  0.35958022128E+02  0.00000000000E+00 0. -1.
</event>
<event>
 7    1  0.6386201E-006  0.1122959E+03  0.7818608E-02  0.1457771E+00
          2   -1    0    0  502    0  0.00000000000E+00  0.00000000000E+00  0.33683731186E+03  0.33683731186E+03  0.00000000000E+00 0. -1.
          1   -1    0    0  501    0 -0.00000000000E+00 -0.00000000000E+00 -0.29542273805E+03  0.29542273805E+03  0.00000000000E+00 0. -1.
         25    2    1    2    0    0 -0.12580154804E+03  0.25443598925E+02  0.46699552236E+02  0.18515048986E+03  0.12500579786E+03 0.  0.
          2    1    1    2  501    0  0.20189044243E+02  0.22910360410E+01 -0.21218910850E+03  0.21315971505E+03  0.00000000000E+00 0. -1.
          1    1    1    2  502    0  0.10561250380E+03 -0.27734634966E+02  0.20690413008E+03  0.23394984501E+03  0.00000000000E+00 0. -1.
         22    1    3    3    0    0 -0.61900972493E+02  0.74563029996E+02  0.12945008347E+02  0.97769878178E+02  0.00000000000E+00 0.  1.
         22    1    3    3    0    0 -0.63900575547E+02 -0.49119431070E+02  0.33754543890E+02  0.87380611678E+02  0.00000000000E+00 0.  1.
</event>
<event>
 7    1  0.6386201E-006  0.1131391E+03  0.7818608E-02  0.1282286E+00
          2   -1    0    0  502    0  0.00000000000E+00  0.00000000000E+00  0.37788931863E+03  0.37788931863E+03  0.00000000000E+00 0. -1.
          1   -1    0    0  501    0 -0.00000000000E+00 -0.00000000000E+00 -0.17367979653E+03  0.17367979653E+03  0.00000000000E+00 0. -1.
         25    2    1    2    0    0 -0.46616381608E+02  0.25301685165E+02 -0.67715976984E+02  0.15173361231E+03  0.12499749302E+03 0.  0.
          2    1    1    2  501    0  0.58365989610E+00  0.86730571221E+02 -0.15340924588E+02  0.88078809088E+02  0.00000000000E+00 0. -1.
          1    1    1    2  502    0  0.46032721711E+02 -0.11203225639E+03  0.28726642367E+03  0.31175669376E+03  0.00000000000E+00 0. -1.
         22    1    3    3    0    0  0.30519902201E+02 -0.27315412830E+02 -0.31141217939E+02  0.51452615708E+02  0.00000000000E+00 0. -1.
         22    1    3    3    0    0 -0.77136283809E+02  0.52617097995E+02 -0.36574759045E+02  0.10028099661E+03  0.00000000000E+00 0. -1.
</event>
<event>
 7    1  0.6386201E-006  0.1128948E+03  0.7818608E-02  0.1257444E+00
          2   -1    0    0  502    0  0.00000000000E+00  0.00000000000E+00  0.56942630905E+03  0.56942630905E+03  0.00000000000E+00 0. -1.
          1   -1    0    0  501    0 -0.00000000000E+00 -0.00000000000E+00 -0.14986757498E+03  0.14986757498E+03  0.00000000000E+00 0. -1.
         25    2    1    2    0    0 -0.69428425784E+02  0.59493668016E+01  0.26002567941E+03  0.29680683590E+03  0.12500097044E+03 0.  0.
          2    1    1    2  501    0 -0.10901343910E+03  0.29348206438E+02 -0.67528665701E+02  0.13154986818E+03  0.00000000000E+00 0. -1.
          1    1    1    2  502    0  0.17844186489E+03 -0.35297573240E+02  0.22706172037E+03  0.29093717995E+03  0.00000000000E+00 0. -1.
         22    1    3    3    0    0  0.17529380757E+02  0.32272240856E+02  0.14841761430E+03  0.15289396637E+03  0.00000000000E+00 0.  1.
         22    1    3    3    0    0 -0.86957806541E+02 -0.26322874054E+02  0.11160806511E+03  0.14391286952E+03  0.00000000000E+00 0.  1.
</event>
<event>
 7    1  0.6386201E-006  0.8149024E+02  0.7818608E-02  0.1389057E+00
          2   -1    0    0  502    0  0.00000000000E+00  0.00000000000E+00  0.54713335926E+03  0.54713335926E+03  0.00000000000E+00 0. -1.
          1   -1    0    0  501    0 -0.00000000000E+00 -0.00000000000E+00 -0.73463495207E+03  0.73463495207E+03  0.00000000000E+00 0. -1.
         25    2    1    2    0    0 -0.47651049758E+02  0.39548556981E+02 -0.15359601316E+03  0.20748866318E+03  0.12500039674E+03 0.  0.
          2    1    1    2  501    0  0.26036724195E+02  0.39593420958E+02 -0.54983242031E+03  0.55187067363E+03  0.00000000000E+00 0. -1.
          1    1    1    2  502    0  0.21614325564E+02 -0.79141977938E+02  0.51592684067E+03  0.52240897452E+03  0.00000000000E+00 0. -1.
         22    1    3    3    0    0 -0.78668183839E+02  0.57815033411E+02 -0.13602261201E+03  0.16743181363E+03  0.00000000000E+00 0. -1.
         22    1    3    3    0    0  0.31017134080E+02 -0.18266476430E+02 -0.17573401149E+02  0.40056849547E+02  0.00000000000E+00 0. -1.
</event>
<event>
 7    1  0.6386201E-006  0.7567313E+02  0.7818608E-02  0.1490558E+00
          2   -1    0    0  502    0  0.00000000000E+00  0.00000000000E+00  0.64604456524E+03  0.64604456524E+03  0.00000000000E+00 0. -1.
          1   -1    0    0  501    0 -0.00000000000E+00 -0.00000000000E+00 -0.22278436258E+03  0.22278436258E+03  0.00000000000E+00 0. -1.
         25    2    1    2    0    0 -0.44148789910E+02 -0.59280916644E+02  0.23885354751E+03  0.27953448734E+03  0.12500067888E+03 0.  0.
          2    1    1    2  501    0  0.19803930357E+02 -0.13331241554E+02 -0.19792924977E+03  0.19936375191E+03  0.00000000000E+00 0. -1.
          1    1    1    2  502    0  0.24344859553E+02  0.72612158198E+02  0.38233590491E+03  0.38993068857E+03  0.00000000000E+00 0. -1.
         22    1    3    3    0    0 -0.68550091049E+02  0.25948125762E+01  0.17224624185E+03  0.18540392624E+03  0.00000000000E+00 0. -1.
         22    1    3    3    0    0  0.24401301139E+02 -0.61875729220E+02  0.66607305666E+02  0.94130561094E+02  0.00000000000E+00 0. -1.
</event>
<event>
 7    1  0.6386201E-006  0.7876960E+02  0.7818608E-02  0.1453100E+00
          2   -1    0    0  502    0  0.00000000000E+00  0.00000000000E+00  0.13961348483E+04  0.13961348483E+04  0.00000000000E+00 0. -1.
          1   -1    0    0  501    0 -0.00000000000E+00 -0.00000000000E+00 -0.31070921635E+03  0.31070921635E+03  0.00000000000E+00 0. -1.
         25    2    1    2    0    0  0.60656629787E+02  0.76401248198E+01  0.97831370190E+03  0.98816077477E+03  0.12500567677E+03 0.  0.
          2    1    1    2  501    0 -0.70149972041E+02 -0.36070068430E+02 -0.30013880008E+03  0.31033106149E+03  0.00000000000E+00 0. -1.
          1    1    1    2  502    0  0.94933422538E+01  0.28429943610E+02  0.40725073018E+03  0.40835222844E+03  0.00000000000E+00 0. -1.
         22    1    3    3    0    0  0.48456414643E+02  0.25904539922E+02  0.95326017627E+03  0.95484241264E+03  0.00000000000E+00 0. -1.
         22    1    3    3    0    0  0.12200215144E+02 -0.18264415102E+02  0.25053525623E+02  0.33318362126E+02  0.00000000000E+00 0. -1.
</event>
<event>
 7    1  0.6386201E-006  0.9331948E+02  0.7818608E-02  0.1345413E+00
          2   -1    0    0  502    0  0.00000000000E+00  0.00000000000E+00  0.31783350751E+03  0.31783350751E+03  0.00000000000E+00 0. -1.
          1   -1    0    0  501    0 -0.00000000000E+00 -0.00000000000E+00 -0.89017058517E+03  0.89017058517E+03  0.00000000000E+00 0. -1.
         25    2    1    2    0    0 -0.20302889696E+02  0.30423901994E+02 -0.51834956568E+03  0.53446229813E+03  0.12500341891E+03 0.  0.
          2    1    1    2  501    0 -0.10242040564E+02  0.58594099323E+02 -0.35407813433E+03  0.35903968176E+03  0.00000000000E+00 0. -1.
          1    1    1    2  502    0  0.30544930260E+02 -0.89018001316E+02  0.30009062235E+03  0.31450211279E+03  0.00000000000E+00 0. -1.
         22    1    3    3    0    0  0.61771294476E+01  0.58460993711E+02 -0.46462451129E+03  0.46832871064E+03  0.00000000000E+00 0.  1.
         22    1    3    3    0    0 -0.26480019144E+02 -0.28037091717E+02 -0.53725054389E+02  0.66133587494E+02  0.00000000000E+00 0.  1.
</event>
<event>
 7    1  0.6386201E-006  0.3086054E+02  0.7818608E-02  0.1632395E+00
          2   -1    0    0  502    0  0.00000000000E+00  0.00000000000E+00  0.13675550128E+04  0.13675550128E+04  0.00000000000E+00 0. -1.
          1   -1    0    0  501    0 -0.00000000000E+00 -0.00000000000E+00 -0.19211309478E+04  0.19211309478E+04  0.00000000000E+00 0. -1.
         25    2    1    2    0    0  0.21256899622E+02 -0.22542963032E+02  0.52064920668E+01  0.12888878338E+03  0.12500067983E+03 0.  0.
          2    1    1    2  501    0  0.10631569599E+01  0.30859529597E+02 -0.18590525210E+04  0.18593089352E+04  0.00000000000E+00 0. -1.
          1    1    1    2  502    0 -0.22320056582E+02 -0.83165665649E+01  0.13002700939E+04  0.13004882419E+04  0.00000000000E+00 0. -1.
         22    1    3    3    0    0 -0.22944786344E+02  0.17633901481E+02  0.47554798014E+02  0.55667553529E+02  0.00000000000E+00 0. -1.
         22    1    3    3    0    0  0.44201685966E+02 -0.40176864512E+02 -0.42348305947E+02  0.73221229851E+02  0.00000000000E+00 0. -1.
</event>
<event>
 7    1  0.7184236E-006  0.7969036E+02  0.7818608E-02  0.1351271E+00
          2   -1    0    0  502    0  0.00000000000E+00  0.00000000000E+00  0.21018906067E+04  0.21018906067E+04  0.00000000000E+00 0. -1.
          1   -1    0    0  501    0 -0.00000000000E+00 -0.00000000000E+00 -0.36204994182E+03  0.36204994182E+03  0.00000000000E+00 0. -1.
         25    2    1    2    0    0  0.29702731264E+02 -0.79863825129E+02 -0.19259231703E+03  0.24490130531E+03  0.12499746379E+03 0.  0.
          2    1    1    2  501    0 -0.65681939899E+02  0.86723143196E+01 -0.13483521724E+03  0.15023269308E+03  0.00000000000E+00 0. -1.
          1    1    1    2  502    0  0.35979208635E+02  0.71191510810E+02  0.20672681991E+04  0.20688065501E+04  0.00000000000E+00 0. -1.
         22    1    3    3    0    0  0.19411214579E+01 -0.92714841746E+02 -0.19319986304E+03  0.21430351586E+03  0.00000000000E+00 0.  1.
         22    1    3    3    0    0  0.27761609806E+02  0.12851016617E+02  0.60754600592E+00  0.30597789451E+02  0.00000000000E+00 0.  1.
</event>
<event>
 7    1  0.6386201E-006  0.1513932E+03  0.7818608E-02  0.1292885E+00
          2   -1    0    0  502    0  0.00000000000E+00  0.00000000000E+00  0.13315167606E+04  0.13315167606E+04  0.00000000000E+00 0. -1.
          1   -1    0    0  501    0 -0.00000000000E+00 -0.00000000000E+00 -0.97171526373E+03  0.97171526373E+03  0.00000000000E+00 0. -1.
         25    2    1    2    0    0  0.69737676236E+02  0.12164330307E+03 -0.32117376038E+02  0.19057610459E+03  0.12500915618E+03 0.  0.
          2    1    1    2  501    0 -0.12128161566E+03 -0.93619161134E+02 -0.85285125675E+03  0.86650392023E+03  0.00000000000E+00 0. -1.
          1    1    1    2  502    0  0.51543939428E+02 -0.28024141940E+02  0.12447701296E+04  0.12461519995E+04  0.00000000000E+00 0. -1.
         22    1    3    3    0    0 -0.51011184086E+01  0.69920587646E+02 -0.63251724027E+02  0.94422934598E+02  0.00000000000E+00 0.  1.
         22    1    3    3    0    0  0.74838794645E+02  0.51722715429E+02  0.31134347989E+02  0.96153169994E+02  0.00000000000E+00 0.  1.
</event>
<event>
 7    1  0.6386201E-006  0.9490623E+02  0.7818608E-02  0.1385655E+00
          2   -1    0    0  502    0  0.00000000000E+00  0.00000000000E+00  0.12993362975E+03  0.12993362975E+03  0.00000000000E+00 0. -1.
          1   -1    0    0  501    0 -0.00000000000E+00 -0.00000000000E+00 -0.10580332978E+04  0.10580332978E+04  0.00000000000E+00 0. -1.
         25    2    1    2    0    0 -0.17367556994E+02  0.90827523200E+02 -0.22339945565E+03  0.27218291256E+03  0.12499980040E+03 0.  0.
          2    1    1    2  501    0 -0.39522550680E+02 -0.13672568124E+02 -0.78780538335E+03  0.78891462983E+03  0.00000000000E+00 0. -1.
          1    1    1    2  502    0  0.56890107673E+02 -0.77154955076E+02  0.83105170971E+02  0.12686938514E+03  0.00000000000E+00 0. -1.
         22    1    3    3    0    0 -0.25457999919E+01  0.10846900319E+03 -0.10301469224E+03  0.14961294251E+03  0.00000000000E+00 0. -1.
         22    1    3    3    0    0 -0.14821757002E+02 -0.17641479985E+02 -0.12038476341E+03  0.12256997005E+03  0.00000000000E+00 0. -1.
</event>
<event>
 7    1  0.6386201E-006  0.8305498E+02  0.7818608E-02  0.1493221E+00
          2   -1    0    0  502    0  0.00000000000E+00  0.00000000000E+00  0.10452324055E+04  0.10452324055E+04  0.00000000000E+00 0. -1.
          1   -1    0    0  501    0 -0.00000000000E+00 -0.00000000000E+00 -0.37081235427E+02  0.37081235427E+02  0.00000000000E+00 0. -1.
         25    2    1    2    0    0 -0.26571185528E+02  0.75186464045E+02  0.79566273797E+03  0.80935939287E+03  0.12499760780E+03 0.  0.
          2    1    1    2  501    0  0.47004126811E+02 -0.68988433806E+02  0.29218969726E+02  0.88445124954E+02  0.00000000000E+00 0. -1.
          1    1    1    2  502    0 -0.20432941282E+02 -0.61980302391E+01  0.18326946234E+03  0.18450912306E+03  0.00000000000E+00 0. -1.
         22    1    3    3    0    0  0.32768495807E+02  0.78806026648E+02  0.37998155754E+03  0.38944851806E+03  0.00000000000E+00 0. -1.
         22    1    3    3    0    0 -0.59339681336E+02 -0.36195626030E+01  0.41568118044E+03  0.41991087481E+03  0.00000000000E+00 0. -1.
</event>
<event>
 7    1  0.6386201E-006  0.1155329E+03  0.7818608E-02  0.1271264E+00
          2   -1    0    0  502    0  0.00000000000E+00  0.00000000000E+00  0.60471235948E+03  0.60471235948E+03  0.00000000000E+00 0. -1.
          1   -1    0    0  501    0 -0.00000000000E+00 -0.00000000000E+00 -0.18239282027E+03  0.18239282027E+03  0.00000000000E+00 0. -1.
         25    2    1    2    0    0 -0.12993418605E+02  0.62156415971E+02  0.35799258022E+03  0.38446498606E+03  0.12498955571E+03 0.  0.
          2    1    1    2  501    0 -0.76261932372E+02 -0.92829483405E+02 -0.13583695643E+03  0.18134187065E+03  0.00000000000E+00 0. -1.
          1    1    1    2  502    0  0.89255350976E+02  0.30673067435E+02  0.20016391542E+03  0.22129832304E+03  0.00000000000E+00 0. -1.
         22    1    3    3    0    0 -0.47439801935E+02 -0.30395824322E+01  0.24480658732E+03  0.24937930761E+03  0.00000000000E+00 0.  1.
         22    1    3    3    0    0  0.34446383330E+02  0.65195998403E+02  0.11318599290E+03  0.13508567845E+03  0.00000000000E+00 0.  1.
</event>
<event>
 7    1  0.6386201E-006  0.4002652E+02  0.7818608E-02  0.1616057E+00
          2   -1    0    0  502    0  0.00000000000E+00  0.00000000000E+00  0.76679567264E+03  0.76679567264E+03  0.00000000000E+00 0. -1.
          1   -1    0    0  501    0 -0.00000000000E+00 -0.00000000000E+00 -0.45743965249E+03  0.45743965249E+03  0.00000000000E+00 0. -1.
         25    2    1    2    0    0 -0.18722772812E+02 -0.46917521994E+02 -0.51943971933E+02  0.14448216661E+03  0.12500049663E+03 0.  0.
          2    1    1    2  501    0  0.27592465091E+02  0.28768060479E+02 -0.35797852983E+03  0.36019102328E+03  0.00000000000E+00 0. -1.
          1    1    1    2  502    0 -0.88696922795E+01  0.18149461515E+02  0.71927852191E+03  0.71956213524E+03  0.00000000000E+00 0. -1.
         22    1    3    3    0    0  0.48366103416E+02 -0.35420675790E+02 -0.18657903061E+01  0.59978207763E+02  0.00000000000E+00 0. -1.
         22    1    3    3    0    0 -0.67088876228E+02 -0.11496846204E+02 -0.50078181627E+02  0.84503958849E+02  0.00000000000E+00 0. -1.
</event>
<event>
 7    1  0.6386201E-006  0.5424650E+02  0.7818608E-02  0.1430383E+00
          2   -1    0    0  502    0  0.00000000000E+00  0.00000000000E+00  0.73776957681E+03  0.73776957681E+03  0.00000000000E+00 0. -1.
          1   -1    0    0  501    0 -0.00000000000E+00 -0.00000000000E+00 -0.47309815817E+03  0.47309815817E+03  0.00000000000E+00 0. -1.
         25    2    1    2    0    0  0.51018374938E+02 -0.76855959868E+02  0.40027793563E+03  0.42936881925E+03  0.12500177614E+03 0.  0.
          2    1    1    2  501    0 -0.48446140979E+01  0.53925076595E+02 -0.45487953030E+03  0.45809035273E+03  0.00000000000E+00 0. -1.
          1    1    1    2  502    0 -0.46173760840E+02  0.22930883274E+02  0.31927301331E+03  0.32340856301E+03  0.00000000000E+00 0. -1.
         22    1    3    3    0    0  0.50371236079E+02  0.22765357953E+02  0.12744475307E+03  0.13891611869E+03  0.00000000000E+00 0. -1.
         22    1    3    3    0    0  0.64713885876E+00 -0.99621317821E+02  0.27283318256E+03  0.29045270056E+03  0.00000000000E+00 0. -1.
</event>
<event>
 7    1  0.6386201E-006  0.5137717E+02  0.7818608E-02  0.1543899E+00
          2   -1    0    0  502    0  0.00000000000E+00  0.00000000000E+00  0.57312689485E+02  0.57312689485E+02  0.00000000000E+00 0. -1.
          1   -1    0    0  501    0 -0.00000000000E+00 -0.00000000000E+00 -0.59313575124E+03  0.59313575124E+03  0.00000000000E+00 0. -1.
         25    2    1    2    0    0  0.38357750077E+01  0.28455055382E+02 -0.37804706630E+02  0.13371043119E+03  0.12499952088E+03 0.  0.
          2    1    1    2  501    0  0.34251904426E+01 -0.51935986166E+02 -0.48705081259E+03  0.48982402211E+03  0.00000000000E+00 0. -1.
          1    1    1    2  502    0 -0.72609654503E+01  0.23480930784E+02 -0.10967542531E+02  0.26913987421E+02  0.00000000000E+00 0. -1.
         22    1    3    3    0    0 -0.74007074695E+01  0.11342341245E+02  0.45735403056E+02  0.47698493358E+02  0.00000000000E+00 0. -1.
         22    1    3    3    0    0  0.11236482477E+02  0.17112714137E+02 -0.83540109686E+02  0.86011937833E+02  0.00000000000E+00 0. -1.
</event>
<event>
 7    1  0.6386201E-006  0.5443555E+02  0.7818608E-02  0.1472311E+00
          2   -1    0    0  502    0  0.00000000000E+00  0.00000000000E+00  0.89405035483E+03  0.89405035483E+03  0.00000000000E+00 0. -1.
          1   -1    0    0  501    0 -0.00000000000E+00 -0.00000000000E+00 -0.29590395550E+02  0.29590395550E+02  0.00000000000E+00 0. -1.
         25    2    1    2    0    0  0.54250323307E+02  0.59435820905E+02  0.21087208327E+03  0.25800808729E+03  0.12500169286E+03 0.  0.
          2    1    1    2  501    0 -0.56444160332E+01 -0.37317945023E+02  0.69314407599E+02  0.78923859218E+02  0.00000000000E+00 0. -1.
          1    1    1    2  502    0 -0.48605907274E+02 -0.22117875883E+02  0.58427346841E+03  0.58670880388E+03  0.00000000000E+00 0. -1.
         22    1    3    3    0    0 -0.27923142008E+02  0.34193515842E+02  0.19590166596E+02  0.48297753700E+02  0.00000000000E+00 0.  1.
         22    1    3    3    0    0  0.82173465315E+02  0.25242305063E+02  0.19128191668E+03  0.20971033359E+03  0.00000000000E+00 0.  1.
</event>
<event>
 7    1  0.6386201E-006  0.9419987E+02  0.7818608E-02  0.1408783E+00
          2   -1    0    0  502    0  0.00000000000E+00  0.00000000000E+00  0.34666871112E+03  0.34666871112E+03  0.00000000000E+00 0. -1.
          1   -1    0    0  501    0 -0.00000000000E+00 -0.00000000000E+00 -0.11642522010E+04  0.11642522010E+04  0.00000000000E+00 0. -1.
         25    2    1    2    0    0  0.90786470738E+02 -0.70922970002E+02 -0.98052813544E+02  0.19624323975E+03  0.12499921583E+03 0.  0.
          2    1    1    2  501    0 -0.86164014932E+02  0.36171862885E+02 -0.10139154971E+04  0.10182127854E+04  0.00000000000E+00 0. -1.
          1    1    1    2  502    0 -0.46224558067E+01  0.34751107117E+02  0.29438482073E+03  0.29646488699E+03  0.00000000000E+00 0. -1.
         22    1    3    3    0    0  0.13962655597E+02 -0.54483434961E+02  0.15335530435E+02  0.58297332102E+02  0.00000000000E+00 0. -1.
         22    1    3    3    0    0  0.76823815142E+02 -0.16439535041E+02 -0.11338834398E+03  0.13794590764E+03  0.00000000000E+00 0. -1.
</event>
<event>
 7    1  0.6386201E-006  0.4140936E+02  0.7818608E-02  0.1588274E+00
          2   -1    0    0  502    0  0.00000000000E+00  0.00000000000E+00  0.79448786255E+03  0.79448786255E+03  0.00000000000E+00 0. -1.
          1   -1    0    0  501    0 -0.00000000000E+00 -0.00000000000E+00 -0.61809881519E+03  0.61809881519E+03  0.00000000000E+00 0. -1.
         25    2    1    2    0    0  0.55298917372E+02  0.19215936400E+02 -0.25811960998E+03  0.29270749077E+03  0.12499887849E+03 0.  0.
          2    1    1    2  501    0 -0.32677457611E+02 -0.23733984228E+02 -0.34132327849E+03  0.34370437687E+03  0.00000000000E+00 0. -1.
          1    1    1    2  502    0 -0.22621459761E+02  0.45180478281E+01  0.77583193582E+03  0.77617481010E+03  0.00000000000E+00 0. -1.
         22    1    3    3    0    0  0.70001520895E+02 -0.51275290119E+00 -0.25879283498E+03  0.26809365393E+03  0.00000000000E+00 0. -1.
         22    1    3    3    0    0 -0.14702603523E+02  0.19728689301E+02  0.67322500305E+00  0.24613836837E+02  0.00000000000E+00 0. -1.
</event>
<event>
 7    1  0.6386201E-006  0.2320981E+03  0.7818608E-02  0.1170987E+00
          2   -1    0    0  502    0  0.00000000000E+00  0.00000000000E+00  0.33604626084E+03  0.33604626084E+03  0.00000000000E+00 0. -1.
          1   -1    0    0  501    0 -0.00000000000E+00 -0.00000000000E+00 -0.59989814468E+03  0.59989814468E+03  0.00000000000E+00 0. -1.
         25    2    1    2    0    0 -0.48876614913E+02 -0.22387034067E+03 -0.45326387263E+02  0.26492723706E+03  0.12500042654E+03 0.  0.
          2    1    1    2  501    0  0.17231655056E+03  0.17020990122E+03 -0.38628277712E+03  0.45593726320E+03  0.00000000000E+00 0. -1.
          1    1    1    2  502    0 -0.12343993564E+03  0.53660439446E+02  0.16775728055E+03  0.21507990527E+03  0.00000000000E+00 0. -1.
         22    1    3    3    0    0  0.18495961373E+02 -0.22581489860E+02  0.27908110545E+02  0.40384240807E+02  0.00000000000E+00 0.  1.
         22    1    3    3    0    0 -0.67372576286E+02 -0.20128885081E+03 -0.73234497808E+02  0.22454299625E+03  0.00000000000E+00 0.  1.
</event>
<event>
 7    1  0.6386201E-006  0.9486404E+02  0.7818608E-02  0.1430549E+00
          2   -1    0    0  502    0  0.00000000000E+00  0.00000000000E+00  0.26214438406E+04  0.26214438406E+04  0.00000000000E+00 0. -1.
          1   -1    0    0  501    0 -0.00000000000E+00 -0.00000000000E+00 -0.20588349233E+04  0.20588349233E+04  0.00000000000E+00 0. -1.
         25    2    1    2    0    0  0.37972240292E+02  0.68010868753E+02  0.13827007212E+04  0.13905227819E+04  0.12499981324E+03 0.  0.
          2    1    1    2  501    0 -0.67390272423E+02 -0.66788752492E+02 -0.20536529339E+04  0.20558435153E+04  0.00000000000E+00 0. -1.
          1    1    1    2  502    0  0.29418032131E+02 -0.12221162609E+01  0.12335611299E+04  0.12339124667E+04  0.00000000000E+00 0. -1.
         22    1    3    3    0    0  0.42733882394E+02  0.10316369062E+03  0.10750266508E+04  0.10808104513E+04  0.00000000000E+00 0. -1.
         22    1    3    3    0    0 -0.47616421013E+01 -0.35152821866E+02  0.30767407042E+03  0.30971233061E+03  0.00000000000E+00 0. -1.
</event>
<event>
 7    1  0.6386201E-006  0.2989934E+02  0.7818608E-02  0.1606399E+00
          2   -1    0    0  502    0  0.00000000000E+00  0.00000000000E+00  0.20290607922E+03  0.20290607922E+03  0.00000000000E+00 0. -1.
          1   -1    0    0  501    0 -0.00000000000E+00 -0.00000000000E+00 -0.28043776367E+03  0.28043776367E+03  0.00000000000E+00 0. -1.
         25    2    1    2    0    0  0.29944771398E+02  0.87565618598E+01 -0.54267895764E+02  0.13979939048E+03  0.12500199342E+03 0.  0.
          2    1    1    2  501    0 -0.66988037761E+01 -0.27842651706E+02 -0.18085522573E+03  0.18310843755E+03  0.00000000000E+00 0. -1.
          1    1    1    2  502    0 -0.23245967622E+02  0.19086089846E+02  0.15759143705E+03  0.16043601487E+03  0.00000000000E+00 0. -1.
         22    1    3    3    0    0  0.22735607702E+02  0.43235416870E+02 -0.81675129121E+02  0.95168460355E+02  0.00000000000E+00 0. -1.
         22    1    3    3    0    0  0.72091636956E+01 -0.34478855010E+02  0.27407233356E+02  0.44630930130E+02  0.00000000000E+00 0. -1.
</event>
<event>
 7    1  0.6386201E-006  0.2040829E+03  0.7818608E-02  0.1195427E+00
          2   -1    0    0  502    0  0.00000000000E+00  0.00000000000E+00  0.20581394803E+04  0.20581394803E+04  0.00000000000E+00 0. -1.
          1   -1    0    0  501    0 -0.00000000000E+00 -0.00000000000E+00 -0.15016175944E+03  0.15016175944E+03  0.00000000000E+00 0. -1.
         25    2    1    2    0    0  0.12619876717E+03  0.16774463677E+03  0.38383830403E+03  0.45499843959E+03  0.12500937718E+03 0.  0.
          2    1    1    2  501    0 -0.10947139363E+03  0.39798530222E+02 -0.76383958300E+02  0.13929256303E+03  0.00000000000E+00 0. -1.
          1    1    1    2  502    0 -0.16727373536E+02 -0.20754316700E+03  0.16005233752E+04  0.16140102372E+04  0.00000000000E+00 0. -1.
         22    1    3    3    0    0  0.50809647641E+02  0.68328751724E+01  0.16677215067E+03  0.17447423510E+03  0.00000000000E+00 0.  1.
         22    1    3    3    0    0  0.75389119526E+02  0.16091176160E+03  0.21706615337E+03  0.28052420449E+03  0.00000000000E+00 0.  1.
</event>
<event>
 7    1  0.6386201E-006  0.6081834E+02  0.7818608E-02  0.1399713E+00
          2   -1    0    0  502    0  0.00000000000E+00  0.00000000000E+00  0.14775107167E+04  0.14775107167E+04  0.00000000000E+00 0. -1.
          1   -1    0    0  501    0 -0.00000000000E+00 -0.00000000000E+00 -0.12842698971E+04  0.12842698971E+04  0.00000000000E+00 0. -1.
         25    2    1    2    0    0  0.25237144673E+02 -0.61531079475E+02  0.21311742894E+03  0.25586541210E+03  0.12500033351E+03 0.  0.
          2    1    1    2  501    0 -0.57592871003E+02  0.91544748610E+01 -0.12614595845E+04  0.12628068050E+04  0.00000000000E+00 0. -1.
          1    1    1    2  502    0  0.32355726330E+02  0.52376604614E+02  0.12415829752E+04  0.12431083967E+04  0.00000000000E+00 0. -1.
         22    1    3    3    0    0 -0.38940580603E+02 -0.66393959585E+02  0.12372811970E+03  0.14571607424E+03  0.00000000000E+00 0.  1.
         22    1    3    3    0    0  0.64177725277E+02  0.48628801096E+01  0.89389309242E+02  0.11014933786E+03  0.00000000000E+00 0.  1.
</event>
<event>
 7    1  0.6386201E-006  0.1411593E+03  0.7818608E-02  0.1312274E+00
          2   -1    0    0  502    0  0.00000000000E+00  0.00000000000E+00  0.18092761403E+04  0.18092761403E+04  0.00000000000E+00 0. -1.
          1   -1    0    0  501    0 -0.00000000000E+00 -0.00000000000E+00 -0.28770900831E+03  0.28770900831E+03  0.00000000000E+00 0. -1.
         25    2    1    2    0    0  0.12197289007E+03 -0.42269893021E+02  0.31430343556E+02  0.18241655850E+03  0.12499521811E+03 0.  0.
          2    1    1    2  501    0 -0.14579423501E+02 -0.50604279656E+02 -0.20593622094E+03  0.21256311957E+03  0.00000000000E+00 0. -1.
          1    1    1    2  502    0 -0.10739346657E+03  0.92874172676E+02  0.16960730094E+04  0.17020054706E+04  0.00000000000E+00 0. -1.
         22    1    3    3    0    0  0.47450956975E+02  0.43861965530E+02  0.21447722700E+02  0.68084287079E+02  0.00000000000E+00 0.  1.
         22    1    3    3    0    0  0.74521933099E+02 -0.86131858551E+02  0.99826208559E+01  0.11433227143E+03  0.00000000000E+00 0.  1.
</event>
<event>
 7    1  0.6386201E-006  0.8228184E+02  0.7818608E-02  0.1472998E+00
          2   -1    0    0  502    0  0.00000000000E+00  0.00000000000E+00  0.28432878623E+03  0.28432878623E+03  0.00000000000E+00 0. -1.
          1   -1    0    0  501    0 -0.00000000000E+00 -0.00000000000E+00 -0.71359820590E+03  0.71359820590E+03  0.00000000000E+00 0. -1.
         25    2    1    2    0    0  0.88120838513E+02 -0.38339900853E+02 -0.37127950440E+03  0.40337167850E+03  0.12500004181E+03 0.  0.
          2    1    1    2  501    0 -0.76951832750E+02  0.16144420026E+02 -0.32094141314E+03  0.33043247045E+03  0.00000000000E+00 0. -1.
          1    1    1    2  502    0 -0.11169005762E+02  0.22195480827E+02  0.26295149786E+03  0.26412284318E+03  0.00000000000E+00 0. -1.
         22    1    3    3    0    0  0.84638011204E+02  0.18397810652E+02 -0.29970791844E+03  0.31197260897E+03  0.00000000000E+00 0.  1.
         22    1    3    3    0    0  0.34828273087E+01 -0.56737711505E+02 -0.71571585960E+02  0.91399069523E+02  0.00000000000E+00 0.  1.
</event>
<event>
 7    1  0.8715541E-006  0.6152018E+02  0.7818608E-02  0.1404545E+00
          2   -1    0    0  502    0  0.00000000000E+00  0.00000000000E+00  0.18937250959E+04  0.18937250959E+04  0.00000000000E+00 0. -1.
          1   -1    0    0  501    0 -0.00000000000E+00 -0.00000000000E+00 -0.63420496505E+03  0.63420496505E+03  0.00000000000E+00 0. -1.
         25    2    1    2    0    0  0.51433763962E+02  0.84035192844E+02 -0.39641438929E+03  0.42717312851E+03  0.12500067188E+03 0.  0.
          2    1    1    2  501    0  0.29904373223E+01 -0.55412598908E+02 -0.21843764933E+03  0.22537636406E+03  0.00000000000E+00 0. -1.
          1    1    1    2  502    0 -0.54424201284E+02 -0.28622593936E+02  0.18743721695E+04  0.18753805684E+04  0.00000000000E+00 0. -1.
         22    1    3    3    0    0  0.49516834526E+02 -0.98578017706E+01 -0.62724955775E+02  0.80520265984E+02  0.00000000000E+00 0. -1.
         22    1    3    3    0    0  0.19169294366E+01  0.93892994615E+02 -0.33368943352E+03  0.34665286252E+03  0.00000000000E+00 0. -1.
</event>
<event>
 7    1  0.6386201E-006  0.2302195E+03  0.7818608E-02  0.1220900E+00
          2   -1    0    0  502    0  0.00000000000E+00  0.00000000000E+00  0.16277360939E+04  0.16277360939E+04  0.00000000000E+00 0. -1.
          1   -1    0    0  501    0 -0.00000000000E+00 -0.00000000000E+00 -0.79483411098E+03  0.79483411098E+03  0.00000000000E+00 0. -1.
         25    2    1    2    0    0 -0.15886240315E+03  0.25528358723E+03 -0.28261512785E+03  0.43117019650E+03  0.12501781802E+03 0.  0.
          2    1    1    2  501    0  0.15767457661E+02 -0.77003199648E+02 -0.42591565367E+03  0.43310766504E+03  0.00000000000E+00 0. -1.
          1    1    1    2  502    0  0.14309494549E+03 -0.17828038758E+03  0.15414327644E+04  0.15582923433E+04  0.00000000000E+00 0. -1.
         22    1    3    3    0    0 -0.13506392485E+03  0.26060521459E+03 -0.28160024117E+03  0.40676287625E+03  0.00000000000E+00 0.  1.
         22    1    3    3    0    0 -0.23798478292E+02 -0.53216273630E+01 -0.10148866730E+01  0.24407320250E+02  0.00000000000E+00 0.  1.
</event>
<event>
 7    1  0.6386201E-006  0.1584814E+03  0.7818608E-02  0.1293002E+00
          2   -1    0    0  502    0  0.00000000000E+00  0.00000000000E+00  0.16367594933E+03  0.16367594933E+03  0.00000000000E+00 0. -1.
          1   -1    0    0  501    0 -0.00000000000E+00 -0.00000000000E+00 -0.70508838145E+03  0.70508838145E+03  0.00000000000E+00 0. -1.
         25    2    1    2    0    0 -0.66947565554E+02 -0.13397835553E+03 -0.44859480657E+03  0.48917701933E+03  0.12499871789E+03 0.  0.
          2    1    1    2  501    0  0.12269897495E+03  0.12887576099E+03 -0.19443432392E+03  0.26356916843E+03  0.00000000000E+00 0. -1.
          1    1    1    2  502    0 -0.55751409399E+02  0.51025945416E+01  0.10161669837E+03  0.11601814302E+03  0.00000000000E+00 0. -1.
         22    1    3    3    0    0 -0.70841225248E+02 -0.68211135271E+02 -0.38589150546E+03  0.39822542882E+03  0.00000000000E+00 0. -1.
         22    1    3    3    0    0  0.38936596944E+01 -0.65767220264E+02 -0.62703301110E+02  0.90951590515E+02  0.00000000000E+00 0. -1.
</event>
<event>
 7    1  0.6386201E-006  0.1279294E+03  0.7818608E-02  0.1309586E+00
          2   -1    0    0  502    0  0.00000000000E+00  0.00000000000E+00  0.16817084468E+03  0.16817084468E+03  0.00000000000E+00 0. -1.
          1   -1    0    0  501    0 -0.00000000000E+00 -0.00000000000E+00 -0.11532064125E+04  0.11532064125E+04  0.00000000000E+00 0. -1.
         25    2    1    2    0    0  0.11120369256E+03 -0.27305817766E+02 -0.39682010263E+03  0.43151378252E+03  0.12500432682E+03 0.  0.
          2    1    1    2  501    0 -0.13540489150E+02 -0.57981051357E+02 -0.70969373982E+03  0.71218702003E+03  0.00000000000E+00 0. -1.
          1    1    1    2  502    0 -0.97663203413E+02  0.85286869123E+02  0.12147827459E+03  0.17767645467E+03  0.00000000000E+00 0. -1.
         22    1    3    3    0    0  0.51137837990E+02  0.31813044504E+02 -0.62744420382E+02  0.86971320353E+02  0.00000000000E+00 0. -1.
         22    1    3    3    0    0  0.60065854572E+02 -0.59118862270E+02 -0.33407568225E+03  0.34454246216E+03  0.00000000000E+00 0. -1.
</event>
<event>
 7    1  0.6386201E-006  0.2279860E+03  0.7818608E-02  0.1325125E+00
          2   -1    0    0  502    0  0.00000000000E+00  0.00000000000E+00  0.47301748858E+03  0.47301748858E+03  0.00000000000E+00 0. -1.
          1   -1    0    0  501    0 -0.00000000000E+00 -0.00000000000E+00 -0.15424047327E+04  0.15424047327E+04  0.00000000000E+00 0. -1.
         25    2    1    2    0    0  0.20534649240E+03  0.12097133691E+03 -0.26730463521E+02  0.27043648564E+03  0.12498051363E+03 0.  0.
          2    1    1    2  501    0  0.84670535376E+00 -0.29050602021E+02 -0.13573667329E+04  0.13576778344E+04  0.00000000000E+00 0. -1.
          1    1    1    2  502    0 -0.20619319776E+03 -0.91920734892E+02  0.31470995230E+03  0.38730790127E+03  0.00000000000E+00 0. -1.
         22    1    3    3    0    0  0.19200138393E+03  0.79809757942E+02 -0.59367429207E+02  0.21623741708E+03  0.00000000000E+00 0. -1.
         22    1    3    3    0    0  0.13345108473E+02  0.41161578971E+02  0.32636965685E+02  0.54199068559E+02  0.00000000000E+00 0. -1.
</event>
<event>
 7    1  0.6386201E-006  0.1107734E+03  0.7818608E-02  0.1357277E+00
          2   -1    0    0  502    0  0.00000000000E+00  0.00000000000E+00  0.10403007910E+04  0.10403007910E+04  0.00000000000E+00 0. -1.
          1   -1    0    0  501    0 -0.00000000000E+00 -0.00000000000E+00 -0.13795633597E+03  0.13795633597E+03  0.00000000000E+00 0. -1.
         25    2    1    2    0    0 -0.10226422841E+03 -0.48612813800E+02  0.69299678563E+03  0.71322629663E+03  0.12500410888E+03 0.  0.
          2    1    1    2  501    0  0.27501239565E+02 -0.35991760438E+02 -0.11393012697E+03  0.12260423659E+03  0.00000000000E+00 0. -1.
          1    1    1    2  502    0  0.74762988845E+02  0.84604574238E+02  0.32327779633E+03  0.34242659372E+03  0.00000000000E+00 0. -1.
         22    1    3    3    0    0 -0.61292919274E+02 -0.54304685992E+02  0.17103512948E+03  0.18962815295E+03  0.00000000000E+00 0. -1.
         22    1    3    3    0    0 -0.40971309136E+02  0.56918721923E+01  0.52196165614E+03  0.52359814368E+03  0.00000000000E+00 0. -1.
</event>
<event>
 7    1  0.6386201E-006  0.1042712E+03  0.7818608E-02  0.1306752E+00
          2   -1    0    0  502    0  0.00000000000E+00  0.00000000000E+00  0.26565790478E+04  0.26565790478E+04  0.00000000000E+00 0. -1.
          1   -1    0    0  501    0 -0.00000000000E+00 -0.00000000000E+00 -0.53712872297E+03  0.53712872297E+03  0.00000000000E+00 0. -1.
         25    2    1    2    0    0  0.91139186498E+01  0.72001929433E+02  0.77853434007E+03  0.79183845753E+03  0.12500033120E+03 0.  0.
          2    1    1    2  501    0  0.65198800127E+02 -0.81824226548E+02 -0.52455802182E+03  0.53488990068E+03  0.00000000000E+00 0. -1.
          1    1    1    2  502    0 -0.74312718777E+02  0.98222971149E+01  0.18654740066E+04  0.18669794126E+04  0.00000000000E+00 0. -1.
         22    1    3    3    0    0  0.38777716633E+02  0.93851509876E+02  0.65830136602E+03  0.66608746101E+03  0.00000000000E+00 0. -1.
         22    1    3    3    0    0 -0.29663797983E+02 -0.21849580443E+02  0.12023297405E+03  0.12575099652E+03  0.00000000000E+00 0. -1.
</event>
<event>
 7    1  0.6386201E-006  0.5973047E+02  0.7818608E-02  0.1404426E+00
          2   -1    0    0  502    0  0.00000000000E+00  0.00000000000E+00  0.58306547068E+03  0.58306547068E+03  0.00000000000E+00 0. -1.
          1   -1    0    0  501    0 -0.00000000000E+00 -0.00000000000E+00 -0.26774380463E+03  0.26774380463E+03  0.00000000000E+00 0. -1.
         25    2    1    2    0    0 -0.61238099790E+02  0.21394076158E+02 -0.16674251968E+03  0.21824381006E+03  0.12497792365E+03 0.  0.
          2    1    1    2  501    0  0.51080203950E+02  0.37466315185E+02 -0.59981168499E+02  0.87239054234E+02  0.00000000000E+00 0. -1.
          1    1    1    2  502    0  0.10157895840E+02 -0.58860391343E+02  0.54204535422E+03  0.54532641101E+03  0.00000000000E+00 0. -1.
         22    1    3    3    0    0 -0.59924429962E+02  0.47127911056E+02 -0.34790624590E+02  0.83799551706E+02  0.00000000000E+00 0.  1.
         22    1    3    3    0    0 -0.13136698274E+01 -0.25733834898E+02 -0.13195189509E+03  0.13444425835E+03  0.00000000000E+00 0.  1.
</event>
<event>
 7    1  0.6386201E-006  0.2117436E+03  0.7818608E-02  0.1225061E+00
          2   -1    0    0  502    0  0.00000000000E+00  0.00000000000E+00  0.14313971377E+04  0.14313971377E+04  0.00000000000E+00 0. -1.
          1   -1    0    0  501    0 -0.00000000000E+00 -0.00000000000E+00 -0.48009808301E+03  0.48009808301E+03  0.00000000000E+00 0. -1.
         25    2    1    2    0    0 -0.13273949450E+03 -0.25419588938E+03  0.11623806239E+03  0.33372435900E+03  0.12500134824E+03 0.  0.
          2    1    1    2  501    0  0.45923133739E+02  0.67721847847E+02 -0.35793693637E+03  0.36717030559E+03  0.00000000000E+00 0. -1.
          1    1    1    2  502    0  0.86816360762E+02  0.18647404153E+03  0.11929979287E+04  0.12106005561E+04  0.00000000000E+00 0. -1.
         22    1    3    3    0    0 -0.66849611657E+02 -0.81768432220E+02  0.10479064160E+03  0.14878180552E+03  0.00000000000E+00 0. -1.
         22    1    3    3    0    0 -0.65889882844E+02 -0.17242745716E+03  0.11447420790E+02  0.18494255348E+03  0.00000000000E+00 0. -1.
</event>
<event>
 7    1  0.6386201E-006  0.8680138E+02  0.7818608E-02  0.1316508E+00
          2   -1    0    0  502    0  0.00000000000E+00  0.00000000000E+00  0.12846482592E+04  0.12846482592E+04  0.00000000000E+00 0. -1.
          1   -1    0    0  501    0 -0.00000000000E+00 -0.00000000000E+00 -0.45376473789E+03  0.45376473789E+03  0.00000000000E+00 0. -1.
         25    2    1    2    0    0  0.90435641518E+02 -0.66781382493E+02  0.24012765437E+03  0.29312856826E+03  0.12499883531E+03 0.  0.
          2    1    1    2  501    0 -0.10353046863E+02  0.86334335639E+02 -0.42114677085E+03  0.43002954049E+03  0.00000000000E+00 0. -1.
          1    1    1    2  502    0 -0.80082594655E+02 -0.19552953145E+02  0.10119026378E+04  0.10152548883E+04  0.00000000000E+00 0. -1.
         22    1    3    3    0    0  0.98759160639E+02 -0.35471956171E+02  0.23864552438E+03  0.26069775179E+03  0.00000000000E+00 0.  1.
         22    1    3    3    0    0 -0.83235191211E+01 -0.31309426322E+02  0.14821299944E+01  0.32430816464E+02  0.00000000000E+00 0.  1.
</event>
<event>
 7    1  0.6386201E-006  0.2420909E+03  0.7818608E-02  0.1242416E+00
          2   -1    0    0  502    0  0.00000000000E+00  0.00000000000E+00  0.22648639452E+04  0.22648639452E+04  0.00000000000E+00 0. -1.
          1   -1    0    0  501    0 -0.00000000000E+00 -0.00000000000E+00 -0.21040228242E+03  0.21040228242E+03  0.00000000000E+00 0. -1.
         25    2    1    2    0    0 -0.44482326669E+02 -0.22610568204E+03  0.49629187298E+03  0.56127885328E+03  0.12500348441E+03 0.  0.
          2    1    1    2  501    0  0.10420843260E+03  0.22163796780E+03 -0.92819059876E+02  0.26191251225E+03  0.00000000000E+00 0. -1.
          1    1    1    2  502    0 -0.59726105928E+02  0.44677142396E+01  0.16509888497E+04  0.16520748621E+04  0.00000000000E+00 0. -1.
         22    1    3    3    0    0 -0.14678687534E+02 -0.12021204861E+03  0.12504688872E+03  0.17407792760E+03  0.00000000000E+00 0.  1.
         22    1    3    3    0    0 -0.29803639135E+02 -0.10589363343E+03  0.37124498426E+03  0.38720092568E+03  0.00000000000E+00 0.  1.
</event>
<event>
 7    1  0.1444026E-005  0.8636303E+02  0.7818608E-02  0.1392231E+00
          2   -1    0    0  502    0  0.00000000000E+00  0.00000000000E+00  0.10357016716E+04  0.10357016716E+04  0.00000000000E+00 0. -1.
          1   -1    0    0  501    0 -0.00000000000E+00 -0.00000000000E+00 -0.10593289263E+04  0.10593289263E+04  0.00000000000E+00 0. -1.
         25    2    1    2    0    0 -0.96868600610E+02 -0.56311678538E+02 -0.42511628949E+03  0.45705939868E+03  0.12499961365E+03 0.  0.
          2    1    1    2  501    0  0.42298575268E+02 -0.10527064540E+02 -0.61564380829E+03  0.61718497004E+03  0.00000000000E+00 0. -1.
          1    1    1    2  502    0  0.54570025342E+02  0.66838743077E+02  0.10171328431E+04  0.10207862292E+04  0.00000000000E+00 0. -1.
         22    1    3    3    0    0 -0.34037511578E+02  0.40130710849E+02 -0.14223074917E+03  0.15165293323E+03  0.00000000000E+00 0. -1.
         22    1    3    3    0    0 -0.62831089032E+02 -0.96442389387E+02 -0.28288554032E+03  0.30540646546E+03  0.00000000000E+00 0. -1.
</event>
<event>
 7    1  0.6386201E-006  0.1200940E+03  0.7818608E-02  0.1283663E+00
          2   -1    0    0  502    0  0.00000000000E+00  0.00000000000E+00  0.41500581752E+03  0.41500581752E+03  0.00000000000E+00 0. -1.
          1   -1    0    0  501    0 -0.00000000000E+00 -0.00000000000E+00 -0.38674613825E+03  0.38674613825E+03  0.00000000000E+00 0. -1.
         25    2    1    2    0    0  0.17654460162E+03 -0.33849236800E+02  0.10540603246E+03  0.24299999476E+03  0.12499919432E+03 0.  0.
          2    1    1    2  501    0 -0.11543897932E+03 -0.18787637478E+02 -0.29987233983E+03  0.32187350538E+03  0.00000000000E+00 0. -1.
          1    1    1    2  502    0 -0.61105622307E+02  0.52636874278E+02  0.22272598665E+03  0.23687845563E+03  0.00000000000E+00 0. -1.
         22    1    3    3    0    0  0.57702321723E+02 -0.62406647702E+02  0.55601917337E+01  0.85176659607E+02  0.00000000000E+00 0.  1.
         22    1    3    3    0    0  0.11884227990E+03  0.28557410902E+02  0.99845840722E+02  0.15782333515E+03  0.00000000000E+00 0.  1.
</event>
<event>
 7    1  0.6386201E-006  0.1304183E+03  0.7818608E-02  0.1321179E+00
          2   -1    0    0  502    0  0.00000000000E+00  0.00000000000E+00  0.70274794936E+03  0.70274794936E+03  0.00000000000E+00 0. -1.
          1   -1    0    0  501    0 -0.00000000000E+00 -0.00000000000E+00 -0.42149148383E+03  0.42149148383E+03  0.00000000000E+00 0. -1.
         25    2    1    2    0    0 -0.12147790179E+03  0.10154081074E+02  0.93332380746E+02  0.19797520282E+03  0.12499304641E+03 0.  0.
          2    1    1    2  501    0  0.11612407924E+03 -0.62500207531E+02 -0.35608285196E+03  0.37971841565E+03  0.00000000000E+00 0. -1.
          1    1    1    2  502    0  0.53538225457E+01  0.52346126457E+02  0.54400693674E+03  0.54654581473E+03  0.00000000000E+00 0. -1.
         22    1    3    3    0    0 -0.83283308202E+02 -0.54396012142E+02  0.56791620579E+02  0.11454398164E+03  0.00000000000E+00 0.  1.
         22    1    3    3    0    0 -0.38194593584E+02  0.64550093217E+02  0.36540760167E+02  0.83431221176E+02  0.00000000000E+00 0.  1.
</event>
<event>
 7    1  0.6386201E-006  0.6336875E+02  0.7818608E-02  0.1389837E+00
          2   -1    0    0  502    0  0.00000000000E+00  0.00000000000E+00  0.29900138754E+04  0.29900138754E+04  0.00000000000E+00 0. -1.
          1   -1    0    0  501    0 -0.00000000000E+00 -0.00000000000E+00 -0.96960999770E+02  0.96960999770E+02  0.00000000000E+00 0. -1.
         25    2    1    2    0    0  0.12238824377E+02  0.31330574529E+02  0.16670422015E+03  0.21106174564E+03  0.12500147892E+03 0.  0.
          2    1    1    2  501    0  0.45542009490E+02 -0.49457515166E+02 -0.59275423899E+02  0.89630889280E+02  0.00000000000E+00 0. -1.
          1    1    1    2  502    0 -0.57780833867E+02  0.18126940637E+02  0.27856240794E+04  0.27862822403E+04  0.00000000000E+00 0. -1.
         22    1    3    3    0    0 -0.36950894012E+02  0.17930419376E+02  0.48367507861E+01  0.41355322094E+02  0.00000000000E+00 0.  1.
         22    1    3    3    0    0  0.49189718389E+02  0.13400155153E+02  0.16186746937E+03  0.16970642355E+03  0.00000000000E+00 0.  1.
</event>
<event>
 7    1  0.6386201E-006  0.9900916E+02  0.7818608E-02  0.1318443E+00
          2   -1    0    0  502    0  0.00000000000E+00  0.00000000000E+00  0.18688162805E+04  0.18688162805E+04  0.00000000000E+00 0. -1.
          1   -1    0    0  501    0 -0.00000000000E+00 -0.00000000000E+00 -0.42931826792E+03  0.42931826792E+03  0.00000000000E+00 0. -1.
         25    2    1    2    0    0  0.15860373681E+03  0.32259739978E+02  0.75791825568E+03  0.78502227512E+03  0.12499621588E+03 0.  0.
          2    1    1    2  501    0 -0.88466790574E+02 -0.43473800934E+02 -0.40875202221E+03  0.42046945200E+03  0.00000000000E+00 0. -1.
          1    1    1    2  502    0 -0.70136946236E+02  0.11214060956E+02  0.10903317791E+04  0.10926428213E+04  0.00000000000E+00 0. -1.
         22    1    3    3    0    0  0.27662157672E+02  0.41203664369E+02  0.41310449104E+03  0.41607482192E+03  0.00000000000E+00 0.  1.
         22    1    3    3    0    0  0.13094157914E+03 -0.89439243912E+01  0.34481376464E+03  0.36894745319E+03  0.00000000000E+00 0.  1.
</event>
<event>
 7    1  0.6386201E-006  0.7852656E+02  0.7818608E-02  0.1346815E+00
          2   -1    0    0  502    0  0.00000000000E+00  0.00000000000E+00  0.10712063887E+04  0.10712063887E+04  0.00000000000E+00 0. -1.
          1   -1    0    0  501    0 -0.00000000000E+00 -0.00000000000E+00 -0.32577541941E+03  0.32577541941E+03  0.00000000000E+00 0. -1.
         25    2    1    2    0    0 -0.63159705656E+02  0.72572376252E+02  0.11880776168E+03  0.19747441893E+03  0.12499985473E+03 0.  0.
          2    1    1    2  501    0 -0.64203952590E+01 -0.78621213869E+02 -0.27964199306E+03  0.29055491913E+03  0.00000000000E+00 0. -1.
          1    1    1    2  502    0  0.69580100915E+02  0.60488376163E+01  0.90626520064E+03  0.90895247003E+03  0.00000000000E+00 0. -1.
         22    1    3    3    0    0 -0.30045261693E+02  0.10339026898E+03  0.59921304699E+02  0.12321861965E+03  0.00000000000E+00 0.  1.
         22    1    3    3    0    0 -0.33114443963E+02 -0.30817892732E+02  0.58886456984E+02  0.74255799285E+02  0.00000000000E+00 0.  1.
</event>
<event>
 7    1  0.6386201E-006  0.2383245E+03  0.7818608E-02  0.1286078E+00
          2   -1    0    0  502    0  0.00000000000E+00  0.00000000000E+00  0.12718891418E+04  0.12718891418E+04  0.00000000000E+00 0. -1.
          1   -1    0    0  501    0 -0.00000000000E+00 -0.00000000000E+00 -0.15552537814E+04  0.15552537814E+04  0.00000000000E+00 0. -1.
         25    2    1    2    0    0 -0.19661514775E+03 -0.34792814057E+02 -0.40498558905E+03  0.46851519182E+03  0.12500040558E+03 0.  0.
          2    1    1    2  501    0 -0.38691266149E+02 -0.90014077318E+01 -0.11065950291E+04  0.11073078153E+04  0.00000000000E+00 0. -1.
          1    1    1    2  502    0  0.23530641389E+03  0.43794221789E+02  0.12282159786E+04  0.12513199161E+04  0.00000000000E+00 0. -1.
         22    1    3    3    0    0 -0.15035643296E+03  0.19746484651E+02 -0.19719718066E+03  0.24876436371E+03  0.00000000000E+00 0. -1.
         22    1    3    3    0    0 -0.46258714786E+02 -0.54539298708E+02 -0.20778840839E+03  0.21975082811E+03  0.00000000000E+00 0. -1.
</event>
<event>
 7    1  0.6386201E-006  0.1475528E+03  0.7818608E-02  0.1332431E+00
          2   -1    0    0  502    0  0.00000000000E+00  0.00000000000E+00  0.18881889192E+03  0.18881889192E+03  0.00000000000E+00 0. -1.
          1   -1    0    0  501    0 -0.00000000000E+00 -0.00000000000E+00 -0.14787233878E+04  0.14787233878E+04  0.00000000000E+00 0. -1.
         25    2    1    2    0    0  0.67312404019E+02 -0.90363139193E+02 -0.19916011159E+03  0.26075616046E+03  0.12503027039E+03 0.  0.
          2    1    1    2  501    0 -0.10247190457E+03  0.11352880083E+03 -0.12411812995E+04  0.12505679902E+04  0.00000000000E+00 0. -1.
          1    1    1    2  502    0  0.35159500549E+02 -0.23165661636E+02  0.15043691526E+03  0.15621812901E+03  0.00000000000E+00 0. -1.
         22    1    3    3    0    0 -0.33985489555E+02 -0.44140265516E+02 -0.51887677136E+02  0.76129544716E+02  0.00000000000E+00 0. -1.
         22    1    3    3    0    0  0.10129789357E+03 -0.46222873677E+02 -0.14727243445E+03  0.18462661575E+03  0.00000000000E+00 0. -1.
</event>
<event>
 7    1  0.6386201E-006  0.7623048E+02  0.7818608E-02  0.1429940E+00
          2   -1    0    0  502    0  0.00000000000E+00  0.00000000000E+00  0.71447088638E+03  0.71447088638E+03  0.00000000000E+00 0. -1.
          1   -1    0    0  501    0 -0.00000000000E+00 -0.00000000000E+00 -0.72135574511E+03  0.72135574511E+03  0.00000000000E+00 0. -1.
         25    2    1    2    0    0 -0.35570730431E+02  0.20192757190E+02  0.14738933788E+02  0.13234268790E+03  0.12499730624E+03 0.  0.
          2    1    1    2  501    0  0.63303973345E+02 -0.44396928312E+02 -0.65976582670E+03  0.66428113503E+03  0.00000000000E+00 0. -1.
          1    1    1    2  502    0 -0.27733242914E+02  0.24204171122E+02  0.63814203419E+03  0.63920280855E+03  0.00000000000E+00 0. -1.
         22    1    3    3    0    0 -0.57306368114E+02 -0.35682118987E+02  0.24064251991E+02  0.71668135637E+02  0.00000000000E+00 0. -1.
         22    1    3    3    0    0  0.21735637683E+02  0.55874876177E+02 -0.93253182036E+01  0.60674552268E+02  0.00000000000E+00 0. -1.
</event>
<event>
 7    1  0.6386201E-006  0.4795728E+02  0.7818608E-02  0.1554974E+00
          2   -1    0    0  502    0  0.00000000000E+00  0.00000000000E+00  0.29961538239E+02  0.29961538239E+02  0.00000000000E+00 0. -1.
          1   -1    0    0  501    0 -0.00000000000E+00 -0.00000000000E+00 -0.25215125137E+04  0.25215125137E+04  0.00000000000E+00 0. -1.
         25    2    1    2    0    0 -0.39785803232E+02  0.57100191104E+02 -0.11894705322E+04  0.11980446938E+04  0.12501039638E+03 0.  0.
          2    1    1    2  501    0  0.21710805409E+02 -0.40529332882E+02 -0.13214074190E+04  0.13222070764E+04  0.00000000000E+00 0. -1.
          1    1    1    2  502    0  0.18074997823E+02 -0.16570858222E+02  0.19326975764E+02  0.31222281799E+02  0.00000000000E+00 0. -1.
         22    1    3    3    0    0 -0.71352764468E+02  0.49299752350E+01 -0.86074890649E+03  0.86371534760E+03  0.00000000000E+00 0.  1.
         22    1    3    3    0    0  0.31566961236E+02  0.52170215869E+02 -0.32872162575E+03  0.33432934616E+03  0.00000000000E+00 0.  1.
</event>
<event>
 7    1  0.6386201E-006  0.1052783E+03  0.7818608E-02  0.1324409E+00
          2   -1    0    0  502    0  0.00000000000E+00  0.00000000000E+00  0.67762039723E+03  0.67762039723E+03  0.00000000000E+00 0. -1.
          1   -1    0    0  501    0 -0.00000000000E+00 -0.00000000000E+00 -0.99769502739E+03  0.99769502739E+03  0.00000000000E+00 0. -1.
         25    2    1    2    0    0 -0.95016534654E+02 -0.38211767542E+02 -0.13261511985E+02  0.16214445769E+03  0.12500670552E+03 0.  0.
          2    1    1    2  501    0  0.37317941753E+02 -0.51177063564E+02 -0.90418395937E+03  0.90639966515E+03  0.00000000000E+00 0. -1.
          1    1    1    2  502    0  0.57698592900E+02  0.89388831106E+02  0.59737084119E+03  0.60677130177E+03  0.00000000000E+00 0. -1.
         22    1    3    3    0    0  0.30938231729E+02 -0.90578215562E+01 -0.61710735894E+00  0.32242815252E+02  0.00000000000E+00 0.  1.
         22    1    3    3    0    0 -0.12595476638E+03 -0.29153945986E+02 -0.12644404626E+02  0.12990164244E+03  0.00000000000E+00 0.  1.
</event>
<event>
 7    1  0.6386201E-006  0.5228818E+02  0.7818608E-02  0.1505287E+00
          2   -1    0    0  502    0  0.00000000000E+00  0.00000000000E+00  0.33913206171E+03  0.33913206171E+03  0.00000000000E+00 0. -1.
          1   -1    0    0  501    0 -0.00000000000E+00 -0.00000000000E+00 -0.10773654655E+03  0.10773654655E+03  0.00000000000E+00 0. -1.
         25    2    1    2    0    0 -0.30879769908E+02 -0.89102516046E-02  0.14608424390E+03  0.19472702753E+03  0.12499779465E+03 0.  0.
          2    1    1    2  501    0 -0.21541742284E+02  0.22590492541E+02 -0.75394239965E+02  0.81600664419E+02  0.00000000000E+00 0. -1.
          1    1    1    2  502    0  0.52421512192E+02 -0.22581582289E+02  0.16070551122E+03  0.17054091631E+03  0.00000000000E+00 0. -1.
         22    1    3    3    0    0  0.38435561601E+02  0.19410464594E+02  0.15775546084E+02  0.45857675319E+02  0.00000000000E+00 0.  1.
         22    1    3    3    0    0 -0.69315331509E+02 -0.19419374846E+02  0.13030869782E+03  0.14886935222E+03  0.00000000000E+00 0.  1.
</event>
<event>
 7    1  0.6386201E-006  0.5922722E+02  0.7818608E-02  0.1496467E+00
          2   -1    0    0  502    0  0.00000000000E+00  0.00000000000E+00  0.73174881015E+03  0.73174881015E+03  0.00000000000E+00 0. -1.
          1   -1    0    0  501    0 -0.00000000000E+00 -0.00000000000E+00 -0.11556453962E+03  0.11556453962E+03  0.00000000000E+00 0. -1.
         25    2    1    2    0    0  0.83771595289E+02 -0.60534509015E+00  0.15529892366E+03  0.21624179009E+03  0.12499883787E+03 0.  0.
          2    1    1    2  501    0 -0.26967827903E+02 -0.11397508548E+02 -0.80977316384E+02  0.86107448642E+02  0.00000000000E+00 0. -1.
          1    1    1    2  502    0 -0.56803767386E+02  0.12002853638E+02  0.54186266325E+03  0.54496411103E+03  0.00000000000E+00 0. -1.
         22    1    3    3    0    0  0.10109433320E+03 -0.27965330521E+02  0.15058811757E+03  0.18351813281E+03  0.00000000000E+00 0.  1.
         22    1    3    3    0    0 -0.17322737909E+02  0.27359985431E+02  0.47108060859E+01  0.32723657275E+02  0.00000000000E+00 0.  1.
</event>
<event>
 7    1  0.6386201E-006  0.9523103E+02  0.7818608E-02  0.1397125E+00
          2   -1    0    0  502    0  0.00000000000E+00  0.00000000000E+00  0.41333637386E+03  0.41333637386E+03  0.00000000000E+00 0. -1.
          1   -1    0    0  501    0 -0.00000000000E+00 -0.00000000000E+00 -0.15231160142E+04  0.15231160142E+04  0.00000000000E+00 0. -1.
         25    2    1    2    0    0  0.50888876914E+02 -0.42428733118E+02 -0.37790350141E+03  0.40351747252E+03  0.12500167622E+03 0.  0.
          2    1    1    2  501    0  0.96650686948E+00 -0.38003462743E+02 -0.11263638882E+04  0.11270052377E+04  0.00000000000E+00 0. -1.
          1    1    1    2  502    0 -0.51855383784E+02  0.80432195862E+02  0.39448774928E+03  0.40592967776E+03  0.00000000000E+00 0. -1.
         22    1    3    3    0    0  0.43285638216E+02 -0.49174927553E+02 -0.71611380629E+02  0.97056735012E+02  0.00000000000E+00 0. -1.
         22    1    3    3    0    0  0.76032386985E+01  0.67461944347E+01 -0.30629212078E+03  0.30646073750E+03  0.00000000000E+00 0. -1.
</event>
<event>
 7    1  0.6386201E-006  0.7054480E+02  0.7818608E-02  0.1422799E+00
          2   -1    0    0  502    0  0.00000000000E+00  0.00000000000E+00  0.10005334029E+04  0.10005334029E+04  0.00000000000E+00 0. -1.
          1   -1    0    0  501    0 -0.00000000000E+00 -0.00000000000E+00 -0.21033958382E+03  0.21033958382E+03  0.00000000000E+00 0. -1.
         25    2    1    2    0    0 -0.52790298934E+02 -0.98404503788E+02 -0.39309531750E+01  0.16766121034E+03  0.12499826812E+03 0.  0.
          2    1    1    2  501    0  0.22896559712E+02  0.35211531356E+02 -0.11962887557E+03  0.12678790265E+03  0.00000000000E+00 0. -1.
          1    1    1    2  502    0  0.29893739222E+02  0.63192972432E+02  0.91375364787E+03  0.91642387376E+03  0.00000000000E+00 0. -1.
         22    1    3    3    0    0  0.39539340276E+02 -0.27053952610E+02 -0.15619875093E+02  0.50391033719E+02  0.00000000000E+00 0.  1.
         22    1    3    3    0    0 -0.92329639210E+02 -0.71350551178E+02  0.11688921918E+02  0.11727017663E+03  0.00000000000E+00 0.  1.
</event>
<event>
 7    1  0.6386201E-006  0.8164373E+02  0.7818608E-02  0.1460812E+00
          2   -1    0    0  502    0  0.00000000000E+00  0.00000000000E+00  0.38290457556E+04  0.38290457556E+04  0.00000000000E+00 0. -1.
          1   -1    0    0  501    0 -0.00000000000E+00 -0.00000000000E+00 -0.69603472577E+03  0.69603472577E+03  0.00000000000E+00 0. -1.
         25    2    1    2    0    0 -0.75407023207E+02  0.18626530630E+02  0.12359311261E+04  0.12446620345E+04  0.12499866003E+03 0.  0.
          2    1    1    2  501    0  0.60557099543E+01  0.26656646993E+02 -0.69073635599E+03  0.69127705151E+03  0.00000000000E+00 0. -1.
          1    1    1    2  502    0  0.69351313253E+02 -0.45283177622E+02  0.25878162598E+04  0.25891413954E+04  0.00000000000E+00 0. -1.
         22    1    3    3    0    0 -0.86794141866E+01 -0.28771557337E+02  0.83092305400E+03  0.83146632909E+03  0.00000000000E+00 0. -1.
         22    1    3    3    0    0 -0.66727609020E+02  0.47398087967E+02  0.40500807207E+03  0.41319570544E+03  0.00000000000E+00 0. -1.
</event>
<event>
 7    1  0.6386201E-006  0.1028402E+03  0.7818608E-02  0.1392516E+00
          2   -1    0    0  502    0  0.00000000000E+00  0.00000000000E+00  0.62803517932E+03  0.62803517932E+03  0.00000000000E+00 0. -1.
          1   -1    0    0  501    0 -0.00000000000E+00 -0.00000000000E+00 -0.40081298391E+03  0.40081298391E+03  0.00000000000E+00 0. -1.
         25    2    1    2    0    0 -0.12911576438E+03 -0.18118583659E+00  0.34265347556E+03  0.38692028350E+03  0.12499995214E+03 0.  0.
          2    1    1    2  501    0  0.99964708979E+02  0.22181979177E+02 -0.37043262705E+03  0.38432449105E+03  0.00000000000E+00 0. -1.
          1    1    1    2  502    0  0.29151055398E+02 -0.22000793340E+02  0.25500134690E+03  0.25760338868E+03  0.00000000000E+00 0. -1.
         22    1    3    3    0    0 -0.13869243920E+03  0.18792948439E+02  0.33702906604E+03  0.36493473246E+03  0.00000000000E+00 0.  1.
         22    1    3    3    0    0  0.95766748200E+01 -0.18974134275E+02  0.56244095166E+01  0.21985551040E+02  0.00000000000E+00 0.  1.
</event>
<event>
 7    1  0.6386201E-006  0.1456047E+03  0.7818608E-02  0.1414209E+00
          2   -1    0    0  502    0  0.00000000000E+00  0.00000000000E+00  0.29195562362E+04  0.29195562362E+04  0.00000000000E+00 0. -1.
          1   -1    0    0  501    0 -0.00000000000E+00 -0.00000000000E+00 -0.64189416717E+03  0.64189416717E+03  0.00000000000E+00 0. -1.
         25    2    1    2    0    0  0.12771311214E+03  0.88989534632E+02  0.18649169856E+04  0.18755718367E+04  0.12499830141E+03 0.  0.
          2    1    1    2  501    0 -0.91125742846E+01 -0.19740459948E+02 -0.63188518270E+03  0.63225913112E+03  0.00000000000E+00 0. -1.
          1    1    1    2  502    0 -0.11860053786E+03 -0.69249074684E+02  0.10446302661E+04  0.10536194355E+04  0.00000000000E+00 0. -1.
         22    1    3    3    0    0  0.50001515811E+02  0.75005927138E+02  0.14743516655E+04  0.14771048962E+04  0.00000000000E+00 0. -1.
         22    1    3    3    0    0  0.77711596329E+02  0.13983607494E+02  0.39056532005E+03  0.39846694054E+03  0.00000000000E+00 0. -1.
</event>
<event>
 7    1  0.6386201E-006  0.7981657E+02  0.7818608E-02  0.1467499E+00
          2   -1    0    0  502    0  0.00000000000E+00  0.00000000000E+00  0.91796962956E+02  0.91796962956E+02  0.00000000000E+00 0. -1.
          1   -1    0    0  501    0 -0.00000000000E+00 -0.00000000000E+00 -0.10848135424E+04  0.10848135424E+04  0.00000000000E+00 0. -1.
         25    2    1    2    0    0  0.51493808473E+02 -0.78601759759E+02 -0.17985671191E+03  0.23833373562E+03  0.12499873506E+03 0.  0.
          2    1    1    2  501    0  0.65568027308E+01  0.25824057076E+02 -0.85082908387E+03  0.85124614744E+03  0.00000000000E+00 0. -1.
          1    1    1    2  502    0 -0.58050611203E+02  0.52777702684E+02  0.37669216317E+02  0.87030622309E+02  0.00000000000E+00 0. -1.
         22    1    3    3    0    0  0.42924582916E+02 -0.10533815765E+03 -0.92609934632E+02  0.14668076652E+03  0.00000000000E+00 0. -1.
         22    1    3    3    0    0  0.85692255566E+01  0.26736397888E+02 -0.87246777280E+02  0.91652969097E+02  0.00000000000E+00 0. -1.
</event>
<event>
 7    1  0.6386201E-006  0.1271143E+03  0.7818608E-02  0.1385709E+00
          2   -1    0    0  502    0  0.00000000000E+00  0.00000000000E+00  0.66264727388E+03  0.66264727388E+03  0.00000000000E+00 0. -1.
          1   -1    0    0  501    0 -0.00000000000E+00 -0.00000000000E+00 -0.12872771301E+03  0.12872771301E+03  0.00000000000E+00 0. -1.
         25    2    1    2    0    0 -0.75856594403E+01  0.15105581238E+03  0.24765240940E+03  0.31596230720E+03  0.12500025203E+03 0.  0.
          2    1    1    2  501    0  0.55611675153E+01 -0.30711119383E+02 -0.82125500270E+02  0.87856116648E+02  0.00000000000E+00 0. -1.
          1    1    1    2  502    0  0.20244919250E+01 -0.12034469300E+03  0.36839265174E+03  0.38755656304E+03  0.00000000000E+00 0. -1.
         22    1    3    3    0    0  0.50122058513E+02  0.49605308225E+02  0.50085773578E+02  0.86495618783E+02  0.00000000000E+00 0.  1.
         22    1    3    3    0    0 -0.57707717953E+02  0.10145050415E+03  0.19756663582E+03  0.22946668842E+03  0.00000000000E+00 0.  1.
</event>
<event>
 7    1  0.8076508E-006  0.6564414E+02  0.7818608E-02  0.1438411E+00
          2   -1    0    0  502    0  0.00000000000E+00  0.00000000000E+00  0.10034347790E+04  0.10034347790E+04  0.00000000000E+00 0. -1.
          1   -1    0    0  501    0 -0.00000000000E+00 -0.00000000000E+00 -0.68443100291E+03  0.68443100291E+03  0.00000000000E+00 0. -1.
         25    2    1    2    0    0  0.12938880550E+02 -0.22525839037E+02 -0.18054708287E+03  0.22112752525E+03  0.12500122094E+03 0.  0.
          2    1    1    2  501    0  0.25452433364E+02 -0.30990800387E+02 -0.48165637827E+03  0.48332300049E+03  0.00000000000E+00 0. -1.
          1    1    1    2  502    0 -0.38391313914E+02  0.53516639424E+02  0.98120723722E+03  0.98341525616E+03  0.00000000000E+00 0. -1.
         22    1    3    3    0    0 -0.10840774040E+02 -0.67333535812E+02 -0.61946525572E+02  0.92134138391E+02  0.00000000000E+00 0.  1.
         22    1    3    3    0    0  0.23779654590E+02  0.44807696775E+02 -0.11860055730E+03  0.12899338686E+03  0.00000000000E+00 0.  1.
</event>
<event>
 7    1  0.6386201E-006  0.1365146E+03  0.7818608E-02  0.1358036E+00
          2   -1    0    0  502    0  0.00000000000E+00  0.00000000000E+00  0.73337989826E+03  0.73337989826E+03  0.00000000000E+00 0. -1.
          1   -1    0    0  501    0 -0.00000000000E+00 -0.00000000000E+00 -0.77409425127E+03  0.77409425127E+03  0.00000000000E+00 0. -1.
         25    2    1    2    0    0 -0.10904184210E+03  0.21171886114E+02  0.20718641366E+03  0.26624813973E+03  0.12499395911E+03 0.  0.
          2    1    1    2  501    0  0.13724174647E+03  0.20335117280E+01 -0.73755192902E+03  0.75021482267E+03  0.00000000000E+00 0. -1.
          1    1    1    2  502    0 -0.28199904371E+02 -0.23205397842E+02  0.48965116236E+03  0.49101118713E+03  0.00000000000E+00 0. -1.
         22    1    3    3    0    0 -0.11862686079E+03  0.17089787921E+02  0.93298814893E+02  0.15188502827E+03  0.00000000000E+00 0. -1.
         22    1    3    3    0    0  0.95850186921E+01  0.40820981931E+01  0.11388759877E+03  0.11436311146E+03  0.00000000000E+00 0. -1.
</event>
<event>
 7    1  0.6386201E-006  0.8635306E+02  0.7818608E-02  0.1421942E+00
          2   -1    0    0  502    0  0.00000000000E+00  0.00000000000E+00  0.11460566103E+04  0.11460566103E+04  0.00000000000E+00 0. -1.
          1   -1    0    0  501    0 -0.00000000000E+00 -0.00000000000E+00 -0.38566287066E+03  0.38566287066E+03  0.00000000000E+00 0. -1.
         25    2    1    2    0    0 -0.10464443213E+03 -0.54312495171E+02 -0.72985968350E+02  0.18669286129E+03  0.12500787404E+03 0.  0.
          2    1    1    2  501    0  0.23850412998E+02  0.24981131921E+02 -0.25295235953E+03  0.25529942292E+03  0.00000000000E+00 0. -1.
          1    1    1    2  502    0  0.80794019128E+02  0.29331363250E+02  0.10863320675E+04  0.10897271967E+04  0.00000000000E+00 0. -1.
         22    1    3    3    0    0 -0.47157785739E+02  0.35727181460E+02 -0.49908037738E+02  0.77402199463E+02  0.00000000000E+00 0.  1.
         22    1    3    3    0    0 -0.57486646387E+02 -0.90039676631E+02 -0.23077930612E+02  0.10929066182E+03  0.00000000000E+00 0.  1.
</event>
<event>
 7    1  0.6386201E-006  0.1281581E+03  0.7818608E-02  0.1316138E+00
          2   -1    0    0  502    0  0.00000000000E+00  0.00000000000E+00  0.10729201042E+03  0.10729201042E+03  0.00000000000E+00 0. -1.
          1   -1    0    0  501    0 -0.00000000000E+00 -0.00000000000E+00 -0.12825212473E+04  0.12825212473E+04  0.00000000000E+00 0. -1.
         25    2    1    2    0    0 -0.12247816016E+03  0.10880295392E+03 -0.12935439921E+03  0.24330356834E+03  0.12500033309E+03 0.  0.
          2    1    1    2  501    0  0.21423358860E+02 -0.51760885656E+02 -0.10274945654E+04  0.10290205204E+04  0.00000000000E+00 0. -1.
          1    1    1    2  502    0  0.10105480131E+03 -0.57042068264E+02 -0.18380272338E+02  0.11748916899E+03  0.00000000000E+00 0. -1.
         22    1    3    3    0    0 -0.98930333254E+02  0.96138327948E+02 -0.15413316797E+03  0.20684975805E+03  0.00000000000E+00 0. -1.
         22    1    3    3    0    0 -0.23547826911E+02  0.12664625972E+02  0.24778768759E+02  0.36453810287E+02  0.00000000000E+00 0. -1.
</event>
<event>
 7    1  0.6386201E-006  0.5088011E+02  0.7818608E-02  0.1517220E+00
          2   -1    0    0  502    0  0.00000000000E+00  0.00000000000E+00  0.32768859880E+04  0.32768859880E+04  0.00000000000E+00 0. -1.
          1   -1    0    0  501    0 -0.00000000000E+00 -0.00000000000E+00 -0.18033777970E+03  0.18033777970E+03  0.00000000000E+00 0. -1.
         25    2    1    2    0    0  0.26918400911E+02 -0.74687947682E+02  0.16177380594E+04  0.16245007822E+04  0.12499389150E+03 0.  0.
          2    1    1    2  501    0 -0.22882072974E+02  0.45373994458E+02 -0.17317284786E+03  0.18047499515E+03  0.00000000000E+00 0. -1.
          1    1    1    2  502    0 -0.40363279366E+01  0.29313953224E+02  0.16519829967E+04  0.16522479903E+04  0.00000000000E+00 0. -1.
         22    1    3    3    0    0  0.44127849320E+02 -0.46793058160E+02  0.32266391288E+03  0.32901194211E+03  0.00000000000E+00 0. -1.
         22    1    3    3    0    0 -0.17209448410E+02 -0.27894889522E+02  0.12950741465E+04  0.12954888401E+04  0.00000000000E+00 0. -1.
</event>
<event>
 7    1  0.6386201E-006  0.1154755E+03  0.7818608E-02  0.1422371E+00
          2   -1    0    0  502    0  0.00000000000E+00  0.00000000000E+00  0.18657260677E+04  0.18657260677E+04  0.00000000000E+00 0. -1.
          1   -1    0    0  501    0 -0.00000000000E+00 -0.00000000000E+00 -0.31089360325E+03  0.31089360325E+03  0.00000000000E+00 0. -1.
         25    2    1    2    0    0 -0.11955029562E+03 -0.57036313948E+02  0.22458223988E+03  0.28914756414E+03  0.12499486826E+03 0.  0.
          2    1    1    2  501    0  0.10985672370E+03  0.33187951379E+02 -0.26668529829E+03  0.29032910323E+03  0.00000000000E+00 0. -1.
          1    1    1    2  502    0  0.96935719227E+01  0.23848362569E+02  0.15969355228E+04  0.15971430035E+04  0.00000000000E+00 0. -1.
         22    1    3    3    0    0  0.11147399396E+02 -0.49341198787E+02  0.52269136991E+02  0.72738443019E+02  0.00000000000E+00 0.  1.
         22    1    3    3    0    0 -0.13069769501E+03 -0.76951151615E+01  0.17231310289E+03  0.21640912113E+03  0.00000000000E+00 0.  1.
</event>
<event>
 7    1  0.6386201E-006  0.9659436E+02  0.7818608E-02  0.1316850E+00
          2   -1    0    0  502    0  0.00000000000E+00  0.00000000000E+00  0.20438081382E+03  0.20438081382E+03  0.00000000000E+00 0. -1.
          1   -1    0    0  501    0 -0.00000000000E+00 -0.00000000000E+00 -0.72417040252E+03  0.72417040252E+03  0.00000000000E+00 0. -1.
         25    2    1    2    0    0  0.16850361466E+03  0.37513836632E+01  0.68144111962E+02  0.22062547625E+03  0.12499775895E+03 0.  0.
          2    1    1    2  501    0 -0.94665326958E+02 -0.50756320261E+01 -0.62015015492E+03  0.62735436622E+03  0.00000000000E+00 0. -1.
          1    1    1    2  502    0 -0.73838287697E+02  0.13242483629E+01  0.32216454252E+02  0.80571373876E+02  0.00000000000E+00 0. -1.
         22    1    3    3    0    0  0.27807293477E+02 -0.42880439402E+02  0.49649368283E+02  0.71253332727E+02  0.00000000000E+00 0. -1.
         22    1    3    3    0    0  0.14069632118E+03  0.46631823065E+02  0.18494743679E+02  0.14937214352E+03  0.00000000000E+00 0. -1.
</event>
<event>
 7    1  0.6386201E-006  0.6540848E+02  0.7818608E-02  0.1401169E+00
          2   -1    0    0  502    0  0.00000000000E+00  0.00000000000E+00  0.28331689250E+03  0.28331689250E+03  0.00000000000E+00 0. -1.
          1   -1    0    0  501    0 -0.00000000000E+00 -0.00000000000E+00 -0.11096612586E+04  0.11096612586E+04  0.00000000000E+00 0. -1.
         25    2    1    2    0    0  0.98493139860E+02 -0.27048291271E+02 -0.44724958142E+02  0.16750501940E+03  0.12500040393E+03 0.  0.
          2    1    1    2  501    0 -0.51063665800E+02 -0.16300525778E+02 -0.99816110298E+03  0.99959931603E+03  0.00000000000E+00 0. -1.
          1    1    1    2  502    0 -0.47429474060E+02  0.43348817049E+02  0.21654169499E+03  0.22587381570E+03  0.00000000000E+00 0. -1.
         22    1    3    3    0    0 -0.20316137771E+02 -0.28364059860E+02 -0.33148630424E+02  0.48125845911E+02  0.00000000000E+00 0. -1.
         22    1    3    3    0    0  0.11880927763E+03  0.13157685889E+01 -0.11576327718E+02  0.11937917348E+03  0.00000000000E+00 0. -1.
</event>
<event>
 7    1  0.6386201E-006  0.1254842E+03  0.7818608E-02  0.1382404E+00
          2   -1    0    0  502    0  0.00000000000E+00  0.00000000000E+00  0.30917732627E+04  0.30917732627E+04  0.00000000000E+00 0. -1.
          1   -1    0    0  501    0 -0.00000000000E+00 -0.00000000000E+00 -0.31823911657E+03  0.31823911657E+03  0.00000000000E+00 0. -1.
         25    2    1    2    0    0 -0.15469480999E+03  0.22313172291E+02  0.30167546391E+03  0.36202324048E+03  0.12499751689E+03 0.  0.
          2    1    1    2  501    0  0.31449421676E+02 -0.80953311027E+01 -0.28575086365E+03  0.28759025815E+03  0.00000000000E+00 0. -1.
          1    1    1    2  502    0  0.12324538831E+03 -0.14217841189E+02  0.27576095459E+04  0.27603988807E+04  0.00000000000E+00 0. -1.
         22    1    3    3    0    0 -0.12034960268E+03  0.61220972509E+01  0.30080275613E+03  0.32404290616E+03  0.00000000000E+00 0.  1.
         22    1    3    3    0    0 -0.34345207313E+02  0.16191075040E+02  0.87270778257E+00  0.37980334322E+02  0.00000000000E+00 0.  1.
</event>
<event>
 7    1  0.6386201E-006  0.9036045E+02  0.7818608E-02  0.1356598E+00
          2   -1    0    0  502    0  0.00000000000E+00  0.00000000000E+00  0.24086995823E+03  0.24086995823E+03  0.00000000000E+00 0. -1.
          1   -1    0    0  501    0 -0.00000000000E+00 -0.00000000000E+00 -0.30197271404E+03  0.30197271404E+03  0.00000000000E+00 0. -1.
         25    2    1    2    0    0 -0.98011694581E+02 -0.14204796176E+02  0.84413563463E+02  0.18042582520E+03  0.12497903902E+03 0.  0.
          2    1    1    2  501    0  0.29938145061E+02 -0.47144882568E+02 -0.23066201105E+03  0.23732655946E+03  0.00000000000E+00 0. -1.
          1    1    1    2  502    0  0.68073549520E+02  0.61349678744E+02  0.85145691778E+02  0.12509028761E+03  0.00000000000E+00 0. -1.
         22    1    3    3    0    0 -0.12924591361E+02 -0.54404812011E+02  0.30139187703E+01  0.56000110162E+02  0.00000000000E+00 0.  1.
         22    1    3    3    0    0 -0.85087103220E+02  0.40200015835E+02  0.81399644693E+02  0.12442571504E+03  0.00000000000E+00 0.  1.
</event>
<event>
 7    1  0.6386201E-006  0.5363980E+02  0.7818608E-02  0.1521524E+00
          2   -1    0    0  502    0  0.00000000000E+00  0.00000000000E+00  0.41587668644E+02  0.41587668644E+02  0.00000000000E+00 0. -1.
          1   -1    0    0  501    0 -0.00000000000E+00 -0.00000000000E+00 -0.24091177135E+04  0.24091177135E+04  0.00000000000E+00 0. -1.
         25    2    1    2    0    0 -0.25316222516E+02  0.22289856784E+02 -0.77245410196E+02  0.15076318416E+03  0.12499974185E+03 0.  0.
          2    1    1    2  501    0  0.21621027250E+02 -0.49309477617E+02 -0.22535407203E+04  0.22541838149E+04  0.00000000000E+00 0. -1.
          1    1    1    2  502    0  0.36951952663E+01  0.27019620833E+02 -0.36743914356E+02  0.45758383060E+02  0.00000000000E+00 0. -1.
         22    1    3    3    0    0  0.14764610050E+02  0.51316303369E+02 -0.85289405100E+02  0.10062623576E+03  0.00000000000E+00 0.  1.
         22    1    3    3    0    0 -0.40080832567E+02 -0.29026446585E+02  0.80439949033E+01  0.50136948398E+02  0.00000000000E+00 0.  1.
</event>
<event>
 7    1  0.6386201E-006  0.6621668E+02  0.7818608E-02  0.1429990E+00
          2   -1    0    0  502    0  0.00000000000E+00  0.00000000000E+00  0.43451913190E+03  0.43451913190E+03  0.00000000000E+00 0. -1.
          1   -1    0    0  501    0 -0.00000000000E+00 -0.00000000000E+00 -0.77862982126E+02  0.77862982126E+02  0.00000000000E+00 0. -1.
         25    2    1    2    0    0 -0.86209535182E+02 -0.21569129991E+02  0.20854798771E+03  0.25887368267E+03  0.12500403624E+03 0.  0.
          2    1    1    2  501    0  0.49269730670E+02  0.42302093529E+02 -0.29206606332E+02  0.71203927775E+02  0.00000000000E+00 0. -1.
          1    1    1    2  502    0  0.36939804512E+02 -0.20732963538E+02  0.17731476840E+03  0.18230450358E+03  0.00000000000E+00 0. -1.
         22    1    3    3    0    0 -0.11023972486E+03  0.13285545614E+02  0.15079437357E+03  0.18726517498E+03  0.00000000000E+00 0. -1.
         22    1    3    3    0    0  0.24030189679E+02 -0.34854675604E+02  0.57753614132E+02  0.71608507684E+02  0.00000000000E+00 0. -1.
</event>
<event>
 7    1  0.6386201E-006  0.1769318E+03  0.7818608E-02  0.1271045E+00
          2   -1    0    0  502    0  0.00000000000E+00  0.00000000000E+00  0.16214488680E+03  0.16214488680E+03  0.00000000000E+00 0. -1.
          1   -1    0    0  501    0 -0.00000000000E+00 -0.00000000000E+00 -0.11304851255E+04  0.11304851255E+04  0.00000000000E+00 0. -1.
         25    2    1    2    0    0  0.45302963392E+02 -0.14970013123E+03 -0.22384601843E+03  0.30032400877E+03  0.12499992999E+03 0.  0.
          2    1    1    2  501    0 -0.10706050617E+03  0.14961238043E+03 -0.85020258862E+03  0.86987945030E+03  0.00000000000E+00 0. -1.
          1    1    1    2  502    0  0.61757542775E+02  0.87750806197E-01  0.10570836836E+03  0.12242655321E+03  0.00000000000E+00 0. -1.
         22    1    3    3    0    0  0.79810256887E+02 -0.69760975799E+02 -0.82540670432E+02  0.13434743438E+03  0.00000000000E+00 0.  1.
         22    1    3    3    0    0 -0.34507293495E+02 -0.79939155434E+02 -0.14130534799E+03  0.16597657439E+03  0.00000000000E+00 0.  1.
</event>
<event>
 7    1  0.6386201E-006  0.1143800E+03  0.7818608E-02  0.1292900E+00
          2   -1    0    0  502    0  0.00000000000E+00  0.00000000000E+00  0.19855327590E+03  0.19855327590E+03  0.00000000000E+00 0. -1.
          1   -1    0    0  501    0 -0.00000000000E+00 -0.00000000000E+00 -0.28024393065E+04  0.28024393065E+04  0.00000000000E+00 0. -1.
         25    2    1    2    0    0  0.66224981846E+02 -0.30272228786E+02 -0.75993699836E+03  0.77358515775E+03  0.12501039463E+03 0.  0.
          2    1    1    2  501    0 -0.72603183363E+02  0.10765369507E+03 -0.20256525312E+04  0.20298100200E+04  0.00000000000E+00 0. -1.
          1    1    1    2  502    0  0.63782015169E+01 -0.77381466284E+02  0.18170349895E+03  0.19759740462E+03  0.00000000000E+00 0. -1.
         22    1    3    3    0    0  0.11005712058E+02  0.41927069443E+02 -0.12790702562E+03  0.13505262697E+03  0.00000000000E+00 0.  1.
         22    1    3    3    0    0  0.55219269787E+02 -0.72199298229E+02 -0.63202997274E+03  0.63853253078E+03  0.00000000000E+00 0.  1.
</event>
<event>
 7    1  0.6386201E-006  0.3984032E+02  0.7818608E-02  0.1558516E+00
          2   -1    0    0  502    0  0.00000000000E+00  0.00000000000E+00  0.30106872399E+03  0.30106872399E+03  0.00000000000E+00 0. -1.
          1   -1    0    0  501    0 -0.00000000000E+00 -0.00000000000E+00 -0.13206643159E+04  0.13206643159E+04  0.00000000000E+00 0. -1.
         25    2    1    2    0    0  0.10246762714E+02  0.86515619642E+01  0.13926000581E+03  0.18761271149E+03  0.12500133848E+03 0.  0.
          2    1    1    2  501    0 -0.14371772573E+02 -0.37214405809E+02 -0.12946645205E+04  0.12952789972E+04  0.00000000000E+00 0. -1.
          1    1    1    2  502    0  0.41250098587E+01  0.28562843845E+02  0.13580892278E+03  0.13884133124E+03  0.00000000000E+00 0. -1.
         22    1    3    3    0    0  0.23255735343E+02 -0.45440155618E+02  0.17873263462E+02  0.54084105944E+02  0.00000000000E+00 0.  1.
         22    1    3    3    0    0 -0.13008972629E+02  0.54091717583E+02  0.12138674235E+03  0.13352860554E+03  0.00000000000E+00 0.  1.
</event>
<event>
 7    1  0.6386201E-006  0.5452642E+02  0.7818608E-02  0.1513951E+00
          2   -1    0    0  502    0  0.00000000000E+00  0.00000000000E+00  0.11478940930E+04  0.11478940930E+04  0.00000000000E+00 0. -1.
          1   -1    0    0  501    0 -0.00000000000E+00 -0.00000000000E+00 -0.71145142289E+03  0.71145142289E+03  0.00000000000E+00 0. -1.
         25    2    1    2    0    0 -0.94806334265E+01  0.72554789073E+02 -0.24806404454E+03  0.28725438852E+03  0.12500093481E+03 0.  0.
          2    1    1    2  501    0 -0.10177275918E+02 -0.52300058077E+02 -0.44201558143E+03  0.44521528191E+03  0.00000000000E+00 0. -1.
          1    1    1    2  502    0  0.19657909345E+02 -0.20254730996E+02  0.11265222961E+04  0.11268758454E+04  0.00000000000E+00 0. -1.
         22    1    3    3    0    0 -0.41447201224E+02  0.77876346191E+02 -0.23720219429E+03  0.25307602961E+03  0.00000000000E+00 0.  1.
         22    1    3    3    0    0  0.31966567798E+02 -0.53215571182E+01 -0.10861850244E+02  0.34178358908E+02  0.00000000000E+00 0.  1.
</event>
<event>
 7    1  0.6386201E-006  0.1152220E+03  0.7818608E-02  0.1389387E+00
          2   -1    0    0  502    0  0.00000000000E+00  0.00000000000E+00  0.64718632339E+03  0.64718632339E+03  0.00000000000E+00 0. -1.
          1   -1    0    0  501    0 -0.00000000000E+00 -0.00000000000E+00 -0.18818539917E+04  0.18818539917E+04  0.00000000000E+00 0. -1.
         25    2    1    2    0    0 -0.23646228613E+02  0.13984685963E+03 -0.58691429493E+03  0.61661170216E+03  0.12500125347E+03 0.  0.
          2    1    1    2  501    0  0.22356741179E+02 -0.24848538940E+02 -0.12746409636E+04  0.12750791583E+04  0.00000000000E+00 0. -1.
          1    1    1    2  502    0  0.12894874340E+01 -0.11499832069E+03  0.62688759024E+03  0.63734945465E+03  0.00000000000E+00 0. -1.
         22    1    3    3    0    0  0.46961930022E+02  0.53098174136E+02 -0.15484234709E+03  0.17029677455E+03  0.00000000000E+00 0. -1.
         22    1    3    3    0    0 -0.70608158635E+02  0.86748685494E+02 -0.43207194784E+03  0.44631492761E+03  0.00000000000E+00 0. -1.
</event>
<event>
 7    1  0.6386201E-006  0.1770160E+03  0.7818608E-02  0.1339423E+00
          2   -1    0    0  502    0  0.00000000000E+00  0.00000000000E+00  0.14856046770E+04  0.14856046770E+04  0.00000000000E+00 0. -1.
          1   -1    0    0  501    0 -0.00000000000E+00 -0.00000000000E+00 -0.14760641019E+03  0.14760641019E+03  0.00000000000E+00 0. -1.
         25    2    1    2    0    0  0.17388448375E+03 -0.10794842394E+03  0.36803670441E+03  0.43927694138E+03  0.12499815802E+03 0.  0.
          2    1    1    2  501    0 -0.29051183588E+02  0.15699744971E+02 -0.10256418596E+03  0.10774908585E+03  0.00000000000E+00 0. -1.
          1    1    1    2  502    0 -0.14483330016E+03  0.92248678967E+02  0.10725257484E+04  0.10861850600E+04  0.00000000000E+00 0. -1.
         22    1    3    3    0    0  0.69263228953E+02 -0.45078820189E+02  0.27107768567E+03  0.28339478926E+03  0.00000000000E+00 0.  1.
         22    1    3    3    0    0  0.10462125480E+03 -0.62869603750E+02  0.96959018743E+02  0.15588215211E+03  0.00000000000E+00 0.  1.
</event>
<event>
 7    1  0.6386201E-006  0.1003201E+03  0.7818608E-02  0.1360256E+00
          2   -1    0    0  502    0  0.00000000000E+00  0.00000000000E+00  0.66397634466E+03  0.66397634466E+03  0.00000000000E+00 0. -1.
          1   -1    0    0  501    0 -0.00000000000E+00 -0.00000000000E+00 -0.18187853944E+04  0.18187853944E+04  0.00000000000E+00 0. -1.
         25    2    1    2    0    0 -0.10401939975E+03 -0.72309785532E+02  0.86383286401E+02  0.19782768628E+03  0.12499992273E+03 0.  0.
          2    1    1    2  501    0  0.83196454689E+01  0.48062211789E+02 -0.17580529382E+04  0.17587294636E+04  0.00000000000E+00 0. -1.
          1    1    1    2  502    0  0.95699754279E+02  0.24247573742E+02  0.51686060200E+03  0.52620458921E+03  0.00000000000E+00 0. -1.
         22    1    3    3    0    0 -0.10218791076E+03 -0.10369743011E+03  0.62943756613E+02  0.15861097886E+03  0.00000000000E+00 0. -1.
         22    1    3    3    0    0 -0.18314889852E+01  0.31387644582E+02  0.23439529788E+02  0.39216707422E+02  0.00000000000E+00 0. -1.
</event>
<event>
 7    1  0.6386201E-006  0.8420017E+02  0.7818608E-02  0.1373233E+00
          2   -1    0    0  502    0  0.00000000000E+00  0.00000000000E+00  0.75670717650E+03  0.75670717650E+03  0.00000000000E+00 0. -1.
          1   -1    0    0  501    0 -0.00000000000E+00 -0.00000000000E+00 -0.15052172566E+04  0.15052172566E+04  0.00000000000E+00 0. -1.
         25    2    1    2    0    0 -0.10141540730E+03  0.85521716312E+02  0.18225609062E+02  0.18318468112E+03  0.12500162308E+03 0.  0.
          2    1    1    2  501    0  0.72106761585E+02 -0.42364740790E+02 -0.14204687162E+04  0.14229285049E+04  0.00000000000E+00 0. -1.
          1    1    1    2  502    0  0.29308645719E+02 -0.43156975522E+02  0.65373302700E+03  0.65581124711E+03  0.00000000000E+00 0. -1.
         22    1    3    3    0    0 -0.88401684305E+02  0.23768305336E+02 -0.37566165562E+02  0.98949517036E+02  0.00000000000E+00 0. -1.
         22    1    3    3    0    0 -0.13013722999E+02  0.61753410976E+02  0.55791774624E+02  0.84235164089E+02  0.00000000000E+00 0. -1.
</event>
<event>
 7    1  0.6386201E-006  0.5852355E+02  0.7818608E-02  0.1542715E+00
          2   -1    0    0  502    0  0.00000000000E+00  0.00000000000E+00  0.63878477337E+03  0.63878477337E+03  0.00000000000E+00 0. -1.
          1   -1    0    0  501    0 -0.00000000000E+00 -0.00000000000E+00 -0.55523800519E+02  0.55523800519E+02  0.00000000000E+00 0. -1.
         25    2    1    2    0    0 -0.71072699455E+02  0.31427028241E+02  0.21632346726E+03  0.26164902934E+03  0.12500154141E+03 0.  0.
          2    1    1    2  501    0  0.49833421120E+02 -0.26774115411E+02 -0.79637453352E+01  0.57128314839E+02  0.00000000000E+00 0. -1.
          1    1    1    2  502    0  0.21239278335E+02 -0.46529128306E+01  0.37490125092E+03  0.37553122971E+03  0.00000000000E+00 0. -1.
         22    1    3    3    0    0 -0.72361927866E+02 -0.34258997910E+02  0.10052486652E+03  0.12851138600E+03  0.00000000000E+00 0.  1.
         22    1    3    3    0    0  0.12892284113E+01  0.65686026151E+02  0.11579860074E+03  0.13313764335E+03  0.00000000000E+00 0.  1.
</event>
<event>
 7    1  0.6386201E-006  0.8873832E+02  0.7818608E-02  0.1455973E+00
          2   -1    0    0  502    0  0.00000000000E+00  0.00000000000E+00  0.12352986261E+04  0.12352986261E+04  0.00000000000E+00 0. -1.
          1   -1    0    0  501    0 -0.00000000000E+00 -0.00000000000E+00 -0.19444228063E+04  0.19444228063E+04  0.00000000000E+00 0. -1.
         25    2    1    2    0    0  0.84657193992E+02 -0.64473614817E+02 -0.19419444208E+02  0.16528503003E+03  0.12497335250E+03 0.  0.
          2    1    1    2  501    0 -0.52449182900E+01  0.25518851919E+02 -0.18502960084E+04  0.18504794080E+04  0.00000000000E+00 0. -1.
          1    1    1    2  502    0 -0.79412275702E+02  0.38954762898E+02  0.11605912723E+04  0.11639569943E+04  0.00000000000E+00 0. -1.
         22    1    3    3    0    0  0.59554059053E+02  0.18400139938E+02  0.25960956149E+02  0.67522013770E+02  0.00000000000E+00 0.  1.
         22    1    3    3    0    0  0.25103134940E+02 -0.82873754755E+02 -0.45380400357E+02  0.97763016256E+02  0.00000000000E+00 0.  1.
</event>
<event>
 7    1  0.6386201E-006  0.5892018E+02  0.7818608E-02  0.1439482E+00
          2   -1    0    0  502    0  0.00000000000E+00  0.00000000000E+00  0.28907954211E+04  0.28907954211E+04  0.00000000000E+00 0. -1.
          1   -1    0    0  501    0 -0.00000000000E+00 -0.00000000000E+00 -0.12705146749E+03  0.12705146749E+03  0.00000000000E+00 0. -1.
         25    2    1    2    0    0  0.12156722441E+02 -0.89574117168E+01  0.72620145693E+02  0.14535481720E+03  0.12500526468E+03 0.  0.
          2    1    1    2  501    0  0.31463522376E+02 -0.31218006504E+02 -0.84932658097E+02  0.95802262927E+02  0.00000000000E+00 0. -1.
          1    1    1    2  502    0 -0.43620244817E+02  0.40175418220E+02  0.27760564660E+04  0.27766898085E+04  0.00000000000E+00 0. -1.
         22    1    3    3    0    0  0.33636045174E+02 -0.58065705525E+02  0.19474077275E+02  0.69873094813E+02  0.00000000000E+00 0. -1.
         22    1    3    3    0    0 -0.21479322733E+02  0.49108293808E+02  0.53146068418E+02  0.75481722384E+02  0.00000000000E+00 0. -1.
</event>
<event>
 7    1  0.6386201E-006  0.5722570E+02  0.7818608E-02  0.1452755E+00
          2   -1    0    0  502    0  0.00000000000E+00  0.00000000000E+00  0.35583464014E+03  0.35583464014E+03  0.00000000000E+00 0. -1.
          1   -1    0    0  501    0 -0.00000000000E+00 -0.00000000000E+00 -0.44598420690E+03  0.44598420690E+03  0.00000000000E+00 0. -1.
         25    2    1    2    0    0  0.18620421218E+02  0.10457335897E+01 -0.13526945332E+03  0.18512438640E+03  0.12500159917E+03 0.  0.
          2    1    1    2  501    0  0.33238607768E+02  0.24616679999E+02 -0.28173636311E+03  0.28475632439E+03  0.00000000000E+00 0. -1.
          1    1    1    2  502    0 -0.51859028987E+02 -0.25662413589E+02  0.32685624966E+03  0.33193813625E+03  0.00000000000E+00 0. -1.
         22    1    3    3    0    0 -0.18515979100E+02  0.31633179914E+02  0.48518506145E+01  0.36973504133E+02  0.00000000000E+00 0. -1.
         22    1    3    3    0    0  0.37136400319E+02 -0.30587446324E+02 -0.14012130393E+03  0.14815088227E+03  0.00000000000E+00 0. -1.
</event>
<event>
 7    1  0.6386201E-006  0.4146965E+02  0.7818608E-02  0.1519582E+00
          2   -1    0    0  502    0  0.00000000000E+00  0.00000000000E+00  0.78365303712E+03  0.78365303712E+03  0.00000000000E+00 0. -1.
          1   -1    0    0  501    0 -0.00000000000E+00 -0.00000000000E+00 -0.16589214682E+04  0.16589214682E+04  0.00000000000E+00 0. -1.
         25    2    1    2    0    0  0.18972320457E+01  0.11683942718E+02  0.41315780971E+03  0.43181525341E+03  0.12499969338E+03 0.  0.
          2    1    1    2  501    0  0.22770437862E+02  0.27541106181E+02 -0.16479120160E+04  0.16482994321E+04  0.00000000000E+00 0. -1.
          1    1    1    2  502    0 -0.24667669907E+02 -0.39225048899E+02  0.35948577521E+03  0.36245981981E+03  0.00000000000E+00 0. -1.
         22    1    3    3    0    0  0.21279012129E+02  0.59359594453E+02  0.31211082925E+03  0.31841722244E+03  0.00000000000E+00 0.  1.
         22    1    3    3    0    0 -0.19381780084E+02 -0.47675651735E+02  0.10104698046E+03  0.11339803097E+03  0.00000000000E+00 0.  1.
</event>
<event>
 7    1  0.6386201E-006  0.2918650E+03  0.7818608E-02  0.1210572E+00
          2   -1    0    0  502    0  0.00000000000E+00  0.00000000000E+00  0.70913537775E+03  0.70913537775E+03  0.00000000000E+00 0. -1.
          1   -1    0    0  501    0 -0.00000000000E+00 -0.00000000000E+00 -0.81656195745E+03  0.81656195745E+03  0.00000000000E+00 0. -1.
         25    2    1    2    0    0 -0.26138540444E+03  0.18676005849E+03 -0.17199247289E+03  0.38523810569E+03  0.12500135297E+03 0.  0.
          2    1    1    2  501    0 -0.24812806407E+01 -0.69109166984E+02 -0.50080049216E+03  0.50555253601E+03  0.00000000000E+00 0. -1.
          1    1    1    2  502    0  0.26386668509E+03 -0.11765089151E+03  0.56536638535E+03  0.63490669350E+03  0.00000000000E+00 0. -1.
         22    1    3    3    0    0 -0.31254323997E+02  0.81416583064E+02 -0.72055821620E+02  0.11312618705E+03  0.00000000000E+00 0.  1.
         22    1    3    3    0    0 -0.23013108045E+03  0.10534347543E+03 -0.99936651270E+02  0.27211191865E+03  0.00000000000E+00 0.  1.
</event>
<event>
 7    1  0.1046371E-005  0.5289369E+02  0.7818608E-02  0.1515674E+00
          2   -1    0    0  502    0  0.00000000000E+00  0.00000000000E+00  0.13587933855E+04  0.13587933855E+04  0.00000000000E+00 0. -1.
          1   -1    0    0  501    0 -0.00000000000E+00 -0.00000000000E+00 -0.19374001884E+04  0.19374001884E+04  0.00000000000E+00 0. -1.
         25    2    1    2    0    0  0.46777645505E+02 -0.54105473118E+02 -0.41795192765E+03  0.44206555496E+03  0.12499036248E+03 0.  0.
          2    1    1    2  501    0 -0.18476836432E+02  0.48979793864E+02 -0.15067832950E+04  0.15076923797E+04  0.00000000000E+00 0. -1.
          1    1    1    2  502    0 -0.28300809073E+02  0.51256792535E+01  0.13461284197E+04  0.13464356393E+04  0.00000000000E+00 0. -1.
         22    1    3    3    0    0  0.33618274286E+02  0.12421554421E+02 -0.32518356330E+03  0.32715261457E+03  0.00000000000E+00 0. -1.
         22    1    3    3    0    0  0.13159371218E+02 -0.66527027539E+02 -0.92768364350E+02  0.11491294039E+03  0.00000000000E+00 0. -1.
</event>
<event>
 7    1  0.6386201E-006  0.1150554E+03  0.7818608E-02  0.1388746E+00
          2   -1    0    0  502    0  0.00000000000E+00  0.00000000000E+00  0.48213855943E+03  0.48213855943E+03  0.00000000000E+00 0. -1.
          1   -1    0    0  501    0 -0.00000000000E+00 -0.00000000000E+00 -0.19063651032E+04  0.19063651032E+04  0.00000000000E+00 0. -1.
         25    2    1    2    0    0  0.51891884630E+02 -0.66248766957E+02 -0.21605237007E+03  0.26341135911E+03  0.12500100272E+03 0.  0.
          2    1    1    2  501    0 -0.71347697178E+02  0.93700673970E+02 -0.16639317010E+04  0.16680944266E+04  0.00000000000E+00 0. -1.
          1    1    1    2  502    0  0.19455812549E+02 -0.27451907013E+02  0.45575752733E+03  0.45699787697E+03  0.00000000000E+00 0. -1.
         22    1    3    3    0    0  0.55025777817E+02 -0.96556805685E+02 -0.20040778255E+03  0.22916005816E+03  0.00000000000E+00 0. -1.
         22    1    3    3    0    0 -0.31338931876E+01  0.30308038728E+02 -0.15644587514E+02  0.34251300946E+02  0.00000000000E+00 0. -1.
</event>
<event>
 7    1  0.6386201E-006  0.1071191E+03  0.7818608E-02  0.1365502E+00
          2   -1    0    0  502    0  0.00000000000E+00  0.00000000000E+00  0.28250259059E+03  0.28250259059E+03  0.00000000000E+00 0. -1.
          1   -1    0    0  501    0 -0.00000000000E+00 -0.00000000000E+00 -0.25675529111E+03  0.25675529111E+03  0.00000000000E+00 0. -1.
         25    2    1    2    0    0 -0.56574196547E+02 -0.38945125892E+02 -0.89988855103E+02  0.16864336142E+03  0.12500090705E+03 0.  0.
          2    1    1    2  501    0 -0.42033501173E+02 -0.12022484687E+02 -0.11037973429E+03  0.11872253830E+03  0.00000000000E+00 0. -1.
          1    1    1    2  502    0  0.98607697721E+02  0.50967610578E+02  0.22611588888E+03  0.25189198197E+03  0.00000000000E+00 0. -1.
         22    1    3    3    0    0 -0.39637890577E+02 -0.68835657448E+01 -0.11680852980E+03  0.12354261808E+03  0.00000000000E+00 0.  1.
         22    1    3    3    0    0 -0.16936305971E+02 -0.32061560147E+02  0.26819674702E+02  0.45100743343E+02  0.00000000000E+00 0.  1.
</event>
<event>
 7    1  0.6386201E-006  0.8838893E+02  0.7818608E-02  0.1469866E+00
          2   -1    0    0  502    0  0.00000000000E+00  0.00000000000E+00  0.30976096542E+03  0.30976096542E+03  0.00000000000E+00 0. -1.
          1   -1    0    0  501    0 -0.00000000000E+00 -0.00000000000E+00 -0.29473005717E+04  0.29473005717E+04  0.00000000000E+00 0. -1.
         25    2    1    2    0    0 -0.66678365024E+02 -0.22809033761E+02 -0.36078805641E+03  0.38827727871E+03  0.12499986854E+03 0.  0.
          2    1    1    2  501    0  0.78190710673E+02  0.43472677103E+02 -0.25715162456E+04  0.25730719893E+04  0.00000000000E+00 0. -1.
          1    1    1    2  502    0 -0.11512345649E+02 -0.20663643342E+02  0.29476469571E+03  0.29571226910E+03  0.00000000000E+00 0. -1.
         22    1    3    3    0    0 -0.27970103605E+02  0.52124463075E+02 -0.14804440322E+03  0.15942531691E+03  0.00000000000E+00 0. -1.
         22    1    3    3    0    0 -0.38708261419E+02 -0.74933496837E+02 -0.21274365319E+03  0.22885196181E+03  0.00000000000E+00 0. -1.
</event>
<event>
 7    1  0.6386201E-006  0.1951495E+03  0.7818608E-02  0.1239759E+00
          2   -1    0    0  502    0  0.00000000000E+00  0.00000000000E+00  0.10347498625E+04  0.10347498625E+04  0.00000000000E+00 0. -1.
          1   -1    0    0  501    0 -0.00000000000E+00 -0.00000000000E+00 -0.12591543583E+04  0.12591543583E+04  0.00000000000E+00 0. -1.
         25    2    1    2    0    0  0.72066742143E+02 -0.98835699250E+02  0.14947172602E+03  0.23005754240E+03  0.12499026028E+03 0.  0.
          2    1    1    2  501    0 -0.10870140763E+03  0.16579733731E+03 -0.12090478322E+04  0.12251944391E+04  0.00000000000E+00 0. -1.
          1    1    1    2  502    0  0.36634665486E+02 -0.66961638062E+02  0.83517161039E+03  0.83865223930E+03  0.00000000000E+00 0. -1.
         22    1    3    3    0    0  0.80885913498E+02 -0.14210253155E+02  0.10722771656E+03  0.13506385711E+03  0.00000000000E+00 0. -1.
         22    1    3    3    0    0 -0.88191713556E+01 -0.84625446095E+02  0.42244009453E+02  0.94993685289E+02  0.00000000000E+00 0. -1.
</event>
<event>
 7    1  0.6386201E-006  0.3564207E+02  0.7818608E-02  0.1586878E+00
          2   -1    0    0  502    0  0.00000000000E+00  0.00000000000E+00  0.28237788355E+03  0.28237788355E+03  0.00000000000E+00 0. -1.
          1   -1    0    0  501    0 -0.00000000000E+00 -0.00000000000E+00 -0.66695525596E+02  0.66695525596E+02  0.00000000000E+00 0. -1.
         25    2    1    2    0    0 -0.80022198300E+01 -0.86861868547E+01  0.15060272859E+02  0.12645723324E+03  0.12500053862E+03 0.  0.
          2    1    1    2  501    0 -0.26991229484E+02 -0.14591619722E+01  0.10441864436E+02  0.28977373166E+02  0.00000000000E+00 0. -1.
          1    1    1    2  502    0  0.34993449314E+02  0.10145348827E+02  0.19018022066E+03  0.19363880275E+03  0.00000000000E+00 0. -1.
         22    1    3    3    0    0 -0.24363789540E+02  0.67032095658E+01  0.66061164926E+02  0.70729094230E+02  0.00000000000E+00 0.  1.
         22    1    3    3    0    0  0.16361569710E+02 -0.15389396420E+02 -0.51000892067E+02  0.55728139007E+02  0.00000000000E+00 0.  1.
</event>
<event>
 7    1  0.6386201E-006  0.1286555E+03  0.7818608E-02  0.1397208E+00
          2   -1    0    0  502    0  0.00000000000E+00  0.00000000000E+00  0.10785664780E+04  0.10785664780E+04  0.00000000000E+00 0. -1.
          1   -1    0    0  501    0 -0.00000000000E+00 -0.00000000000E+00 -0.55307802114E+03  0.55307802114E+03  0.00000000000E+00 0. -1.
         25    2    1    2    0    0 -0.12885117823E+02 -0.10612835915E+03  0.11357016568E+03  0.19987980916E+03  0.12499800279E+03 0.  0.
          2    1    1    2  501    0  0.12963320311E+02 -0.24954595704E+02 -0.50487005071E+03  0.50565259579E+03  0.00000000000E+00 0. -1.
          1    1    1    2  502    0 -0.78202488528E-01  0.13108295485E+03  0.91678834190E+03  0.92611209419E+03  0.00000000000E+00 0. -1.
         22    1    3    3    0    0  0.10259437754E+02 -0.11847637711E+03  0.46193275993E+02  0.12757635652E+03  0.00000000000E+00 0. -1.
         22    1    3    3    0    0 -0.23144555576E+02  0.12348017961E+02  0.67376889686E+02  0.72303452643E+02  0.00000000000E+00 0. -1.
</event>
<event>
 7    1  0.6386201E-006  0.6690306E+02  0.7818608E-02  0.1380641E+00
          2   -1    0    0  502    0  0.00000000000E+00  0.00000000000E+00  0.31554874254E+04  0.31554874254E+04  0.00000000000E+00 0. -1.
          1   -1    0    0  501    0 -0.00000000000E+00 -0.00000000000E+00 -0.91438759129E+01  0.91438759129E+01  0.00000000000E+00 0. -1.
         25    2    1    2    0    0  0.13814150778E+01  0.17453934542E+02  0.23904724010E+04  0.23938021656E+04  0.12499584002E+03 0.  0.
          2    1    1    2  501    0 -0.57145171360E+02 -0.44069067343E+02  0.22295678669E+03  0.23434457970E+03  0.00000000000E+00 0. -1.
          1    1    1    2  502    0  0.55763756282E+02  0.26615132801E+02  0.53291436181E+03  0.53648455601E+03  0.00000000000E+00 0. -1.
         22    1    3    3    0    0 -0.43546215062E+02  0.23157896848E+02  0.20157007361E+04  0.20163040491E+04  0.00000000000E+00 0.  1.
         22    1    3    3    0    0  0.44927630140E+02 -0.57039623064E+01  0.37477166487E+03  0.37749811645E+03  0.00000000000E+00 0.  1.
</event>
<event>
 7    1  0.6386201E-006  0.8653655E+02  0.7818608E-02  0.1408007E+00
          2   -1    0    0  502    0  0.00000000000E+00  0.00000000000E+00  0.28636020889E+04  0.28636020889E+04  0.00000000000E+00 0. -1.
          1   -1    0    0  501    0 -0.00000000000E+00 -0.00000000000E+00 -0.10258287400E+02  0.10258287400E+02  0.00000000000E+00 0. -1.
         25    2    1    2    0    0 -0.10459118002E+03  0.11266167956E+02  0.14884396197E+04  0.14973789592E+04  0.12500001825E+03 0.  0.
          2    1    1    2  501    0  0.75333388227E+02 -0.36127339269E+02  0.31549223039E+03  0.32636735661E+03  0.00000000000E+00 0. -1.
          1    1    1    2  502    0  0.29257791795E+02  0.24861171313E+02  0.10494119514E+04  0.10501140605E+04  0.00000000000E+00 0. -1.
         22    1    3    3    0    0 -0.12217787434E+02 -0.13717072256E+02  0.97049069044E+03  0.97066452116E+03  0.00000000000E+00 0. -1.
         22    1    3    3    0    0 -0.92373392589E+02  0.24983240212E+02  0.51794892926E+03  0.52671443807E+03  0.00000000000E+00 0. -1.
</event>
<event>
 7    1  0.6386201E-006  0.9274128E+02  0.7818608E-02  0.1391239E+00
          2   -1    0    0  502    0  0.00000000000E+00  0.00000000000E+00  0.12820154342E+04  0.12820154342E+04  0.00000000000E+00 0. -1.
          1   -1    0    0  501    0 -0.00000000000E+00 -0.00000000000E+00 -0.82676804199E+02  0.82676804199E+02  0.00000000000E+00 0. -1.
         25    2    1    2    0    0  0.19752648461E+02  0.13000992147E+03  0.58110711329E+03  0.60877210345E+03  0.12500100005E+03 0.  0.
          2    1    1    2  501    0 -0.10386156634E+02 -0.90181401680E+02 -0.38003041169E+02  0.98411323518E+02  0.00000000000E+00 0. -1.
          1    1    1    2  502    0 -0.93664918274E+01 -0.39828519793E+02  0.65623455787E+03  0.65750881143E+03  0.00000000000E+00 0. -1.
         22    1    3    3    0    0  0.16359084784E+02  0.15360860813E+03  0.53513727407E+03  0.55698754586E+03  0.00000000000E+00 0. -1.
         22    1    3    3    0    0  0.33935636771E+01 -0.23598686655E+02  0.45969839223E+02  0.51784557587E+02  0.00000000000E+00 0. -1.
</event>
<event>
 7    1  0.6386201E-006  0.6962173E+02  0.7818608E-02  0.1465898E+00
          2   -1    0    0  502    0  0.00000000000E+00  0.00000000000E+00  0.34578704166E+03  0.34578704166E+03  0.00000000000E+00 0. -1.
          1   -1    0    0  501    0 -0.00000000000E+00 -0.00000000000E+00 -0.10793771990E+03  0.10793771990E+03  0.00000000000E+00 0. -1.
         25    2    1    2    0    0 -0.22941399419E+02  0.66125783406E+02  0.25151108636E+03  0.28945125583E+03  0.12500110361E+03 0.  0.
          2    1    1    2  501    0 -0.27545525899E+02 -0.13999366625E+02 -0.67286600450E+02  0.74042047939E+02  0.00000000000E+00 0. -1.
          1    1    1    2  502    0  0.50486925317E+02 -0.52126416782E+02  0.53624835857E+02  0.90231457792E+02  0.00000000000E+00 0. -1.
         22    1    3    3    0    0  0.47120637913E+01  0.54109130381E+02  0.23039123504E+02  0.58998328346E+02  0.00000000000E+00 0. -1.
         22    1    3    3    0    0 -0.27653463210E+02  0.12016653026E+02  0.22847196285E+03  0.23045292749E+03  0.00000000000E+00 0. -1.
</event>
<event>
 7    1  0.6386201E-006  0.5664069E+02  0.7818608E-02  0.1533033E+00
          2   -1    0    0  502    0  0.00000000000E+00  0.00000000000E+00  0.10044556580E+04  0.10044556580E+04  0.00000000000E+00 0. -1.
          1   -1    0    0  501    0 -0.00000000000E+00 -0.00000000000E+00 -0.10368005288E+04  0.10368005288E+04  0.00000000000E+00 0. -1.
         25    2    1    2    0    0  0.66963552470E+02  0.36513798466E+02  0.11699821402E+03  0.18743752461E+03  0.12500747462E+03 0.  0.
          2    1    1    2  501    0 -0.43032808103E+02 -0.36683105981E+02 -0.10006144739E+04  0.10022109549E+04  0.00000000000E+00 0. -1.
          1    1    1    2  502    0 -0.23930744368E+02  0.16930751509E+00  0.85127138903E+03  0.85160770720E+03  0.00000000000E+00 0. -1.
         22    1    3    3    0    0  0.44936373650E+02 -0.31856906375E+02  0.62533353554E+01  0.55436850232E+02  0.00000000000E+00 0.  1.
         22    1    3    3    0    0  0.22027178821E+02  0.68370704841E+02  0.11074487866E+03  0.13200067438E+03  0.00000000000E+00 0.  1.
</event>
<event>
 7    1  0.6386201E-006  0.9179016E+02  0.7818608E-02  0.1396246E+00
          2   -1    0    0  502    0  0.00000000000E+00  0.00000000000E+00  0.51122842749E+03  0.51122842749E+03  0.00000000000E+00 0. -1.
          1   -1    0    0  501    0 -0.00000000000E+00 -0.00000000000E+00 -0.85978995546E+02  0.85978995546E+02  0.00000000000E+00 0. -1.
         25    2    1    2    0    0  0.51525654875E+02  0.77762686551E+02  0.87690727298E+02  0.17893003214E+03  0.12499745684E+03 0.  0.
          2    1    1    2  501    0 -0.14654442009E+02 -0.92527940625E+02  0.16930838573E+02  0.95198874792E+02  0.00000000000E+00 0. -1.
          1    1    1    2  502    0 -0.36871212866E+02  0.14765254074E+02  0.32062786607E+03  0.32307851611E+03  0.00000000000E+00 0. -1.
         22    1    3    3    0    0 -0.13968327279E+02  0.32956901448E+02 -0.23137569822E+02  0.42621809644E+02  0.00000000000E+00 0. -1.
         22    1    3    3    0    0  0.65493982154E+02  0.44805785103E+02  0.11082829712E+03  0.13630822249E+03  0.00000000000E+00 0. -1.
</event>
<event>
 7    1  0.6386201E-006  0.5715792E+02  0.7818608E-02  0.1438463E+00
          2   -1    0    0  502    0  0.00000000000E+00  0.00000000000E+00  0.25785570973E+04  0.25785570973E+04  0.00000000000E+00 0. -1.
          1   -1    0    0  501    0 -0.00000000000E+00 -0.00000000000E+00 -0.49315201405E+03  0.49315201405E+03  0.00000000000E+00 0. -1.
         25    2    1    2    0    0 -0.11002957570E+02  0.27840412544E+02  0.17590866282E+03  0.21785181109E+03  0.12497759917E+03 0.  0.
          2    1    1    2  501    0 -0.44516506225E+02 -0.11741538383E+02 -0.47070644862E+03  0.47295258094E+03  0.00000000000E+00 0. -1.
          1    1    1    2  502    0  0.55519463795E+02 -0.16098874161E+02  0.23802028691E+04  0.23809047193E+04  0.00000000000E+00 0. -1.
         22    1    3    3    0    0  0.29726828889E+02  0.65044739231E+02  0.80803161138E+02  0.10790576123E+03  0.00000000000E+00 0.  1.
         22    1    3    3    0    0 -0.40729786459E+02 -0.37204326686E+02  0.95105501680E+02  0.10994604986E+03  0.00000000000E+00 0.  1.
</event>
<event>
 7    1  0.6386201E-006  0.8800536E+02  0.7818608E-02  0.1363442E+00
          2   -1    0    0  502    0  0.00000000000E+00  0.00000000000E+00  0.51120902797E+03  0.51120902797E+03  0.00000000000E+00 0. -1.
          1   -1    0    0  501    0 -0.00000000000E+00 -0.00000000000E+00 -0.35083722505E+03  0.35083722505E+03  0.00000000000E+00 0. -1.
         25    2    1    2    0    0  0.12861904458E+03 -0.26565674013E+02  0.82729025026E+02  0.19929177404E+03  0.12499810380E+03 0.  0.
          2    1    1    2  501    0 -0.76257424009E+02  0.40317957647E+02 -0.28413930253E+03  0.29694422990E+03  0.00000000000E+00 0. -1.
          1    1    1    2  502    0 -0.52361620576E+02 -0.13752283634E+02  0.36178208043E+03  0.36581024908E+03  0.00000000000E+00 0. -1.
         22    1    3    3    0    0  0.49356733457E+02  0.49448156456E+02  0.19354716850E+02  0.72496981859E+02  0.00000000000E+00 0.  1.
         22    1    3    3    0    0  0.79262311128E+02 -0.76013830469E+02  0.63374308176E+02  0.12679479218E+03  0.00000000000E+00 0.  1.
</event>
<event>
 7    1  0.6386201E-006  0.9939492E+02  0.7818608E-02  0.1352095E+00
          2   -1    0    0  502    0  0.00000000000E+00  0.00000000000E+00  0.10797641032E+04  0.10797641032E+04  0.00000000000E+00 0. -1.
          1   -1    0    0  501    0 -0.00000000000E+00 -0.00000000000E+00 -0.40712661604E+02  0.40712661604E+02  0.00000000000E+00 0. -1.
         25    2    1    2    0    0 -0.53591986181E+02 -0.13501176914E+02  0.60133069693E+03  0.61666647497E+03  0.12499820604E+03 0.  0.
          2    1    1    2  501    0  0.96259654619E+02  0.44511933953E+02  0.58853188403E+02  0.12128862748E+03  0.00000000000E+00 0. -1.
          1    1    1    2  502    0 -0.42667668438E+02 -0.31010757040E+02  0.37886755629E+03  0.38252166238E+03  0.00000000000E+00 0. -1.
         22    1    3    3    0    0 -0.48268117372E+02  0.98919081599E+01  0.74678389256E+02  0.89467998880E+02  0.00000000000E+00 0.  1.
         22    1    3    3    0    0 -0.53238688093E+01 -0.23393085074E+02  0.52665230767E+03  0.52719847609E+03  0.00000000000E+00 0.  1.
</event>
<event>
 7    1  0.6386201E-006  0.5347424E+02  0.7818608E-02  0.1449547E+00
          2   -1    0    0  502    0  0.00000000000E+00  0.00000000000E+00  0.71818813651E+03  0.71818813651E+03  0.00000000000E+00 0. -1.
          1   -1    0    0  501    0 -0.00000000000E+00 -0.00000000000E+00 -0.84056822829E+02  0.84056822829E+02  0.00000000000E+00 0. -1.
         25    2    1    2    0    0  0.73764869793E+02 -0.55597830433E+02  0.14698852837E+03  0.21392246456E+03  0.12499927443E+03 0.  0.
          2    1    1    2  501    0 -0.47254528075E+02  0.18840468170E+02 -0.36570062763E+02  0.62652399434E+02  0.00000000000E+00 0. -1.
          1    1    1    2  502    0 -0.26510341718E+02  0.36757362263E+02  0.52371284808E+03  0.52567009534E+03  0.00000000000E+00 0. -1.
         22    1    3    3    0    0  0.96123535612E+02 -0.13448734063E+02  0.58324022209E+02  0.11323556912E+03  0.00000000000E+00 0.  1.
         22    1    3    3    0    0 -0.22358665820E+02 -0.42149096370E+02  0.88664506160E+02  0.10068689545E+03  0.00000000000E+00 0.  1.
</event>
<event>
 7    1  0.6386201E-006  0.3004533E+03  0.7818608E-02  0.1269189E+00
          2   -1    0    0  502    0  0.00000000000E+00  0.00000000000E+00  0.15607939961E+04  0.15607939961E+04  0.00000000000E+00 0. -1.
          1   -1    0    0  501    0 -0.00000000000E+00 -0.00000000000E+00 -0.37280196072E+03  0.37280196072E+03  0.00000000000E+00 0. -1.
         25    2    1    2    0    0 -0.63209064084E+02 -0.27709374162E+03  0.41594847040E+03  0.51905294107E+03  0.12500599258E+03 0.  0.
          2    1    1    2  501    0  0.35046495462E+02  0.30113176184E+03 -0.24931523784E+03  0.39251328977E+03  0.00000000000E+00 0. -1.
          1    1    1    2  502    0  0.28162568622E+02 -0.24038020215E+02  0.10213588028E+04  0.10220297259E+04  0.00000000000E+00 0. -1.
         22    1    3    3    0    0  0.22209934732E+02 -0.14678398937E+03  0.15146316249E+03  0.21208467725E+03  0.00000000000E+00 0. -1.
         22    1    3    3    0    0 -0.85418998816E+02 -0.13030975226E+03  0.26448530791E+03  0.30696826382E+03  0.00000000000E+00 0. -1.
</event>
<event>
 7    1  0.6386201E-006  0.8857530E+02  0.7818608E-02  0.1490064E+00
          2   -1    0    0  502    0  0.00000000000E+00  0.00000000000E+00  0.76571712232E+03  0.76571712232E+03  0.00000000000E+00 0. -1.
          1   -1    0    0  501    0 -0.00000000000E+00 -0.00000000000E+00 -0.16515295921E+03  0.16515295921E+03  0.00000000000E+00 0. -1.
         25    2    1    2    0    0  0.61856348521E+02 -0.36522393556E+02  0.65007794006E+01  0.14431773771E+03  0.12500102481E+03 0.  0.
          2    1    1    2  501    0  0.20392304562E+02  0.17321076134E+01 -0.92229809555E+02  0.94473192244E+02  0.00000000000E+00 0. -1.
          1    1    1    2  502    0 -0.82248653084E+02  0.34790285942E+02  0.68629319326E+03  0.69207915158E+03  0.00000000000E+00 0. -1.
         22    1    3    3    0    0  0.12646654617E+02  0.44470610934E+02 -0.11982848501E+02  0.47761509273E+02  0.00000000000E+00 0.  1.
         22    1    3    3    0    0  0.49209693905E+02 -0.80993004489E+02  0.18483627902E+02  0.96556228441E+02  0.00000000000E+00 0.  1.
</event>
<event>
 7    1  0.6386201E-006  0.9813383E+02  0.7818608E-02  0.1345407E+00
          2   -1    0    0  502    0  0.00000000000E+00  0.00000000000E+00  0.53519664835E+03  0.53519664835E+03  0.00000000000E+00 0. -1.
          1   -1    0    0  501    0 -0.00000000000E+00 -0.00000000000E+00 -0.72973798979E+03  0.72973798979E+03  0.00000000000E+00 0. -1.
         25    2    1    2    0    0  0.24484000138E+02  0.14769096304E+03  0.70119633412E+02  0.20725655083E+03  0.12500571204E+03 0.  0.
          2    1    1    2  501    0 -0.16705859658E+02 -0.54044267305E+02 -0.65436463706E+03  0.65680510565E+03  0.00000000000E+00 0. -1.
          1    1    1    2  502    0 -0.77781404803E+01 -0.93646695739E+02  0.38970366220E+03  0.40087298166E+03  0.00000000000E+00 0. -1.
         22    1    3    3    0    0  0.55521442348E+02  0.15302910775E+03  0.51849921687E+02  0.17084774730E+03  0.00000000000E+00 0. -1.
         22    1    3    3    0    0 -0.31037442210E+02 -0.53381447015E+01  0.18269711725E+02  0.36408803528E+02  0.00000000000E+00 0. -1.
</event>
<event>
 7    1  0.6386201E-006  0.7366205E+02  0.7818608E-02  0.1442903E+00
          2   -1    0    0  502    0  0.00000000000E+00  0.00000000000E+00  0.52622512609E+03  0.52622512609E+03  0.00000000000E+00 0. -1.
          1   -1    0    0  501    0 -0.00000000000E+00 -0.00000000000E+00 -0.23057277517E+03  0.23057277517E+03  0.00000000000E+00 0. -1.
         25    2    1    2    0    0 -0.10615878489E+02  0.55736086776E+02 -0.40406148106E+02  0.14309576468E+03  0.12499813126E+03 0.  0.
          2    1    1    2  501    0  0.30688786788E+02  0.15891337882E+02 -0.13369805946E+03  0.13809238704E+03  0.00000000000E+00 0. -1.
          1    1    1    2  502    0 -0.20072908299E+02 -0.71627424658E+02  0.46975655849E+03  0.47560974953E+03  0.00000000000E+00 0. -1.
         22    1    3    3    0    0 -0.64425604655E+02  0.51136513144E+02 -0.15838144224E+02  0.83764242515E+02  0.00000000000E+00 0. -1.
         22    1    3    3    0    0  0.53809726166E+02  0.45995736322E+01 -0.24568003883E+02  0.59331522165E+02  0.00000000000E+00 0. -1.
</event>
<event>
 7    1  0.6386201E-006  0.1204460E+03  0.7818608E-02  0.1320575E+00
          2   -1    0    0  502    0  0.00000000000E+00  0.00000000000E+00  0.85886159758E+03  0.85886159758E+03  0.00000000000E+00 0. -1.
          1   -1    0    0  501    0 -0.00000000000E+00 -0.00000000000E+00 -0.11639236566E+03  0.11639236566E+03  0.00000000000E+00 0. -1.
         25    2    1    2    0    0  0.71826581090E+02 -0.15079872735E+03  0.16133046326E+03  0.26372931804E+03  0.12500528348E+03 0.  0.
          2    1    1    2  501    0 -0.42823473657E+02  0.10139969184E+03 -0.16364779453E+02  0.11128141537E+03  0.00000000000E+00 0. -1.
          1    1    1    2  502    0 -0.29003107433E+02  0.49399035515E+02  0.59750354811E+03  0.60024322983E+03  0.00000000000E+00 0. -1.
         22    1    3    3    0    0 -0.19393022490E+02 -0.51150517821E+02  0.18698504865E+01  0.54735373713E+02  0.00000000000E+00 0.  1.
         22    1    3    3    0    0  0.91219603580E+02 -0.99648209529E+02  0.15946061277E+03  0.20899394433E+03  0.00000000000E+00 0.  1.
</event>
<event>
 7    1  0.6386201E-006  0.1044062E+03  0.7818608E-02  0.1429290E+00
          2   -1    0    0  502    0  0.00000000000E+00  0.00000000000E+00  0.47152719806E+03  0.47152719806E+03  0.00000000000E+00 0. -1.
          1   -1    0    0  501    0 -0.00000000000E+00 -0.00000000000E+00 -0.72941935521E+03  0.72941935521E+03  0.00000000000E+00 0. -1.
         25    2    1    2    0    0  0.35980652562E+02  0.71886269606E+02 -0.85769512963E+02  0.17159227567E+03  0.12500102639E+03 0.  0.
          2    1    1    2  501    0 -0.52093810943E+02 -0.93562330644E+02 -0.59553243253E+03  0.60508392232E+03  0.00000000000E+00 0. -1.
          1    1    1    2  502    0  0.16113158380E+02  0.21676061038E+02  0.42340978835E+03  0.42427035528E+03  0.00000000000E+00 0. -1.
         22    1    3    3    0    0 -0.32659172549E+02  0.18074424935E+02  0.13276512041E+02  0.39617826294E+02  0.00000000000E+00 0.  1.
         22    1    3    3    0    0  0.68639825111E+02  0.53811844671E+02 -0.99046025004E+02  0.13197444937E+03  0.00000000000E+00 0.  1.
</event>
<event>
 7    1  0.6386201E-006  0.8229963E+02  0.7818608E-02  0.1372679E+00
          2   -1    0    0  502    0  0.00000000000E+00  0.00000000000E+00  0.26076016503E+04  0.26076016503E+04  0.00000000000E+00 0. -1.
          1   -1    0    0  501    0 -0.00000000000E+00 -0.00000000000E+00 -0.35113846189E+03  0.35113846189E+03  0.00000000000E+00 0. -1.
         25    2    1    2    0    0  0.77457077867E+02  0.10199115275E+03  0.10857284614E+04  0.11003785569E+04  0.12499952965E+03 0.  0.
          2    1    1    2  501    0 -0.30408585791E+02 -0.76276818847E+02 -0.33842756780E+03  0.34824711604E+03  0.00000000000E+00 0. -1.
          1    1    1    2  502    0 -0.47048492075E+02 -0.25714333905E+02  0.15091622949E+04  0.15101144393E+04  0.00000000000E+00 0. -1.
         22    1    3    3    0    0  0.54527597128E+02 -0.15720544494E+02  0.43571255373E+03  0.43939256235E+03  0.00000000000E+00 0.  1.
         22    1    3    3    0    0  0.22929480738E+02  0.11771169725E+03  0.65001590764E+03  0.66098599452E+03  0.00000000000E+00 0.  1.
</event>
<event>
 7    1  0.6386201E-006  0.4921468E+02  0.7818608E-02  0.1485959E+00
          2   -1    0    0  502    0  0.00000000000E+00  0.00000000000E+00  0.64154503579E+03  0.64154503579E+03  0.00000000000E+00 0. -1.
          1   -1    0    0  501    0 -0.00000000000E+00 -0.00000000000E+00 -0.46046348239E+03  0.46046348239E+03  0.00000000000E+00 0. -1.
         25    2    1    2    0    0  0.15655303373E+02  0.10599739881E+02  0.11746061866E+03  0.17256722847E+03  0.12500003358E+03 0.  0.
          2    1    1    2  501    0 -0.41867852377E+00  0.37902974586E+02 -0.43077438445E+03  0.43243887554E+03  0.00000000000E+00 0. -1.
          1    1    1    2  502    0 -0.15236624849E+02 -0.48502714468E+02  0.49439531919E+03  0.49700241416E+03  0.00000000000E+00 0. -1.
         22    1    3    3    0    0 -0.21979687038E+02 -0.39236055717E+02  0.67764557242E+01  0.45480710886E+02  0.00000000000E+00 0. -1.
         22    1    3    3    0    0  0.37634990411E+02  0.49835795599E+02  0.11068416294E+03  0.12708651758E+03  0.00000000000E+00 0. -1.
</event>
<event>
 7    1  0.6386201E-006  0.9684220E+02  0.7818608E-02  0.1404670E+00
          2   -1    0    0  502    0  0.00000000000E+00  0.00000000000E+00  0.46168884622E+03  0.46168884622E+03  0.00000000000E+00 0. -1.
          1   -1    0    0  501    0 -0.00000000000E+00 -0.00000000000E+00 -0.11189362180E+04  0.11189362180E+04  0.00000000000E+00 0. -1.
         25    2    1    2    0    0 -0.12260211832E+03 -0.45444872289E+02 -0.75395415362E+02  0.19597415679E+03  0.12499954255E+03 0.  0.
          2    1    1    2  501    0  0.89536808834E+02  0.33320560627E+02 -0.98015196529E+03  0.98479692067E+03  0.00000000000E+00 0. -1.
          1    1    1    2  502    0  0.33065309487E+02  0.12124311662E+02  0.39830000890E+03  0.39985398674E+03  0.00000000000E+00 0. -1.
         22    1    3    3    0    0 -0.12716365061E+02 -0.64726004719E+02 -0.10172537985E+02  0.66743105683E+02  0.00000000000E+00 0. -1.
         22    1    3    3    0    0 -0.10988575326E+03  0.19281132430E+02 -0.65222877377E+02  0.12923105111E+03  0.00000000000E+00 0. -1.
</event>
<event>
 7    1  0.6386201E-006  0.1017978E+03  0.7818608E-02  0.1390074E+00
          2   -1    0    0  502    0  0.00000000000E+00  0.00000000000E+00  0.87901760211E+03  0.87901760211E+03  0.00000000000E+00 0. -1.
          1   -1    0    0  501    0 -0.00000000000E+00 -0.00000000000E+00 -0.24202798014E+03  0.24202798014E+03  0.00000000000E+00 0. -1.
         25    2    1    2    0    0 -0.30162099489E+02 -0.87972891470E+02  0.18720268380E+03  0.24355447349E+03  0.12499981943E+03 0.  0.
          2    1    1    2  501    0  0.66497040840E+02  0.78204764005E+02 -0.20095822387E+03  0.22565914405E+03  0.00000000000E+00 0. -1.
          1    1    1    2  502    0 -0.36334941351E+02  0.97681274651E+01  0.65074516205E+03  0.65183196470E+03  0.00000000000E+00 0. -1.
         22    1    3    3    0    0 -0.12986855707E+02 -0.11933037290E+03  0.14555071556E+03  0.18866215073E+03  0.00000000000E+00 0. -1.
         22    1    3    3    0    0 -0.17175243782E+02  0.31357481427E+02  0.41651968242E+02  0.54892322768E+02  0.00000000000E+00 0. -1.
</event>
<event>
 7    1  0.6386201E-006  0.1412808E+03  0.7818608E-02  0.1393016E+00
          2   -1    0    0  502    0  0.00000000000E+00  0.00000000000E+00  0.12098007281E+04  0.12098007281E+04  0.00000000000E+00 0. -1.
          1   -1    0    0  501    0 -0.00000000000E+00 -0.00000000000E+00 -0.69284194864E+03  0.69284194864E+03  0.00000000000E+00 0. -1.
         25    2    1    2    0    0  0.13966683018E+03 -0.87586414244E+02 -0.36979280766E+02  0.21016798964E+03  0.12499965301E+03 0.  0.
          2    1    1    2  501    0 -0.12039760984E+03  0.69426084679E+02 -0.56062610497E+03  0.57759604852E+03  0.00000000000E+00 0. -1.
          1    1    1    2  502    0 -0.19269220334E+02  0.18160329565E+02  0.11145641652E+04  0.11148786386E+04  0.00000000000E+00 0. -1.
         22    1    3    3    0    0  0.51949527610E+02 -0.89255514716E+02 -0.60036207618E+02  0.11945562587E+03  0.00000000000E+00 0. -1.
         22    1    3    3    0    0  0.87717302567E+02  0.16691004714E+01  0.23056926852E+02  0.90712363776E+02  0.00000000000E+00 0. -1.
</event>
<event>
 7    1  0.6386201E-006  0.4832320E+02  0.7818608E-02  0.1482804E+00
          2   -1    0    0  502    0  0.00000000000E+00  0.00000000000E+00  0.95868975882E+03  0.95868975882E+03  0.00000000000E+00 0. -1.
          1   -1    0    0  501    0 -0.00000000000E+00 -0.00000000000E+00 -0.51972636030E+03  0.51972636030E+03  0.00000000000E+00 0. -1.
         25    2    1    2    0    0 -0.79968348631E+02  0.32831882352E+02 -0.13895766559E+03  0.20593099778E+03  0.12500189494E+03 0.  0.
          2    1    1    2  501    0  0.38638482235E+02 -0.80546416792E+01 -0.34553035520E+03  0.34777727920E+03  0.00000000000E+00 0. -1.
          1    1    1    2  502    0  0.41329866395E+02 -0.24777240673E+02  0.92345141931E+03  0.92470784215E+03  0.00000000000E+00 0. -1.
         22    1    3    3    0    0 -0.39197433508E+02  0.36854251591E+02  0.70704056810E+01  0.54264770252E+02  0.00000000000E+00 0.  1.
         22    1    3    3    0    0 -0.40770915122E+02 -0.40223692382E+01 -0.14602807127E+03  0.15166622753E+03  0.00000000000E+00 0.  1.
</event>
<event>
 7    1  0.6386201E-006  0.1384673E+03  0.7818608E-02  0.1400759E+00
          2   -1    0    0  502    0  0.00000000000E+00  0.00000000000E+00  0.76770464295E+03  0.76770464295E+03  0.00000000000E+00 0. -1.
          1   -1    0    0  501    0 -0.00000000000E+00 -0.00000000000E+00 -0.39363345721E+03  0.39363345721E+03  0.00000000000E+00 0. -1.
         25    2    1    2    0    0 -0.13854777598E+03 -0.32247173570E+02 -0.69309947447E+02  0.20165398018E+03  0.12500036991E+03 0.  0.
          2    1    1    2  501    0  0.13773473207E+03  0.68575716736E+01 -0.23948109875E+03  0.27634956010E+03  0.00000000000E+00 0. -1.
          1    1    1    2  502    0  0.81304390905E+00  0.25389601896E+02  0.68286223194E+03  0.68333455988E+03  0.00000000000E+00 0. -1.
         22    1    3    3    0    0 -0.14551314262E+03 -0.43997322077E+02 -0.23467673534E+02  0.15381992955E+03  0.00000000000E+00 0. -1.
         22    1    3    3    0    0  0.69653666440E+01  0.11750148508E+02 -0.45842273913E+02  0.47834050633E+02  0.00000000000E+00 0. -1.
</event>
<event>
 7    1  0.6386201E-006  0.8134175E+02  0.7818608E-02  0.1335336E+00
          2   -1    0    0  502    0  0.00000000000E+00  0.00000000000E+00  0.82337556338E+03  0.82337556338E+03  0.00000000000E+00 0. -1.
          1   -1    0    0  501    0 -0.00000000000E+00 -0.00000000000E+00 -0.32043986149E+03  0.32043986149E+03  0.00000000000E+00 0. -1.
         25    2    1    2    0    0 -0.24141885930E+02 -0.57838718747E+00  0.97776617312E+02  0.16052690954E+03  0.12500182641E+03 0.  0.
          2    1    1    2  501    0  0.47285807792E+02 -0.70195999411E+02 -0.28081106511E+03  0.29328873186E+03  0.00000000000E+00 0. -1.
          1    1    1    2  502    0 -0.23143921861E+02  0.70774386599E+02  0.68597014969E+03  0.68999978346E+03  0.00000000000E+00 0. -1.
         22    1    3    3    0    0  0.18778158396E+02 -0.47842977406E+02  0.78513622178E+02  0.93840069199E+02  0.00000000000E+00 0. -1.
         22    1    3    3    0    0 -0.42920044326E+02  0.47264590218E+02  0.19262995134E+02  0.66686840344E+02  0.00000000000E+00 0. -1.
</event>
<event>
 7    1  0.6386201E-006  0.7392995E+02  0.7818608E-02  0.1379759E+00
          2   -1    0    0  502    0  0.00000000000E+00  0.00000000000E+00  0.52526857553E+03  0.52526857553E+03  0.00000000000E+00 0. -1.
          1   -1    0    0  501    0 -0.00000000000E+00 -0.00000000000E+00 -0.16227307831E+04  0.16227307831E+04  0.00000000000E+00 0. -1.
         25    2    1    2    0    0 -0.11866024843E+03  0.13800901111E+02  0.18006043276E+03  0.24963417203E+03  0.12499896387E+03 0.  0.
          2    1    1    2  501    0  0.71716395789E+02  0.17315929754E+02 -0.15845239281E+04  0.15862405750E+04  0.00000000000E+00 0. -1.
          1    1    1    2  502    0  0.46943852636E+02 -0.31116830866E+02  0.30700128781E+03  0.31212461162E+03  0.00000000000E+00 0. -1.
         22    1    3    3    0    0 -0.45716924906E+02 -0.35778779132E+02  0.11194106866E+02  0.59122468550E+02  0.00000000000E+00 0.  1.
         22    1    3    3    0    0 -0.72943323520E+02  0.49579680243E+02  0.16886632590E+03  0.19051170348E+03  0.00000000000E+00 0.  1.
</event>
<event>
 7    1  0.6386201E-006  0.1176596E+03  0.7818608E-02  0.1274293E+00
          2   -1    0    0  502    0  0.00000000000E+00  0.00000000000E+00  0.17973033900E+03  0.17973033900E+03  0.00000000000E+00 0. -1.
          1   -1    0    0  501    0 -0.00000000000E+00 -0.00000000000E+00 -0.30775950629E+04  0.30775950629E+04  0.00000000000E+00 0. -1.
         25    2    1    2    0    0 -0.93084500014E+02 -0.88716371192E+02 -0.11105188809E+04  0.11249050214E+04  0.12499521519E+03 0.  0.
          2    1    1    2  501    0  0.85180483231E+02 -0.29084474113E+02 -0.19385180353E+04  0.19406065532E+04  0.00000000000E+00 0. -1.
          1    1    1    2  502    0  0.79040167835E+01  0.11780084530E+03  0.15117219220E+03  0.19181382727E+03  0.00000000000E+00 0. -1.
         22    1    3    3    0    0 -0.10828276336E+03 -0.24539781072E+02 -0.60517184699E+03  0.61527255918E+03  0.00000000000E+00 0.  1.
         22    1    3    3    0    0  0.15198263349E+02 -0.64176590119E+02 -0.50534703387E+03  0.50963246224E+03  0.00000000000E+00 0.  1.
</event>
<event>
 7    1  0.6386201E-006  0.5426668E+02  0.7818608E-02  0.1426169E+00
          2   -1    0    0  502    0  0.00000000000E+00  0.00000000000E+00  0.52386946903E+03  0.52386946903E+03  0.00000000000E+00 0. -1.
          1   -1    0    0  501    0 -0.00000000000E+00 -0.00000000000E+00 -0.42146327049E+03  0.42146327049E+03  0.00000000000E+00 0. -1.
         25    2    1    2    0    0  0.22189966640E+02  0.95674702966E+01 -0.56150047421E+02  0.13915555188E+03  0.12501003434E+03 0.  0.
          2    1    1    2  501    0 -0.28189633880E+02  0.45131500711E+02 -0.32003717999E+03  0.32443073897E+03  0.00000000000E+00 0. -1.
          1    1    1    2  502    0  0.59996672404E+01 -0.54698971007E+02  0.47859342596E+03  0.48174644867E+03  0.00000000000E+00 0. -1.
         22    1    3    3    0    0  0.23675251153E+02 -0.11738281690E+02 -0.92935577390E+02  0.96619492438E+02  0.00000000000E+00 0.  1.
         22    1    3    3    0    0 -0.14852845132E+01  0.21305751987E+02  0.36785529968E+02  0.42536059442E+02  0.00000000000E+00 0.  1.
</event>
<event>
 7    1  0.1420976E-005  0.6124146E+02  0.7818608E-02  0.1442680E+00
          2   -1    0    0  502    0  0.00000000000E+00  0.00000000000E+00  0.16044100670E+04  0.16044100670E+04  0.00000000000E+00 0. -1.
          1   -1    0    0  501    0 -0.00000000000E+00 -0.00000000000E+00 -0.76063340076E+03  0.76063340076E+03  0.00000000000E+00 0. -1.
         25    2    1    2    0    0 -0.32216504210E+02  0.47098794072E+02 -0.23510429321E+03  0.27231485413E+03  0.12500060618E+03 0.  0.
          2    1    1    2  501    0 -0.27082058602E+02 -0.31626561242E+02 -0.50547542550E+03  0.50718742399E+03  0.00000000000E+00 0. -1.
          1    1    1    2  502    0  0.59298562812E+02 -0.15472232830E+02  0.15843563849E+04  0.15855411896E+04  0.00000000000E+00 0. -1.
         22    1    3    3    0    0 -0.49434556298E+02  0.68182930659E+02 -0.22957852472E+03  0.24453831275E+03  0.00000000000E+00 0. -1.
         22    1    3    3    0    0  0.17218052088E+02 -0.21084136588E+02 -0.55257684886E+01  0.27776541375E+02  0.00000000000E+00 0. -1.
</event>
<event>
 7    1  0.6386201E-006  0.1468781E+03  0.7818608E-02  0.1249510E+00
          2   -1    0    0  502    0  0.00000000000E+00  0.00000000000E+00  0.39915835264E+04  0.39915835264E+04  0.00000000000E+00 0. -1.
          1   -1    0    0  501    0 -0.00000000000E+00 -0.00000000000E+00 -0.13290596141E+04  0.13290596141E+04  0.00000000000E+00 0. -1.
         25    2    1    2    0    0  0.80956102669E+02 -0.17543489703E+03  0.20566482236E+03  0.30863403913E+03  0.12500262915E+03 0.  0.
          2    1    1    2  501    0  0.34141900311E+02  0.85345211219E+02 -0.12744889140E+04  0.12777994624E+04  0.00000000000E+00 0. -1.
          1    1    1    2  502    0 -0.11509800298E+03  0.90089685815E+02  0.37313480039E+04  0.37342096390E+04  0.00000000000E+00 0. -1.
         22    1    3    3    0    0  0.38623306521E+02 -0.18195477242E+03  0.15371602932E+03  0.24130461389E+03  0.00000000000E+00 0.  1.
         22    1    3    3    0    0  0.42332796148E+02  0.65198753878E+01  0.51948793038E+02  0.67329425238E+02  0.00000000000E+00 0.  1.
</event>
<event>
 7    1  0.6386201E-006  0.1471653E+03  0.7818608E-02  0.1249400E+00
          2   -1    0    0  502    0  0.00000000000E+00  0.00000000000E+00  0.16118562406E+03  0.16118562406E+03  0.00000000000E+00 0. -1.
          1   -1    0    0  501    0 -0.00000000000E+00 -0.00000000000E+00 -0.23238544288E+04  0.23238544288E+04  0.00000000000E+00 0. -1.
         25    2    1    2    0    0 -0.15933420643E+03 -0.11960126137E+03 -0.35946872644E+03  0.42957535987E+03  0.12500149384E+03 0.  0.
          2    1    1    2  501    0  0.19018308665E+02  0.89852426851E+02 -0.18870735605E+04  0.18893072215E+04  0.00000000000E+00 0. -1.
          1    1    1    2  502    0  0.14031589776E+03  0.29748834517E+02  0.83873482152E+02  0.16615747148E+03  0.00000000000E+00 0. -1.
         22    1    3    3    0    0 -0.11305884727E+03 -0.11991018596E+03 -0.17919847395E+03  0.24346015837E+03  0.00000000000E+00 0. -1.
         22    1    3    3    0    0 -0.46275359155E+02  0.30892459633E+00 -0.18027025249E+03  0.18611520151E+03  0.00000000000E+00 0. -1.
</event>
<event>
 7    1  0.9886369E-006  0.6098659E+02  0.7818608E-02  0.1397440E+00
          2   -1    0    0  502    0  0.00000000000E+00  0.00000000000E+00  0.28456976306E+04  0.28456976306E+04  0.00000000000E+00 0. -1.
          1   -1    0    0  501    0 -0.00000000000E+00 -0.00000000000E+00 -0.27368968468E+04  0.27368968468E+04  0.00000000000E+00 0. -1.
         25    2    1    2    0    0 -0.10670631513E+03 -0.21847365571E+02 -0.49367331156E+03  0.52077074858E+03  0.12500115585E+03 0.  0.
          2    1    1    2  501    0  0.57500146395E+02 -0.14140341345E+02 -0.22289535310E+04  0.22297399085E+04  0.00000000000E+00 0. -1.
          1    1    1    2  502    0  0.49206168732E+02  0.35987706916E+02  0.28314276264E+04  0.28320838203E+04  0.00000000000E+00 0. -1.
         22    1    3    3    0    0 -0.51493769732E+02  0.68459638957E+01 -0.47851009978E+02  0.70627152701E+02  0.00000000000E+00 0. -1.
         22    1    3    3    0    0 -0.55212545395E+02 -0.28693329467E+02 -0.44582230158E+03  0.45014359588E+03  0.00000000000E+00 0. -1.
</event>
<event>
 7    1  0.6386201E-006  0.6301961E+02  0.7818608E-02  0.1487941E+00
          2   -1    0    0  502    0  0.00000000000E+00  0.00000000000E+00  0.74761194271E+03  0.74761194271E+03  0.00000000000E+00 0. -1.
          1   -1    0    0  501    0 -0.00000000000E+00 -0.00000000000E+00 -0.10984483221E+03  0.10984483221E+03  0.00000000000E+00 0. -1.
         25    2    1    2    0    0 -0.76238185196E+02 -0.18539082549E+02  0.24858104396E+03  0.28909000175E+03  0.12499814093E+03 0.  0.
          2    1    1    2  501    0  0.14700463455E+02  0.25223012903E+02 -0.85146481379E+02  0.90012373021E+02  0.00000000000E+00 0. -1.
          1    1    1    2  502    0  0.61537721741E+02 -0.66839303546E+01  0.47433254792E+03  0.47835440015E+03  0.00000000000E+00 0. -1.
         22    1    3    3    0    0  0.34275752366E+02  0.96380356477E+00  0.73896746080E+02  0.81464625444E+02  0.00000000000E+00 0.  1.
         22    1    3    3    0    0 -0.11051393756E+03 -0.19502886113E+02  0.17468429788E+03  0.20762537631E+03  0.00000000000E+00 0.  1.
</event>
<event>
 7    1  0.7736089E-006  0.1284271E+03  0.7818608E-02  0.1380870E+00
          2   -1    0    0  502    0  0.00000000000E+00  0.00000000000E+00  0.67353853574E+03  0.67353853574E+03  0.00000000000E+00 0. -1.
          1   -1    0    0  501    0 -0.00000000000E+00 -0.00000000000E+00 -0.12846452863E+04  0.12846452863E+04  0.00000000000E+00 0. -1.
         25    2    1    2    0    0 -0.66480326647E+02 -0.13387629296E+03 -0.57932869930E+03  0.61121995516E+03  0.12500238442E+03 0.  0.
          2    1    1    2  501    0 -0.96054509206E+01  0.30659335031E+02 -0.68273846334E+03  0.68349401522E+03  0.00000000000E+00 0. -1.
          1    1    1    2  502    0  0.76085777567E+02  0.10321695793E+03  0.65096041208E+03  0.66346985165E+03  0.00000000000E+00 0. -1.
         22    1    3    3    0    0 -0.69514822201E+02 -0.10184602232E+03 -0.23495443417E+03  0.26534601732E+03  0.00000000000E+00 0. -1.
         22    1    3    3    0    0  0.30344955543E+01 -0.32030270638E+02 -0.34437426512E+03  0.34587393785E+03  0.00000000000E+00 0. -1.
</event>
<event>
 7    1  0.6386201E-006  0.2157309E+03  0.7818608E-02  0.1361903E+00
          2   -1    0    0  502    0  0.00000000000E+00  0.00000000000E+00  0.11130020489E+04  0.11130020489E+04  0.00000000000E+00 0. -1.
          1   -1    0    0  501    0 -0.00000000000E+00 -0.00000000000E+00 -0.45041712442E+03  0.45041712442E+03  0.00000000000E+00 0. -1.
         25    2    1    2    0    0  0.22883629049E+03 -0.15024859800E+02  0.32921335309E+03  0.42023727235E+03  0.12500455579E+03 0.  0.
          2    1    1    2  501    0 -0.21258218954E+03  0.30396131440E+02 -0.37624370383E+03  0.43321407732E+03  0.00000000000E+00 0. -1.
          1    1    1    2  502    0 -0.16254100946E+02 -0.15371271640E+02  0.70961527521E+03  0.70996782364E+03  0.00000000000E+00 0. -1.
         22    1    3    3    0    0  0.74672701662E+02 -0.51481754958E+02  0.62922968205E+02  0.11038878292E+03  0.00000000000E+00 0. -1.
         22    1    3    3    0    0  0.15416358883E+03  0.36456895157E+02  0.26629038488E+03  0.30984848943E+03  0.00000000000E+00 0. -1.
</event>
<event>
 7    1  0.6386201E-006  0.1047613E+03  0.7818608E-02  0.1272459E+00
          2   -1    0    0  502    0  0.00000000000E+00  0.00000000000E+00  0.16718621144E+04  0.16718621144E+04  0.00000000000E+00 0. -1.
          1   -1    0    0  501    0 -0.00000000000E+00 -0.00000000000E+00 -0.26478977995E+03  0.26478977995E+03  0.00000000000E+00 0. -1.
         25    2    1    2    0    0 -0.39442985863E+02 -0.10962289325E+03 -0.15487170693E+03  0.23061585826E+03  0.12500200245E+03 0.  0.
          2    1    1    2  501    0  0.11100230978E+03  0.35692230025E+02 -0.22081826195E+02  0.11867204856E+03  0.00000000000E+00 0. -1.
          1    1    1    2  502    0 -0.71559323921E+02  0.73930663221E+02  0.15840258676E+04  0.15873639876E+04  0.00000000000E+00 0. -1.
         22    1    3    3    0    0 -0.59745945978E+02 -0.66759490564E+01 -0.86633276785E+02  0.10544890233E+03  0.00000000000E+00 0. -1.
         22    1    3    3    0    0  0.20302960114E+02 -0.10294694419E+03 -0.68238430142E+02  0.12516695592E+03  0.00000000000E+00 0. -1.
</event>
<event>
 7    1  0.6386201E-006  0.9172580E+02  0.7818608E-02  0.1309351E+00
          2   -1    0    0  502    0  0.00000000000E+00  0.00000000000E+00  0.67929428571E+03  0.67929428571E+03  0.00000000000E+00 0. -1.
          1   -1    0    0  501    0 -0.00000000000E+00 -0.00000000000E+00 -0.13234147064E+03  0.13234147064E+03  0.00000000000E+00 0. -1.
         25    2    1    2    0    0  0.16703856356E+02 -0.13080419953E+03  0.38076325806E+03  0.42189113011E+03  0.12499083783E+03 0.  0.
          2    1    1    2  501    0 -0.59715925065E+02  0.57960259341E+02 -0.88435927190E+02  0.12143433035E+03  0.00000000000E+00 0. -1.
          1    1    1    2  502    0  0.43012068709E+02  0.72843940193E+02  0.25462548420E+03  0.26831029589E+03  0.00000000000E+00 0. -1.
         22    1    3    3    0    0  0.52982138327E+02 -0.82987204205E+01  0.10179747650E+03  0.11505955833E+03  0.00000000000E+00 0. -1.
         22    1    3    3    0    0 -0.36278281970E+02 -0.12250547911E+03  0.27896578157E+03  0.30683157178E+03  0.00000000000E+00 0. -1.
</event>
<event>
 7    1  0.6386201E-006  0.6654364E+02  0.7818608E-02  0.1478724E+00
          2   -1    0    0  502    0  0.00000000000E+00  0.00000000000E+00  0.10496286387E+04  0.10496286387E+04  0.00000000000E+00 0. -1.
          1   -1    0    0  501    0 -0.00000000000E+00 -0.00000000000E+00 -0.63580969864E+02  0.63580969864E+02  0.00000000000E+00 0. -1.
         25    2    1    2    0    0 -0.23724323866E+02 -0.34884203118E+02  0.45844445859E+03  0.47705013484E+03  0.12500303343E+03 0.  0.
          2    1    1    2  501    0  0.21305853674E+02  0.64284071309E+02 -0.32613507428E+02  0.75166628843E+02  0.00000000000E+00 0. -1.
          1    1    1    2  502    0  0.24184701916E+01 -0.29399868191E+02  0.56021671769E+03  0.56099284490E+03  0.00000000000E+00 0. -1.
         22    1    3    3    0    0 -0.34100959541E+02 -0.32346680367E+02  0.50585310590E+02  0.69051117441E+02  0.00000000000E+00 0. -1.
         22    1    3    3    0    0  0.10376635675E+02 -0.25375227509E+01  0.40785914800E+03  0.40799901740E+03  0.00000000000E+00 0. -1.
</event>
<event>
 7    1  0.6386201E-006  0.8586878E+02  0.7818608E-02  0.1327650E+00
          2   -1    0    0  502    0  0.00000000000E+00  0.00000000000E+00  0.15046568893E+04  0.15046568893E+04  0.00000000000E+00 0. -1.
          1   -1    0    0  501    0 -0.00000000000E+00 -0.00000000000E+00 -0.61327524532E+03  0.61327524532E+03  0.00000000000E+00 0. -1.
         25    2    1    2    0    0 -0.66113218810E+02 -0.33802223942E+02  0.19971461721E+03  0.24702941514E+03  0.12499622223E+03 0.  0.
          2    1    1    2  501    0  0.52952385660E+02 -0.53760303893E+02 -0.58566453640E+03  0.59050577865E+03  0.00000000000E+00 0. -1.
          1    1    1    2  502    0  0.13160833149E+02  0.87562527836E+02  0.12773315632E+04  0.12803969408E+04  0.00000000000E+00 0. -1.
         22    1    3    3    0    0  0.58683944636E+01 -0.71462855152E+01  0.16062441531E+03  0.16089036716E+03  0.00000000000E+00 0. -1.
         22    1    3    3    0    0 -0.71981613273E+02 -0.26655938427E+02  0.39090201900E+02  0.86139047983E+02  0.00000000000E+00 0. -1.
</event>
<event>
 7    1  0.6386201E-006  0.1420581E+03  0.7818608E-02  0.1283825E+00
          2   -1    0    0  502    0  0.00000000000E+00  0.00000000000E+00  0.53159859141E+03  0.53159859141E+03  0.00000000000E+00 0. -1.
          1   -1    0    0  501    0 -0.00000000000E+00 -0.00000000000E+00 -0.30585964345E+03  0.30585964345E+03  0.00000000000E+00 0. -1.
         25    2    1    2    0    0  0.11094025974E+03  0.10635129525E+03  0.16757666074E+03  0.25947179302E+03  0.12500133966E+03 0.  0.
          2    1    1    2  501    0 -0.48623326909E+02 -0.13375620200E+03 -0.23624993421E+03  0.27580605670E+03  0.00000000000E+00 0. -1.
          1    1    1    2  502    0 -0.62316932827E+02  0.27404906751E+02  0.29441222144E+03  0.30218038514E+03  0.00000000000E+00 0. -1.
         22    1    3    3    0    0  0.20001365295E+02 -0.10470732858E+02 -0.12932181113E+02  0.26017920143E+02  0.00000000000E+00 0. -1.
         22    1    3    3    0    0  0.90938894442E+02  0.11682202811E+03  0.18050884185E+03  0.23345387287E+03  0.00000000000E+00 0. -1.
</event>
<event>
 7    1  0.6386201E-006  0.3339573E+02  0.7818608E-02  0.1596319E+00
          2   -1    0    0  502    0  0.00000000000E+00  0.00000000000E+00  0.65752747926E+02  0.65752747926E+02  0.00000000000E+00 0. -1.
          1   -1    0    0  501    0 -0.00000000000E+00 -0.00000000000E+00 -0.25441231194E+03  0.25441231194E+03  0.00000000000E+00 0. -1.
         25    2    1    2    0    0  0.56130523206E+01  0.14526462424E+02 -0.98587695430E+02  0.15996084943E+03  0.12500166076E+03 0.  0.
          2    1    1    2  501    0  0.15494084699E+02 -0.31744301006E+02 -0.11681045539E+03  0.12203462539E+03  0.00000000000E+00 0. -1.
          1    1    1    2  502    0 -0.21107137020E+02  0.17217838582E+02  0.26738586802E+02  0.38169585049E+02  0.00000000000E+00 0. -1.
         22    1    3    3    0    0  0.12531481934E+02  0.51129521627E+02  0.20166081911E+01  0.52681426802E+02  0.00000000000E+00 0.  1.
         22    1    3    3    0    0 -0.69184296137E+01 -0.36603059203E+02 -0.10060430362E+03  0.10727942262E+03  0.00000000000E+00 0.  1.
</event>
<event>
 7    1  0.6386201E-006  0.5212283E+02  0.7818608E-02  0.1475502E+00
          2   -1    0    0  502    0  0.00000000000E+00  0.00000000000E+00  0.31096139216E+03  0.31096139216E+03  0.00000000000E+00 0. -1.
          1   -1    0    0  501    0 -0.00000000000E+00 -0.00000000000E+00 -0.18692475778E+04  0.18692475778E+04  0.00000000000E+00 0. -1.
         25    2    1    2    0    0 -0.76367073906E+02  0.43404660330E+02 -0.42584611201E+02  0.15860095113E+03  0.12499967229E+03 0.  0.
          2    1    1    2  501    0  0.28017348848E+02 -0.26451496092E+02 -0.17658480167E+04  0.17662683464E+04  0.00000000000E+00 0. -1.
          1    1    1    2  502    0  0.48349725058E+02 -0.16953164237E+02  0.25014644230E+03  0.25533967237E+03  0.00000000000E+00 0. -1.
         22    1    3    3    0    0 -0.89232928385E+02  0.76172220076E+02 -0.36549778118E+02  0.12288453483E+03  0.00000000000E+00 0.  1.
         22    1    3    3    0    0  0.12865854479E+02 -0.32767559747E+02 -0.60348330828E+01  0.35716416304E+02  0.00000000000E+00 0.  1.
</event>
<event>
 7    1  0.6386201E-006  0.2310519E+03  0.7818608E-02  0.1132730E+00
          2   -1    0    0  502    0  0.00000000000E+00  0.00000000000E+00  0.37581406562E+04  0.37581406562E+04  0.00000000000E+00 0. -1.
          1   -1    0    0  501    0 -0.00000000000E+00 -0.00000000000E+00 -0.86665800605E+02  0.86665800605E+02  0.00000000000E+00 0. -1.
         25    2    1    2    0    0  0.14403180549E+03 -0.73622763868E+02  0.76734933862E+03  0.79411362551E+03  0.12500388147E+03 0.  0.
          2    1    1    2  501    0 -0.24893579979E+03 -0.11111594536E+03  0.19968272182E+03  0.33791859245E+03  0.00000000000E+00 0. -1.
          1    1    1    2  502    0  0.10490399429E+03  0.18473870923E+03  0.27044427951E+04  0.27127742388E+04  0.00000000000E+00 0. -1.
         22    1    3    3    0    0  0.92683139961E+02 -0.94869367960E+02  0.66042532870E+03  0.67361114614E+03  0.00000000000E+00 0. -1.
         22    1    3    3    0    0  0.51348665532E+02  0.21246604092E+02  0.10692400992E+03  0.12050247937E+03  0.00000000000E+00 0. -1.
</event>
<event>
 7    1  0.6386201E-006  0.5739113E+02  0.7818608E-02  0.1433766E+00
          2   -1    0    0  502    0  0.00000000000E+00  0.00000000000E+00  0.77851495900E+03  0.77851495900E+03  0.00000000000E+00 0. -1.
          1   -1    0    0  501    0 -0.00000000000E+00 -0.00000000000E+00 -0.92347155966E+03  0.92347155966E+03  0.00000000000E+00 0. -1.
         25    2    1    2    0    0  0.18153807655E+01 -0.10444244456E+02  0.15404869277E+03  0.19865887434E+03  0.12498788245E+03 0.  0.
          2    1    1    2  501    0  0.55285820827E+01  0.57372128142E+02 -0.89930575999E+03  0.90115091759E+03  0.00000000000E+00 0. -1.
          1    1    1    2  502    0 -0.73439628482E+01 -0.46927883685E+02  0.60030046657E+03  0.60217672674E+03  0.00000000000E+00 0. -1.
         22    1    3    3    0    0  0.22470684308E+01 -0.23148510434E+02  0.17370248220E+03  0.17525254684E+03  0.00000000000E+00 0.  1.
         22    1    3    3    0    0 -0.43168766530E+00  0.12704265978E+02 -0.19653789425E+02  0.23406327500E+02  0.00000000000E+00 0.  1.
</event>
<event>
 7    1  0.6386201E-006  0.7552700E+02  0.7818608E-02  0.1363247E+00
          2   -1    0    0  502    0  0.00000000000E+00  0.00000000000E+00  0.26122571453E+04  0.26122571453E+04  0.00000000000E+00 0. -1.
          1   -1    0    0  501    0 -0.00000000000E+00 -0.00000000000E+00 -0.59919650267E+02  0.59919650267E+02  0.00000000000E+00 0. -1.
         25    2    1    2    0    0  0.40821985346E+02 -0.54067200288E+02  0.44556305349E+03  0.46769929091E+03  0.12500598165E+03 0.  0.
          2    1    1    2  501    0 -0.77642139414E+02  0.27195839333E+01 -0.17193822886E+02  0.79569626711E+02  0.00000000000E+00 0. -1.
          1    1    1    2  502    0  0.36820154068E+02  0.51347616355E+02  0.21239682644E+04  0.21249078779E+04  0.00000000000E+00 0. -1.
         22    1    3    3    0    0 -0.28752827665E+02  0.16148764637E+02  0.20474209310E+03  0.20738088723E+03  0.00000000000E+00 0. -1.
         22    1    3    3    0    0  0.69574813011E+02 -0.70215964925E+02  0.24082096039E+03  0.26031840369E+03  0.00000000000E+00 0. -1.
</event>
<event>
 7    1  0.6386201E-006  0.9425188E+02  0.7818608E-02  0.1404866E+00
          2   -1    0    0  502    0  0.00000000000E+00  0.00000000000E+00  0.28177943639E+02  0.28177943639E+02  0.00000000000E+00 0. -1.
          1   -1    0    0  501    0 -0.00000000000E+00 -0.00000000000E+00 -0.18437909915E+04  0.18437909915E+04  0.00000000000E+00 0. -1.
         25    2    1    2    0    0 -0.28308161664E+02  0.64619298104E+02 -0.39287331648E+03  0.41827190068E+03  0.12499973755E+03 0.  0.
          2    1    1    2  501    0  0.62986586097E+02 -0.74758660523E+02 -0.14128633518E+04  0.14162411582E+04  0.00000000000E+00 0. -1.
          1    1    1    2  502    0 -0.34678424433E+02  0.10139362419E+02 -0.98763795640E+01  0.37455876237E+02  0.00000000000E+00 0. -1.
         22    1    3    3    0    0  0.21950448285E+02 -0.21964584413E+02 -0.18451666768E+03  0.18711137272E+03  0.00000000000E+00 0. -1.
         22    1    3    3    0    0 -0.50258609950E+02  0.86583882517E+02 -0.20835664880E+03  0.23116052796E+03  0.00000000000E+00 0. -1.
</event>
<event>
 7    1  0.7248295E-006  0.5787121E+02  0.7818608E-02  0.1466991E+00
          2   -1    0    0  502    0  0.00000000000E+00  0.00000000000E+00  0.10249140625E+04  0.10249140625E+04  0.00000000000E+00 0. -1.
          1   -1    0    0  501    0 -0.00000000000E+00 -0.00000000000E+00 -0.82771955872E+03  0.82771955872E+03  0.00000000000E+00 0. -1.
         25    2    1    2    0    0 -0.50782848494E+02  0.74263854886E+02 -0.35585229041E+03  0.38775299884E+03  0.12501007031E+03 0.  0.
          2    1    1    2  501    0  0.23650868304E+02 -0.49282104795E+02 -0.45393960892E+03  0.45721904813E+03  0.00000000000E+00 0. -1.
          1    1    1    2  502    0  0.27131980189E+02 -0.24981750091E+02  0.10069864031E+04  0.10076615743E+04  0.00000000000E+00 0. -1.
         22    1    3    3    0    0 -0.90652683793E+02  0.68131036804E+02 -0.25191990001E+03  0.27626686967E+03  0.00000000000E+00 0. -1.
         22    1    3    3    0    0  0.39869835299E+02  0.61328180821E+01 -0.10393239040E+03  0.11148612918E+03  0.00000000000E+00 0. -1.
</event>
<event>
 7    1  0.6386201E-006  0.1550554E+03  0.7818608E-02  0.1214316E+00
          2   -1    0    0  502    0  0.00000000000E+00  0.00000000000E+00  0.80487576197E+03  0.80487576197E+03  0.00000000000E+00 0. -1.
          1   -1    0    0  501    0 -0.00000000000E+00 -0.00000000000E+00 -0.39695695026E+03  0.39695695026E+03  0.00000000000E+00 0. -1.
         25    2    1    2    0    0 -0.73923434226E+02 -0.25955423591E+03  0.11978684254E+03  0.32063544969E+03  0.12500051377E+03 0.  0.
          2    1    1    2  501    0  0.29925192411E+02  0.14245749150E+03 -0.27133522885E+03  0.30791632052E+03  0.00000000000E+00 0. -1.
          1    1    1    2  502    0  0.43998241815E+02  0.11709674441E+03  0.55946719802E+03  0.57328094203E+03  0.00000000000E+00 0. -1.
         22    1    3    3    0    0  0.32278034022E+02 -0.10063454259E+03  0.52432538798E+02  0.11797607286E+03  0.00000000000E+00 0.  1.
         22    1    3    3    0    0 -0.10620146825E+03 -0.15891969332E+03  0.67354303743E+02  0.20265937683E+03  0.00000000000E+00 0.  1.
</event>
<event>
 7    1  0.6386201E-006  0.7443410E+02  0.7818608E-02  0.1398502E+00
          2   -1    0    0  502    0  0.00000000000E+00  0.00000000000E+00  0.28281204456E+04  0.28281204456E+04  0.00000000000E+00 0. -1.
          1   -1    0    0  501    0 -0.00000000000E+00 -0.00000000000E+00 -0.22990162780E+04  0.22990162780E+04  0.00000000000E+00 0. -1.
         25    2    1    2    0    0  0.60199925686E+02 -0.73958684336E+01  0.67730192285E+03  0.69140553149E+03  0.12499993743E+03 0.  0.
          2    1    1    2  501    0 -0.50677253624E+02  0.54552178821E+02 -0.22910896927E+04  0.22922993051E+04  0.00000000000E+00 0. -1.
          1    1    1    2  502    0 -0.95226720629E+01 -0.47156310387E+02  0.21428919374E+04  0.21434318870E+04  0.00000000000E+00 0. -1.
         22    1    3    3    0    0  0.75440293020E+02  0.40794945131E+02  0.35810869154E+03  0.36823538710E+03  0.00000000000E+00 0. -1.
         22    1    3    3    0    0 -0.15240367333E+02 -0.48190813564E+02  0.31919323131E+03  0.32317014438E+03  0.00000000000E+00 0. -1.
</event>
<event>
 7    1  0.6386201E-006  0.4396330E+02  0.7818608E-02  0.1532991E+00
          2   -1    0    0  502    0  0.00000000000E+00  0.00000000000E+00  0.41205666964E+03  0.41205666964E+03  0.00000000000E+00 0. -1.
          1   -1    0    0  501    0 -0.00000000000E+00 -0.00000000000E+00 -0.20252025818E+04  0.20252025818E+04  0.00000000000E+00 0. -1.
         25    2    1    2    0    0 -0.39736107791E+02  0.38367820374E+02 -0.44080099535E+03  0.46150084019E+03  0.12500584023E+03 0.  0.
          2    1    1    2  501    0  0.92324367205E+01 -0.42915980578E+02 -0.15731530878E+04  0.15737654390E+04  0.00000000000E+00 0. -1.
          1    1    1    2  502    0  0.30503671070E+02  0.45481602039E+01  0.40080817106E+03  0.40199297220E+03  0.00000000000E+00 0. -1.
         22    1    3    3    0    0  0.37329877672E+01  0.54973752289E+02 -0.38464097682E+03  0.38856753556E+03  0.00000000000E+00 0.  1.
         22    1    3    3    0    0 -0.43469095558E+02 -0.16605931915E+02 -0.56160018527E+02  0.72933304630E+02  0.00000000000E+00 0.  1.
</event>
<event>
 7    1  0.6386201E-006  0.9091538E+02  0.7818608E-02  0.1316459E+00
          2   -1    0    0  502    0  0.00000000000E+00  0.00000000000E+00  0.38527263902E+03  0.38527263902E+03  0.00000000000E+00 0. -1.
          1   -1    0    0  501    0 -0.00000000000E+00 -0.00000000000E+00 -0.31207771021E+03  0.31207771021E+03  0.00000000000E+00 0. -1.
         25    2    1    2    0    0  0.23825317360E+02  0.79262577438E+01  0.73733658615E+02  0.14726732616E+03  0.12498216526E+03 0.  0.
          2    1    1    2  501    0 -0.90067431181E+02  0.34639719212E+02 -0.26084815438E+03  0.27812553272E+03  0.00000000000E+00 0. -1.
          1    1    1    2  502    0  0.66242113820E+02 -0.42565976956E+02  0.26030942457E+03  0.27195749035E+03  0.00000000000E+00 0. -1.
         22    1    3    3    0    0 -0.46974897174E+02 -0.15486597077E+02  0.46474879573E+02  0.67870391813E+02  0.00000000000E+00 0.  1.
         22    1    3    3    0    0  0.70800214534E+02  0.23412854821E+02  0.27258779042E+02  0.79396934348E+02  0.00000000000E+00 0.  1.
</event>
<event>
 7    1  0.6386201E-006  0.2262109E+03  0.7818608E-02  0.1174074E+00
          2   -1    0    0  502    0  0.00000000000E+00  0.00000000000E+00  0.17967205721E+04  0.17967205721E+04  0.00000000000E+00 0. -1.
          1   -1    0    0  501    0 -0.00000000000E+00 -0.00000000000E+00 -0.26326810683E+03  0.26326810683E+03  0.00000000000E+00 0. -1.
         25    2    1    2    0    0  0.47267448567E+02  0.13408560684E+03  0.35453805590E+03  0.40191520895E+03  0.12500176179E+03 0.  0.
          2    1    1    2  501    0  0.18656146667E+02  0.13202126166E+03 -0.20649444163E+03  0.24579995883E+03  0.00000000000E+00 0. -1.
          1    1    1    2  502    0 -0.65923595234E+02 -0.26610686850E+03  0.13854088510E+04  0.14122735112E+04  0.00000000000E+00 0. -1.
         22    1    3    3    0    0  0.44480393174E+02  0.14610386576E+03  0.22587265308E+03  0.27265967867E+03  0.00000000000E+00 0. -1.
         22    1    3    3    0    0  0.27870553931E+01 -0.12018258914E+02  0.12866540282E+03  0.12925553028E+03  0.00000000000E+00 0. -1.
</event>
<event>
 7    1  0.6386201E-006  0.8251421E+02  0.7818608E-02  0.1331088E+00
          2   -1    0    0  502    0  0.00000000000E+00  0.00000000000E+00  0.17640893231E+04  0.17640893231E+04  0.00000000000E+00 0. -1.
          1   -1    0    0  501    0 -0.00000000000E+00 -0.00000000000E+00 -0.95210959977E+02  0.95210959977E+02  0.00000000000E+00 0. -1.
         25    2    1    2    0    0  0.26905175316E+02 -0.50033372884E+00  0.27577458531E+02  0.13081183800E+03  0.12500832752E+03 0.  0.
          2    1    1    2  501    0  0.83252489170E+01 -0.75729361708E+02 -0.84038237357E+01  0.76647702168E+02  0.00000000000E+00 0. -1.
          1    1    1    2  502    0 -0.35230424233E+02  0.76229695437E+02  0.16497047283E+04  0.16518407429E+04  0.00000000000E+00 0. -1.
         22    1    3    3    0    0  0.72815521014E+02  0.55009135116E+01 -0.65154904698E+01  0.73313107737E+02  0.00000000000E+00 0. -1.
         22    1    3    3    0    0 -0.45910345698E+02 -0.60012472404E+01  0.34092949001E+02  0.57498730265E+02  0.00000000000E+00 0. -1.
</event>
<event>
 7    1  0.6386201E-006  0.1511442E+03  0.7818608E-02  0.1201858E+00
          2   -1    0    0  502    0  0.00000000000E+00  0.00000000000E+00  0.10575381562E+04  0.10575381562E+04  0.00000000000E+00 0. -1.
          1   -1    0    0  501    0 -0.00000000000E+00 -0.00000000000E+00 -0.59262964091E+03  0.59262964091E+03  0.00000000000E+00 0. -1.
         25    2    1    2    0    0 -0.74040781003E+02 -0.27802690829E+02  0.82377560874E+02  0.16931120408E+03  0.12500077769E+03 0.  0.
          2    1    1    2  501    0 -0.37410733774E+01  0.15739648557E+03 -0.53154368183E+03  0.55437021474E+03  0.00000000000E+00 0. -1.
          1    1    1    2  502    0  0.77781854380E+02 -0.12959379474E+03  0.91407463622E+03  0.92648637825E+03  0.00000000000E+00 0. -1.
         22    1    3    3    0    0 -0.45845519305E+02  0.28145421648E+02 -0.12862414406E+02  0.55312006874E+02  0.00000000000E+00 0. -1.
         22    1    3    3    0    0 -0.28195261698E+02 -0.55948112477E+02  0.95239975280E+02  0.11399919720E+03  0.00000000000E+00 0. -1.
</event>
<event>
 7    1  0.6386201E-006  0.1013578E+03  0.7818608E-02  0.1455660E+00
          2   -1    0    0  502    0  0.00000000000E+00  0.00000000000E+00  0.41067603445E+03  0.41067603445E+03  0.00000000000E+00 0. -1.
          1   -1    0    0  501    0 -0.00000000000E+00 -0.00000000000E+00 -0.19649461309E+03  0.19649461309E+03  0.00000000000E+00 0. -1.
         25    2    1    2    0    0 -0.23169359754E+02 -0.11364680569E+03  0.27400779795E+03  0.32273284864E+03  0.12499521023E+03 0.  0.
          2    1    1    2  501    0  0.43959795084E+01  0.10060168174E+03 -0.15594885153E+03  0.18563422986E+03  0.00000000000E+00 0. -1.
          1    1    1    2  502    0  0.18773380246E+02  0.13045123957E+02  0.96122474945E+02  0.98803569037E+02  0.00000000000E+00 0. -1.
         22    1    3    3    0    0 -0.38183921993E+02 -0.12012478366E+03  0.14264609646E+03  0.19035725461E+03  0.00000000000E+00 0.  1.
         22    1    3    3    0    0  0.15014562239E+02  0.64779779638E+01  0.13136170148E+03  0.13237559403E+03  0.00000000000E+00 0.  1.
</event>
<event>
 7    1  0.6386201E-006  0.7086703E+02  0.7818608E-02  0.1490414E+00
          2   -1    0    0  502    0  0.00000000000E+00  0.00000000000E+00  0.66334368106E+03  0.66334368106E+03  0.00000000000E+00 0. -1.
          1   -1    0    0  501    0 -0.00000000000E+00 -0.00000000000E+00 -0.43819446890E+02  0.43819446890E+02  0.00000000000E+00 0. -1.
         25    2    1    2    0    0 -0.37349902865E+02 -0.30264027863E+02  0.37913283001E+03  0.40209183799E+03  0.12500086701E+03 0.  0.
          2    1    1    2  501    0  0.54227766478E+02  0.49402545281E+02  0.10896336531E+02  0.74161932872E+02  0.00000000000E+00 0. -1.
          1    1    1    2  502    0 -0.16877863613E+02 -0.19138517418E+02  0.22949506763E+03  0.23090935710E+03  0.00000000000E+00 0. -1.
         22    1    3    3    0    0 -0.73466412274E+01 -0.21101204308E+02  0.36818930459E+03  0.36886663982E+03  0.00000000000E+00 0.  1.
         22    1    3    3    0    0 -0.30003261638E+02 -0.91628235553E+01  0.10943525429E+02  0.33225198167E+02  0.00000000000E+00 0.  1.
</event>
<event>
 7    1  0.6386201E-006  0.2124164E+03  0.7818608E-02  0.1247193E+00
          2   -1    0    0  502    0  0.00000000000E+00  0.00000000000E+00  0.38093964393E+03  0.38093964393E+03  0.00000000000E+00 0. -1.
          1   -1    0    0  501    0 -0.00000000000E+00 -0.00000000000E+00 -0.45232243469E+03  0.45232243469E+03  0.00000000000E+00 0. -1.
         25    2    1    2    0    0  0.18236901518E+03  0.28929766393E+01  0.80176634543E+02  0.23520236536E+03  0.12500013172E+03 0.  0.
          2    1    1    2  501    0  0.52729396943E+02  0.38097954116E+02 -0.30663190875E+03  0.31345648961E+03  0.00000000000E+00 0. -1.
          1    1    1    2  502    0 -0.23509841213E+03 -0.40990930755E+02  0.15507248346E+03  0.28460322365E+03  0.00000000000E+00 0. -1.
         22    1    3    3    0    0  0.15294456243E+03  0.27425644472E+01  0.34292493632E+01  0.15300758344E+03  0.00000000000E+00 0.  1.
         22    1    3    3    0    0  0.29424452750E+02  0.15041219207E+00  0.76747385180E+02  0.82194781923E+02  0.00000000000E+00 0.  1.
</event>
<event>
 7    1  0.6386201E-006  0.1023184E+03  0.7818608E-02  0.1430619E+00
          2   -1    0    0  502    0  0.00000000000E+00  0.00000000000E+00  0.55925446352E+03  0.55925446352E+03  0.00000000000E+00 0. -1.
          1   -1    0    0  501    0 -0.00000000000E+00 -0.00000000000E+00 -0.40767667980E+03  0.40767667980E+03  0.00000000000E+00 0. -1.
         25    2    1    2    0    0 -0.69035733385E+02  0.31100468114E+02  0.34378123601E+03  0.37355488237E+03  0.12499816123E+03 0.  0.
          2    1    1    2  501    0  0.95191875479E+02 -0.38863378953E+02 -0.38508460042E+03  0.39857496768E+03  0.00000000000E+00 0. -1.
          1    1    1    2  502    0 -0.26156142094E+02  0.77629108391E+01  0.19288114813E+03  0.19480129326E+03  0.00000000000E+00 0. -1.
         22    1    3    3    0    0 -0.61492810397E+02 -0.39455064839E+01  0.55116249598E+02  0.82672448383E+02  0.00000000000E+00 0.  1.
         22    1    3    3    0    0 -0.75429229881E+01  0.35045974598E+02  0.28866498641E+03  0.29088243399E+03  0.00000000000E+00 0.  1.
</event>
<event>
 7    1  0.6386201E-006  0.3774998E+02  0.7818608E-02  0.1528822E+00
          2   -1    0    0  502    0  0.00000000000E+00  0.00000000000E+00  0.26269643508E+03  0.26269643508E+03  0.00000000000E+00 0. -1.
          1   -1    0    0  501    0 -0.00000000000E+00 -0.00000000000E+00 -0.13306158239E+04  0.13306158239E+04  0.00000000000E+00 0. -1.
         25    2    1    2    0    0 -0.94365013148E+01  0.38128209328E+02 -0.10403965783E+03  0.16730625767E+03  0.12499730218E+03 0.  0.
          2    1    1    2  501    0  0.35843474228E+02 -0.12330063762E+02 -0.11931654068E+04  0.11937673446E+04  0.00000000000E+00 0. -1.
          1    1    1    2  502    0 -0.26406972913E+02 -0.25798145567E+02  0.22928567580E+03  0.23223865669E+03  0.00000000000E+00 0. -1.
         22    1    3    3    0    0  0.32993475245E+02  0.14425062497E+02  0.14785003184E+02  0.38926188562E+02  0.00000000000E+00 0.  1.
         22    1    3    3    0    0 -0.42429976560E+02  0.23703146831E+02 -0.11882466101E+03  0.12838006911E+03  0.00000000000E+00 0.  1.
</event>
<event>
 7    1  0.6386201E-006  0.6962346E+02  0.7818608E-02  0.1463127E+00
          2   -1    0    0  502    0  0.00000000000E+00  0.00000000000E+00  0.24072429608E+02  0.24072429608E+02  0.00000000000E+00 0. -1.
          1   -1    0    0  501    0 -0.00000000000E+00 -0.00000000000E+00 -0.28748813858E+04  0.28748813858E+04  0.00000000000E+00 0. -1.
         25    2    1    2    0    0  0.50395860407E+02 -0.68862443560E+02 -0.80465133200E+03  0.81876025080E+03  0.12499121302E+03 0.  0.
          2    1    1    2  501    0 -0.31391717947E+02  0.28654012561E+01 -0.19932488527E+04  0.19934980911E+04  0.00000000000E+00 0. -1.
          1    1    1    2  502    0 -0.19004142460E+02  0.65997042304E+02 -0.52908771507E+02  0.86695473503E+02  0.00000000000E+00 0. -1.
         22    1    3    3    0    0 -0.88738114432E+01  0.57062692211E+01 -0.48747801163E+03  0.48759216346E+03  0.00000000000E+00 0. -1.
         22    1    3    3    0    0  0.59269671850E+02 -0.74568712782E+02 -0.31717332036E+03  0.33116808735E+03  0.00000000000E+00 0. -1.
</event>
<event>
 7    1  0.6612896E-006  0.1137042E+03  0.7818608E-02  0.1301142E+00
          2   -1    0    0  502    0  0.00000000000E+00  0.00000000000E+00  0.11765807962E+04  0.11765807962E+04  0.00000000000E+00 0. -1.
          1   -1    0    0  501    0 -0.00000000000E+00 -0.00000000000E+00 -0.13235549318E+04  0.13235549318E+04  0.00000000000E+00 0. -1.
         25    2    1    2    0    0 -0.19531907618E+02  0.15237400439E+03 -0.18989459649E+03  0.27437941676E+03  0.12499909573E+03 0.  0.
          2    1    1    2  501    0 -0.36029978878E+02 -0.10600950390E+03 -0.10873862607E+04  0.10931354236E+04  0.00000000000E+00 0. -1.
          1    1    1    2  502    0  0.55561886495E+02 -0.46364500491E+02  0.11303067217E+04  0.11326208877E+04  0.00000000000E+00 0. -1.
         22    1    3    3    0    0 -0.45879135364E+02  0.88575068956E+02 -0.36587909596E+02  0.10625023779E+03  0.00000000000E+00 0. -1.
         22    1    3    3    0    0  0.26347227746E+02  0.63798935438E+02 -0.15330668690E+03  0.16812917897E+03  0.00000000000E+00 0. -1.
</event>
<event>
 7    1  0.6386201E-006  0.9912921E+02  0.7818608E-02  0.1332492E+00
          2   -1    0    0  502    0  0.00000000000E+00  0.00000000000E+00  0.77261968745E+03  0.77261968745E+03  0.00000000000E+00 0. -1.
          1   -1    0    0  501    0 -0.00000000000E+00 -0.00000000000E+00 -0.15619748299E+03  0.15619748299E+03  0.00000000000E+00 0. -1.
         25    2    1    2    0    0  0.88594356622E+02 -0.11607461243E+02  0.19210138277E+03  0.24599041932E+03  0.12499860781E+03 0.  0.
          2    1    1    2  501    0 -0.87894880613E+02 -0.51028526904E+02 -0.10714611229E+03  0.14768110907E+03  0.00000000000E+00 0. -1.
          1    1    1    2  502    0 -0.69947600896E+00  0.62635988147E+02  0.53146693399E+03  0.53514564205E+03  0.00000000000E+00 0. -1.
         22    1    3    3    0    0  0.11496418143E+02 -0.44468745641E+02  0.13991614561E+03  0.14726223131E+03  0.00000000000E+00 0.  1.
         22    1    3    3    0    0  0.77097938479E+02  0.32861284398E+02  0.52185237160E+02  0.98728188009E+02  0.00000000000E+00 0.  1.
</event>
<event>
 7    1  0.6386201E-006  0.7209462E+02  0.7818608E-02  0.1452590E+00
          2   -1    0    0  502    0  0.00000000000E+00  0.00000000000E+00  0.81716536599E+02  0.81716536599E+02  0.00000000000E+00 0. -1.
          1   -1    0    0  501    0 -0.00000000000E+00 -0.00000000000E+00 -0.84546421093E+03  0.84546421093E+03  0.00000000000E+00 0. -1.
         25    2    1    2    0    0  0.88256604302E+02  0.16861505625E+02 -0.51439290111E+02  0.16230498620E+03  0.12499347744E+03 0.  0.
          2    1    1    2  501    0 -0.70838169338E+02  0.11014913336E+02 -0.72580865734E+03  0.72934051143E+03  0.00000000000E+00 0. -1.
          1    1    1    2  502    0 -0.17418434963E+02 -0.27876418961E+02  0.13500273120E+02  0.35535249893E+02  0.00000000000E+00 0. -1.
         22    1    3    3    0    0  0.78619796846E+02  0.47586076515E+02  0.10498318672E+02  0.92497144978E+02  0.00000000000E+00 0.  1.
         22    1    3    3    0    0  0.96368074560E+01 -0.30724570890E+02 -0.61937608782E+02  0.69807841221E+02  0.00000000000E+00 0.  1.
</event>
<event>
 7    1  0.6386201E-006  0.1529371E+03  0.7818608E-02  0.1303524E+00
          2   -1    0    0  502    0  0.00000000000E+00  0.00000000000E+00  0.86146305287E+03  0.86146305287E+03  0.00000000000E+00 0. -1.
          1   -1    0    0  501    0 -0.00000000000E+00 -0.00000000000E+00 -0.13722845791E+04  0.13722845791E+04  0.00000000000E+00 0. -1.
         25    2    1    2    0    0 -0.23335432798E+02  0.99257355039E+02  0.23306739633E+03  0.28344324568E+03  0.12499238911E+03 0.  0.
          2    1    1    2  501    0  0.24238409744E+02 -0.15188707069E+03 -0.13415457326E+04  0.13503340829E+04  0.00000000000E+00 0. -1.
          1    1    1    2  502    0 -0.90297694589E+00  0.52629715651E+02  0.59765681005E+03  0.59997030338E+03  0.00000000000E+00 0. -1.
         22    1    3    3    0    0 -0.33150003155E+02 -0.18685725084E+02  0.90357509092E+02  0.98043655992E+02  0.00000000000E+00 0. -1.
         22    1    3    3    0    0  0.98145703568E+01  0.11794308012E+03  0.14270988724E+03  0.18539958969E+03  0.00000000000E+00 0. -1.
</event>
<event>
 7    1  0.6386201E-006  0.2814657E+03  0.7818608E-02  0.1145537E+00
          2   -1    0    0  502    0  0.00000000000E+00  0.00000000000E+00  0.91877193323E+03  0.91877193323E+03  0.00000000000E+00 0. -1.
          1   -1    0    0  501    0 -0.00000000000E+00 -0.00000000000E+00 -0.35591388299E+03  0.35591388299E+03  0.00000000000E+00 0. -1.
         25    2    1    2    0    0  0.11426049493E+03  0.10954603296E+03 -0.72192025659E+02  0.21422693192E+03  0.12500278298E+03 0.  0.
          2    1    1    2  501    0  0.86065218892E+02  0.12211719508E+03 -0.15369455298E+03  0.21434049280E+03  0.00000000000E+00 0. -1.
          1    1    1    2  502    0 -0.20032571382E+03 -0.23166322804E+03  0.78874462887E+03  0.84611839149E+03  0.00000000000E+00 0. -1.
         22    1    3    3    0    0  0.59112102827E+02 -0.18029694647E+02 -0.31738480882E+02  0.69474036577E+02  0.00000000000E+00 0. -1.
         22    1    3    3    0    0  0.55148392104E+02  0.12757572761E+03 -0.40453544777E+02  0.14475289535E+03  0.00000000000E+00 0. -1.
</event>
<event>
 7    1  0.6386201E-006  0.5996182E+02  0.7818608E-02  0.1535769E+00
          2   -1    0    0  502    0  0.00000000000E+00  0.00000000000E+00  0.16179659926E+04  0.16179659926E+04  0.00000000000E+00 0. -1.
          1   -1    0    0  501    0 -0.00000000000E+00 -0.00000000000E+00 -0.32247081832E+03  0.32247081832E+03  0.00000000000E+00 0. -1.
         25    2    1    2    0    0  0.12151434917E+02  0.38343165093E+02  0.11750383343E+04  0.11823528225E+04  0.12500101629E+03 0.  0.
          2    1    1    2  501    0 -0.60840127322E+01 -0.59701977865E+02 -0.31570464915E+03  0.32135769303E+03  0.00000000000E+00 0. -1.
          1    1    1    2  502    0 -0.60674221853E+01  0.21358812773E+02  0.43616148913E+03  0.43672629540E+03  0.00000000000E+00 0. -1.
         22    1    3    3    0    0  0.20657927654E+02 -0.40062008564E+02  0.25609025209E+03  0.26002679039E+03  0.00000000000E+00 0.  1.
         22    1    3    3    0    0 -0.85064927364E+01  0.78405173656E+02  0.91894808222E+03  0.92232603210E+03  0.00000000000E+00 0.  1.
</event>
<event>
 7    1  0.6386201E-006  0.4088698E+02  0.7818608E-02  0.1539354E+00
          2   -1    0    0  502    0  0.00000000000E+00  0.00000000000E+00  0.30375242502E+04  0.30375242502E+04  0.00000000000E+00 0. -1.
          1   -1    0    0  501    0 -0.00000000000E+00 -0.00000000000E+00 -0.74199941057E+03  0.74199941057E+03  0.00000000000E+00 0. -1.
         25    2    1    2    0    0 -0.44979576490E+02 -0.10728921979E+02  0.11704691152E+04  0.11780309762E+04  0.12498303527E+03 0.  0.
          2    1    1    2  501    0  0.23052446207E+02  0.33772657135E+02 -0.73751634665E+03  0.73864901626E+03  0.00000000000E+00 0. -1.
          1    1    1    2  502    0  0.21927130283E+02 -0.23043735156E+02  0.18625720711E+04  0.18628436684E+04  0.00000000000E+00 0. -1.
         22    1    3    3    0    0  0.28484715557E+01 -0.44200249979E+02  0.16416599730E+03  0.17003602723E+03  0.00000000000E+00 0.  1.
         22    1    3    3    0    0 -0.47828048046E+02  0.33471328000E+02  0.10063031179E+04  0.10079949489E+04  0.00000000000E+00 0.  1.
</event>
<event>
 7    1  0.6386201E-006  0.2227664E+03  0.7818608E-02  0.1289800E+00
          2   -1    0    0  502    0  0.00000000000E+00  0.00000000000E+00  0.51488544439E+03  0.51488544439E+03  0.00000000000E+00 0. -1.
          1   -1    0    0  501    0 -0.00000000000E+00 -0.00000000000E+00 -0.59860356414E+03  0.59860356414E+03  0.00000000000E+00 0. -1.
         25    2    1    2    0    0 -0.13222894571E+02  0.21397089972E+03 -0.25604414522E+02  0.24947748239E+03  0.12500014924E+03 0.  0.
          2    1    1    2  501    0  0.39851791231E+02  0.97973108249E+01 -0.42849938467E+03  0.43046007391E+03  0.00000000000E+00 0. -1.
          1    1    1    2  502    0 -0.26628896659E+02 -0.22376821054E+03  0.37038567945E+03  0.43355145222E+03  0.00000000000E+00 0. -1.
         22    1    3    3    0    0 -0.36170838985E+02  0.89508592116E+02  0.42812931488E+02  0.10560807146E+03  0.00000000000E+00 0. -1.
         22    1    3    3    0    0  0.22947944413E+02  0.12446230760E+03 -0.68417346010E+02  0.14386941093E+03  0.00000000000E+00 0. -1.
</event>
<event>
 7    1  0.6386201E-006  0.9208336E+02  0.7818608E-02  0.1300256E+00
          2   -1    0    0  502    0  0.00000000000E+00  0.00000000000E+00  0.14258815058E+03  0.14258815058E+03  0.00000000000E+00 0. -1.
          1   -1    0    0  501    0 -0.00000000000E+00 -0.00000000000E+00 -0.12177956384E+04  0.12177956384E+04  0.00000000000E+00 0. -1.
         25    2    1    2    0    0  0.23220982656E+02 -0.95862511675E+02 -0.40121823357E+03  0.43166032317E+03  0.12500291384E+03 0.  0.
          2    1    1    2  501    0  0.64388416515E+02  0.63009159677E+02 -0.78122715062E+03  0.78640440186E+03  0.00000000000E+00 0. -1.
          1    1    1    2  502    0 -0.87609399171E+02  0.32853351998E+02  0.10723789635E+03  0.14231906399E+03  0.00000000000E+00 0. -1.
         22    1    3    3    0    0  0.17879469448E+02 -0.11493872969E+03 -0.39361252854E+03  0.41044050682E+03  0.00000000000E+00 0.  1.
         22    1    3    3    0    0  0.53415132079E+01  0.19076218013E+02 -0.76057050290E+01  0.21219816352E+02  0.00000000000E+00 0.  1.
</event>
<event>
 7    1  0.6386201E-006  0.5100653E+02  0.7818608E-02  0.1442949E+00
          2   -1    0    0  502    0  0.00000000000E+00  0.00000000000E+00  0.37707542708E+03  0.37707542708E+03  0.00000000000E+00 0. -1.
          1   -1    0    0  501    0 -0.00000000000E+00 -0.00000000000E+00 -0.10451940266E+04  0.10451940266E+04  0.00000000000E+00 0. -1.
         25    2    1    2    0    0  0.79385931259E+01  0.18850948678E+01  0.31092372897E+02  0.12906466919E+03  0.12499751332E+03 0.  0.
          2    1    1    2  501    0 -0.24608150605E+02  0.45140233319E+02 -0.99344310635E+03  0.99477254048E+03  0.00000000000E+00 0. -1.
          1    1    1    2  502    0  0.16669557479E+02 -0.47025328187E+02  0.29423213392E+03  0.29843224402E+03  0.00000000000E+00 0. -1.
         22    1    3    3    0    0  0.42657022049E+02  0.46328423188E+02 -0.32062124808E+01  0.63057308249E+02  0.00000000000E+00 0. -1.
         22    1    3    3    0    0 -0.34718428923E+02 -0.44443328320E+02  0.34298585378E+02  0.66007360938E+02  0.00000000000E+00 0. -1.
</event>
<event>
 7    1  0.6386201E-006  0.6864254E+02  0.7818608E-02  0.1414125E+00
          2   -1    0    0  502    0  0.00000000000E+00  0.00000000000E+00  0.15446818464E+04  0.15446818464E+04  0.00000000000E+00 0. -1.
          1   -1    0    0  501    0 -0.00000000000E+00 -0.00000000000E+00 -0.27448831236E+03  0.27448831236E+03  0.00000000000E+00 0. -1.
         25    2    1    2    0    0  0.65454486159E+02  0.90676239876E+02  0.72297360820E+02  0.18264388671E+03  0.12500164293E+03 0.  0.
          2    1    1    2  501    0 -0.45581508126E+02 -0.49024761960E+02 -0.21382112760E+03  0.22405484993E+03  0.00000000000E+00 0. -1.
          1    1    1    2  502    0 -0.19872978033E+02 -0.41651477916E+02  0.14117173008E+04  0.14124714221E+04  0.00000000000E+00 0. -1.
         22    1    3    3    0    0  0.49677626104E+02  0.77212853610E+02  0.10775504372E+03  0.14156567644E+03  0.00000000000E+00 0.  1.
         22    1    3    3    0    0  0.15776860055E+02  0.13463386266E+02 -0.35457682899E+02  0.41078210276E+02  0.00000000000E+00 0.  1.
</event>
<event>
 7    1  0.6386201E-006  0.1499041E+03  0.7818608E-02  0.1346878E+00
          2   -1    0    0  502    0  0.00000000000E+00  0.00000000000E+00  0.70709036463E+03  0.70709036463E+03  0.00000000000E+00 0. -1.
          1   -1    0    0  501    0 -0.00000000000E+00 -0.00000000000E+00 -0.95724931371E+03  0.95724931371E+03  0.00000000000E+00 0. -1.
         25    2    1    2    0    0  0.12864703367E+03 -0.87269695719E+02  0.35810349047E+03  0.40991380150E+03  0.12500062283E+03 0.  0.
          2    1    1    2  501    0 -0.14034260788E+03  0.52623647571E+02 -0.92425260652E+03  0.93632696027E+03  0.00000000000E+00 0. -1.
          1    1    1    2  502    0  0.11695574210E+02  0.34646048148E+02  0.31599016696E+03  0.31809891657E+03  0.00000000000E+00 0. -1.
         22    1    3    3    0    0  0.36036895016E+02 -0.94985754258E+02  0.23198485966E+03  0.25325466713E+03  0.00000000000E+00 0. -1.
         22    1    3    3    0    0  0.92610138657E+02  0.77160585392E+01  0.12611863081E+03  0.15665913436E+03  0.00000000000E+00 0. -1.
</event>
<event>
 7    1  0.6386201E-006  0.8096898E+02  0.7818608E-02  0.1331337E+00
          2   -1    0    0  502    0  0.00000000000E+00  0.00000000000E+00  0.20994590126E+04  0.20994590126E+04  0.00000000000E+00 0. -1.
          1   -1    0    0  501    0 -0.00000000000E+00 -0.00000000000E+00 -0.14682785652E+04  0.14682785652E+04  0.00000000000E+00 0. -1.
         25    2    1    2    0    0  0.15383493747E+03  0.33555806699E+02 -0.25732453378E+01  0.20103998329E+03  0.12497709046E+03 0.  0.
          2    1    1    2  501    0 -0.78730514398E+02 -0.14559756568E+02 -0.13645479441E+04  0.13668948651E+04  0.00000000000E+00 0. -1.
          1    1    1    2  502    0 -0.75104423071E+02 -0.18996050131E+02  0.19983016370E+04  0.19998027294E+04  0.00000000000E+00 0. -1.
         22    1    3    3    0    0  0.43651785272E+02  0.59984576287E+01  0.57589858140E+02  0.72512423846E+02  0.00000000000E+00 0.  1.
         22    1    3    3    0    0  0.11018315220E+03  0.27557349070E+02 -0.60163103478E+02  0.12852755944E+03  0.00000000000E+00 0.  1.
</event>
<event>
 7    1  0.6386201E-006  0.1361647E+03  0.7818608E-02  0.1367137E+00
          2   -1    0    0  502    0  0.00000000000E+00  0.00000000000E+00  0.14021135576E+03  0.14021135576E+03  0.00000000000E+00 0. -1.
          1   -1    0    0  501    0 -0.00000000000E+00 -0.00000000000E+00 -0.32408663850E+03  0.32408663850E+03  0.00000000000E+00 0. -1.
         25    2    1    2    0    0  0.13970964885E+03  0.49575133633E+02 -0.25275833904E+02  0.19553784046E+03  0.12497879586E+03 0.  0.
          2    1    1    2  501    0 -0.29420828798E+02  0.16898316927E+02 -0.13326894738E+03  0.13752000079E+03  0.00000000000E+00 0. -1.
          1    1    1    2  502    0 -0.11028882006E+03 -0.66473450560E+02 -0.25330501451E+02  0.13124015301E+03  0.00000000000E+00 0. -1.
         22    1    3    3    0    0  0.57597136422E+02 -0.22474534680E+02  0.34717342425E+02  0.70907183685E+02  0.00000000000E+00 0.  1.
         22    1    3    3    0    0  0.82112512433E+02  0.72049668313E+02 -0.59993176329E+02  0.12463065677E+03  0.00000000000E+00 0.  1.
</event>
<event>
 7    1  0.6386201E-006  0.2282945E+03  0.7818608E-02  0.1179169E+00
          2   -1    0    0  502    0  0.00000000000E+00  0.00000000000E+00  0.56469189998E+03  0.56469189998E+03  0.00000000000E+00 0. -1.
          1   -1    0    0  501    0 -0.00000000000E+00 -0.00000000000E+00 -0.53706841725E+03  0.53706841725E+03  0.00000000000E+00 0. -1.
         25    2    1    2    0    0 -0.12835588358E+03 -0.15269936659E+03 -0.79528367298E+02  0.24847354572E+03  0.12498804867E+03 0.  0.
          2    1    1    2  501    0  0.47952883832E+02  0.24804297416E+03 -0.32033963632E+03  0.40797337988E+03  0.00000000000E+00 0. -1.
          1    1    1    2  502    0  0.80402999743E+02 -0.95343607573E+02  0.42749148634E+03  0.44531339163E+03  0.00000000000E+00 0. -1.
         22    1    3    3    0    0 -0.44200596969E+02 -0.30406343082E+02 -0.84325433923E+02  0.99945071306E+02  0.00000000000E+00 0.  1.
         22    1    3    3    0    0 -0.84155286607E+02 -0.12229302351E+03  0.47970666257E+01  0.14852847441E+03  0.00000000000E+00 0.  1.
</event>
<event>
 7    1  0.7167079E-006  0.5038947E+02  0.7818608E-02  0.1458163E+00
          2   -1    0    0  502    0  0.00000000000E+00  0.00000000000E+00  0.98821633963E+03  0.98821633963E+03  0.00000000000E+00 0. -1.
          1   -1    0    0  501    0 -0.00000000000E+00 -0.00000000000E+00 -0.77873024168E+03  0.77873024168E+03  0.00000000000E+00 0. -1.
         25    2    1    2    0    0  0.81354556721E+02  0.24465805116E+02 -0.39528968371E+03  0.42319601103E+03  0.12499516064E+03 0.  0.
          2    1    1    2  501    0 -0.46991709473E+02  0.48243555849E+01 -0.36745143449E+03  0.37047544032E+03  0.00000000000E+00 0. -1.
          1    1    1    2  502    0 -0.34362847248E+02 -0.29290160700E+02  0.97222721615E+03  0.97327512996E+03  0.00000000000E+00 0. -1.
         22    1    3    3    0    0 -0.52577969519E+00  0.19687180077E+02 -0.21303654903E+00  0.19695351945E+02  0.00000000000E+00 0. -1.
         22    1    3    3    0    0  0.81880336416E+02  0.47786250385E+01 -0.39507664716E+03  0.40350065908E+03  0.00000000000E+00 0. -1.
</event>
<event>
 7    1  0.6386201E-006  0.1700941E+03  0.7818608E-02  0.1315926E+00
          2   -1    0    0  502    0  0.00000000000E+00  0.00000000000E+00  0.38111440024E+03  0.38111440024E+03  0.00000000000E+00 0. -1.
          1   -1    0    0  501    0 -0.00000000000E+00 -0.00000000000E+00 -0.16074024313E+04  0.16074024313E+04  0.00000000000E+00 0. -1.
         25    2    1    2    0    0  0.14925773470E+03 -0.10346964644E+03 -0.40541824886E+03  0.46150158501E+03  0.12504366180E+03 0.  0.
          2    1    1    2  501    0 -0.35674927482E+02 -0.22706691050E+02 -0.11531248739E+04  0.11539000256E+04  0.00000000000E+00 0. -1.
          1    1    1    2  502    0 -0.11358280722E+03  0.12617633749E+03  0.33225509162E+03  0.37311522101E+03  0.00000000000E+00 0. -1.
         22    1    3    3    0    0 -0.72138413881E+01 -0.24058968188E+02 -0.68755296434E+01  0.26041243552E+02  0.00000000000E+00 0.  1.
         22    1    3    3    0    0  0.15647157609E+03 -0.79410678254E+02 -0.39854271921E+03  0.43546034146E+03  0.00000000000E+00 0.  1.
</event>
<event>
 7    1  0.6386201E-006  0.6704773E+02  0.7818608E-02  0.1431382E+00
          2   -1    0    0  502    0  0.00000000000E+00  0.00000000000E+00  0.98977389703E+03  0.98977389703E+03  0.00000000000E+00 0. -1.
          1   -1    0    0  501    0 -0.00000000000E+00 -0.00000000000E+00 -0.14767089056E+03  0.14767089056E+03  0.00000000000E+00 0. -1.
         25    2    1    2    0    0  0.10126009086E+03 -0.34270508107E+02  0.39081944536E+03  0.42402177414E+03  0.12500620923E+03 0.  0.
          2    1    1    2  501    0 -0.60524805607E+02  0.26900377161E+02 -0.12190788218E+03  0.13873865403E+03  0.00000000000E+00 0. -1.
          1    1    1    2  502    0 -0.40735285250E+02  0.73701309462E+01  0.57319144328E+03  0.57468435941E+03  0.00000000000E+00 0. -1.
         22    1    3    3    0    0  0.11507768996E+03 -0.62457570115E+02  0.28487554773E+03  0.31352495991E+03  0.00000000000E+00 0.  1.
         22    1    3    3    0    0 -0.13817599105E+02  0.28187062008E+02  0.10594389763E+03  0.11049681423E+03  0.00000000000E+00 0.  1.
</event>
<event>
 7    1  0.6386201E-006  0.4369831E+02  0.7818608E-02  0.1505152E+00
          2   -1    0    0  502    0  0.00000000000E+00  0.00000000000E+00  0.92513275873E+03  0.92513275873E+03  0.00000000000E+00 0. -1.
          1   -1    0    0  501    0 -0.00000000000E+00 -0.00000000000E+00 -0.96186496870E+03  0.96186496870E+03  0.00000000000E+00 0. -1.
         25    2    1    2    0    0 -0.40298687107E+01 -0.43587158297E+00  0.60683662802E+03  0.61959033537E+03  0.12500024297E+03 0.  0.
          2    1    1    2  501    0 -0.29480948206E+02 -0.32255477943E+02 -0.95322812139E+03  0.95422921438E+03  0.00000000000E+00 0. -1.
          1    1    1    2  502    0  0.33510816916E+02  0.32691349526E+02  0.30965928339E+03  0.31317817768E+03  0.00000000000E+00 0. -1.
         22    1    3    3    0    0 -0.56966063290E+02 -0.29818113380E+02  0.33103301323E+03  0.33721967336E+03  0.00000000000E+00 0. -1.
         22    1    3    3    0    0  0.52936194580E+02  0.29382241797E+02  0.27580361479E+03  0.28237066201E+03  0.00000000000E+00 0. -1.
</event>
<event>
 7    1  0.6386201E-006  0.9087274E+02  0.7818608E-02  0.1366385E+00
          2   -1    0    0  502    0  0.00000000000E+00  0.00000000000E+00  0.89350322292E+03  0.89350322292E+03  0.00000000000E+00 0. -1.
          1   -1    0    0  501    0 -0.00000000000E+00 -0.00000000000E+00 -0.12206640579E+04  0.12206640579E+04  0.00000000000E+00 0. -1.
         25    2    1    2    0    0 -0.11296291342E+03 -0.57167420194E+02 -0.62836579386E+03  0.65306744051E+03  0.12499910890E+03 0.  0.
          2    1    1    2  501    0  0.61835390626E+02  0.55409243879E+02 -0.57622684124E+03  0.58217795596E+03  0.00000000000E+00 0. -1.
          1    1    1    2  502    0  0.51127522795E+02  0.17581763148E+01  0.87743180016E+03  0.87892188430E+03  0.00000000000E+00 0. -1.
         22    1    3    3    0    0 -0.34700065837E+02 -0.26997469104E+02 -0.42233634422E+02  0.60964233642E+02  0.00000000000E+00 0. -1.
         22    1    3    3    0    0 -0.78262847584E+02 -0.30169951090E+02 -0.58613215944E+03  0.59210320687E+03  0.00000000000E+00 0. -1.
</event>
<event>
 7    1  0.6386201E-006  0.1078589E+03  0.7818608E-02  0.1440796E+00
          2   -1    0    0  502    0  0.00000000000E+00  0.00000000000E+00  0.15388565613E+04  0.15388565613E+04  0.00000000000E+00 0. -1.
          1   -1    0    0  501    0 -0.00000000000E+00 -0.00000000000E+00 -0.36402678976E+03  0.36402678976E+03  0.00000000000E+00 0. -1.
         25    2    1    2    0    0 -0.61252710953E+02  0.11128117769E+03 -0.91987822362E+02  0.20055873460E+03  0.12500660565E+03 0.  0.
          2    1    1    2  501    0  0.46097318803E+02 -0.92703084939E+02 -0.20534423745E+03  0.22996756426E+03  0.00000000000E+00 0. -1.
          1    1    1    2  502    0  0.15155392149E+02 -0.18578092747E+02  0.14721618314E+04  0.14723570522E+04  0.00000000000E+00 0. -1.
         22    1    3    3    0    0 -0.33515069341E+02  0.13608578349E+03 -0.64418378264E+02  0.15424761845E+03  0.00000000000E+00 0.  1.
         22    1    3    3    0    0 -0.27737641612E+02 -0.24804605801E+02 -0.27569444098E+02  0.46311116150E+02  0.00000000000E+00 0.  1.
</event>
<event>
 7    1  0.6386201E-006  0.5515224E+02  0.7818608E-02  0.1516572E+00
          2   -1    0    0  502    0  0.00000000000E+00  0.00000000000E+00  0.62257127902E+03  0.62257127902E+03  0.00000000000E+00 0. -1.
          1   -1    0    0  501    0 -0.00000000000E+00 -0.00000000000E+00 -0.10399648744E+03  0.10399648744E+03  0.00000000000E+00 0. -1.
         25    2    1    2    0    0  0.28520098904E+02  0.12493811831E+02  0.14849568471E+02  0.12967416091E+03  0.12500154778E+03 0.  0.
          2    1    1    2  501    0  0.26834763440E+02 -0.56226811748E+01 -0.40998530833E+02  0.49321380789E+02  0.00000000000E+00 0. -1.
          1    1    1    2  502    0 -0.55354862344E+02 -0.68711306565E+01  0.54472375395E+03  0.54757222477E+03  0.00000000000E+00 0. -1.
         22    1    3    3    0    0  0.17693279335E+02  0.38555819053E+02 -0.46014559701E+02  0.62585485705E+02  0.00000000000E+00 0. -1.
         22    1    3    3    0    0  0.10826819569E+02 -0.26062007222E+02  0.60864128172E+02  0.67088675203E+02  0.00000000000E+00 0. -1.
</event>
<event>
 7    1  0.6386201E-006  0.1378045E+03  0.7818608E-02  0.1265991E+00
          2   -1    0    0  502    0  0.00000000000E+00  0.00000000000E+00  0.16227037940E+04  0.16227037940E+04  0.00000000000E+00 0. -1.
          1   -1    0    0  501    0 -0.00000000000E+00 -0.00000000000E+00 -0.54842902996E+03  0.54842902996E+03  0.00000000000E+00 0. -1.
         25    2    1    2    0    0  0.65763406012E+02 -0.57327587792E+02  0.36625958504E+02  0.15677393437E+03  0.12500131107E+03 0.  0.
          2    1    1    2  501    0  0.74197506878E+02  0.37805652515E+02 -0.48150177228E+03  0.48864966397E+03  0.00000000000E+00 0. -1.
          1    1    1    2  502    0 -0.13996091289E+03  0.19521935277E+02  0.15191505778E+04  0.15257092257E+04  0.00000000000E+00 0. -1.
         22    1    3    3    0    0  0.99274204544E+01 -0.87220841882E+02  0.31373714477E+02  0.93221987190E+02  0.00000000000E+00 0. -1.
         22    1    3    3    0    0  0.55835985558E+02  0.29893254090E+02  0.52522440268E+01  0.63551947182E+02  0.00000000000E+00 0. -1.
</event>
<event>
 7    1  0.6386201E-006  0.4547135E+03  0.7818608E-02  0.1170286E+00
          2   -1    0    0  502    0  0.00000000000E+00  0.00000000000E+00  0.28997394068E+04  0.28997394068E+04  0.00000000000E+00 0. -1.
          1   -1    0    0  501    0 -0.00000000000E+00 -0.00000000000E+00 -0.15087973632E+04  0.15087973632E+04  0.00000000000E+00 0. -1.
         25    2    1    2    0    0 -0.15482319684E+03 -0.36506134889E+03  0.55969149413E+02  0.41951951433E+03  0.12499626588E+03 0.  0.
          2    1    1    2  501    0  0.19358038812E+03  0.42245636861E+03 -0.12858688888E+04  0.13672606004E+04  0.00000000000E+00 0. -1.
          1    1    1    2  502    0 -0.38757191284E+02 -0.57395019714E+02  0.26208417830E+04  0.26217566553E+04  0.00000000000E+00 0. -1.
         22    1    3    3    0    0 -0.31935367760E+02 -0.20606460412E+03  0.64839223243E+02  0.21837264860E+03  0.00000000000E+00 0. -1.
         22    1    3    3    0    0 -0.12288782908E+03 -0.15899674478E+03 -0.88700738300E+01  0.20114686573E+03  0.00000000000E+00 0. -1.
</event>
<event>
 7    1  0.6386201E-006  0.5699116E+02  0.7818608E-02  0.1445082E+00
          2   -1    0    0  502    0  0.00000000000E+00  0.00000000000E+00  0.31424943879E+03  0.31424943879E+03  0.00000000000E+00 0. -1.
          1   -1    0    0  501    0 -0.00000000000E+00 -0.00000000000E+00 -0.79780950983E+03  0.79780950983E+03  0.00000000000E+00 0. -1.
         25    2    1    2    0    0 -0.58893919946E+02  0.73970839473E+02 -0.26341166716E+03  0.30651159637E+03  0.12499389352E+03 0.  0.
          2    1    1    2  501    0  0.11891898596E+02 -0.42311588970E+02 -0.50914924991E+03  0.51104270516E+03  0.00000000000E+00 0. -1.
          1    1    1    2  502    0  0.47002021350E+02 -0.31659250503E+02  0.28900084602E+03  0.29450464709E+03  0.00000000000E+00 0. -1.
         22    1    3    3    0    0 -0.58389115337E+02  0.62914773953E+02 -0.27641535520E+03  0.28943566843E+03  0.00000000000E+00 0. -1.
         22    1    3    3    0    0 -0.50480460911E+00  0.11056065520E+02  0.13003688040E+02  0.17075927943E+02  0.00000000000E+00 0. -1.
</event>
<event>
 7    1  0.6386201E-006  0.5156667E+02  0.7818608E-02  0.1483716E+00
          2   -1    0    0  502    0  0.00000000000E+00  0.00000000000E+00  0.21888161245E+04  0.21888161245E+04  0.00000000000E+00 0. -1.
          1   -1    0    0  501    0 -0.00000000000E+00 -0.00000000000E+00 -0.29056542647E+02  0.29056542647E+02  0.00000000000E+00 0. -1.
         25    2    1    2    0    0 -0.25140533115E+02 -0.83392320575E+02  0.16448296544E+04  0.16518704746E+04  0.12500058880E+03 0.  0.
          2    1    1    2  501    0  0.95671462443E+01  0.50105119069E+02  0.12667518220E+01  0.51026051232E+02  0.00000000000E+00 0. -1.
          1    1    1    2  502    0  0.15573386870E+02  0.33287201506E+02  0.51366317565E+03  0.51497614137E+03  0.00000000000E+00 0. -1.
         22    1    3    3    0    0  0.43107328938E+02 -0.82381554369E+01  0.75375705451E+03  0.75503364577E+03  0.00000000000E+00 0.  1.
         22    1    3    3    0    0 -0.68247862053E+02 -0.75154165138E+02  0.89107259988E+03  0.89683682879E+03  0.00000000000E+00 0.  1.
</event>
<event>
 7    1  0.6386201E-006  0.2763384E+02  0.7818608E-02  0.1644964E+00
          2   -1    0    0  502    0  0.00000000000E+00  0.00000000000E+00  0.15741911068E+04  0.15741911068E+04  0.00000000000E+00 0. -1.
          1   -1    0    0  501    0 -0.00000000000E+00 -0.00000000000E+00 -0.65736937208E+01  0.65736937208E+01  0.00000000000E+00 0. -1.
         25    2    1    2    0    0 -0.24169245360E+02 -0.36963187778E+02  0.98229505999E+03  0.99120177358E+03  0.12500776539E+03 0.  0.
          2    1    1    2  501    0  0.40270852474E+00  0.24749474650E+02  0.85082221862E+02  0.88609723770E+02  0.00000000000E+00 0. -1.
          1    1    1    2  502    0  0.23766536835E+02  0.12213713128E+02  0.50024013123E+03  0.50095330317E+03  0.00000000000E+00 0. -1.
         22    1    3    3    0    0  0.30260274612E+01 -0.33357300461E+02  0.94117355969E+03  0.94176936444E+03  0.00000000000E+00 0. -1.
         22    1    3    3    0    0 -0.27195272821E+02 -0.36058873167E+01  0.41121500299E+02  0.49432409147E+02  0.00000000000E+00 0. -1.
</event>
<event>
 7    1  0.6386201E-006  0.6499812E+02  0.7818608E-02  0.1427739E+00
          2   -1    0    0  502    0  0.00000000000E+00  0.00000000000E+00  0.61636406648E+03  0.61636406648E+03  0.00000000000E+00 0. -1.
          1   -1    0    0  501    0 -0.00000000000E+00 -0.00000000000E+00 -0.22127003729E+03  0.22127003729E+03  0.00000000000E+00 0. -1.
         25    2    1    2    0    0  0.10349054128E+03  0.11045351259E+02 -0.68900347579E+02  0.17664810880E+03  0.12500001811E+03 0.  0.
          2    1    1    2  501    0 -0.39544698250E+02 -0.19060745141E+02 -0.91647765215E+02  0.10161893541E+03  0.00000000000E+00 0. -1.
          1    1    1    2  502    0 -0.63945843033E+02  0.80153938815E+01  0.55564214198E+03  0.55936705956E+03  0.00000000000E+00 0. -1.
         22    1    3    3    0    0  0.98205928778E+02 -0.13024455683E+02  0.45537559209E+01  0.99170447140E+02  0.00000000000E+00 0. -1.
         22    1    3    3    0    0  0.52846125050E+01  0.24069806943E+02 -0.73454103500E+02  0.77477661662E+02  0.00000000000E+00 0. -1.
</event>
<event>
 7    1  0.6386201E-006  0.8499755E+02  0.7818608E-02  0.1337574E+00
          2   -1    0    0  502    0  0.00000000000E+00  0.00000000000E+00  0.63227478773E+03  0.63227478773E+03  0.00000000000E+00 0. -1.
          1   -1    0    0  501    0 -0.00000000000E+00 -0.00000000000E+00 -0.74211450834E+02  0.74211450834E+02  0.00000000000E+00 0. -1.
         25    2    1    2    0    0  0.51144255993E+02 -0.80101957378E+02  0.14377842315E+03  0.21290662760E+03  0.12499975446E+03 0.  0.
          2    1    1    2  501    0  0.33684764122E+02  0.61230575616E+02 -0.40106339132E+00  0.69885675042E+02  0.00000000000E+00 0. -1.
          1    1    1    2  502    0 -0.84829020115E+02  0.18871381762E+02  0.41468597713E+03  0.42369393592E+03  0.00000000000E+00 0. -1.
         22    1    3    3    0    0 -0.11674621122E+02 -0.87696277158E+02  0.11005218572E+03  0.14120346096E+03  0.00000000000E+00 0. -1.
         22    1    3    3    0    0  0.62818877115E+02  0.75943197800E+01  0.33726237435E+02  0.71703166642E+02  0.00000000000E+00 0. -1.
</event>
<event>
 7    1  0.6386201E-006  0.5351402E+02  0.7818608E-02  0.1556564E+00
          2   -1    0    0  502    0  0.00000000000E+00  0.00000000000E+00  0.15485153539E+03  0.15485153539E+03  0.00000000000E+00 0. -1.
          1   -1    0    0  501    0 -0.00000000000E+00 -0.00000000000E+00 -0.48761243181E+03  0.48761243181E+03  0.00000000000E+00 0. -1.
         25    2    1    2    0    0  0.49654202855E+02 -0.23908426945E+02  0.64199022907E+01  0.13674962282E+03  0.12498836528E+03 0.  0.
          2    1    1    2  501    0  0.41039160718E+01  0.21362962106E+02 -0.41343546209E+03  0.41400736659E+03  0.00000000000E+00 0. -1.
          1    1    1    2  502    0 -0.53758118927E+02  0.25454648385E+01  0.74254663383E+02  0.91706977793E+02  0.00000000000E+00 0. -1.
         22    1    3    3    0    0  0.73739464603E+02 -0.11062405799E+01  0.44592223462E+02  0.86181197494E+02  0.00000000000E+00 0. -1.
         22    1    3    3    0    0 -0.24085261748E+02 -0.22802186365E+02 -0.38172321171E+02  0.50568425327E+02  0.00000000000E+00 0. -1.
</event>
<event>
 7    1  0.6386201E-006  0.2433460E+03  0.7818608E-02  0.1204678E+00
          2   -1    0    0  502    0  0.00000000000E+00  0.00000000000E+00  0.18402555915E+03  0.18402555915E+03  0.00000000000E+00 0. -1.
          1   -1    0    0  501    0 -0.00000000000E+00 -0.00000000000E+00 -0.12403881166E+04  0.12403881166E+04  0.00000000000E+00 0. -1.
         25    2    1    2    0    0  0.16643364428E+02 -0.30324534280E+03 -0.65534754882E+03  0.73303568267E+03  0.12500465117E+03 0.  0.
          2    1    1    2  501    0  0.45192462766E+02  0.75918475276E+02 -0.44330667530E+03  0.45202520057E+03  0.00000000000E+00 0. -1.
          1    1    1    2  502    0 -0.61835827194E+02  0.22732686752E+03  0.42291666657E+02  0.23935279253E+03  0.00000000000E+00 0. -1.
         22    1    3    3    0    0 -0.15616463731E+02 -0.24895913018E+03 -0.59716051782E+03  0.64716706227E+03  0.00000000000E+00 0.  1.
         22    1    3    3    0    0  0.32259828159E+02 -0.54286212616E+02 -0.58187031000E+02  0.85868620402E+02  0.00000000000E+00 0.  1.
</event>
<event>
 7    1  0.6386201E-006  0.9373368E+02  0.7818608E-02  0.1369205E+00
          2   -1    0    0  502    0  0.00000000000E+00  0.00000000000E+00  0.14380539582E+03  0.14380539582E+03  0.00000000000E+00 0. -1.
          1   -1    0    0  501    0 -0.00000000000E+00 -0.00000000000E+00 -0.80623628147E+03  0.80623628147E+03  0.00000000000E+00 0. -1.
         25    2    1    2    0    0  0.64567550722E+02  0.63380299760E+02 -0.45642663909E+02  0.16091745473E+03  0.12500057385E+03 0.  0.
          2    1    1    2  501    0 -0.24921412534E+02 -0.91226682448E+02 -0.69266943261E+03  0.69909536350E+03  0.00000000000E+00 0. -1.
          1    1    1    2  502    0 -0.39646138187E+02  0.27846382688E+02  0.75881210868E+02  0.90028859066E+02  0.00000000000E+00 0. -1.
         22    1    3    3    0    0  0.38834433870E+02  0.96959711741E+02 -0.54324081313E+02  0.11773022027E+03  0.00000000000E+00 0.  1.
         22    1    3    3    0    0  0.25733116852E+02 -0.33579411980E+02  0.86814174040E+01  0.43187234456E+02  0.00000000000E+00 0.  1.
</event>
<event>
 7    1  0.6386201E-006  0.6497241E+02  0.7818608E-02  0.1436576E+00
          2   -1    0    0  502    0  0.00000000000E+00  0.00000000000E+00  0.14414864795E+04  0.14414864795E+04  0.00000000000E+00 0. -1.
          1   -1    0    0  501    0 -0.00000000000E+00 -0.00000000000E+00 -0.16018614960E+03  0.16018614960E+03  0.00000000000E+00 0. -1.
         25    2    1    2    0    0  0.48140216174E+02 -0.46969201356E+02  0.76729226541E+02  0.16134935334E+03  0.12499061296E+03 0.  0.
          2    1    1    2  501    0 -0.37264447506E+02 -0.17287261153E+02 -0.11346743362E+03  0.12067454967E+03  0.00000000000E+00 0. -1.
          1    1    1    2  502    0 -0.10875768668E+02  0.64256462509E+02  0.13180385370E+04  0.13196487261E+04  0.00000000000E+00 0. -1.
         22    1    3    3    0    0  0.70453769748E+02 -0.32748700842E+02  0.99639295704E+02  0.12634951653E+03  0.00000000000E+00 0.  1.
         22    1    3    3    0    0 -0.22313553574E+02 -0.14220500514E+02 -0.22910069163E+02  0.34999836814E+02  0.00000000000E+00 0.  1.
</event>
<event>
 7    1  0.6386201E-006  0.1630880E+03  0.7818608E-02  0.1236004E+00
          2   -1    0    0  502    0  0.00000000000E+00  0.00000000000E+00  0.82297825243E+03  0.82297825243E+03  0.00000000000E+00 0. -1.
          1   -1    0    0  501    0 -0.00000000000E+00 -0.00000000000E+00 -0.18008256121E+03  0.18008256121E+03  0.00000000000E+00 0. -1.
         25    2    1    2    0    0 -0.12816040637E+03 -0.73491662119E+02  0.91705710069E+02  0.21415039699E+03  0.12499736441E+03 0.  0.
          2    1    1    2  501    0  0.52914097484E+02 -0.78773335662E+02 -0.86857532862E+02  0.12864435914E+03  0.00000000000E+00 0. -1.
          1    1    1    2  502    0  0.75246308884E+02  0.15226499778E+03  0.63804751402E+03  0.66026605751E+03  0.00000000000E+00 0. -1.
         22    1    3    3    0    0 -0.85266051200E+02 -0.10632880287E+03  0.82593465395E+02  0.15936685456E+03  0.00000000000E+00 0. -1.
         22    1    3    3    0    0 -0.42894355167E+02  0.32837140751E+02  0.91122446746E+01  0.54783542428E+02  0.00000000000E+00 0. -1.
</event>
<event>
 7    1  0.6386201E-006  0.3200948E+02  0.7818608E-02  0.1589875E+00
          2   -1    0    0  502    0  0.00000000000E+00  0.00000000000E+00  0.92539386125E+03  0.92539386125E+03  0.00000000000E+00 0. -1.
          1   -1    0    0  501    0 -0.00000000000E+00 -0.00000000000E+00 -0.86275528882E+02  0.86275528882E+02  0.00000000000E+00 0. -1.
         25    2    1    2    0    0  0.59271930184E+01  0.24821104856E+02  0.18072557096E+03  0.22121678714E+03  0.12499566413E+03 0.  0.
          2    1    1    2  501    0 -0.31041252300E+02 -0.92445843648E+01 -0.61736778482E+02  0.69716938414E+02  0.00000000000E+00 0. -1.
          1    1    1    2  502    0  0.25114059282E+02 -0.15576520491E+02  0.72012953989E+03  0.72073566458E+03  0.00000000000E+00 0. -1.
         22    1    3    3    0    0 -0.19961803382E+02  0.93540549081E+00 -0.13309580461E+02  0.24010279251E+02  0.00000000000E+00 0. -1.
         22    1    3    3    0    0  0.25888996400E+02  0.23885699365E+02  0.19403515142E+03  0.19720650789E+03  0.00000000000E+00 0. -1.
</event>
<event>
 7    1  0.8241133E-006  0.8393122E+02  0.7818608E-02  0.1378449E+00
          2   -1    0    0  502    0  0.00000000000E+00  0.00000000000E+00  0.11793839019E+04  0.11793839019E+04  0.00000000000E+00 0. -1.
          1   -1    0    0  501    0 -0.00000000000E+00 -0.00000000000E+00 -0.55428123409E+03  0.55428123409E+03  0.00000000000E+00 0. -1.
         25    2    1    2    0    0  0.48128910280E+02 -0.28654484223E+02 -0.39012339762E+02  0.14242442729E+03  0.12500113345E+03 0.  0.
          2    1    1    2  501    0 -0.13175805290E+02 -0.48380588900E+02 -0.46061384295E+03  0.46333507912E+03  0.00000000000E+00 0. -1.
          1    1    1    2  502    0 -0.34953104990E+02  0.77035073123E+02  0.11247288505E+04  0.11279056296E+04  0.00000000000E+00 0. -1.
         22    1    3    3    0    0 -0.42795715881E+02 -0.58380584750E+01 -0.13937550434E+02  0.45385146652E+02  0.00000000000E+00 0. -1.
         22    1    3    3    0    0  0.90924626162E+02 -0.22816425748E+02 -0.25074789328E+02  0.97039280636E+02  0.00000000000E+00 0. -1.
</event>
<event>
 7    1  0.6386201E-006  0.1203834E+03  0.7818608E-02  0.1294282E+00
          2   -1    0    0  502    0  0.00000000000E+00  0.00000000000E+00  0.12793101985E+04  0.12793101985E+04  0.00000000000E+00 0. -1.
          1   -1    0    0  501    0 -0.00000000000E+00 -0.00000000000E+00 -0.10505058881E+03  0.10505058881E+03  0.00000000000E+00 0. -1.
         25    2    1    2    0    0  0.46798764035E+02  0.22347009597E+02  0.30170793043E+02  0.13865427503E+03  0.12500087231E+03 0.  0.
          2    1    1    2  501    0  0.68065516089E+02  0.25905352925E+02 -0.19558089286E+02  0.75409022319E+02  0.00000000000E+00 0. -1.
          1    1    1    2  502    0 -0.11486428012E+03 -0.48252362521E+02  0.11636469060E+04  0.11702974900E+04  0.00000000000E+00 0. -1.
         22    1    3    3    0    0  0.52385196624E+02  0.15988712533E+02 -0.40096462978E+02  0.67879113851E+02  0.00000000000E+00 0. -1.
         22    1    3    3    0    0 -0.55864325891E+01  0.63582970637E+01  0.70267256022E+02  0.70775161176E+02  0.00000000000E+00 0. -1.
</event>
<event>
 7    1  0.6386201E-006  0.5334087E+02  0.7818608E-02  0.1508158E+00
          2   -1    0    0  502    0  0.00000000000E+00  0.00000000000E+00  0.35267453557E+03  0.35267453557E+03  0.00000000000E+00 0. -1.
          1   -1    0    0  501    0 -0.00000000000E+00 -0.00000000000E+00 -0.51231864676E+03  0.51231864676E+03  0.00000000000E+00 0. -1.
         25    2    1    2    0    0  0.55454079263E+02 -0.18808465859E+02 -0.14885277907E+03  0.20300678860E+03  0.12500277232E+03 0.  0.
          2    1    1    2  501    0 -0.34851874918E+02  0.40624770850E+02 -0.33355929181E+03  0.33782662172E+03  0.00000000000E+00 0. -1.
          1    1    1    2  502    0 -0.20602204346E+02 -0.21816304991E+02  0.32276795969E+03  0.32415977201E+03  0.00000000000E+00 0. -1.
         22    1    3    3    0    0 -0.31016749427E+02 -0.38111533565E+02 -0.59620709040E+02  0.77260317643E+02  0.00000000000E+00 0. -1.
         22    1    3    3    0    0  0.86470828691E+02  0.19303067707E+02 -0.89232070030E+02  0.12574647096E+03  0.00000000000E+00 0. -1.
</event>
<event>
 7    1  0.6386201E-006  0.5758731E+02  0.7818608E-02  0.1523448E+00
          2   -1    0    0  502    0  0.00000000000E+00  0.00000000000E+00  0.85007245263E+03  0.85007245263E+03  0.00000000000E+00 0. -1.
          1   -1    0    0  501    0 -0.00000000000E+00 -0.00000000000E+00 -0.43305231900E+03  0.43305231900E+03  0.00000000000E+00 0. -1.
         25    2    1    2    0    0 -0.34526170471E+02 -0.67695374975E+02 -0.10686371292E+03  0.18116005574E+03  0.12499756965E+03 0.  0.
          2    1    1    2  501    0  0.12984709041E+02  0.54854692533E+02 -0.28609608040E+03  0.29159665152E+03  0.00000000000E+00 0. -1.
          1    1    1    2  502    0  0.21541461431E+02  0.12840682442E+02  0.80997992694E+03  0.81036806436E+03  0.00000000000E+00 0. -1.
         22    1    3    3    0    0 -0.38451456232E+02 -0.10263271996E+03 -0.91579142094E+02  0.14282411897E+03  0.00000000000E+00 0. -1.
         22    1    3    3    0    0  0.39252857607E+01  0.34937344986E+02 -0.15284570826E+02  0.38335936774E+02  0.00000000000E+00 0. -1.
</event>
<event>
 7    1  0.6386201E-006  0.4583017E+02  0.7818608E-02  0.1548849E+00
          2   -1    0    0  502    0  0.00000000000E+00  0.00000000000E+00  0.47368794464E+03  0.47368794464E+03  0.00000000000E+00 0. -1.
          1   -1    0    0  501    0 -0.00000000000E+00 -0.00000000000E+00 -0.84260165497E+03  0.84260165497E+03  0.00000000000E+00 0. -1.
         25    2    1    2    0    0 -0.56361951844E+02  0.26615692355E+02  0.12504888059E+03  0.18747604229E+03  0.12499991680E+03 0.  0.
          2    1    1    2  501    0  0.11223375288E+02 -0.24211670934E+02 -0.80955784103E+03  0.80999757230E+03  0.00000000000E+00 0. -1.
          1    1    1    2  502    0  0.45138576556E+02 -0.24040214205E+01  0.31559525011E+03  0.31881598502E+03  0.00000000000E+00 0. -1.
         22    1    3    3    0    0  0.18701545187E+02  0.55291872975E+02  0.63555621350E+02  0.86291691458E+02  0.00000000000E+00 0. -1.
         22    1    3    3    0    0 -0.75063497031E+02 -0.28676180620E+02  0.61493259244E+02  0.10118435084E+03  0.00000000000E+00 0. -1.
</event>
<event>
 7    1  0.6386201E-006  0.4002955E+02  0.7818608E-02  0.1531344E+00
          2   -1    0    0  502    0  0.00000000000E+00  0.00000000000E+00  0.49155717360E+03  0.49155717360E+03  0.00000000000E+00 0. -1.
          1   -1    0    0  501    0 -0.00000000000E+00 -0.00000000000E+00 -0.46677540790E+03  0.46677540790E+03  0.00000000000E+00 0. -1.
         25    2    1    2    0    0  0.47415093055E+02 -0.55704503449E+02 -0.23148434064E+03  0.27306007314E+03  0.12500248328E+03 0.  0.
          2    1    1    2  501    0 -0.26470487488E+02  0.21719114681E+02 -0.21228255971E+03  0.21502625841E+03  0.00000000000E+00 0. -1.
          1    1    1    2  502    0 -0.20944605567E+02  0.33985388768E+02  0.46854866604E+03  0.47024624996E+03  0.00000000000E+00 0. -1.
         22    1    3    3    0    0 -0.33916739536E+02 -0.35827532549E+01 -0.17613228405E+02  0.38384986082E+02  0.00000000000E+00 0. -1.
         22    1    3    3    0    0  0.81331832591E+02 -0.52121750195E+02 -0.21387111223E+03  0.23467508705E+03  0.00000000000E+00 0. -1.
</event>
<event>
 7    1  0.6386201E-006  0.4040175E+02  0.7818608E-02  0.1556671E+00
          2   -1    0    0  502    0  0.00000000000E+00  0.00000000000E+00  0.20875655310E+04  0.20875655310E+04  0.00000000000E+00 0. -1.
          1   -1    0    0  501    0 -0.00000000000E+00 -0.00000000000E+00 -0.33979673173E+03  0.33979673173E+03  0.00000000000E+00 0. -1.
         25    2    1    2    0    0  0.65437235808E+02 -0.22227029499E+02  0.16362377094E+04  0.16424602176E+04  0.12500260875E+03 0.  0.
          2    1    1    2  501    0 -0.37732041535E+02  0.14383398897E+02 -0.33500934358E+03  0.33743421493E+03  0.00000000000E+00 0. -1.
          1    1    1    2  502    0 -0.27705194273E+02  0.78436306017E+01  0.44654043348E+03  0.44746783020E+03  0.00000000000E+00 0. -1.
         22    1    3    3    0    0 -0.13113750193E+02 -0.55626500683E+02  0.60253615195E+03  0.60524052444E+03  0.00000000000E+00 0.  1.
         22    1    3    3    0    0  0.78550986001E+02  0.33399471185E+02  0.10337015574E+04  0.10372196932E+04  0.00000000000E+00 0.  1.
</event>
<event>
 7    1  0.6386201E-006  0.4817913E+02  0.7818608E-02  0.1491748E+00
          2   -1    0    0  502    0  0.00000000000E+00  0.00000000000E+00  0.96235458803E+03  0.96235458803E+03  0.00000000000E+00 0. -1.
          1   -1    0    0  501    0 -0.00000000000E+00 -0.00000000000E+00 -0.97456548542E+02  0.97456548542E+02  0.00000000000E+00 0. -1.
         25    2    1    2    0    0  0.15654843684E+02  0.60294124610E+02  0.87606870813E+02  0.16486587736E+03  0.12500135244E+03 0.  0.
          2    1    1    2  501    0 -0.33723534637E+02 -0.15672134612E+02 -0.52181612751E+02  0.64076620549E+02  0.00000000000E+00 0. -1.
          1    1    1    2  502    0  0.18068690952E+02 -0.44621989998E+02  0.82947278143E+03  0.83086863867E+03  0.00000000000E+00 0. -1.
         22    1    3    3    0    0 -0.34627126147E+02 -0.18066190580E+02  0.52337307618E+02  0.65304049461E+02  0.00000000000E+00 0. -1.
         22    1    3    3    0    0  0.50281969831E+02  0.78360315190E+02  0.35269563195E+02  0.99561827899E+02  0.00000000000E+00 0. -1.
</event>
<event>
 7    1  0.6386201E-006  0.1725684E+03  0.7818608E-02  0.1246386E+00
          2   -1    0    0  502    0  0.00000000000E+00  0.00000000000E+00  0.26704590606E+03  0.26704590606E+03  0.00000000000E+00 0. -1.
          1   -1    0    0  501    0 -0.00000000000E+00 -0.00000000000E+00 -0.13071791780E+04  0.13071791780E+04  0.00000000000E+00 0. -1.
         25    2    1    2    0    0  0.85063269939E+02 -0.18817366444E+03  0.15593314283E+03  0.28737697807E+03  0.12500117844E+03 0.  0.
          2    1    1    2  501    0 -0.37550808916E+02  0.71460027707E+02 -0.11497676326E+04  0.11525980252E+04  0.00000000000E+00 0. -1.
          1    1    1    2  502    0 -0.47512461023E+02  0.11671363673E+03 -0.46298782166E+02  0.13425008075E+03  0.00000000000E+00 0. -1.
         22    1    3    3    0    0  0.11192176353E+03 -0.15481638968E+03  0.15245121626E+03  0.24440942904E+03  0.00000000000E+00 0.  1.
         22    1    3    3    0    0 -0.26858493588E+02 -0.33357274755E+02  0.34819265705E+01  0.42967549029E+02  0.00000000000E+00 0.  1.
</event>
<event>
 7    1  0.6386201E-006  0.8445393E+02  0.7818608E-02  0.1385222E+00
          2   -1    0    0  502    0  0.00000000000E+00  0.00000000000E+00  0.17826092968E+04  0.17826092968E+04  0.00000000000E+00 0. -1.
          1   -1    0    0  501    0 -0.00000000000E+00 -0.00000000000E+00 -0.17986386688E+03  0.17986386688E+03  0.00000000000E+00 0. -1.
         25    2    1    2    0    0 -0.12601713397E+03  0.33528088790E+02  0.57127469531E+03  0.59915365593E+03  0.12500350041E+03 0.  0.
          2    1    1    2  501    0  0.79437728952E+02 -0.26140095407E+02 -0.15488860860E+03  0.17602311906E+03  0.00000000000E+00 0. -1.
          1    1    1    2  502    0  0.46579405018E+02 -0.73879933830E+01  0.11863593432E+04  0.11872963887E+04  0.00000000000E+00 0. -1.
         22    1    3    3    0    0 -0.17437317328E+01 -0.35680233417E+02  0.78237255852E+02  0.86006905888E+02  0.00000000000E+00 0. -1.
         22    1    3    3    0    0 -0.12427340224E+03  0.69208322207E+02  0.49303743946E+03  0.51314675004E+03  0.00000000000E+00 0. -1.
</event>
<event>
 7    1  0.6386201E-006  0.3239217E+02  0.7818608E-02  0.1647188E+00
          2   -1    0    0  502    0  0.00000000000E+00  0.00000000000E+00  0.59862273886E+03  0.59862273886E+03  0.00000000000E+00 0. -1.
          1   -1    0    0  501    0 -0.00000000000E+00 -0.00000000000E+00 -0.80684794878E+03  0.80684794878E+03  0.00000000000E+00 0. -1.
         25    2    1    2    0    0  0.40668431989E+02 -0.27878737890E+02 -0.44761488568E+03  0.46734965258E+03  0.12500186597E+03 0.  0.
          2    1    1    2  501    0 -0.20715553226E+02  0.23794630951E+01 -0.34860876754E+03  0.34923182672E+03  0.00000000000E+00 0. -1.
          1    1    1    2  502    0 -0.19952878763E+02  0.25499274795E+02  0.58799844329E+03  0.58888920834E+03  0.00000000000E+00 0. -1.
         22    1    3    3    0    0 -0.43599687670E+02 -0.91522535180E+01 -0.20641221347E+03  0.21116509744E+03  0.00000000000E+00 0.  1.
         22    1    3    3    0    0  0.84268119659E+02 -0.18726484372E+02 -0.24120267221E+03  0.25618455513E+03  0.00000000000E+00 0.  1.
</event>
<event>
 7    1  0.6386201E-006  0.6569637E+02  0.7818608E-02  0.1399101E+00
          2   -1    0    0  502    0  0.00000000000E+00  0.00000000000E+00  0.12082703305E+03  0.12082703305E+03  0.00000000000E+00 0. -1.
          1   -1    0    0  501    0 -0.00000000000E+00 -0.00000000000E+00 -0.31681697969E+03  0.31681697969E+03  0.00000000000E+00 0. -1.
         25    2    1    2    0    0  0.21603873149E+02 -0.69109455475E+02 -0.89444149122E+02  0.16990653607E+03  0.12500052407E+03 0.  0.
          2    1    1    2  501    0  0.38194963942E+02  0.38522906462E+02 -0.16809668323E+03  0.17663341842E+03  0.00000000000E+00 0. -1.
          1    1    1    2  502    0 -0.59798837091E+02  0.30586549013E+02  0.61550885700E+02  0.91104058243E+02  0.00000000000E+00 0. -1.
         22    1    3    3    0    0  0.54135786243E+02  0.13296490117E+02 -0.37900573822E+02  0.67408704909E+02  0.00000000000E+00 0. -1.
         22    1    3    3    0    0 -0.32531913094E+02 -0.82405945592E+02 -0.51543575300E+02  0.10249783116E+03  0.00000000000E+00 0. -1.
</event>
<event>
 7    1  0.6386201E-006  0.6890470E+02  0.7818608E-02  0.1438723E+00
          2   -1    0    0  502    0  0.00000000000E+00  0.00000000000E+00  0.13332849643E+04  0.13332849643E+04  0.00000000000E+00 0. -1.
          1   -1    0    0  501    0 -0.00000000000E+00 -0.00000000000E+00 -0.24217123169E+03  0.24217123169E+03  0.00000000000E+00 0. -1.
         25    2    1    2    0    0 -0.35020725547E+02  0.83999646903E+02 -0.11136422682E+03  0.19054850798E+03  0.12499740389E+03 0.  0.
          2    1    1    2  501    0  0.34959636604E+02 -0.15187274435E+02 -0.86274600575E+02  0.94319331001E+02  0.00000000000E+00 0. -1.
          1    1    1    2  502    0  0.61088942479E-01 -0.68812372468E+02  0.12887525600E+04  0.12905883570E+04  0.00000000000E+00 0. -1.
         22    1    3    3    0    0  0.19466943623E+02  0.77133107118E+02 -0.16971263470E+02  0.81341882763E+02  0.00000000000E+00 0.  1.
         22    1    3    3    0    0 -0.54487669169E+02  0.68665397850E+01 -0.94392963353E+02  0.10920662521E+03  0.00000000000E+00 0.  1.
</event>
<event>
 7    1  0.6386201E-006  0.2080289E+03  0.7818608E-02  0.1263029E+00
          2   -1    0    0  502    0  0.00000000000E+00  0.00000000000E+00  0.20250230840E+04  0.20250230840E+04  0.00000000000E+00 0. -1.
          1   -1    0    0  501    0 -0.00000000000E+00 -0.00000000000E+00 -0.13120005342E+04  0.13120005342E+04  0.00000000000E+00 0. -1.
         25    2    1    2    0    0 -0.17902322551E+03  0.12795766187E+03  0.26633076652E+03  0.36739558246E+03  0.12499983325E+03 0.  0.
          2    1    1    2  501    0  0.46971892566E+02  0.31900093567E+02 -0.12545314636E+04  0.12558157380E+04  0.00000000000E+00 0. -1.
          1    1    1    2  502    0  0.13205133294E+03 -0.15985775544E+03  0.17012232469E+04  0.17138122978E+04  0.00000000000E+00 0. -1.
         22    1    3    3    0    0 -0.16042067181E+03  0.81798666536E+02  0.26135151998E+03  0.31738057720E+03  0.00000000000E+00 0. -1.
         22    1    3    3    0    0 -0.18602553695E+02  0.46158995338E+02  0.49792465434E+01  0.50015005256E+02  0.00000000000E+00 0. -1.
</event>
<event>
 7    1  0.6386201E-006  0.1182833E+03  0.7818608E-02  0.1329086E+00
          2   -1    0    0  502    0  0.00000000000E+00  0.00000000000E+00  0.66555323876E+03  0.66555323876E+03  0.00000000000E+00 0. -1.
          1   -1    0    0  501    0 -0.00000000000E+00 -0.00000000000E+00 -0.12621658112E+04  0.12621658112E+04  0.00000000000E+00 0. -1.
         25    2    1    2    0    0 -0.10228762895E+03  0.54808336507E+02  0.27404615042E+02  0.17275046575E+03  0.12499999083E+03 0.  0.
          2    1    1    2  501    0  0.33238868314E+02  0.42673503124E+02 -0.11825587194E+04  0.11837951576E+04  0.00000000000E+00 0. -1.
          1    1    1    2  502    0  0.69048760631E+02 -0.97481839631E+02  0.55854153193E+03  0.57117342663E+03  0.00000000000E+00 0. -1.
         22    1    3    3    0    0 -0.91113488573E+02  0.91811116616E+02  0.33509308228E+02  0.13361819738E+03  0.00000000000E+00 0. -1.
         22    1    3    3    0    0 -0.11174140372E+02 -0.37002780109E+02 -0.61046931860E+01  0.39132268370E+02  0.00000000000E+00 0. -1.
</event>
<event>
 7    1  0.6386201E-006  0.2004143E+03  0.7818608E-02  0.1241788E+00
          2   -1    0    0  502    0  0.00000000000E+00  0.00000000000E+00  0.17442771352E+04  0.17442771352E+04  0.00000000000E+00 0. -1.
          1   -1    0    0  501    0 -0.00000000000E+00 -0.00000000000E+00 -0.90004123333E+03  0.90004123333E+03  0.00000000000E+00 0. -1.
         25    2    1    2    0    0 -0.14454729774E+03  0.47314507414E+02 -0.26936170036E+03  0.33363698993E+03  0.12500132614E+03 0.  0.
          2    1    1    2  501    0 -0.19099144456E+02  0.70258869917E+02 -0.59036899716E+03  0.59484169233E+03  0.00000000000E+00 0. -1.
          1    1    1    2  502    0  0.16364644219E+03 -0.11757337733E+03  0.17039665994E+04  0.17158396862E+04  0.00000000000E+00 0. -1.
         22    1    3    3    0    0 -0.70601087279E+02 -0.40616812487E+02 -0.99829059223E+02  0.12884129791E+03  0.00000000000E+00 0. -1.
         22    1    3    3    0    0 -0.73946210457E+02  0.87931319902E+02 -0.16953264114E+03  0.20479569202E+03  0.00000000000E+00 0. -1.
</event>
<event>
 7    1  0.6386201E-006  0.5833904E+02  0.7818608E-02  0.1498390E+00
          2   -1    0    0  502    0  0.00000000000E+00  0.00000000000E+00  0.28322102720E+04  0.28322102720E+04  0.00000000000E+00 0. -1.
          1   -1    0    0  501    0 -0.00000000000E+00 -0.00000000000E+00 -0.47817197549E+03  0.47817197549E+03  0.00000000000E+00 0. -1.
         25    2    1    2    0    0  0.73751036805E+02 -0.40330504833E+02  0.93067019122E+03  0.94278141873E+03  0.12499613444E+03 0.  0.
          2    1    1    2  501    0 -0.44546973926E+02  0.37598196915E+02 -0.47020297334E+03  0.47380258909E+03  0.00000000000E+00 0. -1.
          1    1    1    2  502    0 -0.29204062879E+02  0.27323079177E+01  0.18935710787E+04  0.18937982397E+04  0.00000000000E+00 0. -1.
         22    1    3    3    0    0  0.28852291665E+02 -0.36527490610E+02  0.84231111927E+03  0.84359630982E+03  0.00000000000E+00 0. -1.
         22    1    3    3    0    0  0.44898745140E+02 -0.38030142232E+01  0.88359071947E+02  0.99185108901E+02  0.00000000000E+00 0. -1.
</event>
<event>
 7    1  0.1230291E-005  0.7420054E+02  0.7818608E-02  0.1363887E+00
          2   -1    0    0  502    0  0.00000000000E+00  0.00000000000E+00  0.51907615269E+03  0.51907615269E+03  0.00000000000E+00 0. -1.
          1   -1    0    0  501    0 -0.00000000000E+00 -0.00000000000E+00 -0.16451331782E+04  0.16451331782E+04  0.00000000000E+00 0. -1.
         25    2    1    2    0    0  0.18073928448E+02  0.22093700770E+02 -0.42146454929E+03  0.44053462625E+03  0.12499436835E+03 0.  0.
          2    1    1    2  501    0  0.50976584594E+01 -0.81720913907E+02 -0.12107375159E+04  0.12135030393E+04  0.00000000000E+00 0. -1.
          1    1    1    2  502    0 -0.23171586907E+02  0.59627213137E+02  0.50614503967E+03  0.51017166539E+03  0.00000000000E+00 0. -1.
         22    1    3    3    0    0  0.63068901102E+02 -0.12956773931E+02 -0.29278991779E+03  0.29978575723E+03  0.00000000000E+00 0. -1.
         22    1    3    3    0    0 -0.44994972654E+02  0.35050474701E+02 -0.12867463150E+03  0.14074886903E+03  0.00000000000E+00 0. -1.
</event>
<event>
 7    1  0.6386201E-006  0.1851264E+03  0.7818608E-02  0.1321984E+00
          2   -1    0    0  502    0  0.00000000000E+00  0.00000000000E+00  0.35848516172E+04  0.35848516172E+04  0.00000000000E+00 0. -1.
          1   -1    0    0  501    0 -0.00000000000E+00 -0.00000000000E+00 -0.23412942282E+03  0.23412942282E+03  0.00000000000E+00 0. -1.
         25    2    1    2    0    0  0.98541338622E+02 -0.14677433300E+03  0.11067060724E+03  0.24315822508E+03  0.12499935549E+03 0.  0.
          2    1    1    2  501    0 -0.27369420351E+02 -0.24606276137E+02 -0.16330996525E+03  0.16740579066E+03  0.00000000000E+00 0. -1.
          1    1    1    2  502    0 -0.71171918271E+02  0.17138060914E+03  0.34033615524E+04  0.34084170243E+04  0.00000000000E+00 0. -1.
         22    1    3    3    0    0  0.59177277788E+02  0.44873353204E+01  0.40370011557E+02  0.71776209275E+02  0.00000000000E+00 0. -1.
         22    1    3    3    0    0  0.39364060834E+02 -0.15126166832E+03  0.70300595682E+02  0.17138201580E+03  0.00000000000E+00 0. -1.
</event>
<event>
 7    1  0.6386201E-006  0.7302231E+02  0.7818608E-02  0.1395328E+00
          2   -1    0    0  502    0  0.00000000000E+00  0.00000000000E+00  0.14610823341E+03  0.14610823341E+03  0.00000000000E+00 0. -1.
          1   -1    0    0  501    0 -0.00000000000E+00 -0.00000000000E+00 -0.69223450607E+03  0.69223450607E+03  0.00000000000E+00 0. -1.
         25    2    1    2    0    0  0.60911738209E+02  0.98393299679E+02 -0.47488941566E+02  0.17684841756E+03  0.12501472693E+03 0.  0.
          2    1    1    2  501    0 -0.15959753058E+02 -0.47692658561E+02 -0.56465612020E+03  0.56689138067E+03  0.00000000000E+00 0. -1.
          1    1    1    2  502    0 -0.44951985151E+02 -0.50700641118E+02  0.66018789104E+02  0.94602941252E+02  0.00000000000E+00 0. -1.
         22    1    3    3    0    0  0.78367118464E+02  0.11539542190E+03 -0.57005359889E+02  0.15068881746E+03  0.00000000000E+00 0.  1.
         22    1    3    3    0    0 -0.17455380255E+02 -0.17002122216E+02  0.95164183236E+01  0.26159600101E+02  0.00000000000E+00 0.  1.
</event>
<event>
 7    1  0.6386201E-006  0.1531628E+03  0.7818608E-02  0.1226737E+00
          2   -1    0    0  502    0  0.00000000000E+00  0.00000000000E+00  0.16997553909E+04  0.16997553909E+04  0.00000000000E+00 0. -1.
          1   -1    0    0  501    0 -0.00000000000E+00 -0.00000000000E+00 -0.18288410044E+04  0.18288410044E+04  0.00000000000E+00 0. -1.
         25    2    1    2    0    0 -0.68081196664E+01 -0.25632789718E+03  0.36729281106E+02  0.28761849705E+03  0.12500007355E+03 0.  0.
          2    1    1    2  501    0  0.27977441391E+02  0.10758772662E+03 -0.16979044105E+04  0.17015396685E+04  0.00000000000E+00 0. -1.
          1    1    1    2  502    0 -0.21169321725E+02  0.14874017057E+03  0.15320895159E+04  0.15394382298E+04  0.00000000000E+00 0. -1.
         22    1    3    3    0    0  0.29016326468E+02 -0.22506974607E+02  0.35485325655E+02  0.51065834415E+02  0.00000000000E+00 0.  1.
         22    1    3    3    0    0 -0.35824446134E+02 -0.23382092258E+03  0.12439554511E+01  0.23655266264E+03  0.00000000000E+00 0.  1.
</event>
<event>
 7    1  0.6386201E-006  0.1091542E+03  0.7818608E-02  0.1389481E+00
          2   -1    0    0  502    0  0.00000000000E+00  0.00000000000E+00  0.45027812051E+04  0.45027812051E+04  0.00000000000E+00 0. -1.
          1   -1    0    0  501    0 -0.00000000000E+00 -0.00000000000E+00 -0.11241364463E+02  0.11241364463E+02  0.00000000000E+00 0. -1.
         25    2    1    2    0    0  0.33789835838E+01 -0.86307671842E+02  0.72491392407E+03  0.74066477622E+03  0.12499472658E+03 0.  0.
          2    1    1    2  501    0 -0.26579184019E+02 -0.23164830995E+02  0.12143678880E+03  0.12645139814E+03  0.00000000000E+00 0. -1.
          1    1    1    2  502    0  0.23200200435E+02  0.10947250284E+03  0.36451891278E+04  0.36469063952E+04  0.00000000000E+00 0. -1.
         22    1    3    3    0    0 -0.29911967763E+02 -0.11868638302E+00  0.42193802765E+02  0.51720952173E+02  0.00000000000E+00 0.  1.
         22    1    3    3    0    0  0.33290951347E+02 -0.86188985459E+02  0.68272012130E+03  0.68894382405E+03  0.00000000000E+00 0.  1.
</event>
<event>
 7    1  0.6386201E-006  0.1650454E+03  0.7818608E-02  0.1355455E+00
          2   -1    0    0  502    0  0.00000000000E+00  0.00000000000E+00  0.43953855031E+03  0.43953855031E+03  0.00000000000E+00 0. -1.
          1   -1    0    0  501    0 -0.00000000000E+00 -0.00000000000E+00 -0.17478737053E+04  0.17478737053E+04  0.00000000000E+00 0. -1.
         25    2    1    2    0    0  0.37537996128E+02  0.18902389548E+03  0.16880377418E+03  0.28505627046E+03  0.12499291556E+03 0.  0.
          2    1    1    2  501    0 -0.20490868975E+02 -0.16328428563E+03 -0.16845956876E+04  0.16926146237E+04  0.00000000000E+00 0. -1.
          1    1    1    2  502    0 -0.17047127153E+02 -0.25739609848E+02  0.20745675847E+03  0.20974136143E+03  0.00000000000E+00 0. -1.
         22    1    3    3    0    0  0.17330766767E+02  0.16613816684E+03  0.18601604704E+03  0.25000843129E+03  0.00000000000E+00 0.  1.
         22    1    3    3    0    0  0.20207229361E+02  0.22885728637E+02 -0.17212272867E+02  0.35047839177E+02  0.00000000000E+00 0.  1.
</event>
<event>
 7    1  0.6386201E-006  0.1427564E+03  0.7818608E-02  0.1334437E+00
          2   -1    0    0  502    0  0.00000000000E+00  0.00000000000E+00  0.33964493129E+03  0.33964493129E+03  0.00000000000E+00 0. -1.
          1   -1    0    0  501    0 -0.00000000000E+00 -0.00000000000E+00 -0.65425303341E+03  0.65425303341E+03  0.00000000000E+00 0. -1.
         25    2    1    2    0    0 -0.10642835890E+03  0.87205947584E+02 -0.11083368159E+03  0.21641898150E+03  0.12498478990E+03 0.  0.
          2    1    1    2  501    0  0.13414989906E+03 -0.54645961680E+02 -0.47824325391E+03  0.49969889579E+03  0.00000000000E+00 0. -1.
          1    1    1    2  502    0 -0.27721540153E+02 -0.32559985904E+02  0.27446883338E+03  0.27778008742E+03  0.00000000000E+00 0. -1.
         22    1    3    3    0    0  0.20630168542E+02  0.11005349268E+02 -0.51987260585E+02  0.57003480856E+02  0.00000000000E+00 0.  1.
         22    1    3    3    0    0 -0.12705852745E+03  0.76200598316E+02 -0.58846421001E+02  0.15941550064E+03  0.00000000000E+00 0.  1.
</event>
<event>
 7    1  0.6386201E-006  0.5944903E+02  0.7818608E-02  0.1437613E+00
          2   -1    0    0  502    0  0.00000000000E+00  0.00000000000E+00  0.32956379427E+03  0.32956379427E+03  0.00000000000E+00 0. -1.
          1   -1    0    0  501    0 -0.00000000000E+00 -0.00000000000E+00 -0.74106533821E+03  0.74106533821E+03  0.00000000000E+00 0. -1.
         25    2    1    2    0    0  0.64493574945E+02  0.81106875187E+02  0.11065464736E+03  0.19648834315E+03  0.12500188639E+03 0.  0.
          2    1    1    2  501    0 -0.36149179425E+02 -0.46740031210E+02 -0.69405390608E+03  0.69656458296E+03  0.00000000000E+00 0. -1.
          1    1    1    2  502    0 -0.28344395520E+02 -0.34366843977E+02  0.17189771477E+03  0.17757620637E+03  0.00000000000E+00 0. -1.
         22    1    3    3    0    0 -0.25462620363E+02 -0.10966683535E+02  0.42749359671E+02  0.50952143584E+02  0.00000000000E+00 0.  1.
         22    1    3    3    0    0  0.89956195307E+02  0.92073558722E+02  0.67905287685E+02  0.14553619957E+03  0.00000000000E+00 0.  1.
</event>
<event>
 7    1  0.6386201E-006  0.6160352E+02  0.7818608E-02  0.1510307E+00
          2   -1    0    0  502    0  0.00000000000E+00  0.00000000000E+00  0.87727241431E+03  0.87727241431E+03  0.00000000000E+00 0. -1.
          1   -1    0    0  501    0 -0.00000000000E+00 -0.00000000000E+00 -0.14207437914E+03  0.14207437914E+03  0.00000000000E+00 0. -1.
         25    2    1    2    0    0 -0.70689318812E+02  0.31346311348E+02  0.31994750487E+02  0.15042595321E+03  0.12499892925E+03 0.  0.
          2    1    1    2  501    0  0.24120965608E+02  0.85927967758E+01 -0.79651378360E+02  0.83665997950E+02  0.00000000000E+00 0. -1.
          1    1    1    2  502    0  0.46568353204E+02 -0.39939108124E+02  0.78285466305E+03  0.78525484229E+03  0.00000000000E+00 0. -1.
         22    1    3    3    0    0 -0.20743735283E+02  0.39656098749E+02  0.72760458821E+02  0.85422439027E+02  0.00000000000E+00 0.  1.
         22    1    3    3    0    0 -0.49945583529E+02 -0.83097874006E+01 -0.40765708335E+02  0.65003514188E+02  0.00000000000E+00 0.  1.
</event>
<event>
 7    1  0.6386201E-006  0.1039129E+03  0.7818608E-02  0.1468834E+00
          2   -1    0    0  502    0  0.00000000000E+00  0.00000000000E+00  0.90678908757E+03  0.90678908757E+03  0.00000000000E+00 0. -1.
          1   -1    0    0  501    0 -0.00000000000E+00 -0.00000000000E+00 -0.10579849387E+03  0.10579849387E+03  0.00000000000E+00 0. -1.
         25    2    1    2    0    0  0.53652208596E+02  0.66565926729E+02  0.12953846850E+01  0.15144860681E+03  0.12500168156E+03 0.  0.
          2    1    1    2  501    0  0.17420254325E+02  0.10363434727E+02 -0.23656367953E+02  0.31152685034E+02  0.00000000000E+00 0. -1.
          1    1    1    2  502    0 -0.71072462921E+02 -0.76929361457E+02  0.82335157697E+03  0.82998628961E+03  0.00000000000E+00 0. -1.
         22    1    3    3    0    0  0.48806589504E+02  0.55267973790E+02 -0.56164690729E+02  0.92688211713E+02  0.00000000000E+00 0. -1.
         22    1    3    3    0    0  0.48456190919E+01  0.11297952940E+02  0.57460075414E+02  0.58760395094E+02  0.00000000000E+00 0. -1.
</event>
<event>
 7    1  0.6386201E-006  0.1188573E+03  0.7818608E-02  0.1259517E+00
          2   -1    0    0  502    0  0.00000000000E+00  0.00000000000E+00  0.31216388843E+04  0.31216388843E+04  0.00000000000E+00 0. -1.
          1   -1    0    0  501    0 -0.00000000000E+00 -0.00000000000E+00 -0.45096179447E+03  0.45096179447E+03  0.00000000000E+00 0. -1.
         25    2    1    2    0    0  0.10572498820E+03 -0.12088353302E+03  0.38706192019E+03  0.43730190877E+03  0.12500171067E+03 0.  0.
          2    1    1    2  501    0 -0.28867405374E+01  0.11871277112E+03 -0.41656513060E+03  0.43315997430E+03  0.00000000000E+00 0. -1.
          1    1    1    2  502    0 -0.10283824766E+03  0.21707618914E+01  0.27001803002E+04  0.27021387957E+04  0.00000000000E+00 0. -1.
         22    1    3    3    0    0  0.10795009373E+02  0.19712065244E+02  0.11594272804E+02  0.25288829657E+02  0.00000000000E+00 0. -1.
         22    1    3    3    0    0  0.94929978825E+02 -0.14059559826E+03  0.37546764739E+03  0.41201307912E+03  0.00000000000E+00 0. -1.
</event>
<event>
 7    1  0.6386201E-006  0.7119757E+02  0.7818608E-02  0.1501408E+00
          2   -1    0    0  502    0  0.00000000000E+00  0.00000000000E+00  0.11850916342E+03  0.11850916342E+03  0.00000000000E+00 0. -1.
          1   -1    0    0  501    0 -0.00000000000E+00 -0.00000000000E+00 -0.34139213780E+03  0.34139213780E+03  0.00000000000E+00 0. -1.
         25    2    1    2    0    0 -0.55583819099E+02 -0.63684372135E+02 -0.21000003758E+03  0.25859531567E+03  0.12500504512E+03 0.  0.
          2    1    1    2  501    0  0.32969412136E+02  0.57144849363E+02 -0.95123406648E+02  0.11576259516E+03  0.00000000000E+00 0. -1.
          1    1    1    2  502    0  0.22614406963E+02  0.65395227719E+01  0.82240469843E+02  0.85543390395E+02  0.00000000000E+00 0. -1.
         22    1    3    3    0    0  0.21442518501E+02  0.14594206740E+02 -0.99418920476E+02  0.10274674797E+03  0.00000000000E+00 0.  1.
         22    1    3    3    0    0 -0.77026337600E+02 -0.78278578875E+02 -0.11058111710E+03  0.15584856770E+03  0.00000000000E+00 0.  1.
</event>
<event>
 7    1  0.6386201E-006  0.2055178E+03  0.7818608E-02  0.1223550E+00
          2   -1    0    0  502    0  0.00000000000E+00  0.00000000000E+00  0.18255088141E+04  0.18255088141E+04  0.00000000000E+00 0. -1.
          1   -1    0    0  501    0 -0.00000000000E+00 -0.00000000000E+00 -0.10068672921E+04  0.10068672921E+04  0.00000000000E+00 0. -1.
         25    2    1    2    0    0 -0.85573114656E+01  0.20074279582E+03  0.11406513389E+03  0.26269341300E+03  0.12500430717E+03 0.  0.
          2    1    1    2  501    0  0.92714173792E+02 -0.18486950219E+03 -0.91994481286E+03  0.94290567374E+03  0.00000000000E+00 0. -1.
          1    1    1    2  502    0 -0.84156862326E+02 -0.15873293630E+02  0.16245212010E+04  0.16267770195E+04  0.00000000000E+00 0. -1.
         22    1    3    3    0    0 -0.94280936261E+01  0.20680270903E+03  0.70488760794E+02  0.21868908251E+03  0.00000000000E+00 0.  1.
         22    1    3    3    0    0  0.87078216047E+00 -0.60599132069E+01  0.43576373098E+02  0.44004330492E+02  0.00000000000E+00 0.  1.
</event>
<event>
 7    1  0.6386201E-006  0.6283445E+02  0.7818608E-02  0.1407829E+00
          2   -1    0    0  502    0  0.00000000000E+00  0.00000000000E+00  0.12888427352E+04  0.12888427352E+04  0.00000000000E+00 0. -1.
          1   -1    0    0  501    0 -0.00000000000E+00 -0.00000000000E+00 -0.23910680191E+04  0.23910680191E+04  0.00000000000E+00 0. -1.
         25    2    1    2    0    0  0.47002968041E+02 -0.38491796623E+02  0.85058732501E+02  0.16294808442E+03  0.12500477123E+03 0.  0.
          2    1    1    2  501    0 -0.61686433640E+02 -0.12381797810E+02 -0.23511005374E+04  0.23519422318E+04  0.00000000000E+00 0. -1.
          1    1    1    2  502    0  0.14683465599E+02  0.50873594432E+02  0.11638165210E+04  0.11650204381E+04  0.00000000000E+00 0. -1.
         22    1    3    3    0    0 -0.37728901847E+02 -0.38558340534E+02  0.27846757956E+02  0.60709616932E+02  0.00000000000E+00 0.  1.
         22    1    3    3    0    0  0.84731869888E+02  0.66543911350E-01  0.57211974545E+02  0.10223846749E+03  0.00000000000E+00 0.  1.
</event>
<event>
 7    1  0.6386201E-006  0.4692365E+02  0.7818608E-02  0.1543564E+00
          2   -1    0    0  502    0  0.00000000000E+00  0.00000000000E+00  0.58061294278E+03  0.58061294278E+03  0.00000000000E+00 0. -1.
          1   -1    0    0  501    0 -0.00000000000E+00 -0.00000000000E+00 -0.65302769467E+03  0.65302769467E+03  0.00000000000E+00 0. -1.
         25    2    1    2    0    0 -0.13941650130E+02 -0.16915211432E+02  0.79178740709E+02  0.14958420368E+03  0.12500266806E+03 0.  0.
          2    1    1    2  501    0 -0.24175629671E+02 -0.11953077614E+02 -0.61630333854E+03  0.61689313680E+03  0.00000000000E+00 0. -1.
          1    1    1    2  502    0  0.38117279800E+02  0.28868289046E+02  0.46470984594E+03  0.46716329698E+03  0.00000000000E+00 0. -1.
         22    1    3    3    0    0 -0.39420732929E+02 -0.24495564119E+02 -0.17284235807E+02  0.49525464699E+02  0.00000000000E+00 0.  1.
         22    1    3    3    0    0  0.25479082799E+02  0.75803526869E+01  0.96462976517E+02  0.10005873898E+03  0.00000000000E+00 0.  1.
</event>
<event>
 7    1  0.6386201E-006  0.4196127E+02  0.7818608E-02  0.1511904E+00
          2   -1    0    0  502    0  0.00000000000E+00  0.00000000000E+00  0.47582254129E+03  0.47582254129E+03  0.00000000000E+00 0. -1.
          1   -1    0    0  501    0 -0.00000000000E+00 -0.00000000000E+00 -0.15154682083E+04  0.15154682083E+04  0.00000000000E+00 0. -1.
         25    2    1    2    0    0  0.40013259202E+02 -0.52137083607E+02  0.98779255145E+02  0.17234513084E+03  0.12500466582E+03 0.  0.
          2    1    1    2  501    0 -0.43177793456E+01  0.41707534091E+02 -0.14773708344E+04  0.14779657452E+04  0.00000000000E+00 0. -1.
          1    1    1    2  502    0 -0.35695479856E+02  0.10429549516E+02  0.33894591222E+03  0.34097987360E+03  0.00000000000E+00 0. -1.
         22    1    3    3    0    0 -0.10884869579E+02  0.30908254391E+02 -0.11637829457E+01  0.32789555745E+02  0.00000000000E+00 0. -1.
         22    1    3    3    0    0  0.50898128781E+02 -0.83045337998E+02  0.99943038090E+02  0.13955557509E+03  0.00000000000E+00 0. -1.
</event>
<event>
 7    1  0.6386201E-006  0.9020614E+02  0.7818608E-02  0.1367681E+00
          2   -1    0    0  502    0  0.00000000000E+00  0.00000000000E+00  0.41661912636E+04  0.41661912636E+04  0.00000000000E+00 0. -1.
          1   -1    0    0  501    0 -0.00000000000E+00 -0.00000000000E+00 -0.77023821939E+02  0.77023821939E+02  0.00000000000E+00 0. -1.
         25    2    1    2    0    0 -0.62583306039E+02 -0.11164724178E+03  0.11524272380E+04  0.11662314181E+04  0.12500161943E+03 0.  0.
          2    1    1    2  501    0  0.43499974891E+02  0.26591092071E+02 -0.60136239295E+02  0.78839718858E+02  0.00000000000E+00 0. -1.
          1    1    1    2  502    0  0.19083331148E+02  0.85056149712E+02  0.29968764430E+04  0.29981439486E+04  0.00000000000E+00 0. -1.
         22    1    3    3    0    0 -0.88610680398E+02 -0.36871996957E+02  0.74749026148E+03  0.75362662364E+03  0.00000000000E+00 0.  1.
         22    1    3    3    0    0  0.26027374359E+02 -0.74775244826E+02  0.40493697652E+03  0.41260479446E+03  0.00000000000E+00 0.  1.
</event>
<event>
 7    1  0.6386201E-006  0.3306835E+02  0.7818608E-02  0.1576750E+00
          2   -1    0    0  502    0  0.00000000000E+00  0.00000000000E+00  0.28540319532E+02  0.28540319532E+02  0.00000000000E+00 0. -1.
          1   -1    0    0  501    0 -0.00000000000E+00 -0.00000000000E+00 -0.12027254351E+04  0.12027254351E+04  0.00000000000E+00 0. -1.
         25    2    1    2    0    0  0.46118592685E+02  0.14436503645E+02 -0.73334737314E+03  0.74549198634E+03  0.12499837905E+03 0.  0.
          2    1    1    2  501    0 -0.30174499473E+02  0.12160696471E+02 -0.45173481537E+03  0.45290476524E+03  0.00000000000E+00 0. -1.
          1    1    1    2  502    0 -0.15944093212E+02 -0.26597200116E+02  0.10897072957E+02  0.32869003048E+02  0.00000000000E+00 0. -1.
         22    1    3    3    0    0 -0.32993319175E+02  0.18025443451E+02 -0.44127445698E+03  0.44287314449E+03  0.00000000000E+00 0.  1.
         22    1    3    3    0    0  0.79111911860E+02 -0.35889398069E+01 -0.29207291616E+03  0.30261884185E+03  0.00000000000E+00 0.  1.
</event>
<event>
 7    1  0.6386201E-006  0.4505890E+02  0.7818608E-02  0.1493663E+00
          2   -1    0    0  502    0  0.00000000000E+00  0.00000000000E+00  0.19726970754E+04  0.19726970754E+04  0.00000000000E+00 0. -1.
          1   -1    0    0  501    0 -0.00000000000E+00 -0.00000000000E+00 -0.62070097882E+02  0.62070097882E+02  0.00000000000E+00 0. -1.
         25    2    1    2    0    0 -0.19835775628E+02 -0.26782454008E+02  0.16214022908E+04  0.16265550230E+04  0.12500038578E+03 0.  0.
          2    1    1    2  501    0  0.45088357080E+02 -0.32489005139E+01 -0.49607888956E+02  0.67115258663E+02  0.00000000000E+00 0. -1.
          1    1    1    2  502    0 -0.25252581453E+02  0.30031354521E+02  0.33883257572E+03  0.34109689165E+03  0.00000000000E+00 0. -1.
         22    1    3    3    0    0  0.39979796150E+02  0.23834803620E+02  0.82350239519E+03  0.82481675349E+03  0.00000000000E+00 0. -1.
         22    1    3    3    0    0 -0.59815571778E+02 -0.50617257627E+02  0.79789989559E+03  0.80173826950E+03  0.00000000000E+00 0. -1.
</event>
<event>
 7    1  0.6386201E-006  0.1135509E+03  0.7818608E-02  0.1313198E+00
          2   -1    0    0  502    0  0.00000000000E+00  0.00000000000E+00  0.42179335496E+03  0.42179335496E+03  0.00000000000E+00 0. -1.
          1   -1    0    0  501    0 -0.00000000000E+00 -0.00000000000E+00 -0.79321410896E+02  0.79321410896E+02  0.00000000000E+00 0. -1.
         25    2    1    2    0    0 -0.98602459477E+02  0.37542506310E+02  0.13807546672E+03  0.21405955618E+03  0.12499909716E+03 0.  0.
          2    1    1    2  501    0  0.12369926567E+03  0.22333178002E+02  0.86893507548E+02  0.15280955736E+03  0.00000000000E+00 0. -1.
          1    1    1    2  502    0 -0.25096806192E+02 -0.59875684312E+02  0.11750296980E+03  0.13424565231E+03  0.00000000000E+00 0. -1.
         22    1    3    3    0    0  0.91797967051E+01  0.53631791997E+02  0.41219344825E+02  0.68261791422E+02  0.00000000000E+00 0.  1.
         22    1    3    3    0    0 -0.10778225618E+03 -0.16089285687E+02  0.96856121892E+02  0.14579776476E+03  0.00000000000E+00 0.  1.
</event>
<event>
 7    1  0.6386201E-006  0.2163740E+03  0.7818608E-02  0.1256406E+00
          2   -1    0    0  502    0  0.00000000000E+00  0.00000000000E+00  0.12141835104E+04  0.12141835104E+04  0.00000000000E+00 0. -1.
          1   -1    0    0  501    0 -0.00000000000E+00 -0.00000000000E+00 -0.83462324179E+03  0.83462324179E+03  0.00000000000E+00 0. -1.
         25    2    1    2    0    0  0.10437202444E+03  0.13104055047E+03  0.29933118042E+03  0.36508809262E+03  0.12500005779E+03 0.  0.
          2    1    1    2  501    0 -0.15968008641E+03 -0.14936007239E+03 -0.78584087513E+03  0.81569114390E+03  0.00000000000E+00 0. -1.
          1    1    1    2  502    0  0.55308061974E+02  0.18319521918E+02  0.86606996335E+03  0.86802751571E+03  0.00000000000E+00 0. -1.
         22    1    3    3    0    0  0.64534160459E+02  0.78376233003E+02  0.62496119679E+02  0.11921936395E+03  0.00000000000E+00 0.  1.
         22    1    3    3    0    0  0.39837863982E+02  0.52664317466E+02  0.23683506075E+03  0.24586872867E+03  0.00000000000E+00 0.  1.
</event>
<event>
 7    1  0.6386201E-006  0.1902401E+03  0.7818608E-02  0.1258746E+00
          2   -1    0    0  502    0  0.00000000000E+00  0.00000000000E+00  0.39053297899E+03  0.39053297899E+03  0.00000000000E+00 0. -1.
          1   -1    0    0  501    0 -0.00000000000E+00 -0.00000000000E+00 -0.12391834257E+04  0.12391834257E+04  0.00000000000E+00 0. -1.
         25    2    1    2    0    0 -0.12503831323E+03 -0.34559842520E+02  0.19855743573E+03  0.26809415948E+03  0.12498184096E+03 0.  0.
          2    1    1    2  501    0  0.18970872202E+03  0.31251345219E+02 -0.11896845389E+04  0.12051204703E+04  0.00000000000E+00 0. -1.
          1    1    1    2  502    0 -0.64670408798E+02  0.33084973006E+01  0.14247665645E+03  0.15650177495E+03  0.00000000000E+00 0. -1.
         22    1    3    3    0    0 -0.10702612133E+03 -0.54329978891E+02  0.20765198138E+03  0.23984512216E+03  0.00000000000E+00 0. -1.
         22    1    3    3    0    0 -0.18012191893E+02  0.19770136371E+02 -0.90945456412E+01  0.28249037317E+02  0.00000000000E+00 0. -1.
</event>
<event>
 7    1  0.6386201E-006  0.1644926E+03  0.7818608E-02  0.1406610E+00
          2   -1    0    0  502    0  0.00000000000E+00  0.00000000000E+00  0.77740517093E+03  0.77740517093E+03  0.00000000000E+00 0. -1.
          1   -1    0    0  501    0 -0.00000000000E+00 -0.00000000000E+00 -0.11938423616E+03  0.11938423616E+03  0.00000000000E+00 0. -1.
         25    2    1    2    0    0  0.12235516263E+03  0.96171904768E+02  0.35917765544E+03  0.41091924482E+03  0.12500486594E+03 0.  0.
          2    1    1    2  501    0 -0.11893587893E+03 -0.11630424675E+03 -0.18945764676E+02  0.16742569429E+03  0.00000000000E+00 0. -1.
          1    1    1    2  502    0 -0.34192836959E+01  0.20132341986E+02  0.31778904401E+03  0.31844446798E+03  0.00000000000E+00 0. -1.
         22    1    3    3    0    0  0.71127764981E+02 -0.32662748142E+01  0.22625064127E+03  0.23719017724E+03  0.00000000000E+00 0. -1.
         22    1    3    3    0    0  0.51227397645E+02  0.99438179582E+02  0.13292701417E+03  0.17372906759E+03  0.00000000000E+00 0. -1.
</event>
<event>
 7    1  0.6386201E-006  0.8291777E+02  0.7818608E-02  0.1395847E+00
          2   -1    0    0  502    0  0.00000000000E+00  0.00000000000E+00  0.95889219682E+03  0.95889219682E+03  0.00000000000E+00 0. -1.
          1   -1    0    0  501    0 -0.00000000000E+00 -0.00000000000E+00 -0.27553788157E+03  0.27553788157E+03  0.00000000000E+00 0. -1.
         25    2    1    2    0    0  0.16372840273E+02 -0.49225199463E+02  0.73733320186E+02  0.15411997119E+03  0.12500069142E+03 0.  0.
          2    1    1    2  501    0 -0.58564227053E+02  0.62084598986E+02 -0.22700659236E+03  0.24252063644E+03  0.00000000000E+00 0. -1.
          1    1    1    2  502    0  0.42191386781E+02 -0.12859399524E+02  0.83662758742E+03  0.83778947076E+03  0.00000000000E+00 0. -1.
         22    1    3    3    0    0  0.58197036495E+00  0.41785088797E+02  0.32621302703E+02  0.53013976697E+02  0.00000000000E+00 0. -1.
         22    1    3    3    0    0  0.15790869908E+02 -0.91010288259E+02  0.41112017484E+02  0.10110599450E+03  0.00000000000E+00 0. -1.
</event>
<event>
 7    1  0.6386201E-006  0.6042855E+02  0.7818608E-02  0.1452371E+00
          2   -1    0    0  502    0  0.00000000000E+00  0.00000000000E+00  0.26635111365E+04  0.26635111365E+04  0.00000000000E+00 0. -1.
          1   -1    0    0  501    0 -0.00000000000E+00 -0.00000000000E+00 -0.16012382967E+04  0.16012382967E+04  0.00000000000E+00 0. -1.
         25    2    1    2    0    0  0.82047666881E+02 -0.39671776072E+02  0.34595580707E+03  0.37896704770E+03  0.12499973338E+03 0.  0.
          2    1    1    2  501    0 -0.59957884707E+02  0.71915952378E+01 -0.15839896602E+04  0.15851403441E+04  0.00000000000E+00 0. -1.
          1    1    1    2  502    0 -0.22089782174E+02  0.32480180834E+02  0.23003066929E+04  0.23006420413E+04  0.00000000000E+00 0. -1.
         22    1    3    3    0    0 -0.38826280321E+01  0.98318493363E+01 -0.67784264486E+01  0.12557353500E+02  0.00000000000E+00 0.  1.
         22    1    3    3    0    0  0.85930294913E+02 -0.49503625408E+02  0.35273423351E+03  0.36640969420E+03  0.00000000000E+00 0.  1.
</event>
<event>
 7    1  0.6386201E-006  0.9285264E+02  0.7818608E-02  0.1359494E+00
          2   -1    0    0  502    0  0.00000000000E+00  0.00000000000E+00  0.92947130609E+03  0.92947130609E+03  0.00000000000E+00 0. -1.
          1   -1    0    0  501    0 -0.00000000000E+00 -0.00000000000E+00 -0.33482064130E+03  0.33482064130E+03  0.00000000000E+00 0. -1.
         25    2    1    2    0    0  0.93321933825E+02 -0.15641742754E+02  0.10719718540E+02  0.15714005071E+03  0.12499774286E+03 0.  0.
          2    1    1    2  501    0 -0.24301645120E+02 -0.47143149210E+02 -0.25631316868E+03  0.26174316975E+03  0.00000000000E+00 0. -1.
          1    1    1    2  502    0 -0.69020288705E+02  0.62784891965E+02  0.84024411493E+03  0.84540872694E+03  0.00000000000E+00 0. -1.
         22    1    3    3    0    0 -0.22191283031E+02  0.12466076578E+02 -0.22209095791E+02  0.33780172345E+02  0.00000000000E+00 0. -1.
         22    1    3    3    0    0  0.11551321686E+03 -0.28107819332E+02  0.32928814331E+02  0.12335987836E+03  0.00000000000E+00 0. -1.
</event>
<event>
 7    1  0.6386201E-006  0.5762484E+02  0.7818608E-02  0.1528462E+00
          2   -1    0    0  502    0  0.00000000000E+00  0.00000000000E+00  0.23936210939E+04  0.23936210939E+04  0.00000000000E+00 0. -1.
          1   -1    0    0  501    0 -0.00000000000E+00 -0.00000000000E+00 -0.23065512390E+03  0.23065512390E+03  0.00000000000E+00 0. -1.
         25    2    1    2    0    0 -0.35345883829E+02  0.81756315294E+01  0.64102900654E+03  0.65410869959E+03  0.12499532471E+03 0.  0.
          2    1    1    2  501    0  0.51395554143E+02 -0.26343867808E+02 -0.22030880946E+03  0.22775309851E+03  0.00000000000E+00 0. -1.
          1    1    1    2  502    0 -0.16049670314E+02  0.18168236278E+02  0.17422457729E+04  0.17424144197E+04  0.00000000000E+00 0. -1.
         22    1    3    3    0    0  0.22546377842E+02  0.32011359217E+02  0.74791653616E+02  0.84420718567E+02  0.00000000000E+00 0. -1.
         22    1    3    3    0    0 -0.57892261671E+02 -0.23835727688E+02  0.56623735293E+03  0.56968798103E+03  0.00000000000E+00 0. -1.
</event>
<event>
 7    1  0.6386201E-006  0.1312518E+03  0.7818608E-02  0.1304301E+00
          2   -1    0    0  502    0  0.00000000000E+00  0.00000000000E+00  0.25044887187E+03  0.25044887187E+03  0.00000000000E+00 0. -1.
          1   -1    0    0  501    0 -0.00000000000E+00 -0.00000000000E+00 -0.53898919648E+03  0.53898919648E+03  0.00000000000E+00 0. -1.
         25    2    1    2    0    0 -0.14557956633E+03  0.77812716348E+02 -0.97448397018E+02  0.22884412324E+03  0.12500085480E+03 0.  0.
          2    1    1    2  501    0  0.58803945212E+02  0.15835317313E+02 -0.35084556017E+03  0.35609165722E+03  0.00000000000E+00 0. -1.
          1    1    1    2  502    0  0.86775621120E+02 -0.93648033661E+02  0.15975363258E+03  0.20450228789E+03  0.00000000000E+00 0. -1.
         22    1    3    3    0    0 -0.87673793216E+02  0.22614698513E+02  0.14037646425E+02  0.91625182799E+02  0.00000000000E+00 0. -1.
         22    1    3    3    0    0 -0.57905773116E+02  0.55198017834E+02 -0.11148604344E+03  0.13721894044E+03  0.00000000000E+00 0. -1.
</event>
<event>
 7    1  0.6386201E-006  0.2132205E+03  0.7818608E-02  0.1316400E+00
          2   -1    0    0  502    0  0.00000000000E+00  0.00000000000E+00  0.66093940933E+03  0.66093940933E+03  0.00000000000E+00 0. -1.
          1   -1    0    0  501    0 -0.00000000000E+00 -0.00000000000E+00 -0.17180111450E+04  0.17180111450E+04  0.00000000000E+00 0. -1.
         25    2    1    2    0    0 -0.17564973875E+03 -0.69936603942E+02 -0.44417125749E+03  0.49865420761E+03  0.12499581390E+03 0.  0.
          2    1    1    2  501    0  0.20355808699E+03  0.88632362986E+02 -0.12362573820E+04  0.12560349936E+04  0.00000000000E+00 0. -1.
          1    1    1    2  502    0 -0.27908348235E+02 -0.18695759045E+02  0.62335690389E+03  0.62426135307E+03  0.00000000000E+00 0. -1.
         22    1    3    3    0    0 -0.17882860815E+03 -0.86495165668E+02 -0.43756411797E+03  0.48054494286E+03  0.00000000000E+00 0.  1.
         22    1    3    3    0    0  0.31788693957E+01  0.16558561727E+02 -0.66071395205E+01  0.18109264748E+02  0.00000000000E+00 0.  1.
</event>
<event>
 7    1  0.6386201E-006  0.3693904E+02  0.7818608E-02  0.1539751E+00
          2   -1    0    0  502    0  0.00000000000E+00  0.00000000000E+00  0.70180315266E+03  0.70180315266E+03  0.00000000000E+00 0. -1.
          1   -1    0    0  501    0 -0.00000000000E+00 -0.00000000000E+00 -0.29602112732E+02  0.29602112732E+02  0.00000000000E+00 0. -1.
         25    2    1    2    0    0  0.84272385679E+01 -0.56122816363E+01  0.34432379656E+03  0.36645087077E+03  0.12499939104E+03 0.  0.
          2    1    1    2  501    0 -0.56120339314E+01 -0.34666473641E+02  0.52530852645E+00  0.35121720753E+02  0.00000000000E+00 0. -1.
          1    1    1    2  502    0 -0.28152046365E+01  0.40278755278E+02  0.32735193484E+03  0.32983267387E+03  0.00000000000E+00 0. -1.
         22    1    3    3    0    0  0.23217867853E+02  0.28446477970E+02  0.23742142241E+02  0.43725974143E+02  0.00000000000E+00 0. -1.
         22    1    3    3    0    0 -0.14790629285E+02 -0.34058759606E+02  0.32058165432E+03  0.32272489663E+03  0.00000000000E+00 0. -1.
</event>
<event>
 7    1  0.6386201E-006  0.5503390E+02  0.7818608E-02  0.1482796E+00
          2   -1    0    0  502    0  0.00000000000E+00  0.00000000000E+00  0.24246383465E+04  0.24246383465E+04  0.00000000000E+00 0. -1.
          1   -1    0    0  501    0 -0.00000000000E+00 -0.00000000000E+00 -0.12234366126E+02  0.12234366126E+02  0.00000000000E+00 0. -1.
         25    2    1    2    0    0  0.44872685074E+02  0.35203448539E+01  0.15100107914E+04  0.15158439708E+04  0.12499761248E+03 0.  0.
          2    1    1    2  501    0 -0.41343297399E+02 -0.37998409089E+02  0.79092184067E+02  0.96998561400E+02  0.00000000000E+00 0. -1.
          1    1    1    2  502    0 -0.35293876750E+01  0.34478064235E+02  0.82330100495E+03  0.82403018042E+03  0.00000000000E+00 0. -1.
         22    1    3    3    0    0  0.22320713992E+02 -0.55478570354E+02  0.45043202521E+03  0.45438430362E+03  0.00000000000E+00 0. -1.
         22    1    3    3    0    0  0.22551971082E+02  0.58998915208E+02  0.10595787662E+04  0.10614596672E+04  0.00000000000E+00 0. -1.
</event>
<event>
 7    1  0.6386201E-006  0.1045851E+03  0.7818608E-02  0.1328712E+00
          2   -1    0    0  502    0  0.00000000000E+00  0.00000000000E+00  0.59515383698E+03  0.59515383698E+03  0.00000000000E+00 0. -1.
          1   -1    0    0  501    0 -0.00000000000E+00 -0.00000000000E+00 -0.80823446861E+03  0.80823446861E+03  0.00000000000E+00 0. -1.
         25    2    1    2    0    0  0.15728656785E+03  0.29309301368E+02 -0.16525206484E+03  0.26178322092E+03  0.12499644096E+03 0.  0.
          2    1    1    2  501    0 -0.95933440047E+02 -0.27577806580E+02 -0.58878068149E+03  0.59718209218E+03  0.00000000000E+00 0. -1.
          1    1    1    2  502    0 -0.61353127798E+02 -0.17314947888E+01  0.54095211469E+03  0.54442299249E+03  0.00000000000E+00 0. -1.
         22    1    3    3    0    0  0.12543969943E+03  0.63833455117E+02 -0.16214494561E+03  0.21471099546E+03  0.00000000000E+00 0.  1.
         22    1    3    3    0    0  0.31846868417E+02 -0.34524153748E+02 -0.31071192259E+01  0.47072225462E+02  0.00000000000E+00 0.  1.
</event>
<event>
 7    1  0.6386201E-006  0.6326174E+02  0.7818608E-02  0.1506079E+00
          2   -1    0    0  502    0  0.00000000000E+00  0.00000000000E+00  0.11806380328E+03  0.11806380328E+03  0.00000000000E+00 0. -1.
          1   -1    0    0  501    0 -0.00000000000E+00 -0.00000000000E+00 -0.86717240658E+03  0.86717240658E+03  0.00000000000E+00 0. -1.
         25    2    1    2    0    0 -0.40012948804E+02 -0.37594485521E+01 -0.24081529626E+03  0.27428085579E+03  0.12499124534E+03 0.  0.
          2    1    1    2  501    0  0.65027589948E+02  0.94843729408E+01 -0.60619490670E+03  0.60974650937E+03  0.00000000000E+00 0. -1.
          1    1    1    2  502    0 -0.25014641144E+02 -0.57249243888E+01  0.97901599653E+02  0.10120884470E+03  0.00000000000E+00 0. -1.
         22    1    3    3    0    0  0.12574578268E+02 -0.45330287432E+02 -0.37377728091E+02  0.60083687758E+02  0.00000000000E+00 0.  1.
         22    1    3    3    0    0 -0.52587527072E+02  0.41570838880E+02 -0.20343756817E+03  0.21419716803E+03  0.00000000000E+00 0.  1.
</event>
<event>
 7    1  0.6386201E-006  0.2622071E+02  0.7818608E-02  0.1652373E+00
          2   -1    0    0  502    0  0.00000000000E+00  0.00000000000E+00  0.40906274589E+03  0.40906274589E+03  0.00000000000E+00 0. -1.
          1   -1    0    0  501    0 -0.00000000000E+00 -0.00000000000E+00 -0.20132879904E+03  0.20132879904E+03  0.00000000000E+00 0. -1.
         25    2    1    2    0    0 -0.44576969996E+02  0.19777768908E+02  0.24508855826E+02  0.13639669990E+03  0.12500043733E+03 0.  0.
          2    1    1    2  501    0  0.18744536416E+02 -0.16566469009E+02 -0.14378769102E+03  0.14594761262E+03  0.00000000000E+00 0. -1.
          1    1    1    2  502    0  0.25832433580E+02 -0.32112998991E+01  0.32701278204E+03  0.32804723241E+03  0.00000000000E+00 0. -1.
         22    1    3    3    0    0 -0.69059712581E+02  0.16825955410E+02  0.60109955375E+02  0.93089008011E+02  0.00000000000E+00 0.  1.
         22    1    3    3    0    0  0.24482742586E+02  0.29518134981E+01 -0.35601099548E+02  0.43307691886E+02  0.00000000000E+00 0.  1.
</event>
<event>
 7    1  0.6386201E-006  0.1566014E+03  0.7818608E-02  0.1243843E+00
          2   -1    0    0  502    0  0.00000000000E+00  0.00000000000E+00  0.16509066926E+04  0.16509066926E+04  0.00000000000E+00 0. -1.
          1   -1    0    0  501    0 -0.00000000000E+00 -0.00000000000E+00 -0.16202140567E+04  0.16202140567E+04  0.00000000000E+00 0. -1.
         25    2    1    2    0    0 -0.69951534229E+02 -0.65743182715E+02 -0.10273134666E+03  0.18813242153E+03  0.12499878092E+03 0.  0.
          2    1    1    2  501    0  0.27416870217E+02 -0.87047660815E+02 -0.14694527760E+04  0.14722840897E+04  0.00000000000E+00 0. -1.
          1    1    1    2  502    0  0.42534664012E+02  0.15279084353E+03  0.16028767586E+04  0.16107042381E+04  0.00000000000E+00 0. -1.
         22    1    3    3    0    0 -0.24247829774E+02  0.33926787670E+02 -0.53777742343E+02  0.68051669648E+02  0.00000000000E+00 0.  1.
         22    1    3    3    0    0 -0.45703704455E+02 -0.99669970385E+02 -0.48953604312E+02  0.12008075188E+03  0.00000000000E+00 0.  1.
</event>
<event>
 7    1  0.6386201E-006  0.1237342E+03  0.7818608E-02  0.1270500E+00
          2   -1    0    0  502    0  0.00000000000E+00  0.00000000000E+00  0.87668758409E+03  0.87668758409E+03  0.00000000000E+00 0. -1.
          1   -1    0    0  501    0 -0.00000000000E+00 -0.00000000000E+00 -0.55146926337E+03  0.55146926337E+03  0.00000000000E+00 0. -1.
         25    2    1    2    0    0  0.14464418754E+02 -0.11709512838E+03 -0.27033076658E+03  0.32035043277E+03  0.12500075167E+03 0.  0.
          2    1    1    2  501    0 -0.10117882587E+03  0.98075613128E+02 -0.23419916093E+03  0.27332257074E+03  0.00000000000E+00 0. -1.
          1    1    1    2  502    0  0.86714407113E+02  0.19019515248E+02  0.82974824823E+03  0.83448384394E+03  0.00000000000E+00 0. -1.
         22    1    3    3    0    0 -0.52051430059E+02 -0.29287424253E+02 -0.72643178916E+02  0.94043266817E+02  0.00000000000E+00 0.  1.
         22    1    3    3    0    0  0.66515848814E+02 -0.87807704123E+02 -0.19768758766E+03  0.22630716596E+03  0.00000000000E+00 0.  1.
</event>
<event>
 7    1  0.6386201E-006  0.5768275E+02  0.7818608E-02  0.1500831E+00
          2   -1    0    0  502    0  0.00000000000E+00  0.00000000000E+00  0.23408168974E+04  0.23408168974E+04  0.00000000000E+00 0. -1.
          1   -1    0    0  501    0 -0.00000000000E+00 -0.00000000000E+00 -0.29907272051E+03  0.29907272051E+03  0.00000000000E+00 0. -1.
         25    2    1    2    0    0 -0.48912344668E+02 -0.18558342727E+02  0.29711733995E+03  0.32655888058E+03  0.12500063697E+03 0.  0.
          2    1    1    2  501    0  0.36390456097E+02  0.44905925825E+02 -0.28130864657E+03  0.28718524005E+03  0.00000000000E+00 0. -1.
          1    1    1    2  502    0  0.12521888571E+02 -0.26347583099E+02  0.20259354835E+04  0.20261454972E+04  0.00000000000E+00 0. -1.
         22    1    3    3    0    0 -0.60795682772E+02  0.33360711324E+02  0.95483529988E+02  0.11800913779E+03  0.00000000000E+00 0.  1.
         22    1    3    3    0    0  0.11883338104E+02 -0.51919054051E+02  0.20163380996E+03  0.20854974279E+03  0.00000000000E+00 0.  1.
</event>
<event>
 7    1  0.6386201E-006  0.7480625E+02  0.7818608E-02  0.1347388E+00
          2   -1    0    0  502    0  0.00000000000E+00  0.00000000000E+00  0.41434304192E+03  0.41434304192E+03  0.00000000000E+00 0. -1.
          1   -1    0    0  501    0 -0.00000000000E+00 -0.00000000000E+00 -0.18657950329E+03  0.18657950329E+03  0.00000000000E+00 0. -1.
         25    2    1    2    0    0 -0.12507192905E+02  0.75353942591E+02 -0.55330401301E+02  0.15659257202E+03  0.12500053506E+03 0.  0.
          2    1    1    2  501    0 -0.59932708680E+02 -0.56687525246E+02 -0.54287400055E+02  0.98754882881E+02  0.00000000000E+00 0. -1.
          1    1    1    2  502    0  0.72439901585E+02 -0.18666417345E+02  0.33738133998E+03  0.34557509031E+03  0.00000000000E+00 0. -1.
         22    1    3    3    0    0  0.31601190275E+02  0.66247999566E+02  0.13210428605E+02  0.74578469394E+02  0.00000000000E+00 0.  1.
         22    1    3    3    0    0 -0.44108383179E+02  0.91059430255E+01 -0.68540829906E+02  0.82014102624E+02  0.00000000000E+00 0.  1.
</event>
<event>
 7    1  0.6386201E-006  0.1068456E+03  0.7818608E-02  0.1320155E+00
          2   -1    0    0  502    0  0.00000000000E+00  0.00000000000E+00  0.34351668371E+04  0.34351668371E+04  0.00000000000E+00 0. -1.
          1   -1    0    0  501    0 -0.00000000000E+00 -0.00000000000E+00 -0.33229057117E+02  0.33229057117E+02  0.00000000000E+00 0. -1.
         25    2    1    2    0    0 -0.51521702901E+02  0.28124865563E+02  0.36283761863E+03  0.38822899733E+03  0.12500049177E+03 0.  0.
          2    1    1    2  501    0 -0.59695216814E+02 -0.25256399835E+02  0.34349496507E+02  0.73357293798E+02  0.00000000000E+00 0. -1.
          1    1    1    2  502    0  0.11121691971E+03 -0.28684657285E+01  0.30047506649E+04  0.30068096031E+04  0.00000000000E+00 0. -1.
         22    1    3    3    0    0 -0.44882470476E+02  0.58650411934E+02  0.34380661429E+03  0.35164939216E+03  0.00000000000E+00 0. -1.
         22    1    3    3    0    0 -0.66392324251E+01 -0.30525546371E+02  0.19031004341E+02  0.36579605174E+02  0.00000000000E+00 0. -1.
</event>
<event>
 7    1  0.6386201E-006  0.1136022E+03  0.7818608E-02  0.1323056E+00
          2   -1    0    0  502    0  0.00000000000E+00  0.00000000000E+00  0.10858883929E+03  0.10858883929E+03  0.00000000000E+00 0. -1.
          1   -1    0    0  501    0 -0.00000000000E+00 -0.00000000000E+00 -0.22649508632E+04  0.22649508632E+04  0.00000000000E+00 0. -1.
         25    2    1    2    0    0 -0.24017841758E+02 -0.28670201305E+01 -0.12835733948E+04  0.12898717608E+04  0.12499369240E+03 0.  0.
          2    1    1    2  501    0  0.19320228190E+02  0.11637207575E+03 -0.94284845867E+03  0.95019942499E+03  0.00000000000E+00 0. -1.
          1    1    1    2  502    0  0.46976135680E+01 -0.11350505562E+03  0.70059829525E+02  0.13346851665E+03  0.00000000000E+00 0. -1.
         22    1    3    3    0    0  0.20085585139E+02 -0.49128371153E+01 -0.35988553229E+02  0.41505935267E+02  0.00000000000E+00 0. -1.
         22    1    3    3    0    0 -0.44103426897E+02  0.20458169848E+01 -0.12475848415E+04  0.12483658256E+04  0.00000000000E+00 0. -1.
</event>
<event>
 7    1  0.6386201E-006  0.8126858E+02  0.7818608E-02  0.1369393E+00
          2   -1    0    0  502    0  0.00000000000E+00  0.00000000000E+00  0.24500165849E+04  0.24500165849E+04  0.00000000000E+00 0. -1.
          1   -1    0    0  501    0 -0.00000000000E+00 -0.00000000000E+00 -0.86454891506E+02  0.86454891506E+02  0.00000000000E+00 0. -1.
         25    2    1    2    0    0  0.24221883393E+02  0.46454007346E+02  0.70521491400E+02  0.15279605061E+03  0.12501471073E+03 0.  0.
          2    1    1    2  501    0 -0.79197979822E+02 -0.55962259608E+02  0.72942380925E+01  0.97248652524E+02  0.00000000000E+00 0. -1.
          1    1    1    2  502    0  0.54976096429E+02  0.95082522623E+01  0.22857459639E+04  0.22864267733E+04  0.00000000000E+00 0. -1.
         22    1    3    3    0    0 -0.43515164311E+02  0.17589787882E+02 -0.51454355411E+01  0.47217006148E+02  0.00000000000E+00 0. -1.
         22    1    3    3    0    0  0.67737047704E+02  0.28864219464E+02  0.75666926941E+02  0.10557904446E+03  0.00000000000E+00 0. -1.
</event>
<event>
 7    1  0.6386201E-006  0.9661210E+02  0.7818608E-02  0.1469878E+00
          2   -1    0    0  502    0  0.00000000000E+00  0.00000000000E+00  0.60403745237E+02  0.60403745237E+02  0.00000000000E+00 0. -1.
          1   -1    0    0  501    0 -0.00000000000E+00 -0.00000000000E+00 -0.17582857604E+04  0.17582857604E+04  0.00000000000E+00 0. -1.
         25    2    1    2    0    0  0.72083748205E+02 -0.51300815062E+02 -0.19749296432E+03  0.24991641780E+03  0.12500761796E+03 0.  0.
          2    1    1    2  501    0  0.18898882487E+02  0.10539493728E+02 -0.14616575314E+04  0.14618176999E+04  0.00000000000E+00 0. -1.
          1    1    1    2  502    0 -0.90982630692E+02  0.40761321334E+02 -0.38731519421E+02  0.10695538790E+03  0.00000000000E+00 0. -1.
         22    1    3    3    0    0  0.35182369099E+02 -0.45232583528E+02 -0.20405449131E+03  0.21194815670E+03  0.00000000000E+00 0. -1.
         22    1    3    3    0    0  0.36901379106E+02 -0.60682315340E+01  0.65615269891E+01  0.37968261091E+02  0.00000000000E+00 0. -1.
</event>
<event>
 7    1  0.6386201E-006  0.6843237E+02  0.7818608E-02  0.1497149E+00
          2   -1    0    0  502    0  0.00000000000E+00  0.00000000000E+00  0.10492973667E+04  0.10492973667E+04  0.00000000000E+00 0. -1.
          1   -1    0    0  501    0 -0.00000000000E+00 -0.00000000000E+00 -0.14733921353E+03  0.14733921353E+03  0.00000000000E+00 0. -1.
         25    2    1    2    0    0 -0.66000140559E+02  0.60597921083E+02  0.15019744374E+03  0.21496169485E+03  0.12498452527E+03 0.  0.
          2    1    1    2  501    0  0.55956392732E+02 -0.37463904275E+02 -0.10489391827E+03  0.12464909186E+03  0.00000000000E+00 0. -1.
          1    1    1    2  502    0  0.10043747828E+02 -0.23134016808E+02  0.85665462772E+03  0.85702579354E+03  0.00000000000E+00 0. -1.
         22    1    3    3    0    0 -0.56535239861E+02 -0.21732487106E+02  0.10327904822E+03  0.11972926185E+03  0.00000000000E+00 0. -1.
         22    1    3    3    0    0 -0.94649006987E+01  0.82330408189E+02  0.46918395516E+02  0.95232433003E+02  0.00000000000E+00 0. -1.
</event>
<event>
 7    1  0.6386201E-006  0.8713383E+02  0.7818608E-02  0.1367939E+00
          2   -1    0    0  502    0  0.00000000000E+00  0.00000000000E+00  0.33179275490E+03  0.33179275490E+03  0.00000000000E+00 0. -1.
          1   -1    0    0  501    0 -0.00000000000E+00 -0.00000000000E+00 -0.12224565438E+03  0.12224565438E+03  0.00000000000E+00 0. -1.
         25    2    1    2    0    0 -0.56536723880E+02 -0.21915667150E+02  0.38434704891E+02  0.14415335102E+03  0.12500505772E+03 0.  0.
          2    1    1    2  501    0 -0.35250961497E+02  0.39132002530E+02 -0.48276768035E+02  0.71446415168E+02  0.00000000000E+00 0. -1.
          1    1    1    2  502    0  0.91787685378E+02 -0.17216335380E+02  0.21938916366E+03  0.23843864310E+03  0.00000000000E+00 0. -1.
         22    1    3    3    0    0 -0.84527549078E+02  0.66811570359E+01 -0.51971174768E+01  0.84950305723E+02  0.00000000000E+00 0.  1.
         22    1    3    3    0    0  0.27990825197E+02 -0.28596824186E+02  0.43631822367E+02  0.59203045292E+02  0.00000000000E+00 0.  1.
</event>
<event>
 7    1  0.6386201E-006  0.2078702E+03  0.7818608E-02  0.1184752E+00
          2   -1    0    0  502    0  0.00000000000E+00  0.00000000000E+00  0.13497998197E+04  0.13497998197E+04  0.00000000000E+00 0. -1.
          1   -1    0    0  501    0 -0.00000000000E+00 -0.00000000000E+00 -0.13665639181E+04  0.13665639181E+04  0.00000000000E+00 0. -1.
         25    2    1    2    0    0 -0.70479289482E+02 -0.10394049014E+03  0.16278385727E+03  0.24061131825E+03  0.12499706614E+03 0.  0.
          2    1    1    2  501    0 -0.12573054121E+03 -0.27349985830E+02 -0.13123339825E+04  0.13186268131E+04  0.00000000000E+00 0. -1.
          1    1    1    2  502    0  0.19620983069E+03  0.13129047597E+03  0.11327860267E+04  0.11571256065E+04  0.00000000000E+00 0. -1.
         22    1    3    3    0    0 -0.29918936652E+01 -0.59525600588E+02  0.80976662188E+00  0.59606243591E+02  0.00000000000E+00 0. -1.
         22    1    3    3    0    0 -0.67487395817E+02 -0.44414889552E+02  0.16197409065E+03  0.18100507466E+03  0.00000000000E+00 0. -1.
</event>
<event>
 7    1  0.6386201E-006  0.4591264E+02  0.7818608E-02  0.1507754E+00
          2   -1    0    0  502    0  0.00000000000E+00  0.00000000000E+00  0.52265784690E+03  0.52265784690E+03  0.00000000000E+00 0. -1.
          1   -1    0    0  501    0 -0.00000000000E+00 -0.00000000000E+00 -0.23110823403E+04  0.23110823403E+04  0.00000000000E+00 0. -1.
         25    2    1    2    0    0 -0.55587223033E+02  0.17744170177E+01 -0.85273343442E+02  0.16121425935E+03  0.12500162557E+03 0.  0.
          2    1    1    2  501    0  0.34849100994E+02 -0.29915979155E+02 -0.21869668037E+04  0.21874490225E+04  0.00000000000E+00 0. -1.
          1    1    1    2  502    0  0.20738122039E+02  0.28141562137E+02  0.48381565377E+03  0.48507690530E+03  0.00000000000E+00 0. -1.
         22    1    3    3    0    0 -0.73107488679E+02  0.23261581222E+02 -0.56782996548E+01  0.76928857712E+02  0.00000000000E+00 0. -1.
         22    1    3    3    0    0  0.17520265645E+02 -0.21487164204E+02 -0.79595043787E+02  0.84285401638E+02  0.00000000000E+00 0. -1.
</event>
<event>
 7    1  0.6386201E-006  0.1747864E+03  0.7818608E-02  0.1249921E+00
          2   -1    0    0  502    0  0.00000000000E+00  0.00000000000E+00  0.52494587858E+04  0.52494587858E+04  0.00000000000E+00 0. -1.
          1   -1    0    0  501    0 -0.00000000000E+00 -0.00000000000E+00 -0.38874985417E+02  0.38874985417E+02  0.00000000000E+00 0. -1.
         25    2    1    2    0    0 -0.70262561063E+01 -0.11816775581E+03  0.24093026262E+04  0.24154454862E+04  0.12499906120E+03 0.  0.
          2    1    1    2  501    0 -0.44716675957E+02  0.17509337944E+03  0.19647011850E+03  0.26694152935E+03  0.00000000000E+00 0. -1.
          1    1    1    2  502    0  0.51742932063E+02 -0.56925623625E+02  0.26048110557E+04  0.26059467557E+04  0.00000000000E+00 0. -1.
         22    1    3    3    0    0 -0.74289915917E+00 -0.12767864346E+03  0.23868722009E+04  0.23902847720E+04  0.00000000000E+00 0. -1.
         22    1    3    3    0    0 -0.62833569471E+01  0.95108876506E+01  0.22430425356E+02  0.25160714220E+02  0.00000000000E+00 0. -1.
</event>
<event>
 7    1  0.6386201E-006  0.1030936E+03  0.7818608E-02  0.1351267E+00
          2   -1    0    0  502    0  0.00000000000E+00  0.00000000000E+00  0.13030762830E+04  0.13030762830E+04  0.00000000000E+00 0. -1.
          1   -1    0    0  501    0 -0.00000000000E+00 -0.00000000000E+00 -0.21787409956E+03  0.21787409956E+03  0.00000000000E+00 0. -1.
         25    2    1    2    0    0 -0.86544654408E+02  0.25318112316E+02 -0.70459203191E+02  0.16947119307E+03  0.12500000779E+03 0.  0.
          2    1    1    2  501    0  0.14563542897E+02  0.49099142090E+02 -0.88911997851E+02  0.10260685112E+03  0.00000000000E+00 0. -1.
          1    1    1    2  502    0  0.71981111511E+02 -0.74417254406E+02  0.12445733845E+04  0.12488723384E+04  0.00000000000E+00 0. -1.
         22    1    3    3    0    0 -0.89802168635E+02  0.64990387912E+02 -0.35232273679E+02  0.11631634933E+03  0.00000000000E+00 0. -1.
         22    1    3    3    0    0  0.32575142273E+01 -0.39672275596E+02 -0.35226929511E+02  0.53154843737E+02  0.00000000000E+00 0. -1.
</event>
<event>
 7    1  0.6386201E-006  0.8960235E+02  0.7818608E-02  0.1332708E+00
          2   -1    0    0  502    0  0.00000000000E+00  0.00000000000E+00  0.27068364632E+03  0.27068364632E+03  0.00000000000E+00 0. -1.
          1   -1    0    0  501    0 -0.00000000000E+00 -0.00000000000E+00 -0.18000729829E+04  0.18000729829E+04  0.00000000000E+00 0. -1.
         25    2    1    2    0    0  0.40828810723E+02 -0.49298407660E+02 -0.16325493177E+03  0.21535071285E+03  0.12500572785E+03 0.  0.
          2    1    1    2  501    0  0.14494805119E+02  0.90815203434E+02 -0.16045377813E+04  0.16071711148E+04  0.00000000000E+00 0. -1.
          1    1    1    2  502    0 -0.55323615842E+02 -0.41516795774E+02  0.23840337649E+03  0.24823480160E+03  0.00000000000E+00 0. -1.
         22    1    3    3    0    0 -0.24137869880E+01 -0.48215450203E+02 -0.16514182950E+03  0.17205342152E+03  0.00000000000E+00 0.  1.
         22    1    3    3    0    0  0.43242597711E+02 -0.10829574566E+01  0.18868977266E+01  0.43297291332E+02  0.00000000000E+00 0.  1.
</event>
<event>
 7    1  0.6386201E-006  0.2028513E+03  0.7818608E-02  0.1219539E+00
          2   -1    0    0  502    0  0.00000000000E+00  0.00000000000E+00  0.12322490536E+04  0.12322490536E+04  0.00000000000E+00 0. -1.
          1   -1    0    0  501    0 -0.00000000000E+00 -0.00000000000E+00 -0.94733908291E+03  0.94733908291E+03  0.00000000000E+00 0. -1.
         25    2    1    2    0    0 -0.96726841510E+02  0.26328526486E+03  0.16497613883E+02  0.30751979497E+03  0.12498416088E+03 0.  0.
          2    1    1    2  501    0  0.39410671886E+02 -0.19326319704E+03 -0.78773422396E+03  0.81205238254E+03  0.00000000000E+00 0. -1.
          1    1    1    2  502    0  0.57316169624E+02 -0.70022067817E+02  0.10561465808E+04  0.10600159591E+04  0.00000000000E+00 0. -1.
         22    1    3    3    0    0 -0.11575009398E+03  0.15841143786E+03  0.35139996312E+02  0.19931655034E+03  0.00000000000E+00 0. -1.
         22    1    3    3    0    0  0.19023252467E+02  0.10487382700E+03 -0.18642382429E+02  0.10820324462E+03  0.00000000000E+00 0. -1.
</event>
<event>
 7    1  0.6386201E-006  0.6626313E+02  0.7818608E-02  0.1420963E+00
          2   -1    0    0  502    0  0.00000000000E+00  0.00000000000E+00  0.53176992662E+03  0.53176992662E+03  0.00000000000E+00 0. -1.
          1   -1    0    0  501    0 -0.00000000000E+00 -0.00000000000E+00 -0.44653051944E+02  0.44653051944E+02  0.00000000000E+00 0. -1.
         25    2    1    2    0    0 -0.58711084318E+02 -0.39995576915E+02  0.23728676149E+03  0.27744615615E+03  0.12499889915E+03 0.  0.
          2    1    1    2  501    0  0.37980214215E+02 -0.24780371516E+02  0.58867914315E+01  0.45729834874E+02  0.00000000000E+00 0. -1.
          1    1    1    2  502    0  0.20730870104E+02  0.64775948432E+02  0.24394332175E+03  0.25324698754E+03  0.00000000000E+00 0. -1.
         22    1    3    3    0    0 -0.94288474897E+01  0.17289130490E+02 -0.76431045432E+01  0.21124257269E+02  0.00000000000E+00 0.  1.
         22    1    3    3    0    0 -0.49282236829E+02 -0.57284707406E+02  0.24492986604E+03  0.25632189888E+03  0.00000000000E+00 0.  1.
</event>
<event>
 7    1  0.6386201E-006  0.1104646E+03  0.7818608E-02  0.1259844E+00
          2   -1    0    0  502    0  0.00000000000E+00  0.00000000000E+00  0.34339356404E+03  0.34339356404E+03  0.00000000000E+00 0. -1.
          1   -1    0    0  501    0 -0.00000000000E+00 -0.00000000000E+00 -0.70411740289E+03  0.70411740289E+03  0.00000000000E+00 0. -1.
         25    2    1    2    0    0  0.88891026973E+02  0.88160315780E+02  0.95569651437E+02  0.20107863482E+03  0.12500081260E+03 0.  0.
          2    1    1    2  501    0  0.19239762401E+02 -0.11003319724E+03 -0.63045271494E+03  0.64027189438E+03  0.00000000000E+00 0. -1.
          1    1    1    2  502    0 -0.10813078937E+03  0.21872881464E+02  0.17415922465E+03  0.20616043773E+03  0.00000000000E+00 0. -1.
         22    1    3    3    0    0 -0.27250595137E+02  0.41572248331E+02  0.41522812729E+02  0.64768748201E+02  0.00000000000E+00 0.  1.
         22    1    3    3    0    0  0.11614162211E+03  0.46588067449E+02  0.54046838708E+02  0.13630988662E+03  0.00000000000E+00 0.  1.
</event>
<event>
 7    1  0.6386201E-006  0.7060243E+02  0.7818608E-02  0.1378922E+00
          2   -1    0    0  502    0  0.00000000000E+00  0.00000000000E+00  0.16374091410E+03  0.16374091410E+03  0.00000000000E+00 0. -1.
          1   -1    0    0  501    0 -0.00000000000E+00 -0.00000000000E+00 -0.14399751272E+04  0.14399751272E+04  0.00000000000E+00 0. -1.
         25    2    1    2    0    0  0.76069200060E+01 -0.15661624766E+02 -0.17709608124E+03  0.21746508100E+03  0.12499955097E+03 0.  0.
          2    1    1    2  501    0 -0.61675396597E+02  0.40207139752E+02 -0.12354111483E+04  0.12376029953E+04  0.00000000000E+00 0. -1.
          1    1    1    2  502    0  0.54068476591E+02 -0.24545514986E+02  0.13627301647E+03  0.14864796496E+03  0.00000000000E+00 0. -1.
         22    1    3    3    0    0  0.55311709174E+02  0.73618127216E+01 -0.14539229066E+03  0.15573214068E+03  0.00000000000E+00 0.  1.
         22    1    3    3    0    0 -0.47704789168E+02 -0.23023437488E+02 -0.31703790578E+02  0.61732940318E+02  0.00000000000E+00 0.  1.
</event>
<event>
 7    1  0.6386201E-006  0.1288220E+03  0.7818608E-02  0.1346480E+00
          2   -1    0    0  502    0  0.00000000000E+00  0.00000000000E+00  0.61919783321E+03  0.61919783321E+03  0.00000000000E+00 0. -1.
          1   -1    0    0  501    0 -0.00000000000E+00 -0.00000000000E+00 -0.89526804374E+02  0.89526804374E+02  0.00000000000E+00 0. -1.
         25    2    1    2    0    0  0.94439253269E+02  0.16845124950E+02  0.35395136072E+03  0.38743870463E+03  0.12499861315E+03 0.  0.
          2    1    1    2  501    0 -0.12731393815E+03 -0.44089941914E+02 -0.57560496519E+01  0.13485508493E+03  0.00000000000E+00 0. -1.
          1    1    1    2  502    0  0.32874684879E+02  0.27244816964E+02  0.18147571777E+03  0.18643084803E+03  0.00000000000E+00 0. -1.
         22    1    3    3    0    0 -0.12562491807E+01  0.34856190472E+02  0.21472134942E+03  0.21753572137E+03  0.00000000000E+00 0. -1.
         22    1    3    3    0    0  0.95695502450E+02 -0.18011065522E+02  0.13923001130E+03  0.16990298325E+03  0.00000000000E+00 0. -1.
</event>
<event>
 7    1  0.6386201E-006  0.7474579E+02  0.7818608E-02  0.1461744E+00
          2   -1    0    0  502    0  0.00000000000E+00  0.00000000000E+00  0.42367616814E+02  0.42367616814E+02  0.00000000000E+00 0. -1.
          1   -1    0    0  501    0 -0.00000000000E+00 -0.00000000000E+00 -0.13241878761E+04  0.13241878761E+04  0.00000000000E+00 0. -1.
         25    2    1    2    0    0  0.29055537429E+02  0.61024095596E+02 -0.14146282870E+03  0.20051014648E+03  0.12499768973E+03 0.  0.
          2    1    1    2  501    0  0.29485824704E+02 -0.31861370125E+01 -0.10189141879E+04  0.10193457155E+04  0.00000000000E+00 0. -1.
          1    1    1    2  502    0 -0.58541362133E+02 -0.57837958583E+02 -0.12144324268E+03  0.14669963097E+03  0.00000000000E+00 0. -1.
         22    1    3    3    0    0 -0.32919714546E+02  0.19583091098E+02  0.25025255471E+01  0.38385774668E+02  0.00000000000E+00 0. -1.
         22    1    3    3    0    0  0.61975251975E+02  0.41441004497E+02 -0.14396535425E+03  0.16212437181E+03  0.00000000000E+00 0. -1.
</event>
<event>
 7    1  0.6386201E-006  0.6501781E+02  0.7818608E-02  0.1408535E+00
          2   -1    0    0  502    0  0.00000000000E+00  0.00000000000E+00  0.81076507467E+02  0.81076507467E+02  0.00000000000E+00 0. -1.
          1   -1    0    0  501    0 -0.00000000000E+00 -0.00000000000E+00 -0.21829820211E+03  0.21829820211E+03  0.00000000000E+00 0. -1.
         25    2    1    2    0    0 -0.57634366091E+02  0.41726293235E+02 -0.95963099362E+02  0.17290936140E+03  0.12500370843E+03 0.  0.
          2    1    1    2  501    0  0.13574938776E+02 -0.67194173534E+02 -0.26277730678E+02  0.73415632186E+02  0.00000000000E+00 0. -1.
          1    1    1    2  502    0  0.44059427315E+02  0.25467880299E+02 -0.14980864606E+02  0.53049715990E+02  0.00000000000E+00 0. -1.
         22    1    3    3    0    0 -0.67977231778E+02 -0.24605360179E+02 -0.70878627569E+02  0.10124281523E+03  0.00000000000E+00 0. -1.
         22    1    3    3    0    0  0.10342865687E+02  0.66331653414E+02 -0.25084471793E+02  0.71666546173E+02  0.00000000000E+00 0. -1.
</event>
<event>
 7    1  0.6386201E-006  0.8372446E+02  0.7818608E-02  0.1371645E+00
          2   -1    0    0  502    0  0.00000000000E+00  0.00000000000E+00  0.49374382549E+03  0.49374382549E+03  0.00000000000E+00 0. -1.
          1   -1    0    0  501    0 -0.00000000000E+00 -0.00000000000E+00 -0.52243026906E+03  0.52243026906E+03  0.00000000000E+00 0. -1.
         25    2    1    2    0    0 -0.68771924832E+02 -0.24777552042E+02  0.27155177378E+03  0.30775079713E+03  0.12500673006E+03 0.  0.
          2    1    1    2  501    0  0.11691821743E+02 -0.51854432147E+02 -0.49163465114E+03  0.49449996059E+03  0.00000000000E+00 0. -1.
          1    1    1    2  502    0  0.57080103090E+02  0.76631984189E+02  0.19139643380E+03  0.21392333683E+03  0.00000000000E+00 0. -1.
         22    1    3    3    0    0 -0.49801743422E+02  0.55475040770E+01  0.20462919562E+02  0.54126883582E+02  0.00000000000E+00 0.  1.
         22    1    3    3    0    0 -0.18970181411E+02 -0.30325056119E+02  0.25108885422E+03  0.25362391355E+03  0.00000000000E+00 0.  1.
</event>
<event>
 7    1  0.6386201E-006  0.9594919E+02  0.7818608E-02  0.1460967E+00
          2   -1    0    0  502    0  0.00000000000E+00  0.00000000000E+00  0.36222307014E+03  0.36222307014E+03  0.00000000000E+00 0. -1.
          1   -1    0    0  501    0 -0.00000000000E+00 -0.00000000000E+00 -0.11325092088E+03  0.11325092088E+03  0.00000000000E+00 0. -1.
         25    2    1    2    0    0 -0.56842548177E+01  0.10796476575E+03  0.17180866533E+02  0.16616935483E+03  0.12501348293E+03 0.  0.
          2    1    1    2  501    0 -0.16909057845E+02 -0.15934555931E+02 -0.25868791637E+02  0.34770974830E+02  0.00000000000E+00 0. -1.
          1    1    1    2  502    0  0.22593312663E+02 -0.92030209824E+02  0.25766007436E+03  0.27453366135E+03  0.00000000000E+00 0. -1.
         22    1    3    3    0    0  0.24049090170E+02  0.10763318962E+03  0.50682124255E+02  0.12137520325E+03  0.00000000000E+00 0. -1.
         22    1    3    3    0    0 -0.29733344988E+02  0.33157613720E+00 -0.33501257722E+02  0.44794151581E+02  0.00000000000E+00 0. -1.
</event>
<event>
 7    1  0.6386201E-006  0.1537191E+03  0.7818608E-02  0.1361298E+00
          2   -1    0    0  502    0  0.00000000000E+00  0.00000000000E+00  0.10235386686E+04  0.10235386686E+04  0.00000000000E+00 0. -1.
          1   -1    0    0  501    0 -0.00000000000E+00 -0.00000000000E+00 -0.14185139094E+04  0.14185139094E+04  0.00000000000E+00 0. -1.
         25    2    1    2    0    0  0.10990328837E+03 -0.97583392047E+02 -0.27700227487E+03  0.33757462984E+03  0.12500047690E+03 0.  0.
          2    1    1    2  501    0 -0.13449856857E+03  0.77814102937E+02 -0.11055401737E+04  0.11164067248E+04  0.00000000000E+00 0. -1.
          1    1    1    2  502    0  0.24595280194E+02  0.19769289110E+02  0.98756720773E+03  0.98807122334E+03  0.00000000000E+00 0. -1.
         22    1    3    3    0    0  0.43114792015E+02 -0.98718027343E+02 -0.94737463596E+02  0.14345494492E+03  0.00000000000E+00 0.  1.
         22    1    3    3    0    0  0.66788496357E+02  0.11346352964E+01 -0.18226481128E+03  0.19411968492E+03  0.00000000000E+00 0.  1.
</event>
<event>
 7    1  0.6386201E-006  0.7556486E+02  0.7818608E-02  0.1349130E+00
          2   -1    0    0  502    0  0.00000000000E+00  0.00000000000E+00  0.40327323927E+03  0.40327323927E+03  0.00000000000E+00 0. -1.
          1   -1    0    0  501    0 -0.00000000000E+00 -0.00000000000E+00 -0.34033330784E+03  0.34033330784E+03  0.00000000000E+00 0. -1.
         25    2    1    2    0    0 -0.30401870537E+02 -0.31202225450E+01 -0.86032056192E+02  0.15479244903E+03  0.12500071226E+03 0.  0.
          2    1    1    2  501    0 -0.80315181307E+01  0.70701284267E+02 -0.20989188361E+03  0.22162531373E+03  0.00000000000E+00 0. -1.
          1    1    1    2  502    0  0.38433388667E+02 -0.67581061722E+02  0.35886387124E+03  0.36718878434E+03  0.00000000000E+00 0. -1.
         22    1    3    3    0    0 -0.14314265019E+01 -0.29629522769E+02 -0.10646881659E+03  0.11052405397E+03  0.00000000000E+00 0.  1.
         22    1    3    3    0    0 -0.28970444035E+02  0.26509300224E+02  0.20436760393E+02  0.44268395061E+02  0.00000000000E+00 0.  1.
</event>
<event>
 7    1  0.6386201E-006  0.8016984E+02  0.7818608E-02  0.1369127E+00
          2   -1    0    0  502    0  0.00000000000E+00  0.00000000000E+00  0.11813028933E+03  0.11813028933E+03  0.00000000000E+00 0. -1.
          1   -1    0    0  501    0 -0.00000000000E+00 -0.00000000000E+00 -0.32398915832E+03  0.32398915832E+03  0.00000000000E+00 0. -1.
         25    2    1    2    0    0  0.17858582219E+02  0.10865647405E+03 -0.15930306755E+03  0.23049486086E+03  0.12500102095E+03 0.  0.
          2    1    1    2  501    0  0.23201445249E+02 -0.69580883712E+02 -0.10637835937E+03  0.12921362846E+03  0.00000000000E+00 0. -1.
          1    1    1    2  502    0 -0.41060027469E+02 -0.39075590337E+02  0.59822557928E+02  0.82410958331E+02  0.00000000000E+00 0. -1.
         22    1    3    3    0    0 -0.47862515426E+02  0.80647707407E+02 -0.10482573783E+03  0.14065314929E+03  0.00000000000E+00 0.  1.
         22    1    3    3    0    0  0.65721097646E+02  0.28008766642E+02 -0.54477329726E+02  0.89841711574E+02  0.00000000000E+00 0.  1.
</event>
<event>
 7    1  0.6386201E-006  0.5756370E+02  0.7818608E-02  0.1499277E+00
          2   -1    0    0  502    0  0.00000000000E+00  0.00000000000E+00  0.17842311383E+04  0.17842311383E+04  0.00000000000E+00 0. -1.
          1   -1    0    0  501    0 -0.00000000000E+00 -0.00000000000E+00 -0.12654929743E+03  0.12654929743E+03  0.00000000000E+00 0. -1.
         25    2    1    2    0    0 -0.18290799829E+02  0.65558229614E+02  0.44126579835E+03  0.46365168296E+03  0.12499977395E+03 0.  0.
          2    1    1    2  501    0  0.28116430901E+02 -0.90789980332E+01 -0.11283647407E+03  0.11664060945E+03  0.00000000000E+00 0. -1.
          1    1    1    2  502    0 -0.98256310720E+01 -0.56479231580E+02  0.13292525166E+04  0.13304881433E+04  0.00000000000E+00 0. -1.
         22    1    3    3    0    0 -0.27247374236E+02  0.99354247475E+02  0.27300580892E+03  0.29179763124E+03  0.00000000000E+00 0.  1.
         22    1    3    3    0    0  0.89565744079E+01 -0.33796017861E+02  0.16825998943E+03  0.17185405172E+03  0.00000000000E+00 0.  1.
</event>
<event>
 7    1  0.6386201E-006  0.4816591E+02  0.7818608E-02  0.1459375E+00
          2   -1    0    0  502    0  0.00000000000E+00  0.00000000000E+00  0.15843475451E+02  0.15843475451E+02  0.00000000000E+00 0. -1.
          1   -1    0    0  501    0 -0.00000000000E+00 -0.00000000000E+00 -0.11913000293E+04  0.11913000293E+04  0.00000000000E+00 0. -1.
         25    2    1    2    0    0  0.74201060306E-01  0.32850186982E+01 -0.38354089942E+03  0.40341855965E+03  0.12502846031E+03 0.  0.
          2    1    1    2  501    0  0.22690474855E+02 -0.45731741477E+02 -0.67962936199E+03  0.68154407011E+03  0.00000000000E+00 0. -1.
          1    1    1    2  502    0 -0.22764675915E+02  0.42446722778E+02 -0.11228629247E+03  0.12218087502E+03  0.00000000000E+00 0. -1.
         22    1    3    3    0    0 -0.10724536378E+02 -0.75885358564E+01 -0.38739413218E+03  0.38761684071E+03  0.00000000000E+00 0.  1.
         22    1    3    3    0    0  0.10798737438E+02  0.10873554555E+02  0.38532327513E+01  0.15801718943E+02  0.00000000000E+00 0.  1.
</event>
<event>
 7    1  0.6386201E-006  0.2018282E+03  0.7818608E-02  0.1311826E+00
          2   -1    0    0  502    0  0.00000000000E+00  0.00000000000E+00  0.23834877406E+04  0.23834877406E+04  0.00000000000E+00 0. -1.
          1   -1    0    0  501    0 -0.00000000000E+00 -0.00000000000E+00 -0.24802372722E+04  0.24802372722E+04  0.00000000000E+00 0. -1.
         25    2    1    2    0    0  0.20493156614E+03  0.11135633979E+03  0.28879649935E+02  0.26618774690E+03  0.12499880481E+03 0.  0.
          2    1    1    2  501    0 -0.16796496524E+03 -0.11029520081E+03 -0.23571553524E+04  0.23657046765E+04  0.00000000000E+00 0. -1.
          1    1    1    2  502    0 -0.36966600903E+02 -0.10611389815E+01  0.22315261709E+04  0.22318325894E+04  0.00000000000E+00 0. -1.
         22    1    3    3    0    0  0.18825109259E+03  0.72730046435E+02 -0.18696331191E+02  0.20267630921E+03  0.00000000000E+00 0. -1.
         22    1    3    3    0    0  0.16680473553E+02  0.38626293359E+02  0.47575981126E+02  0.63511437685E+02  0.00000000000E+00 0. -1.
</event>
<event>
 7    1  0.6386201E-006  0.3501977E+02  0.7818608E-02  0.1575956E+00
          2   -1    0    0  502    0  0.00000000000E+00  0.00000000000E+00  0.17888615079E+03  0.17888615079E+03  0.00000000000E+00 0. -1.
          1   -1    0    0  501    0 -0.00000000000E+00 -0.00000000000E+00 -0.80845809310E+02  0.80845809310E+02  0.00000000000E+00 0. -1.
         25    2    1    2    0    0 -0.24491891462E+01 -0.85668669556E+01  0.52269234740E+02  0.13578207347E+03  0.12500123535E+03 0.  0.
          2    1    1    2  501    0 -0.10183280921E+01  0.37788559781E+02 -0.26334514639E+02  0.46070803158E+02  0.00000000000E+00 0. -1.
          1    1    1    2  502    0  0.34675172383E+01 -0.29221692825E+02  0.72105621376E+02  0.77879083465E+02  0.00000000000E+00 0. -1.
         22    1    3    3    0    0 -0.62334836245E+02 -0.13759721282E+02  0.16886672947E+02  0.66031215820E+02  0.00000000000E+00 0. -1.
         22    1    3    3    0    0  0.59885647099E+02  0.51928543263E+01  0.35382561793E+02  0.69750857655E+02  0.00000000000E+00 0. -1.
</event>
<event>
 7    1  0.6386201E-006  0.1321503E+03  0.7818608E-02  0.1277636E+00
          2   -1    0    0  502    0  0.00000000000E+00  0.00000000000E+00  0.38862324612E+04  0.38862324612E+04  0.00000000000E+00 0. -1.
          1   -1    0    0  501    0 -0.00000000000E+00 -0.00000000000E+00 -0.86501845208E+02  0.86501845208E+02  0.00000000000E+00 0. -1.
         25    2    1    2    0    0 -0.59678650686E+02  0.13047710159E+03  0.17119559849E+03  0.25596458854E+03  0.12499648898E+03 0.  0.
          2    1    1    2  501    0 -0.17904855754E+02 -0.13265832359E+03  0.58825371917E+02  0.14621641172E+03  0.00000000000E+00 0. -1.
          1    1    1    2  502    0  0.77583506440E+02  0.21812219945E+01  0.35697096456E+04  0.35705533062E+04  0.00000000000E+00 0. -1.
         22    1    3    3    0    0  0.56169046486E+01 -0.21846655160E+02  0.34072935897E+02  0.40863075265E+02  0.00000000000E+00 0.  1.
         22    1    3    3    0    0 -0.65295555335E+02  0.15232375675E+03  0.13712266259E+03  0.21510151328E+03  0.00000000000E+00 0.  1.
</event>
<event>
 7    1  0.6386201E-006  0.8065080E+02  0.7818608E-02  0.1396884E+00
          2   -1    0    0  502    0  0.00000000000E+00  0.00000000000E+00  0.98265603264E+02  0.98265603264E+02  0.00000000000E+00 0. -1.
          1   -1    0    0  501    0 -0.00000000000E+00 -0.00000000000E+00 -0.19445301441E+04  0.19445301441E+04  0.00000000000E+00 0. -1.
         25    2    1    2    0    0 -0.74419988103E+02  0.58284832530E+02 -0.36914588423E+03  0.40103371421E+03  0.12499559897E+03 0.  0.
          2    1    1    2  501    0  0.42224356922E+02  0.15485013212E+02 -0.15393586248E+04  0.15400154732E+04  0.00000000000E+00 0. -1.
          1    1    1    2  502    0  0.32195631180E+02 -0.73769845742E+02  0.62239968232E+02  0.10174655991E+03  0.00000000000E+00 0. -1.
         22    1    3    3    0    0 -0.42183614518E+02  0.39718704722E+02 -0.41466839987E+02  0.71249783558E+02  0.00000000000E+00 0. -1.
         22    1    3    3    0    0 -0.32236373585E+02  0.18566127808E+02 -0.32767904424E+03  0.32978393065E+03  0.00000000000E+00 0. -1.
</event>
<event>
 7    1  0.6386201E-006  0.9845126E+02  0.7818608E-02  0.1344325E+00
          2   -1    0    0  502    0  0.00000000000E+00  0.00000000000E+00  0.89628684869E+03  0.89628684869E+03  0.00000000000E+00 0. -1.
          1   -1    0    0  501    0 -0.00000000000E+00 -0.00000000000E+00 -0.25294598692E+03  0.25294598692E+03  0.00000000000E+00 0. -1.
         25    2    1    2    0    0  0.55016301011E+02  0.10268115049E+03 -0.14825707993E+03  0.22621939821E+03  0.12499936934E+03 0.  0.
          2    1    1    2  501    0  0.38719341710E+00 -0.89664639587E+02 -0.33674971638E+02  0.95780484578E+02  0.00000000000E+00 0. -1.
          1    1    1    2  502    0 -0.55403494428E+02 -0.13016510902E+02  0.82527291333E+03  0.82723295282E+03  0.00000000000E+00 0. -1.
         22    1    3    3    0    0 -0.22612319055E+02  0.67462031571E+02 -0.11393153899E+03  0.13432363252E+03  0.00000000000E+00 0. -1.
         22    1    3    3    0    0  0.77628620067E+02  0.35219118918E+02 -0.34325540934E+02  0.91895765687E+02  0.00000000000E+00 0. -1.
</event>
<event>
 7    1  0.6386201E-006  0.1228542E+03  0.7818608E-02  0.1311225E+00
          2   -1    0    0  502    0  0.00000000000E+00  0.00000000000E+00  0.20152393979E+04  0.20152393979E+04  0.00000000000E+00 0. -1.
          1   -1    0    0  501    0 -0.00000000000E+00 -0.00000000000E+00 -0.88670931509E+03  0.88670931509E+03  0.00000000000E+00 0. -1.
         25    2    1    2    0    0 -0.60050836459E+02  0.25890684333E+02  0.93243988648E+03  0.94304968257E+03  0.12498852510E+03 0.  0.
          2    1    1    2  501    0  0.12104484043E+03 -0.22538674701E+02 -0.87623100540E+03  0.88483931879E+03  0.00000000000E+00 0. -1.
          1    1    1    2  502    0 -0.60994003970E+02 -0.33520096322E+01  0.10723212017E+04  0.10740597116E+04  0.00000000000E+00 0. -1.
         22    1    3    3    0    0 -0.78731566951E+02 -0.28350132132E+02  0.54655048357E+03  0.55291936186E+03  0.00000000000E+00 0.  1.
         22    1    3    3    0    0  0.18680730492E+02  0.54240816465E+02  0.38588940290E+03  0.39013032071E+03  0.00000000000E+00 0.  1.
</event>
<event>
 7    1  0.6386201E-006  0.1127370E+03  0.7818608E-02  0.1281824E+00
          2   -1    0    0  502    0  0.00000000000E+00  0.00000000000E+00  0.43045541351E+03  0.43045541351E+03  0.00000000000E+00 0. -1.
          1   -1    0    0  501    0 -0.00000000000E+00 -0.00000000000E+00 -0.17720701971E+04  0.17720701971E+04  0.00000000000E+00 0. -1.
         25    2    1    2    0    0  0.75074786896E+02 -0.61060898374E+02 -0.58940951210E+03  0.61024106309E+03  0.12500370071E+03 0.  0.
          2    1    1    2  501    0 -0.70140253896E+02 -0.52185236276E+02 -0.11629266777E+04  0.11662081340E+04  0.00000000000E+00 0. -1.
          1    1    1    2  502    0 -0.49345330005E+01  0.11324613465E+03  0.41072140622E+03  0.42607641352E+03  0.00000000000E+00 0. -1.
         22    1    3    3    0    0 -0.30860187397E+02  0.59424300731E+01 -0.89529212733E+02  0.94884896448E+02  0.00000000000E+00 0. -1.
         22    1    3    3    0    0  0.10593497429E+03 -0.67003328447E+02 -0.49988029937E+03  0.51535616664E+03  0.00000000000E+00 0. -1.
</event>
<event>
 7    1  0.6386201E-006  0.6910181E+02  0.7818608E-02  0.1386296E+00
          2   -1    0    0  502    0  0.00000000000E+00  0.00000000000E+00  0.40746749967E+03  0.40746749967E+03  0.00000000000E+00 0. -1.
          1   -1    0    0  501    0 -0.00000000000E+00 -0.00000000000E+00 -0.89404073627E+03  0.89404073627E+03  0.00000000000E+00 0. -1.
         25    2    1    2    0    0 -0.78150445812E+02  0.73477690078E+02  0.23065185129E+03  0.28342879428E+03  0.12500056721E+03 0.  0.
          2    1    1    2  501    0  0.21568385706E+02 -0.65507036242E+02 -0.86079656343E+03  0.86355491469E+03  0.00000000000E+00 0. -1.
          1    1    1    2  502    0  0.56582060106E+02 -0.79706538359E+01  0.14357147554E+03  0.15452452698E+03  0.00000000000E+00 0. -1.
         22    1    3    3    0    0 -0.88932428600E+01 -0.85065372078E+01  0.14658637774E+03  0.14710206349E+03  0.00000000000E+00 0. -1.
         22    1    3    3    0    0 -0.69257202952E+02  0.81984227286E+02  0.84065473553E+02  0.13632673079E+03  0.00000000000E+00 0. -1.
</event>
<event>
 7    1  0.6386201E-006  0.1696451E+03  0.7818608E-02  0.1319941E+00
          2   -1    0    0  502    0  0.00000000000E+00  0.00000000000E+00  0.71940155980E+03  0.71940155980E+03  0.00000000000E+00 0. -1.
          1   -1    0    0  501    0 -0.00000000000E+00 -0.00000000000E+00 -0.21464171954E+03  0.21464171954E+03  0.00000000000E+00 0. -1.
         25    2    1    2    0    0  0.40216506944E+02  0.12650859330E+03  0.41894592052E+03  0.45690505017E+03  0.12499899577E+03 0.  0.
          2    1    1    2  501    0 -0.60747941986E+02 -0.16188381838E+03 -0.15540211602E+03  0.23247903297E+03  0.00000000000E+00 0. -1.
          1    1    1    2  502    0  0.20531435041E+02  0.35375225076E+02  0.24121603577E+03  0.24465919620E+03  0.00000000000E+00 0. -1.
         22    1    3    3    0    0  0.76243006026E+02  0.70831450419E+02  0.32958834523E+03  0.34562778773E+03  0.00000000000E+00 0. -1.
         22    1    3    3    0    0 -0.36026499082E+02  0.55677142886E+02  0.89357575286E+02  0.11127726244E+03  0.00000000000E+00 0. -1.
</event>
<event>
 7    1  0.6386201E-006  0.7463137E+02  0.7818608E-02  0.1345257E+00
          2   -1    0    0  502    0  0.00000000000E+00  0.00000000000E+00  0.79647427542E+03  0.79647427542E+03  0.00000000000E+00 0. -1.
          1   -1    0    0  501    0 -0.00000000000E+00 -0.00000000000E+00 -0.19724131415E+03  0.19724131415E+03  0.00000000000E+00 0. -1.
         25    2    1    2    0    0 -0.70336187307E+01  0.51884322867E+02  0.18184189342E+03  0.22678640093E+03  0.12499657071E+03 0.  0.
          2    1    1    2  501    0  0.74162847035E+02 -0.68325609604E+01 -0.16390802135E+03  0.18003513888E+03  0.00000000000E+00 0. -1.
          1    1    1    2  502    0 -0.67129228304E+02 -0.45051761907E+02  0.58129908920E+03  0.58689404976E+03  0.00000000000E+00 0. -1.
         22    1    3    3    0    0  0.53656816688E+02  0.49113827787E+02  0.11829712703E+03  0.13887199977E+03  0.00000000000E+00 0.  1.
         22    1    3    3    0    0 -0.60690435419E+02  0.27704950804E+01  0.63544766390E+02  0.87914401152E+02  0.00000000000E+00 0.  1.
</event>
<event>
 7    1  0.6386201E-006  0.2289130E+03  0.7818608E-02  0.1209527E+00
          2   -1    0    0  502    0  0.00000000000E+00  0.00000000000E+00  0.21465716826E+04  0.21465716826E+04  0.00000000000E+00 0. -1.
          1   -1    0    0  501    0 -0.00000000000E+00 -0.00000000000E+00 -0.29681176964E+03  0.29681176964E+03  0.00000000000E+00 0. -1.
         25    2    1    2    0    0  0.11534434912E+03 -0.28612555897E+03  0.70218320638E+02  0.34018000409E+03  0.12497867122E+03 0.  0.
          2    1    1    2  501    0 -0.67546346007E+01  0.88903815434E+02 -0.14245994129E+03  0.16806054969E+03  0.00000000000E+00 0. -1.
          1    1    1    2  502    0 -0.10858971452E+03  0.19722174354E+03  0.19220015336E+04  0.19351428985E+04  0.00000000000E+00 0. -1.
         22    1    3    3    0    0  0.76899468030E+02 -0.98105191740E+02  0.79838973205E+02  0.14802843805E+03  0.00000000000E+00 0. -1.
         22    1    3    3    0    0  0.38444881091E+02 -0.18802036723E+03 -0.96206525670E+01  0.19215156604E+03  0.00000000000E+00 0. -1.
</event>
<event>
 7    1  0.6386201E-006  0.6674185E+02  0.7818608E-02  0.1500172E+00
          2   -1    0    0  502    0  0.00000000000E+00  0.00000000000E+00  0.23419239195E+04  0.23419239195E+04  0.00000000000E+00 0. -1.
          1   -1    0    0  501    0 -0.00000000000E+00 -0.00000000000E+00 -0.84802437892E+02  0.84802437892E+02  0.00000000000E+00 0. -1.
         25    2    1    2    0    0 -0.36149923451E+02 -0.49692481521E+02  0.12847644661E+04  0.12922926712E+04  0.12499781979E+03 0.  0.
          2    1    1    2  501    0  0.18438461267E+02 -0.17362491667E+02 -0.77887471298E+02  0.81901716441E+02  0.00000000000E+00 0. -1.
          1    1    1    2  502    0  0.17711462184E+02  0.67054973188E+02  0.10502444868E+04  0.10525319698E+04  0.00000000000E+00 0. -1.
         22    1    3    3    0    0 -0.53729119737E+02 -0.36339481619E+01  0.10918963842E+04  0.10932235534E+04  0.00000000000E+00 0.  1.
         22    1    3    3    0    0  0.17579196286E+02 -0.46058533360E+02  0.19286808191E+03  0.19906911778E+03  0.00000000000E+00 0.  1.
</event>
<event>
 7    1  0.6386201E-006  0.9254774E+02  0.7818608E-02  0.1319008E+00
          2   -1    0    0  502    0  0.00000000000E+00  0.00000000000E+00  0.30849893743E+03  0.30849893743E+03  0.00000000000E+00 0. -1.
          1   -1    0    0  501    0 -0.00000000000E+00 -0.00000000000E+00 -0.11017333803E+04  0.11017333803E+04  0.00000000000E+00 0. -1.
         25    2    1    2    0    0 -0.12703191918E+02  0.66094144352E+02 -0.34576039276E+03  0.37375995251E+03  0.12496577890E+03 0.  0.
          2    1    1    2  501    0 -0.71379780233E+02 -0.24914772641E+02 -0.73253701533E+03  0.73642806692E+03  0.00000000000E+00 0. -1.
          1    1    1    2  502    0  0.84082972151E+02 -0.41179371711E+02  0.28506296517E+03  0.30004429835E+03  0.00000000000E+00 0. -1.
         22    1    3    3    0    0 -0.33410935749E+02  0.85418554802E+02 -0.14897179268E+03  0.17494346272E+03  0.00000000000E+00 0. -1.
         22    1    3    3    0    0  0.20707743831E+02 -0.19324410451E+02 -0.19678860007E+03  0.19881648979E+03  0.00000000000E+00 0. -1.
</event>
<event>
 7    1  0.6386201E-006  0.1411801E+03  0.7818608E-02  0.1396676E+00
          2   -1    0    0  502    0  0.00000000000E+00  0.00000000000E+00  0.86550045429E+03  0.86550045429E+03  0.00000000000E+00 0. -1.
          1   -1    0    0  501    0 -0.00000000000E+00 -0.00000000000E+00 -0.12988925782E+04  0.12988925782E+04  0.00000000000E+00 0. -1.
         25    2    1    2    0    0  0.14774785241E+03 -0.75586070878E+02  0.88602567670E+02  0.22587095249E+03  0.12499836070E+03 0.  0.
          2    1    1    2  501    0 -0.12337587359E+03  0.67322895838E+02 -0.12260083263E+04  0.12340382468E+04  0.00000000000E+00 0. -1.
          1    1    1    2  502    0 -0.24371978821E+02  0.82631750402E+01  0.70401363469E+03  0.70448383320E+03  0.00000000000E+00 0. -1.
         22    1    3    3    0    0  0.73873838233E+02  0.56178814467E+01  0.89374395552E+02  0.11608913449E+03  0.00000000000E+00 0.  1.
         22    1    3    3    0    0  0.73874014180E+02 -0.81203952325E+02 -0.77182788275E+00  0.10978181800E+03  0.00000000000E+00 0.  1.
</event>
<event>
 7    1  0.6386201E-006  0.1106454E+03  0.7818608E-02  0.1403899E+00
          2   -1    0    0  502    0  0.00000000000E+00  0.00000000000E+00  0.64017284422E+03  0.64017284422E+03  0.00000000000E+00 0. -1.
          1   -1    0    0  501    0 -0.00000000000E+00 -0.00000000000E+00 -0.74668105351E+03  0.74668105351E+03  0.00000000000E+00 0. -1.
         25    2    1    2    0    0 -0.79605410427E+02  0.10887921675E+03  0.26772443108E+03  0.32479790818E+03  0.12500241977E+03 0.  0.
          2    1    1    2  501    0  0.20088162411E+02 -0.23626631987E+02 -0.70993971519E+03  0.71061674003E+03  0.00000000000E+00 0. -1.
          1    1    1    2  502    0  0.59517248015E+02 -0.85252584762E+02  0.33570707482E+03  0.35143924952E+03  0.00000000000E+00 0. -1.
         22    1    3    3    0    0 -0.60497995128E+02  0.13617464883E+03  0.23380595961E+03  0.27725217610E+03  0.00000000000E+00 0.  1.
         22    1    3    3    0    0 -0.19107415299E+02 -0.27295432086E+02  0.33918471471E+02  0.47545732081E+02  0.00000000000E+00 0.  1.
</event>
<event>
 7    1  0.6386201E-006  0.1769491E+03  0.7818608E-02  0.1385119E+00
          2   -1    0    0  502    0  0.00000000000E+00  0.00000000000E+00  0.86677654064E+03  0.86677654064E+03  0.00000000000E+00 0. -1.
          1   -1    0    0  501    0 -0.00000000000E+00 -0.00000000000E+00 -0.65832755381E+03  0.65832755381E+03  0.00000000000E+00 0. -1.
         25    2    1    2    0    0  0.14109960548E+03  0.13001412415E+03 -0.22369448556E+03  0.32012007527E+03  0.12499947431E+03 0.  0.
          2    1    1    2  501    0 -0.11866611381E+01 -0.22496591617E+02 -0.37657050419E+03  0.37724375333E+03  0.00000000000E+00 0. -1.
          1    1    1    2  502    0 -0.13991294434E+03 -0.10751753253E+03  0.80871397658E+03  0.82774026585E+03  0.00000000000E+00 0. -1.
         22    1    3    3    0    0  0.14068602839E+03  0.14984793403E+03 -0.18454615194E+03  0.27623222859E+03  0.00000000000E+00 0. -1.
         22    1    3    3    0    0  0.41357709216E+00 -0.19833809888E+02 -0.39148333622E+02  0.43887846679E+02  0.00000000000E+00 0. -1.
</event>
<event>
 7    1  0.6386201E-006  0.4661647E+02  0.7818608E-02  0.1476739E+00
          2   -1    0    0  502    0  0.00000000000E+00  0.00000000000E+00  0.99190913682E+03  0.99190913682E+03  0.00000000000E+00 0. -1.
          1   -1    0    0  501    0 -0.00000000000E+00 -0.00000000000E+00 -0.97331620268E+03  0.97331620268E+03  0.00000000000E+00 0. -1.
         25    2    1    2    0    0  0.61668006722E+02 -0.58058981039E+02  0.29496813422E+03  0.33136685356E+03  0.12499601233E+03 0.  0.
          2    1    1    2  501    0 -0.21906797626E+02  0.36658791812E+02 -0.95388757522E+03  0.95484306614E+03  0.00000000000E+00 0. -1.
          1    1    1    2  502    0 -0.39761209096E+02  0.21400189227E+02  0.67751237515E+03  0.67901541980E+03  0.00000000000E+00 0. -1.
         22    1    3    3    0    0  0.89999717422E+02 -0.66806398423E+02  0.17522272144E+03  0.20800491849E+03  0.00000000000E+00 0. -1.
         22    1    3    3    0    0 -0.28331710700E+02  0.87474173843E+01  0.11974541278E+03  0.12336193507E+03  0.00000000000E+00 0. -1.
</event>
<event>
 7    1  0.6386201E-006  0.1579964E+03  0.7818608E-02  0.1209000E+00
          2   -1    0    0  502    0  0.00000000000E+00  0.00000000000E+00  0.95446790881E+03  0.95446790881E+03  0.00000000000E+00 0. -1.
          1   -1    0    0  501    0 -0.00000000000E+00 -0.00000000000E+00 -0.36351673408E+03  0.36351673408E+03  0.00000000000E+00 0. -1.
         25    2    1    2    0    0  0.17865025969E+03  0.82581901310E+01  0.13764941264E+03  0.25798222623E+03  0.12499342087E+03 0.  0.
          2    1    1    2  501    0 -0.11963164606E+03  0.10747118342E+03 -0.27588485993E+03  0.31933406010E+03  0.00000000000E+00 0. -1.
          1    1    1    2  502    0 -0.59018613628E+02 -0.11572937356E+03  0.72918662203E+03  0.74066835655E+03  0.00000000000E+00 0. -1.
         22    1    3    3    0    0  0.18415495228E+03  0.25512934421E+02  0.14754218516E+03  0.23734500769E+03  0.00000000000E+00 0. -1.
         22    1    3    3    0    0 -0.55046925906E+01 -0.17254744290E+02 -0.98927725223E+01  0.20637218544E+02  0.00000000000E+00 0. -1.
</event>
<event>
 7    1  0.6386201E-006  0.2655584E+03  0.7818608E-02  0.1327118E+00
          2   -1    0    0  502    0  0.00000000000E+00  0.00000000000E+00  0.22500034450E+04  0.22500034450E+04  0.00000000000E+00 0. -1.
          1   -1    0    0  501    0 -0.00000000000E+00 -0.00000000000E+00 -0.22929429199E+04  0.22929429199E+04  0.00000000000E+00 0. -1.
         25    2    1    2    0    0  0.23483919172E+03 -0.60890075621E+02  0.75485879803E+03  0.80267757097E+03  0.12498972238E+03 0.  0.
          2    1    1    2  501    0 -0.25924733223E+03  0.58605387154E+02 -0.22611470520E+04  0.22767146860E+04  0.00000000000E+00 0. -1.
          1    1    1    2  502    0  0.24408140514E+02  0.22846884673E+01  0.14633487791E+04  0.14635541078E+04  0.00000000000E+00 0. -1.
         22    1    3    3    0    0  0.24419984872E+03 -0.38088938002E+02  0.70482853407E+03  0.74690534591E+03  0.00000000000E+00 0. -1.
         22    1    3    3    0    0 -0.93606570008E+01 -0.22801137619E+02  0.50030263963E+02  0.55772225062E+02  0.00000000000E+00 0. -1.
</event>
<event>
 7    1  0.6386201E-006  0.7431496E+02  0.7818608E-02  0.1404010E+00
          2   -1    0    0  502    0  0.00000000000E+00  0.00000000000E+00  0.15831316912E+04  0.15831316912E+04  0.00000000000E+00 0. -1.
          1   -1    0    0  501    0 -0.00000000000E+00 -0.00000000000E+00 -0.39605014232E+03  0.39605014232E+03  0.00000000000E+00 0. -1.
         25    2    1    2    0    0 -0.30518733628E+02  0.25958866253E+02  0.10405227204E+04  0.10487696098E+04  0.12499962744E+03 0.  0.
          2    1    1    2  501    0  0.73784771721E+02 -0.99504278175E+01 -0.38738722847E+03  0.39447695539E+03  0.00000000000E+00 0. -1.
          1    1    1    2  502    0 -0.43266038093E+02 -0.16008438435E+02  0.53394605699E+03  0.53593526841E+03  0.00000000000E+00 0. -1.
         22    1    3    3    0    0  0.32878902350E+02  0.27505018469E+02  0.15036920627E+03  0.15635998995E+03  0.00000000000E+00 0. -1.
         22    1    3    3    0    0 -0.63397635978E+02 -0.15461522159E+01  0.89015351413E+03  0.89240961982E+03  0.00000000000E+00 0. -1.
</event>
<event>
 7    1  0.6386201E-006  0.1122862E+03  0.7818608E-02  0.1372667E+00
          2   -1    0    0  502    0  0.00000000000E+00  0.00000000000E+00  0.17079892027E+03  0.17079892027E+03  0.00000000000E+00 0. -1.
          1   -1    0    0  501    0 -0.00000000000E+00 -0.00000000000E+00 -0.34161468303E+03  0.34161468303E+03  0.00000000000E+00 0. -1.
         25    2    1    2    0    0 -0.81372820453E+02  0.15996696108E+02 -0.89151112498E+02  0.17449998776E+03  0.12499957869E+03 0.  0.
          2    1    1    2  501    0 -0.37292016785E+02 -0.12409063223E+02 -0.17970069982E+03  0.18394841908E+03  0.00000000000E+00 0. -1.
          1    1    1    2  502    0  0.11866483724E+03 -0.35876328854E+01  0.98036049565E+02  0.15396519646E+03  0.00000000000E+00 0. -1.
         22    1    3    3    0    0 -0.40124576423E+02  0.68260847630E+02 -0.68755001142E+02  0.10486550975E+03  0.00000000000E+00 0.  1.
         22    1    3    3    0    0 -0.41248244029E+02 -0.52264151522E+02 -0.20396111357E+02  0.69634478014E+02  0.00000000000E+00 0.  1.
</event>
<event>
 7    1  0.6386201E-006  0.6416008E+02  0.7818608E-02  0.1424305E+00
          2   -1    0    0  502    0  0.00000000000E+00  0.00000000000E+00  0.28797168001E+03  0.28797168001E+03  0.00000000000E+00 0. -1.
          1   -1    0    0  501    0 -0.00000000000E+00 -0.00000000000E+00 -0.14481021673E+03  0.14481021673E+03  0.00000000000E+00 0. -1.
         25    2    1    2    0    0 -0.75261701681E+02 -0.68949762469E+02 -0.94584052392E+01  0.16166386908E+03  0.12500940625E+03 0.  0.
          2    1    1    2  501    0  0.37995855177E+02  0.42580709120E+02 -0.42228422585E+02  0.70993249495E+02  0.00000000000E+00 0. -1.
          1    1    1    2  502    0  0.37265846504E+02  0.26369053349E+02  0.19484829111E+03  0.20012477817E+03  0.00000000000E+00 0. -1.
         22    1    3    3    0    0 -0.89907094465E+02 -0.48857233007E+02  0.37132497480E+02  0.10885374234E+03  0.00000000000E+00 0. -1.
         22    1    3    3    0    0  0.14645392784E+02 -0.20092529462E+02 -0.46590902719E+02  0.52810126739E+02  0.00000000000E+00 0. -1.
</event>
<event>
 7    1  0.6386201E-006  0.1021365E+03  0.7818608E-02  0.1325324E+00
          2   -1    0    0  502    0  0.00000000000E+00  0.00000000000E+00  0.64823273296E+03  0.64823273296E+03  0.00000000000E+00 0. -1.
          1   -1    0    0  501    0 -0.00000000000E+00 -0.00000000000E+00 -0.51186674898E+03  0.51186674898E+03  0.00000000000E+00 0. -1.
         25    2    1    2    0    0  0.16427553678E+03 -0.97000121977E+01 -0.25000667607E+03  0.32436040528E+03  0.12500316880E+03 0.  0.
          2    1    1    2  501    0 -0.64400035618E+02 -0.68107361994E+01 -0.21570196174E+03  0.22521342548E+03  0.00000000000E+00 0. -1.
          1    1    1    2  502    0 -0.99875501161E+02  0.16510748397E+02  0.60207462179E+03  0.61052565118E+03  0.00000000000E+00 0. -1.
         22    1    3    3    0    0  0.26465472537E+02 -0.55433376445E+02 -0.71909996728E+02  0.94574457915E+02  0.00000000000E+00 0.  1.
         22    1    3    3    0    0  0.13781006424E+03  0.45733364247E+02 -0.17809667934E+03  0.22978594736E+03  0.00000000000E+00 0.  1.
</event>
<event>
 7    1  0.6386201E-006  0.5919518E+02  0.7818608E-02  0.1458760E+00
          2   -1    0    0  502    0  0.00000000000E+00  0.00000000000E+00  0.38480497681E+02  0.38480497681E+02  0.00000000000E+00 0. -1.
          1   -1    0    0  501    0 -0.00000000000E+00 -0.00000000000E+00 -0.62544766268E+03  0.62544766268E+03  0.00000000000E+00 0. -1.
         25    2    1    2    0    0  0.44598727516E+02 -0.40850787221E+02 -0.19162781887E+03  0.23664958046E+03  0.12499587855E+03 0.  0.
          2    1    1    2  501    0 -0.59944097796E+02  0.57933068117E+01 -0.38205070467E+03  0.38676814528E+03  0.00000000000E+00 0. -1.
          1    1    1    2  502    0  0.15345370280E+02  0.35057480409E+02 -0.13288641464E+02  0.40510434627E+02  0.00000000000E+00 0. -1.
         22    1    3    3    0    0  0.11562173528E+02 -0.83571983863E+02 -0.10703818242E+03  0.13629061904E+03  0.00000000000E+00 0. -1.
         22    1    3    3    0    0  0.33036553988E+02  0.42721196641E+02 -0.84589636449E+02  0.10035896142E+03  0.00000000000E+00 0. -1.
</event>
<event>
 7    1  0.6386201E-006  0.9210902E+02  0.7818608E-02  0.1346379E+00
          2   -1    0    0  502    0  0.00000000000E+00  0.00000000000E+00  0.11720518545E+04  0.11720518545E+04  0.00000000000E+00 0. -1.
          1   -1    0    0  501    0 -0.00000000000E+00 -0.00000000000E+00 -0.16477824832E+03  0.16477824832E+03  0.00000000000E+00 0. -1.
         25    2    1    2    0    0  0.31535854030E+02  0.13004898757E+03  0.65152757920E+02  0.19436237780E+03  0.12499841111E+03 0.  0.
          2    1    1    2  501    0 -0.47890216797E+02 -0.72563486319E+02 -0.80270323845E+02  0.11833113412E+03  0.00000000000E+00 0. -1.
          1    1    1    2  502    0  0.16354362767E+02 -0.57485501255E+02  0.10223911721E+04  0.10241365909E+04  0.00000000000E+00 0. -1.
         22    1    3    3    0    0  0.78607682871E+02  0.94900688225E+02  0.54117602630E+02  0.13458834774E+03  0.00000000000E+00 0.  1.
         22    1    3    3    0    0 -0.47071828841E+02  0.35148299350E+02  0.11035155289E+02  0.59774030062E+02  0.00000000000E+00 0.  1.
</event>
<event>
 7    1  0.6386201E-006  0.2003267E+03  0.7818608E-02  0.1285802E+00
          2   -1    0    0  502    0  0.00000000000E+00  0.00000000000E+00  0.93410776274E+03  0.93410776274E+03  0.00000000000E+00 0. -1.
          1   -1    0    0  501    0 -0.00000000000E+00 -0.00000000000E+00 -0.69686654980E+03  0.69686654980E+03  0.00000000000E+00 0. -1.
         25    2    1    2    0    0  0.90601850946E+02 -0.21008744763E+03  0.38739337045E+03  0.46695210231E+03  0.12500084537E+03 0.  0.
          2    1    1    2  501    0 -0.46014578210E+02  0.19405394180E+03 -0.64078673232E+03  0.67110499182E+03  0.00000000000E+00 0. -1.
          1    1    1    2  502    0 -0.44587272736E+02  0.16033505828E+02  0.49063457481E+03  0.49291721840E+03  0.00000000000E+00 0. -1.
         22    1    3    3    0    0  0.10851328997E+03 -0.21059503941E+03  0.32595582202E+03  0.40295483945E+03  0.00000000000E+00 0.  1.
         22    1    3    3    0    0 -0.17911439027E+02  0.50759178566E+00  0.61437548431E+02  0.63997262868E+02  0.00000000000E+00 0.  1.
</event>
<event>
 7    1  0.6386201E-006  0.3547003E+03  0.7818608E-02  0.1172432E+00
          2   -1    0    0  502    0  0.00000000000E+00  0.00000000000E+00  0.13450801151E+03  0.13450801151E+03  0.00000000000E+00 0. -1.
          1   -1    0    0  501    0 -0.00000000000E+00 -0.00000000000E+00 -0.12829463019E+04  0.12829463019E+04  0.00000000000E+00 0. -1.
         25    2    1    2    0    0  0.25973865603E+03 -0.17456556129E+03 -0.40285166150E+03  0.52520877124E+03  0.12496994675E+03 0.  0.
          2    1    1    2  501    0 -0.34594024137E+03  0.18322655089E+03 -0.67581729554E+03  0.78100937030E+03  0.00000000000E+00 0. -1.
          1    1    1    2  502    0  0.86201585337E+02 -0.86609896037E+01 -0.69769333372E+02  0.11123617188E+03  0.00000000000E+00 0. -1.
         22    1    3    3    0    0  0.15471964984E+03 -0.15701961820E+03 -0.32746179944E+03  0.39474619775E+03  0.00000000000E+00 0. -1.
         22    1    3    3    0    0  0.10501900619E+03 -0.17545943087E+02 -0.75389862063E+02  0.13046257349E+03  0.00000000000E+00 0. -1.
</event>
<event>
 7    1  0.6386201E-006  0.6905218E+02  0.7818608E-02  0.1421272E+00
          2   -1    0    0  502    0  0.00000000000E+00  0.00000000000E+00  0.23216496415E+04  0.23216496415E+04  0.00000000000E+00 0. -1.
          1   -1    0    0  501    0 -0.00000000000E+00 -0.00000000000E+00 -0.22978341942E+03  0.22978341942E+03  0.00000000000E+00 0. -1.
         25    2    1    2    0    0 -0.10830498232E+03 -0.31612095032E+00  0.88867867436E+03  0.90393855163E+03  0.12500019888E+03 0.  0.
          2    1    1    2  501    0  0.43225071794E+02 -0.40490145252E+01 -0.21927793188E+03  0.22353436595E+03  0.00000000000E+00 0. -1.
          1    1    1    2  502    0  0.65079910521E+02  0.43651354755E+01  0.14224654796E+04  0.14239601434E+04  0.00000000000E+00 0. -1.
         22    1    3    3    0    0 -0.29116634080E+02 -0.84339495310E+01  0.33961352126E+02  0.45522338726E+02  0.00000000000E+00 0.  1.
         22    1    3    3    0    0 -0.79188348235E+02  0.81178285807E+01  0.85471732224E+03  0.85841621290E+03  0.00000000000E+00 0.  1.
</event>
<event>
 7    1  0.6386201E-006  0.3161666E+03  0.7818608E-02  0.1274619E+00
          2   -1    0    0  502    0  0.00000000000E+00  0.00000000000E+00  0.10917209115E+04  0.10917209115E+04  0.00000000000E+00 0. -1.
          1   -1    0    0  501    0 -0.00000000000E+00 -0.00000000000E+00 -0.48814110421E+03  0.48814110421E+03  0.00000000000E+00 0. -1.
         25    2    1    2    0    0 -0.21115983925E+03  0.22123118402E+03 -0.33052689777E+03  0.46733648963E+03  0.12499459948E+03 0.  0.
          2    1    1    2  501    0 -0.29689505116E+02 -0.15282535698E+02 -0.60254697712E+02  0.68888687081E+02  0.00000000000E+00 0. -1.
          1    1    1    2  502    0  0.24084934437E+03 -0.20594864832E+03  0.99436140279E+03  0.10436368390E+04  0.00000000000E+00 0. -1.
         22    1    3    3    0    0 -0.15803307110E+03  0.10364547892E+03 -0.25641519641E+03  0.31853663810E+03  0.00000000000E+00 0.  1.
         22    1    3    3    0    0 -0.53126768145E+02  0.11758570510E+03 -0.74111701358E+02  0.14879985153E+03  0.00000000000E+00 0.  1.
</event>
<event>
 7    1  0.6386201E-006  0.8727858E+02  0.7818608E-02  0.1383204E+00
          2   -1    0    0  502    0  0.00000000000E+00  0.00000000000E+00  0.74732900756E+02  0.74732900756E+02  0.00000000000E+00 0. -1.
          1   -1    0    0  501    0 -0.00000000000E+00 -0.00000000000E+00 -0.70694780751E+03  0.70694780751E+03  0.00000000000E+00 0. -1.
         25    2    1    2    0    0 -0.65550013173E+02 -0.21718029584E+02 -0.34516363221E+02  0.14693524592E+03  0.12502043884E+03 0.  0.
          2    1    1    2  501    0  0.86787646904E+02 -0.19522581751E+02 -0.57722705394E+03  0.58404135012E+03  0.00000000000E+00 0. -1.
          1    1    1    2  502    0 -0.21237633731E+02  0.41240611335E+02 -0.20471489590E+02  0.50704112218E+02  0.00000000000E+00 0. -1.
         22    1    3    3    0    0 -0.89229837176E+02 -0.18254016352E+02 -0.62238394040E+02  0.11031224161E+03  0.00000000000E+00 0. -1.
         22    1    3    3    0    0  0.23679824003E+02 -0.34640132324E+01  0.27722030819E+02  0.36623004317E+02  0.00000000000E+00 0. -1.
</event>
<event>
 7    1  0.6386201E-006  0.1304086E+03  0.7818608E-02  0.1423843E+00
          2   -1    0    0  502    0  0.00000000000E+00  0.00000000000E+00  0.10778431223E+04  0.10778431223E+04  0.00000000000E+00 0. -1.
          1   -1    0    0  501    0 -0.00000000000E+00 -0.00000000000E+00 -0.20810445045E+03  0.20810445045E+03  0.00000000000E+00 0. -1.
         25    2    1    2    0    0  0.79232766542E+02 -0.10533374306E+03  0.11132874163E+03  0.21305657796E+03  0.12500395186E+03 0.  0.
          2    1    1    2  501    0 -0.59442851916E+02  0.11612249224E+03 -0.13001588550E+03  0.18417930484E+03  0.00000000000E+00 0. -1.
          1    1    1    2  502    0 -0.19789914627E+02 -0.10788749187E+02  0.88842581573E+03  0.88871168996E+03  0.00000000000E+00 0. -1.
         22    1    3    3    0    0  0.58014403759E+02  0.13981678636E+02  0.27539474301E+02  0.65723519579E+02  0.00000000000E+00 0.  1.
         22    1    3    3    0    0  0.21218362783E+02 -0.11931542169E+03  0.83789267328E+02  0.14733305838E+03  0.00000000000E+00 0.  1.
</event>
<event>
 7    1  0.6386201E-006  0.8368727E+02  0.7818608E-02  0.1353793E+00
          2   -1    0    0  502    0  0.00000000000E+00  0.00000000000E+00  0.18979202259E+04  0.18979202259E+04  0.00000000000E+00 0. -1.
          1   -1    0    0  501    0 -0.00000000000E+00 -0.00000000000E+00 -0.16461735584E+03  0.16461735584E+03  0.00000000000E+00 0. -1.
         25    2    1    2    0    0  0.71412679096E+02  0.11853833118E+03  0.90672186861E+02  0.20736035372E+03  0.12500305648E+03 0.  0.
          2    1    1    2  501    0 -0.30492247751E+02 -0.72294092522E+02 -0.91166316527E+02  0.12028096381E+03  0.00000000000E+00 0. -1.
          1    1    1    2  502    0 -0.40920431344E+02 -0.46244238662E+02  0.17337969998E+04  0.17348962643E+04  0.00000000000E+00 0. -1.
         22    1    3    3    0    0 -0.69854766161E+01 -0.30425810537E+01  0.58714451593E+02  0.59206764892E+02  0.00000000000E+00 0. -1.
         22    1    3    3    0    0  0.78398155712E+02  0.12158091224E+03  0.31957735267E+02  0.14815358883E+03  0.00000000000E+00 0. -1.
</event>
<event>
 7    1  0.6386201E-006  0.6672731E+02  0.7818608E-02  0.1533692E+00
          2   -1    0    0  502    0  0.00000000000E+00  0.00000000000E+00  0.13435094662E+04  0.13435094662E+04  0.00000000000E+00 0. -1.
          1   -1    0    0  501    0 -0.00000000000E+00 -0.00000000000E+00 -0.94134486286E+03  0.94134486286E+03  0.00000000000E+00 0. -1.
         25    2    1    2    0    0 -0.67634144400E+02  0.51484262038E+02  0.15121609690E+03  0.21381076422E+03  0.12499491273E+03 0.  0.
          2    1    1    2  501    0  0.48162354267E+02 -0.46012161353E+02 -0.90874040863E+03  0.91117828203E+03  0.00000000000E+00 0. -1.
          1    1    1    2  502    0  0.19471790133E+02 -0.54721006843E+01  0.11596889151E+04  0.11598652828E+04  0.00000000000E+00 0. -1.
         22    1    3    3    0    0 -0.48149973608E+02  0.37137783465E+02  0.13900602198E+00  0.60808340232E+02  0.00000000000E+00 0.  1.
         22    1    3    3    0    0 -0.19484170793E+02  0.14346478572E+02  0.15107709087E+03  0.15300242399E+03  0.00000000000E+00 0.  1.
</event>
<event>
 7    1  0.6386201E-006  0.1411184E+03  0.7818608E-02  0.1419845E+00
          2   -1    0    0  502    0  0.00000000000E+00  0.00000000000E+00  0.16041814375E+04  0.16041814375E+04  0.00000000000E+00 0. -1.
          1   -1    0    0  501    0 -0.00000000000E+00 -0.00000000000E+00 -0.63097854900E+03  0.63097854900E+03  0.00000000000E+00 0. -1.
         25    2    1    2    0    0  0.11165577528E+03 -0.46357975581E+02 -0.97632192536E+02  0.19942963002E+03  0.12499623298E+03 0.  0.
          2    1    1    2  501    0  0.21383058673E+02 -0.20150451686E+01 -0.47898117850E+03  0.47946247503E+03  0.00000000000E+00 0. -1.
          1    1    1    2  502    0 -0.13303883395E+03  0.48373020750E+02  0.15498162595E+04  0.15562678814E+04  0.00000000000E+00 0. -1.
         22    1    3    3    0    0 -0.22084229450E+02  0.13724957921E+02 -0.65108083951E+01  0.26804445271E+02  0.00000000000E+00 0. -1.
         22    1    3    3    0    0  0.13374000473E+03 -0.60082933502E+02 -0.91121384141E+02  0.17262518475E+03  0.00000000000E+00 0. -1.
</event>
<event>
 7    1  0.6386201E-006  0.1945125E+03  0.7818608E-02  0.1328943E+00
          2   -1    0    0  502    0  0.00000000000E+00  0.00000000000E+00  0.42416966323E+03  0.42416966323E+03  0.00000000000E+00 0. -1.
          1   -1    0    0  501    0 -0.00000000000E+00 -0.00000000000E+00 -0.36880073540E+04  0.36880073540E+04  0.00000000000E+00 0. -1.
         25    2    1    2    0    0  0.12345504014E+03 -0.17325294117E+03 -0.16881250588E+04  0.17060622543E+04  0.12499789168E+03 0.  0.
          2    1    1    2  501    0 -0.92814305315E+02  0.16117803987E+03 -0.19859084161E+04  0.19945989805E+04  0.00000000000E+00 0. -1.
          1    1    1    2  502    0 -0.30640734824E+02  0.12074901295E+02  0.41019578413E+03  0.41151578243E+03  0.00000000000E+00 0. -1.
         22    1    3    3    0    0  0.36178240061E+02 -0.10312519541E+03 -0.12134745163E+04  0.12183858472E+04  0.00000000000E+00 0.  1.
         22    1    3    3    0    0  0.87276800078E+02 -0.70127745763E+02 -0.47465054254E+03  0.48767640715E+03  0.00000000000E+00 0.  1.
</event>
<event>
 7    1  0.6386201E-006  0.1225132E+03  0.7818608E-02  0.1375648E+00
          2   -1    0    0  502    0  0.00000000000E+00  0.00000000000E+00  0.66270755445E+03  0.66270755445E+03  0.00000000000E+00 0. -1.
          1   -1    0    0  501    0 -0.00000000000E+00 -0.00000000000E+00 -0.68842445256E+03  0.68842445256E+03  0.00000000000E+00 0. -1.
         25    2    1    2    0    0 -0.16308915775E+02  0.11831475656E+03  0.13647880482E+03  0.22026310472E+03  0.12500003513E+03 0.  0.
          2    1    1    2  501    0 -0.34726624171E+02 -0.54318938746E+01 -0.63811898641E+03  0.63908628894E+03  0.00000000000E+00 0. -1.
          1    1    1    2  502    0  0.51035539946E+02 -0.11288286268E+03  0.47592328349E+03  0.49178261335E+03  0.00000000000E+00 0. -1.
         22    1    3    3    0    0  0.16319652342E+02 -0.21057495701E+02  0.38430885468E+02  0.46761973179E+02  0.00000000000E+00 0. -1.
         22    1    3    3    0    0 -0.32628568117E+02  0.13937225226E+03  0.98047919354E+02  0.17350113154E+03  0.00000000000E+00 0. -1.
</event>
<event>
 7    1  0.6386201E-006  0.6431132E+02  0.7818608E-02  0.1395680E+00
          2   -1    0    0  502    0  0.00000000000E+00  0.00000000000E+00  0.20453565511E+04  0.20453565511E+04  0.00000000000E+00 0. -1.
          1   -1    0    0  501    0 -0.00000000000E+00 -0.00000000000E+00 -0.88276296939E+03  0.88276296939E+03  0.00000000000E+00 0. -1.
         25    2    1    2    0    0 -0.49524009877E+02 -0.72957794131E+02  0.30377391547E+02  0.15595833394E+03  0.12499899492E+03 0.  0.
          2    1    1    2  501    0  0.56224459433E+02  0.90244381143E+01 -0.81845375408E+03  0.82043231158E+03  0.00000000000E+00 0. -1.
          1    1    1    2  502    0 -0.67004495559E+01  0.63933356017E+02  0.19506699443E+04  0.19517288750E+04  0.00000000000E+00 0. -1.
         22    1    3    3    0    0 -0.28549065493E+02 -0.85873313657E+01 -0.45418549283E+02  0.54328961148E+02  0.00000000000E+00 0.  1.
         22    1    3    3    0    0 -0.20974944385E+02 -0.64370462765E+02  0.75795940830E+02  0.10162937280E+03  0.00000000000E+00 0.  1.
</event>
<event>
 7    1  0.6386201E-006  0.4185076E+02  0.7818608E-02  0.1521131E+00
          2   -1    0    0  502    0  0.00000000000E+00  0.00000000000E+00  0.30134397010E+03  0.30134397010E+03  0.00000000000E+00 0. -1.
          1   -1    0    0  501    0 -0.00000000000E+00 -0.00000000000E+00 -0.48514776345E+03  0.48514776345E+03  0.00000000000E+00 0. -1.
         25    2    1    2    0    0 -0.75179621132E+02  0.14536908027E+02 -0.21295060465E+03  0.25854282964E+03  0.12503254620E+03 0.  0.
          2    1    1    2  501    0  0.33998345659E+02 -0.85009939864E+01 -0.24660045240E+03  0.24907817554E+03  0.00000000000E+00 0. -1.
          1    1    1    2  502    0  0.41181275473E+02 -0.60359140404E+01  0.27574726370E+03  0.27887072838E+03  0.00000000000E+00 0. -1.
         22    1    3    3    0    0 -0.10256036666E+02 -0.52326619570E+02 -0.82054211878E+02  0.97857831013E+02  0.00000000000E+00 0. -1.
         22    1    3    3    0    0 -0.64923584466E+02  0.66863527596E+02 -0.13089639277E+03  0.16068499862E+03  0.00000000000E+00 0. -1.
</event>
<event>
 7    1  0.6386201E-006  0.6858216E+02  0.7818608E-02  0.1410157E+00
          2   -1    0    0  502    0  0.00000000000E+00  0.00000000000E+00  0.14639231068E+04  0.14639231068E+04  0.00000000000E+00 0. -1.
          1   -1    0    0  501    0 -0.00000000000E+00 -0.00000000000E+00 -0.86207900954E+02  0.86207900954E+02  0.00000000000E+00 0. -1.
         25    2    1    2    0    0 -0.55438010118E+02 -0.22051423901E+02  0.18235769314E+03  0.22899746180E+03  0.12500348395E+03 0.  0.
          2    1    1    2  501    0  0.31689523960E+02  0.63348093366E+02 -0.42338396752E+02  0.82521189408E+02  0.00000000000E+00 0. -1.
          1    1    1    2  502    0  0.23748486158E+02 -0.41296669465E+02  0.12376959094E+04  0.12386123565E+04  0.00000000000E+00 0. -1.
         22    1    3    3    0    0 -0.67319985628E+02 -0.22537615122E+02  0.19742581404E+03  0.20980199381E+03  0.00000000000E+00 0.  1.
         22    1    3    3    0    0  0.11881975509E+02  0.48619122101E+00 -0.15068120894E+02  0.19195467986E+02  0.00000000000E+00 0.  1.
</event>
<event>
 7    1  0.6386201E-006  0.4396671E+02  0.7818608E-02  0.1551937E+00
          2   -1    0    0  502    0  0.00000000000E+00  0.00000000000E+00  0.76718482864E+03  0.76718482864E+03  0.00000000000E+00 0. -1.
          1   -1    0    0  501    0 -0.00000000000E+00 -0.00000000000E+00 -0.12766906916E+04  0.12766906916E+04  0.00000000000E+00 0. -1.
         25    2    1    2    0    0 -0.40772181598E+02  0.51892553898E+02 -0.50859963427E+02  0.15021686251E+03  0.12499264762E+03 0.  0.
          2    1    1    2  501    0  0.47918652569E+01 -0.26847109500E+02 -0.11753243249E+04  0.11756406756E+04  0.00000000000E+00 0. -1.
          1    1    1    2  502    0  0.35980316341E+02 -0.25045444399E+02  0.71667842535E+03  0.71801798223E+03  0.00000000000E+00 0. -1.
         22    1    3    3    0    0  0.26177366433E+02 -0.73703226502E+01  0.21919816666E+02  0.34929279007E+02  0.00000000000E+00 0. -1.
         22    1    3    3    0    0 -0.66949548031E+02  0.59262876548E+02 -0.72779780093E+02  0.11528758350E+03  0.00000000000E+00 0. -1.
</event>
<event>
 7    1  0.6386201E-006  0.1968539E+03  0.7818608E-02  0.1258308E+00
          2   -1    0    0  502    0  0.00000000000E+00  0.00000000000E+00  0.18156264522E+04  0.18156264522E+04  0.00000000000E+00 0. -1.
          1   -1    0    0  501    0 -0.00000000000E+00 -0.00000000000E+00 -0.23450683426E+04  0.23450683426E+04  0.00000000000E+00 0. -1.
         25    2    1    2    0    0  0.98012199059E+02 -0.19214049442E+03 -0.31678168279E+03  0.40311294838E+03  0.12500021536E+03 0.  0.
          2    1    1    2  501    0 -0.35163128940E+02  0.19246716033E+03 -0.19797401276E+04  0.19893845848E+04  0.00000000000E+00 0. -1.
          1    1    1    2  502    0 -0.62849070119E+02 -0.32666591119E+00  0.17670799200E+04  0.17681972616E+04  0.00000000000E+00 0. -1.
         22    1    3    3    0    0  0.12448736015E+03 -0.13151172389E+03 -0.25372076464E+03  0.31171567617E+03  0.00000000000E+00 0.  1.
         22    1    3    3    0    0 -0.26475161089E+02 -0.60628770528E+02 -0.63060918149E+02  0.91397272215E+02  0.00000000000E+00 0.  1.
</event>
<event>
 7    1  0.6386201E-006  0.1983476E+03  0.7818608E-02  0.1287596E+00
          2   -1    0    0  502    0  0.00000000000E+00  0.00000000000E+00  0.11462734220E+04  0.11462734220E+04  0.00000000000E+00 0. -1.
          1   -1    0    0  501    0 -0.00000000000E+00 -0.00000000000E+00 -0.11752105528E+04  0.11752105528E+04  0.00000000000E+00 0. -1.
         25    2    1    2    0    0  0.23526740444E+03 -0.58704260923E+01  0.41363618335E+03  0.49204162235E+03  0.12499940985E+03 0.  0.
          2    1    1    2  501    0 -0.19528649804E+03  0.30681312656E+02 -0.11265935717E+04  0.11438055932E+04  0.00000000000E+00 0. -1.
          1    1    1    2  502    0 -0.39980906398E+02 -0.24810886564E+02  0.68402025751E+03  0.68563675926E+03  0.00000000000E+00 0. -1.
         22    1    3    3    0    0  0.20465031851E+03  0.42703388284E+02  0.32505811942E+03  0.38648171140E+03  0.00000000000E+00 0.  1.
         22    1    3    3    0    0  0.30617085920E+02 -0.48573814376E+02  0.88578063922E+02  0.10555991096E+03  0.00000000000E+00 0.  1.
</event>
<event>
 7    1  0.6386201E-006  0.1058541E+03  0.7818608E-02  0.1328254E+00
          2   -1    0    0  502    0  0.00000000000E+00  0.00000000000E+00  0.62586762010E+03  0.62586762010E+03  0.00000000000E+00 0. -1.
          1   -1    0    0  501    0 -0.00000000000E+00 -0.00000000000E+00 -0.15615330089E+04  0.15615330089E+04  0.00000000000E+00 0. -1.
         25    2    1    2    0    0  0.62182562869E+02  0.22194091403E+02 -0.21973390805E+03  0.26128103443E+03  0.12500215914E+03 0.  0.
          2    1    1    2  501    0 -0.11006335240E+03  0.15417605325E+02 -0.13171476897E+04  0.13218281585E+04  0.00000000000E+00 0. -1.
          1    1    1    2  502    0  0.47880789534E+02 -0.37611696728E+02  0.60121620899E+03  0.60429143605E+03  0.00000000000E+00 0. -1.
         22    1    3    3    0    0  0.63272965879E+02 -0.76844780105E+01 -0.32257930930E+02  0.71435939984E+02  0.00000000000E+00 0.  1.
         22    1    3    3    0    0 -0.10904030102E+01  0.29878569413E+02 -0.18747597712E+03  0.18984509445E+03  0.00000000000E+00 0.  1.
</event>
<event>
 7    1  0.6386201E-006  0.1412978E+03  0.7818608E-02  0.1252555E+00
          2   -1    0    0  502    0  0.00000000000E+00  0.00000000000E+00  0.24728777523E+04  0.24728777523E+04  0.00000000000E+00 0. -1.
          1   -1    0    0  501    0 -0.00000000000E+00 -0.00000000000E+00 -0.26992002223E+03  0.26992002223E+03  0.00000000000E+00 0. -1.
         25    2    1    2    0    0 -0.16152825917E+03  0.44662024231E+02  0.66887363802E+03  0.70078574871E+03  0.12499058778E+03 0.  0.
          2    1    1    2  501    0  0.92659766692E+02 -0.10670462733E+03 -0.23299474201E+03  0.27250368743E+03  0.00000000000E+00 0. -1.
          1    1    1    2  502    0  0.68868492481E+02  0.62042603098E+02  0.17670788341E+04  0.17695083384E+04  0.00000000000E+00 0. -1.
         22    1    3    3    0    0  0.26343913120E+00 -0.13945262984E+02  0.47557674635E+01  0.14736250677E+02  0.00000000000E+00 0. -1.
         22    1    3    3    0    0 -0.16179169830E+03  0.58607287214E+02  0.66411787055E+03  0.68604949803E+03  0.00000000000E+00 0. -1.
</event>
<event>
 7    1  0.6386201E-006  0.5754454E+02  0.7818608E-02  0.1506603E+00
          2   -1    0    0  502    0  0.00000000000E+00  0.00000000000E+00  0.18018222037E+04  0.18018222037E+04  0.00000000000E+00 0. -1.
          1   -1    0    0  501    0 -0.00000000000E+00 -0.00000000000E+00 -0.37471030626E+03  0.37471030626E+03  0.00000000000E+00 0. -1.
         25    2    1    2    0    0  0.58396351445E+02 -0.19881253091E+02 -0.19976805898E+03  0.24359314698E+03  0.12499978311E+03 0.  0.
          2    1    1    2  501    0 -0.18265191295E+02 -0.21367776885E+02 -0.15126931005E+03  0.15385903699E+03  0.00000000000E+00 0. -1.
          1    1    1    2  502    0 -0.40131160150E+02  0.41249029976E+02  0.17781492665E+04  0.17790803260E+04  0.00000000000E+00 0. -1.
         22    1    3    3    0    0  0.33500842904E+02 -0.37119846890E+02 -0.94573772890E+01  0.50888421999E+02  0.00000000000E+00 0.  1.
         22    1    3    3    0    0  0.24895508542E+02  0.17238593798E+02 -0.19031068169E+03  0.19270472498E+03  0.00000000000E+00 0.  1.
</event>
<event>
 7    1  0.6386201E-006  0.6775035E+02  0.7818608E-02  0.1471530E+00
          2   -1    0    0  502    0  0.00000000000E+00  0.00000000000E+00  0.10226697376E+04  0.10226697376E+04  0.00000000000E+00 0. -1.
          1   -1    0    0  501    0 -0.00000000000E+00 -0.00000000000E+00 -0.11747513003E+03  0.11747513003E+03  0.00000000000E+00 0. -1.
         25    2    1    2    0    0  0.59873718847E+02  0.63620840718E+01  0.37251128430E+03  0.39751071086E+03  0.12499907999E+03 0.  0.
          2    1    1    2  501    0 -0.63827499667E+02  0.23875258284E+02 -0.93505461864E+02  0.11570328029E+03  0.00000000000E+00 0. -1.
          1    1    1    2  502    0  0.39537808200E+01 -0.30237342356E+02  0.62618878514E+03  0.62693087648E+03  0.00000000000E+00 0. -1.
         22    1    3    3    0    0 -0.34594282805E+02 -0.14941236098E+02  0.15326846108E+03  0.15783290564E+03  0.00000000000E+00 0. -1.
         22    1    3    3    0    0  0.94468001652E+02  0.21303320170E+02  0.21924282321E+03  0.23967780522E+03  0.00000000000E+00 0. -1.
</event>
<event>
 7    1  0.6386201E-006  0.9449100E+02  0.7818608E-02  0.1461120E+00
          2   -1    0    0  502    0  0.00000000000E+00  0.00000000000E+00  0.22809295386E+04  0.22809295386E+04  0.00000000000E+00 0. -1.
          1   -1    0    0  501    0 -0.00000000000E+00 -0.00000000000E+00 -0.49710251647E+03  0.49710251647E+03  0.00000000000E+00 0. -1.
         25    2    1    2    0    0  0.41763205212E+02  0.76801242994E+02  0.11887723419E+03  0.19338936633E+03  0.12500021586E+03 0.  0.
          2    1    1    2  501    0  0.22464477106E+02 -0.71223539630E+01 -0.45848705408E+03  0.45909232123E+03  0.00000000000E+00 0. -1.
          1    1    1    2  502    0 -0.64227682318E+02 -0.69678889031E+02  0.21234368420E+04  0.21255503675E+04  0.00000000000E+00 0. -1.
         22    1    3    3    0    0  0.30676784186E+02  0.10988278723E+03  0.10733479349E+03  0.15663987331E+03  0.00000000000E+00 0.  1.
         22    1    3    3    0    0  0.11086421025E+02 -0.33081544234E+02  0.11542440706E+02  0.36749493024E+02  0.00000000000E+00 0.  1.
</event>
<event>
 7    1  0.6386201E-006  0.6568091E+02  0.7818608E-02  0.1473170E+00
          2   -1    0    0  502    0  0.00000000000E+00  0.00000000000E+00  0.83210263426E+03  0.83210263426E+03  0.00000000000E+00 0. -1.
          1   -1    0    0  501    0 -0.00000000000E+00 -0.00000000000E+00 -0.25164684103E+03  0.25164684103E+03  0.00000000000E+00 0. -1.
         25    2    1    2    0    0 -0.92886195151E+02 -0.16665046596E+02  0.25473538149E+03  0.29903172770E+03  0.12499716220E+03 0.  0.
          2    1    1    2  501    0  0.30838029534E+02  0.39443260577E+01 -0.22662755522E+03  0.22875006133E+03  0.00000000000E+00 0. -1.
          1    1    1    2  502    0  0.62048165617E+02  0.12720720539E+02  0.55234796695E+03  0.55596768627E+03  0.00000000000E+00 0. -1.
         22    1    3    3    0    0 -0.11817557131E+03  0.25644438536E+01  0.15873626033E+03  0.19791220874E+03  0.00000000000E+00 0.  1.
         22    1    3    3    0    0  0.25289376155E+02 -0.19229490450E+02  0.95999121167E+02  0.10111951896E+03  0.00000000000E+00 0.  1.
</event>
<event>
 7    1  0.6386201E-006  0.1038998E+03  0.7818608E-02  0.1364438E+00
          2   -1    0    0  502    0  0.00000000000E+00  0.00000000000E+00  0.22021439730E+04  0.22021439730E+04  0.00000000000E+00 0. -1.
          1   -1    0    0  501    0 -0.00000000000E+00 -0.00000000000E+00 -0.33760249273E+03  0.33760249273E+03  0.00000000000E+00 0. -1.
         25    2    1    2    0    0 -0.10364129474E+03  0.65715308171E+02  0.97504508780E+03  0.99065714253E+03  0.12501452354E+03 0.  0.
          2    1    1    2  501    0  0.52829373091E+01 -0.45167558518E+02 -0.32614605055E+03  0.32930117531E+03  0.00000000000E+00 0. -1.
          1    1    1    2  502    0  0.98358357433E+02 -0.20547749653E+02  0.12156424431E+04  0.12197881479E+04  0.00000000000E+00 0. -1.
         22    1    3    3    0    0 -0.12386167094E+03  0.23167889200E+02  0.63682628277E+03  0.64917345837E+03  0.00000000000E+00 0.  1.
         22    1    3    3    0    0  0.20220376196E+02  0.42547418971E+02  0.33821880503E+03  0.34148368416E+03  0.00000000000E+00 0.  1.
</event>
<event>
 7    1  0.6386201E-006  0.8693430E+02  0.7818608E-02  0.1323260E+00
          2   -1    0    0  502    0  0.00000000000E+00  0.00000000000E+00  0.20577412238E+04  0.20577412238E+04  0.00000000000E+00 0. -1.
          1   -1    0    0  501    0 -0.00000000000E+00 -0.00000000000E+00 -0.61419149914E+03  0.61419149914E+03  0.00000000000E+00 0. -1.
         25    2    1    2    0    0  0.12067217781E+02  0.37455099844E+01  0.77324498164E+03  0.78338581817E+03  0.12500356748E+03 0.  0.
          2    1    1    2  501    0 -0.82231590996E+02  0.29143441000E+02 -0.60481491892E+03  0.61107484064E+03  0.00000000000E+00 0. -1.
          1    1    1    2  502    0  0.70164373215E+02 -0.32888950984E+02  0.12751196620E+04  0.12774720642E+04  0.00000000000E+00 0. -1.
         22    1    3    3    0    0  0.45542354864E+02 -0.49352112584E+00  0.10703830757E+03  0.11632518617E+03  0.00000000000E+00 0. -1.
         22    1    3    3    0    0 -0.33475137083E+02  0.42390311102E+01  0.66620667407E+03  0.66706063199E+03  0.00000000000E+00 0. -1.
</event>
<event>
 7    1  0.6386201E-006  0.9013949E+02  0.7818608E-02  0.1442008E+00
          2   -1    0    0  502    0  0.00000000000E+00  0.00000000000E+00  0.79969631964E+03  0.79969631964E+03  0.00000000000E+00 0. -1.
          1   -1    0    0  501    0 -0.00000000000E+00 -0.00000000000E+00 -0.88595672807E+02  0.88595672807E+02  0.00000000000E+00 0. -1.
         25    2    1    2    0    0 -0.61716885554E+02 -0.60370846713E+02  0.19785287028E+03  0.24944131078E+03  0.12498638387E+03 0.  0.
          2    1    1    2  501    0  0.81878388312E+02  0.40325360181E+02 -0.29070424020E+02  0.95787758607E+02  0.00000000000E+00 0. -1.
          1    1    1    2  502    0 -0.20161502757E+02  0.20045486532E+02  0.54231820058E+03  0.54306292306E+03  0.00000000000E+00 0. -1.
         22    1    3    3    0    0 -0.87929801387E+02 -0.78978258512E+02  0.16911408429E+03  0.20632205116E+03  0.00000000000E+00 0. -1.
         22    1    3    3    0    0  0.26212915832E+02  0.18607411799E+02  0.28738785981E+02  0.43119259617E+02  0.00000000000E+00 0. -1.
</event>
<event>
 7    1  0.6386201E-006  0.6339978E+02  0.7818608E-02  0.1470641E+00
          2   -1    0    0  502    0  0.00000000000E+00  0.00000000000E+00  0.10904709565E+03  0.10904709565E+03  0.00000000000E+00 0. -1.
          1   -1    0    0  501    0 -0.00000000000E+00 -0.00000000000E+00 -0.50951746508E+03  0.50951746508E+03  0.00000000000E+00 0. -1.
         25    2    1    2    0    0 -0.87287102298E+02  0.12755314845E+02 -0.10330949628E+03  0.18460724229E+03  0.12500098239E+03 0.  0.
          2    1    1    2  501    0  0.56784914213E+02 -0.24802709305E+02 -0.35881357270E+03  0.36412481490E+03  0.00000000000E+00 0. -1.
          1    1    1    2  502    0  0.30502188085E+02  0.12047394460E+02  0.61652699546E+02  0.69832503553E+02  0.00000000000E+00 0. -1.
         22    1    3    3    0    0 -0.10878852483E+03  0.29671833060E+02 -0.47315473941E+02  0.12228701847E+03  0.00000000000E+00 0. -1.
         22    1    3    3    0    0  0.21501422530E+02 -0.16916518215E+02 -0.55994022337E+02  0.62320223819E+02  0.00000000000E+00 0. -1.
</event>
<event>
 7    1  0.6386201E-006  0.8075716E+02  0.7818608E-02  0.1425862E+00
          2   -1    0    0  502    0  0.00000000000E+00  0.00000000000E+00  0.17508827770E+04  0.17508827770E+04  0.00000000000E+00 0. -1.
          1   -1    0    0  501    0 -0.00000000000E+00 -0.00000000000E+00 -0.36366746417E+02  0.36366746417E+02  0.00000000000E+00 0. -1.
         25    2    1    2    0    0  0.12219620316E+02 -0.49827520519E+02  0.87247246196E+03  0.88287379499E+03  0.12500336032E+03 0.  0.
          2    1    1    2  501    0  0.20449375141E+01  0.82707325011E+02  0.24832403390E+02  0.86378999983E+02  0.00000000000E+00 0. -1.
          1    1    1    2  502    0 -0.14264557830E+02 -0.32879804492E+02  0.81721116522E+03  0.81799672842E+03  0.00000000000E+00 0. -1.
         22    1    3    3    0    0  0.40217009137E+02 -0.58684507198E+02  0.81714889069E+03  0.82023995804E+03  0.00000000000E+00 0. -1.
         22    1    3    3    0    0 -0.27997388821E+02  0.88569866792E+01  0.55323571271E+02  0.62633836957E+02  0.00000000000E+00 0. -1.
</event>
<event>
 7    1  0.6386201E-006  0.7651811E+02  0.7818608E-02  0.1503533E+00
          2   -1    0    0  502    0  0.00000000000E+00  0.00000000000E+00  0.71715538261E+02  0.71715538261E+02  0.00000000000E+00 0. -1.
          1   -1    0    0  501    0 -0.00000000000E+00 -0.00000000000E+00 -0.25224941245E+04  0.25224941245E+04  0.00000000000E+00 0. -1.
         25    2    1    2    0    0  0.93684010769E+02  0.86089022687E+01 -0.34295533155E+02  0.16016072427E+03  0.12499786771E+03 0.  0.
          2    1    1    2  501    0 -0.74220065378E+02 -0.17945972675E+02 -0.24104156980E+04  0.24116248699E+04  0.00000000000E+00 0. -1.
          1    1    1    2  502    0 -0.19463945391E+02  0.93370704064E+01 -0.60673550960E+01  0.22424068583E+02  0.00000000000E+00 0. -1.
         22    1    3    3    0    0 -0.25111387419E+02 -0.22249775479E+02 -0.10331803953E+02  0.35105276809E+02  0.00000000000E+00 0.  1.
         22    1    3    3    0    0  0.11879539819E+03  0.30858677747E+02 -0.23963729202E+02  0.12505544746E+03  0.00000000000E+00 0.  1.
</event>
<event>
 7    1  0.6386201E-006  0.3059988E+02  0.7818608E-02  0.1592723E+00
          2   -1    0    0  502    0  0.00000000000E+00  0.00000000000E+00  0.87645061451E+03  0.87645061451E+03  0.00000000000E+00 0. -1.
          1   -1    0    0  501    0 -0.00000000000E+00 -0.00000000000E+00 -0.23190008845E+03  0.23190008845E+03  0.00000000000E+00 0. -1.
         25    2    1    2    0    0  0.17249472413E+02  0.15567891871E+02  0.70922762693E+02  0.14557351027E+03  0.12498681958E+03 0.  0.
          2    1    1    2  501    0 -0.28044319246E+02  0.12832475741E+02 -0.19304983380E+03  0.19549781228E+03  0.00000000000E+00 0. -1.
          1    1    1    2  502    0  0.10794846833E+02 -0.28400367612E+02  0.76667759717E+03  0.76727938041E+03  0.00000000000E+00 0. -1.
         22    1    3    3    0    0  0.45273873268E+02  0.26240690030E+02  0.94101048394E+02  0.10767220961E+03  0.00000000000E+00 0.  1.
         22    1    3    3    0    0 -0.28024400855E+02 -0.10672798159E+02 -0.23178285701E+02  0.37901300662E+02  0.00000000000E+00 0.  1.
</event>
<event>
 7    1  0.6386201E-006  0.2245447E+03  0.7818608E-02  0.1250953E+00
          2   -1    0    0  502    0  0.00000000000E+00  0.00000000000E+00  0.15782220077E+04  0.15782220077E+04  0.00000000000E+00 0. -1.
          1   -1    0    0  501    0 -0.00000000000E+00 -0.00000000000E+00 -0.10847970629E+04  0.10847970629E+04  0.00000000000E+00 0. -1.
         25    2    1    2    0    0 -0.26412299512E+03  0.44050052113E+02 -0.48237024508E+03  0.56569207745E+03  0.12500043801E+03 0.  0.
          2    1    1    2  501    0  0.52156063571E+02  0.28148152639E+02 -0.55101009729E+03  0.55418832609E+03  0.00000000000E+00 0. -1.
          1    1    1    2  502    0  0.21196693155E+03 -0.72198204751E+02  0.15268052871E+04  0.15431386670E+04  0.00000000000E+00 0. -1.
         22    1    3    3    0    0 -0.75311501885E+02 -0.13492745620E+02 -0.24664284886E+03  0.25823743221E+03  0.00000000000E+00 0. -1.
         22    1    3    3    0    0 -0.18881149324E+03  0.57542797732E+02 -0.23572739622E+03  0.30745464524E+03  0.00000000000E+00 0. -1.
</event>
<event>
 7    1  0.6386201E-006  0.1671515E+03  0.7818608E-02  0.1275363E+00
          2   -1    0    0  502    0  0.00000000000E+00  0.00000000000E+00  0.75433378580E+03  0.75433378580E+03  0.00000000000E+00 0. -1.
          1   -1    0    0  501    0 -0.00000000000E+00 -0.00000000000E+00 -0.42759971339E+03  0.42759971339E+03  0.00000000000E+00 0. -1.
         25    2    1    2    0    0  0.11652859970E+02 -0.13643030121E+03 -0.90113601009E+02  0.20614219110E+03  0.12500050253E+03 0.  0.
          2    1    1    2  501    0 -0.61669704448E+02  0.17425905671E+03 -0.24726623094E+03  0.30872311260E+03  0.00000000000E+00 0. -1.
          1    1    1    2  502    0  0.50016844478E+02 -0.37828755507E+02  0.66411390435E+03  0.66706819549E+03  0.00000000000E+00 0. -1.
         22    1    3    3    0    0  0.37300905325E+02 -0.23788800129E+02 -0.78405232055E+02  0.90025801653E+02  0.00000000000E+00 0. -1.
         22    1    3    3    0    0 -0.25648045355E+02 -0.11264150108E+03 -0.11708368954E+02  0.11611638945E+03  0.00000000000E+00 0. -1.
</event>
<event>
 7    1  0.6386201E-006  0.8716939E+02  0.7818608E-02  0.1313884E+00
          2   -1    0    0  502    0  0.00000000000E+00  0.00000000000E+00  0.16796551121E+04  0.16796551121E+04  0.00000000000E+00 0. -1.
          1   -1    0    0  501    0 -0.00000000000E+00 -0.00000000000E+00 -0.28632715469E+03  0.28632715469E+03  0.00000000000E+00 0. -1.
         25    2    1    2    0    0  0.22832249682E+02 -0.43034478080E+02  0.51479704017E+02  0.14369915821E+03  0.12500404079E+03 0.  0.
          2    1    1    2  501    0 -0.93151856478E+02 -0.30021702712E+01 -0.23001221496E+03  0.24817715532E+03  0.00000000000E+00 0. -1.
          1    1    1    2  502    0  0.70319606796E+02  0.46036648351E+02  0.15718604684E+04  0.15741059533E+04  0.00000000000E+00 0. -1.
         22    1    3    3    0    0  0.61145061111E+02  0.13370147869E+02  0.86681399374E+01  0.63187150611E+02  0.00000000000E+00 0. -1.
         22    1    3    3    0    0 -0.38312811429E+02 -0.56404625949E+02  0.42811564079E+02  0.80512007595E+02  0.00000000000E+00 0. -1.
</event>
<event>
 7    1  0.6386201E-006  0.1152391E+03  0.7818608E-02  0.1255097E+00
          2   -1    0    0  502    0  0.00000000000E+00  0.00000000000E+00  0.73816304189E+03  0.73816304189E+03  0.00000000000E+00 0. -1.
          1   -1    0    0  501    0 -0.00000000000E+00 -0.00000000000E+00 -0.17283703621E+03  0.17283703621E+03  0.00000000000E+00 0. -1.
         25    2    1    2    0    0 -0.65863501704E+02 -0.65836643883E+02  0.71779551132E+02  0.17161310890E+03  0.12500516250E+03 0.  0.
          2    1    1    2  501    0 -0.46235699760E+02  0.10555715351E+03 -0.88508704596E+02  0.14530603353E+03  0.00000000000E+00 0. -1.
          1    1    1    2  502    0  0.11209920146E+03 -0.39720509629E+02  0.58205515914E+03  0.59408093567E+03  0.00000000000E+00 0. -1.
         22    1    3    3    0    0 -0.77839997236E+02 -0.34264319090E+02 -0.75635265772E+01  0.85383345370E+02  0.00000000000E+00 0. -1.
         22    1    3    3    0    0  0.11976495532E+02 -0.31572324792E+02  0.79343077710E+02  0.86229763530E+02  0.00000000000E+00 0. -1.
</event>
<event>
 7    1  0.6386201E-006  0.2614019E+02  0.7818608E-02  0.1664784E+00
          2   -1    0    0  502    0  0.00000000000E+00  0.00000000000E+00  0.10925139038E+04  0.10925139038E+04  0.00000000000E+00 0. -1.
          1   -1    0    0  501    0 -0.00000000000E+00 -0.00000000000E+00 -0.53962656735E+02  0.53962656735E+02  0.00000000000E+00 0. -1.
         25    2    1    2    0    0 -0.26782065240E+02 -0.33339392523E+02  0.90979784555E+02  0.16041281181E+03  0.12500461945E+03 0.  0.
          2    1    1    2  501    0  0.27299820835E+01  0.23252610477E+02 -0.11882672845E+02  0.26255182538E+02  0.00000000000E+00 0. -1.
          1    1    1    2  502    0  0.24052083157E+02  0.10086782046E+02  0.95945413540E+03  0.95980856623E+03  0.00000000000E+00 0. -1.
         22    1    3    3    0    0  0.48737247824E+02 -0.13079788644E+02  0.18349338558E+02  0.53694491542E+02  0.00000000000E+00 0.  1.
         22    1    3    3    0    0 -0.75519313065E+02 -0.20259603879E+02  0.72630445997E+02  0.10671832027E+03  0.00000000000E+00 0.  1.
</event>
<event>
 7    1  0.6386201E-006  0.8673909E+02  0.7818608E-02  0.1460752E+00
          2   -1    0    0  502    0  0.00000000000E+00  0.00000000000E+00  0.41053534139E+03  0.41053534139E+03  0.00000000000E+00 0. -1.
          1   -1    0    0  501    0 -0.00000000000E+00 -0.00000000000E+00 -0.11332486624E+04  0.11332486624E+04  0.00000000000E+00 0. -1.
         25    2    1    2    0    0  0.10891453367E+03  0.82719184663E+01  0.90906157731E+02  0.18926063834E+03  0.12499943773E+03 0.  0.
          2    1    1    2  501    0 -0.84753899235E+02 -0.17153012069E+02 -0.10817296154E+04  0.10851803584E+04  0.00000000000E+00 0. -1.
          1    1    1    2  502    0 -0.24160634436E+02  0.88810936031E+01  0.26811013669E+03  0.26934300710E+03  0.00000000000E+00 0. -1.
         22    1    3    3    0    0  0.13488318859E+03  0.17638118632E+02  0.86762448883E+02  0.16134528295E+03  0.00000000000E+00 0.  1.
         22    1    3    3    0    0 -0.25968654919E+02 -0.93662001658E+01  0.41437088479E+01  0.27915355395E+02  0.00000000000E+00 0.  1.
</event>
<event>
 7    1  0.6386201E-006  0.7404476E+02  0.7818608E-02  0.1416802E+00
          2   -1    0    0  502    0  0.00000000000E+00  0.00000000000E+00  0.23142666346E+03  0.23142666346E+03  0.00000000000E+00 0. -1.
          1   -1    0    0  501    0 -0.00000000000E+00 -0.00000000000E+00 -0.28940822328E+03  0.28940822328E+03  0.00000000000E+00 0. -1.
         25    2    1    2    0    0  0.14405901425E+02 -0.64922539812E+02  0.83498440163E+02  0.16437646519E+03  0.12500066650E+03 0.  0.
          2    1    1    2  501    0 -0.54175045232E+02  0.51714060374E+02 -0.23892307959E+03  0.25038673592E+03  0.00000000000E+00 0. -1.
          1    1    1    2  502    0  0.39769143807E+02  0.13208479438E+02  0.97443079606E+02  0.10607168562E+03  0.00000000000E+00 0. -1.
         22    1    3    3    0    0 -0.23849224647E+02 -0.69026358542E+02  0.65344561957E+00  0.73033216286E+02  0.00000000000E+00 0.  1.
         22    1    3    3    0    0  0.38255126072E+02  0.41038187303E+01  0.82844994544E+02  0.91343248902E+02  0.00000000000E+00 0.  1.
</event>
<event>
 7    1  0.6386201E-006  0.4735676E+02  0.7818608E-02  0.1500423E+00
          2   -1    0    0  502    0  0.00000000000E+00  0.00000000000E+00  0.12273892534E+04  0.12273892534E+04  0.00000000000E+00 0. -1.
          1   -1    0    0  501    0 -0.00000000000E+00 -0.00000000000E+00 -0.16378751085E+03  0.16378751085E+03  0.00000000000E+00 0. -1.
         25    2    1    2    0    0 -0.31179506479E+01  0.12296777048E+02  0.14486486358E+03  0.19175880887E+03  0.12499871894E+03 0.  0.
          2    1    1    2  501    0 -0.14718201774E+02  0.32450460642E+02 -0.13752098414E+03  0.14206223614E+03  0.00000000000E+00 0. -1.
          1    1    1    2  502    0  0.17836152422E+02 -0.44747237689E+02  0.10562578631E+04  0.10573557192E+04  0.00000000000E+00 0. -1.
         22    1    3    3    0    0  0.35808631472E+01 -0.30689199284E+02 -0.87417613576E+01  0.32110246421E+02  0.00000000000E+00 0.  1.
         22    1    3    3    0    0 -0.66988137950E+01  0.42985976332E+02  0.15360662494E+03  0.15964856245E+03  0.00000000000E+00 0.  1.
</event>
<event>
 7    1  0.6386201E-006  0.6621993E+02  0.7818608E-02  0.1436523E+00
          2   -1    0    0  502    0  0.00000000000E+00  0.00000000000E+00  0.43407803169E+03  0.43407803169E+03  0.00000000000E+00 0. -1.
          1   -1    0    0  501    0 -0.00000000000E+00 -0.00000000000E+00 -0.12102497338E+03  0.12102497338E+03  0.00000000000E+00 0. -1.
         25    2    1    2    0    0  0.63764768979E+02  0.42078590791E+02  0.12878433342E+03  0.19505599685E+03  0.12499953522E+03 0.  0.
          2    1    1    2  501    0  0.24254588912E+01 -0.40248223110E+02 -0.78937612148E+02  0.88639432116E+02  0.00000000000E+00 0. -1.
          1    1    1    2  502    0 -0.66190227870E+02 -0.18303676813E+01  0.26320633704E+03  0.27140757611E+03  0.00000000000E+00 0. -1.
         22    1    3    3    0    0  0.36151839418E+02 -0.24138891204E+02  0.11372297933E+03  0.12174792643E+03  0.00000000000E+00 0.  1.
         22    1    3    3    0    0  0.27612929561E+02  0.66217481995E+02  0.15061354088E+02  0.73308070413E+02  0.00000000000E+00 0.  1.
</event>
<event>
 7    1  0.6386201E-006  0.6236643E+02  0.7818608E-02  0.1489615E+00
          2   -1    0    0  502    0  0.00000000000E+00  0.00000000000E+00  0.21101652650E+04  0.21101652650E+04  0.00000000000E+00 0. -1.
          1   -1    0    0  501    0 -0.00000000000E+00 -0.00000000000E+00 -0.29469322794E+02  0.29469322794E+02  0.00000000000E+00 0. -1.
         25    2    1    2    0    0 -0.83302319243E+02  0.23865398377E+02  0.41755949211E+03  0.44439769089E+03  0.12499817833E+03 0.  0.
          2    1    1    2  501    0  0.58793403610E+02 -0.80710368828E+01  0.39387689795E+02  0.71226371884E+02  0.00000000000E+00 0. -1.
          1    1    1    2  502    0  0.24508915633E+02 -0.15794361494E+02  0.16237487603E+04  0.16240105251E+04  0.00000000000E+00 0. -1.
         22    1    3    3    0    0 -0.84187471418E+02 -0.30931724031E+02  0.32179407748E+03  0.33405947105E+03  0.00000000000E+00 0. -1.
         22    1    3    3    0    0  0.88515217539E+00  0.54797122407E+02  0.95765414628E+02  0.11033821984E+03  0.00000000000E+00 0. -1.
</event>
<event>
 7    1  0.6386201E-006  0.4884803E+02  0.7818608E-02  0.1505558E+00
          2   -1    0    0  502    0  0.00000000000E+00  0.00000000000E+00  0.54272584418E+03  0.54272584418E+03  0.00000000000E+00 0. -1.
          1   -1    0    0  501    0 -0.00000000000E+00 -0.00000000000E+00 -0.93739092023E+03  0.93739092023E+03  0.00000000000E+00 0. -1.
         25    2    1    2    0    0 -0.35729134609E+01  0.21709018765E+02 -0.89176399058E+02  0.15511737513E+03  0.12499969085E+03 0.  0.
          2    1    1    2  501    0  0.24286486551E+02  0.22858079024E+02 -0.81371711207E+03  0.81440030923E+03  0.00000000000E+00 0. -1.
          1    1    1    2  502    0 -0.20713573090E+02 -0.44567097789E+02  0.50822843508E+03  0.51059908005E+03  0.00000000000E+00 0. -1.
         22    1    3    3    0    0  0.39216930201E+02  0.56234467352E+02 -0.66910896810E+02  0.95798491870E+02  0.00000000000E+00 0. -1.
         22    1    3    3    0    0 -0.42789843662E+02 -0.34525448587E+02 -0.22265502248E+02  0.59318883259E+02  0.00000000000E+00 0. -1.
</event>
<event>
 7    1  0.6386201E-006  0.1092433E+03  0.7818608E-02  0.1367302E+00
          2   -1    0    0  502    0  0.00000000000E+00  0.00000000000E+00  0.77099028941E+02  0.77099028941E+02  0.00000000000E+00 0. -1.
          1   -1    0    0  501    0 -0.00000000000E+00 -0.00000000000E+00 -0.22674692290E+04  0.22674692290E+04  0.00000000000E+00 0. -1.
         25    2    1    2    0    0 -0.75805593905E+02 -0.74800354134E+01 -0.21200257927E+03  0.25762948735E+03  0.12500168055E+03 0.  0.
          2    1    1    2  501    0 -0.42181489614E+02 -0.20570922939E+01 -0.19676274598E+04  0.19680806209E+04  0.00000000000E+00 0. -1.
          1    1    1    2  502    0  0.11798708352E+03  0.95371277073E+01 -0.10740160928E+02  0.11885814965E+03  0.00000000000E+00 0. -1.
         22    1    3    3    0    0  0.23701773407E+02 -0.31091830742E+02 -0.91981414147E+02  0.99945267772E+02  0.00000000000E+00 0. -1.
         22    1    3    3    0    0 -0.99507367313E+02  0.23611795329E+02 -0.12002116512E+03  0.15768421958E+03  0.00000000000E+00 0. -1.
</event>
<event>
 7    1  0.6386201E-006  0.6695738E+02  0.7818608E-02  0.1417284E+00
          2   -1    0    0  502    0  0.00000000000E+00  0.00000000000E+00  0.10106497734E+04  0.10106497734E+04  0.00000000000E+00 0. -1.
          1   -1    0    0  501    0 -0.00000000000E+00 -0.00000000000E+00 -0.28483966411E+03  0.28483966411E+03  0.00000000000E+00 0. -1.
         25    2    1    2    0    0  0.73349753537E+02 -0.53157881144E+02  0.60167732186E+02  0.16568392374E+03  0.12500023968E+03 0.  0.
          2    1    1    2  501    0 -0.71088094222E+01  0.45617987815E+02 -0.22853215458E+03  0.23314905460E+03  0.00000000000E+00 0. -1.
          1    1    1    2  502    0 -0.66240944115E+02  0.75398933281E+01  0.89417453165E+03  0.89665645914E+03  0.00000000000E+00 0. -1.
         22    1    3    3    0    0 -0.13614062374E+02 -0.75924038409E-01  0.62307183076E+02  0.63777217889E+02  0.00000000000E+00 0.  1.
         22    1    3    3    0    0  0.86963815911E+02 -0.53081957105E+02 -0.21394508897E+01  0.10190670585E+03  0.00000000000E+00 0.  1.
</event>
<event>
 7    1  0.6386201E-006  0.1007945E+03  0.7818608E-02  0.1305790E+00
          2   -1    0    0  502    0  0.00000000000E+00  0.00000000000E+00  0.15929913794E+04  0.15929913794E+04  0.00000000000E+00 0. -1.
          1   -1    0    0  501    0 -0.00000000000E+00 -0.00000000000E+00 -0.34867079609E+04  0.34867079609E+04  0.00000000000E+00 0. -1.
         25    2    1    2    0    0 -0.61701395493E+02  0.16518258976E+03  0.18489527817E+03  0.28443264903E+03  0.12499327094E+03 0.  0.
          2    1    1    2  501    0  0.27884258592E+02 -0.73090119212E+02 -0.34347219128E+04  0.34356126551E+04  0.00000000000E+00 0. -1.
          1    1    1    2  502    0  0.33817136901E+02 -0.92092470548E+02  0.13561100532E+04  0.13596540362E+04  0.00000000000E+00 0. -1.
         22    1    3    3    0    0 -0.10046158783E+03  0.11506115897E+03  0.12847996729E+03  0.19959634998E+03  0.00000000000E+00 0.  1.
         22    1    3    3    0    0  0.38760192336E+02  0.50121430795E+02  0.56415310878E+02  0.84836299049E+02  0.00000000000E+00 0.  1.
</event>
<event>
 7    1  0.6386201E-006  0.4246316E+02  0.7818608E-02  0.1564292E+00
          2   -1    0    0  502    0  0.00000000000E+00  0.00000000000E+00  0.14955662066E+03  0.14955662066E+03  0.00000000000E+00 0. -1.
          1   -1    0    0  501    0 -0.00000000000E+00 -0.00000000000E+00 -0.73172310064E+03  0.73172310064E+03  0.00000000000E+00 0. -1.
         25    2    1    2    0    0  0.17797902746E+02 -0.19901771312E+02 -0.41065214271E+03  0.43008464698E+03  0.12499910164E+03 0.  0.
          2    1    1    2  501    0 -0.13269074383E+02 -0.22481160532E+02 -0.30754080682E+03  0.30864675403E+03  0.00000000000E+00 0. -1.
          1    1    1    2  502    0 -0.45288283633E+01  0.42382931845E+02  0.13602646955E+03  0.14254832029E+03  0.00000000000E+00 0. -1.
         22    1    3    3    0    0  0.57706067304E+02  0.27568642137E+02 -0.24482706161E+03  0.25304211177E+03  0.00000000000E+00 0. -1.
         22    1    3    3    0    0 -0.39908164558E+02 -0.47470413449E+02 -0.16582508111E+03  0.17704253521E+03  0.00000000000E+00 0. -1.
</event>
<event>
 7    1  0.6386201E-006  0.9057547E+02  0.7818608E-02  0.1327002E+00
          2   -1    0    0  502    0  0.00000000000E+00  0.00000000000E+00  0.31445847246E+04  0.31445847246E+04  0.00000000000E+00 0. -1.
          1   -1    0    0  501    0 -0.00000000000E+00 -0.00000000000E+00 -0.28180962998E+03  0.28180962998E+03  0.00000000000E+00 0. -1.
         25    2    1    2    0    0 -0.86250133303E+02 -0.88462465430E+02  0.43619698515E+03  0.47027556715E+03  0.12500642350E+03 0.  0.
          2    1    1    2  501    0  0.14305706410E+02  0.89250512376E+02 -0.25655949724E+03  0.27201669584E+03  0.00000000000E+00 0. -1.
          1    1    1    2  502    0  0.71944426894E+02 -0.78804694636E+00  0.26831376067E+04  0.26841020916E+04  0.00000000000E+00 0. -1.
         22    1    3    3    0    0 -0.10988409149E+03 -0.57495428397E+02  0.23892363753E+03  0.26919276071E+03  0.00000000000E+00 0.  1.
         22    1    3    3    0    0  0.23633958189E+02 -0.30967037033E+02  0.19727334763E+03  0.20108280644E+03  0.00000000000E+00 0.  1.
</event>
<event>
 7    1  0.6386201E-006  0.6266243E+02  0.7818608E-02  0.1456391E+00
          2   -1    0    0  502    0  0.00000000000E+00  0.00000000000E+00  0.65434957442E+02  0.65434957442E+02  0.00000000000E+00 0. -1.
          1   -1    0    0  501    0 -0.00000000000E+00 -0.00000000000E+00 -0.15974090402E+04  0.15974090402E+04  0.00000000000E+00 0. -1.
         25    2    1    2    0    0  0.18436168927E+02  0.54206891383E+02 -0.58880942853E+03  0.60464835523E+03  0.12499924384E+03 0.  0.
          2    1    1    2  501    0  0.17472200332E+02 -0.62171037924E+02 -0.99364247611E+03  0.99573886440E+03  0.00000000000E+00 0. -1.
          1    1    1    2  502    0 -0.35908369258E+02  0.79641465413E+01  0.50477821904E+02  0.62456777991E+02  0.00000000000E+00 0. -1.
         22    1    3    3    0    0 -0.34117138647E+02  0.33961705550E+02 -0.84871801179E+02  0.97573558040E+02  0.00000000000E+00 0. -1.
         22    1    3    3    0    0  0.52553307574E+02  0.20245185833E+02 -0.50393762735E+03  0.50707479719E+03  0.00000000000E+00 0. -1.
</event>
<event>
 7    1  0.6386201E-006  0.1472871E+03  0.7818608E-02  0.1407256E+00
          2   -1    0    0  502    0  0.00000000000E+00  0.00000000000E+00  0.44261618045E+03  0.44261618045E+03  0.00000000000E+00 0. -1.
          1   -1    0    0  501    0 -0.00000000000E+00 -0.00000000000E+00 -0.29525789495E+03  0.29525789495E+03  0.00000000000E+00 0. -1.
         25    2    1    2    0    0  0.58395173744E+02 -0.14448575004E+03 -0.79701035400E+02  0.21508803531E+03  0.12499791842E+03 0.  0.
          2    1    1    2  501    0 -0.70046489443E+02  0.12501468262E+03 -0.11267594549E+03  0.18229385685E+03  0.00000000000E+00 0. -1.
          1    1    1    2  502    0  0.11651315699E+02  0.19471067425E+02  0.33973526639E+03  0.34049218325E+03  0.00000000000E+00 0. -1.
         22    1    3    3    0    0  0.30492057096E+02 -0.14732408101E+02 -0.74993286433E+02  0.82284885638E+02  0.00000000000E+00 0.  1.
         22    1    3    3    0    0  0.27903116648E+02 -0.12975334194E+03 -0.47077489668E+01  0.13280314967E+03  0.00000000000E+00 0.  1.
</event>
<event>
 7    1  0.6386201E-006  0.1442387E+03  0.7818608E-02  0.1353595E+00
          2   -1    0    0  502    0  0.00000000000E+00  0.00000000000E+00  0.17204017159E+04  0.17204017159E+04  0.00000000000E+00 0. -1.
          1   -1    0    0  501    0 -0.00000000000E+00 -0.00000000000E+00 -0.34294703428E+03  0.34294703428E+03  0.00000000000E+00 0. -1.
         25    2    1    2    0    0  0.11276521693E+03 -0.83225456131E+02  0.64589600080E+02  0.19859405437E+03  0.12500124517E+03 0.  0.
          2    1    1    2  501    0 -0.13466687974E+03  0.54796294745E+02 -0.25657504522E+03  0.29490431711E+03  0.00000000000E+00 0. -1.
          1    1    1    2  502    0  0.21901662808E+02  0.28429161386E+02  0.15694401267E+04  0.15698503787E+04  0.00000000000E+00 0. -1.
         22    1    3    3    0    0 -0.13862875061E+01  0.28225214264E+02  0.94188377143E+01  0.29787564808E+02  0.00000000000E+00 0.  1.
         22    1    3    3    0    0  0.11415150444E+03 -0.11145067039E+03  0.55170762365E+02  0.16880648956E+03  0.00000000000E+00 0.  1.
</event>
<event>
 7    1  0.6386201E-006  0.2888130E+02  0.7818608E-02  0.1644521E+00
          2   -1    0    0  502    0  0.00000000000E+00  0.00000000000E+00  0.15267358810E+04  0.15267358810E+04  0.00000000000E+00 0. -1.
          1   -1    0    0  501    0 -0.00000000000E+00 -0.00000000000E+00 -0.17226407713E+04  0.17226407713E+04  0.00000000000E+00 0. -1.
         25    2    1    2    0    0  0.21751732656E+02  0.44942111703E+00 -0.57762606606E+03  0.59139804357E+03  0.12500573544E+03 0.  0.
          2    1    1    2  501    0 -0.17178072235E+02 -0.23748017097E+02 -0.11378472607E+04  0.11382246892E+04  0.00000000000E+00 0. -1.
          1    1    1    2  502    0 -0.45736604213E+01  0.23298595980E+02  0.15195684365E+04  0.15197539196E+04  0.00000000000E+00 0. -1.
         22    1    3    3    0    0  0.27626226373E+02  0.37574856290E+02 -0.81892063562E+02  0.94241117795E+02  0.00000000000E+00 0. -1.
         22    1    3    3    0    0 -0.58744937167E+01 -0.37125435173E+02 -0.49573400249E+03  0.49715692577E+03  0.00000000000E+00 0. -1.
</event>
<event>
 7    1  0.6386201E-006  0.9730439E+02  0.7818608E-02  0.1333450E+00
          2   -1    0    0  502    0  0.00000000000E+00  0.00000000000E+00  0.17599802921E+03  0.17599802921E+03  0.00000000000E+00 0. -1.
          1   -1    0    0  501    0 -0.00000000000E+00 -0.00000000000E+00 -0.40646582973E+03  0.40646582973E+03  0.00000000000E+00 0. -1.
         25    2    1    2    0    0  0.14863390283E+02  0.35106500602E+02  0.68695912421E+02  0.14762366723E+03  0.12498092650E+03 0.  0.
          2    1    1    2  501    0 -0.44507667300E+02 -0.91014909926E+02 -0.34313635884E+03  0.35778094839E+03  0.00000000000E+00 0. -1.
          1    1    1    2  502    0  0.29644277017E+02  0.55908409324E+02  0.43972645897E+02  0.77059243314E+02  0.00000000000E+00 0. -1.
         22    1    3    3    0    0  0.34504847814E+02  0.75917879697E+02  0.56464556061E+02  0.10070926011E+03  0.00000000000E+00 0.  1.
         22    1    3    3    0    0 -0.19641457531E+02 -0.40811379096E+02  0.12231356360E+02  0.46914407126E+02  0.00000000000E+00 0.  1.
</event>
<event>
 7    1  0.6386201E-006  0.6504649E+02  0.7818608E-02  0.1407708E+00
          2   -1    0    0  502    0  0.00000000000E+00  0.00000000000E+00  0.66889485017E+02  0.66889485017E+02  0.00000000000E+00 0. -1.
          1   -1    0    0  501    0 -0.00000000000E+00 -0.00000000000E+00 -0.66688152723E+03  0.66688152723E+03  0.00000000000E+00 0. -1.
         25    2    1    2    0    0  0.58475067619E+02 -0.21627295998E+02 -0.14941549924E+03  0.20454419120E+03  0.12500504500E+03 0.  0.
          2    1    1    2  501    0 -0.30765683685E+02 -0.40923615428E+02 -0.45759850536E+03  0.46045375631E+03  0.00000000000E+00 0. -1.
          1    1    1    2  502    0 -0.27709383934E+02  0.62550911426E+02  0.70219623850E+01  0.68773064742E+02  0.00000000000E+00 0. -1.
         22    1    3    3    0    0  0.19680377751E+02 -0.63560435014E+02 -0.31707688118E+02  0.73706333875E+02  0.00000000000E+00 0.  1.
         22    1    3    3    0    0  0.38794689868E+02  0.41933139016E+02 -0.11770781112E+03  0.13083785732E+03  0.00000000000E+00 0.  1.
</event>
<event>
 7    1  0.6386201E-006  0.1149446E+03  0.7818608E-02  0.1355357E+00
          2   -1    0    0  502    0  0.00000000000E+00  0.00000000000E+00  0.47329890240E+03  0.47329890240E+03  0.00000000000E+00 0. -1.
          1   -1    0    0  501    0 -0.00000000000E+00 -0.00000000000E+00 -0.12722880059E+04  0.12722880059E+04  0.00000000000E+00 0. -1.
         25    2    1    2    0    0 -0.10081604029E+03 -0.67104255299E+02 -0.13901990069E+02  0.17460012204E+03  0.12500032892E+03 0.  0.
          2    1    1    2  501    0  0.65791192099E+02  0.94336782646E+02 -0.11739654361E+04  0.11795858403E+04  0.00000000000E+00 0. -1.
          1    1    1    2  502    0  0.35024848189E+02 -0.27232527347E+02  0.38887832273E+03  0.39140094587E+03  0.00000000000E+00 0. -1.
         22    1    3    3    0    0 -0.72430766422E+02  0.16399702572E+01  0.39990016708E+02  0.82753289139E+02  0.00000000000E+00 0.  1.
         22    1    3    3    0    0 -0.28385273866E+02 -0.68744225556E+02 -0.53892006777E+02  0.91846832902E+02  0.00000000000E+00 0.  1.
</event>
<event>
 7    1  0.6386201E-006  0.1230802E+03  0.7818608E-02  0.1395137E+00
          2   -1    0    0  502    0  0.00000000000E+00  0.00000000000E+00  0.25124533216E+03  0.25124533216E+03  0.00000000000E+00 0. -1.
          1   -1    0    0  501    0 -0.00000000000E+00 -0.00000000000E+00 -0.39655854788E+03  0.39655854788E+03  0.00000000000E+00 0. -1.
         25    2    1    2    0    0  0.97860331148E+02 -0.24516467264E+01 -0.57204835183E+02  0.16876231235E+03  0.12500267964E+03 0.  0.
          2    1    1    2  501    0  0.29879556856E+02  0.47234134578E+00 -0.26175873482E+03  0.26345900303E+03  0.00000000000E+00 0. -1.
          1    1    1    2  502    0 -0.12773988800E+03  0.19793053806E+01  0.17365035429E+03  0.21558256465E+03  0.00000000000E+00 0. -1.
         22    1    3    3    0    0  0.22844418537E+02 -0.59855144485E+02 -0.27740846662E+02  0.69814470944E+02  0.00000000000E+00 0. -1.
         22    1    3    3    0    0  0.75015912610E+02  0.57403497759E+02 -0.29463988522E+02  0.98947841408E+02  0.00000000000E+00 0. -1.
</event>
<event>
 7    1  0.6386201E-006  0.1279712E+03  0.7818608E-02  0.1377733E+00
          2   -1    0    0  502    0  0.00000000000E+00  0.00000000000E+00  0.13055392150E+03  0.13055392150E+03  0.00000000000E+00 0. -1.
          1   -1    0    0  501    0 -0.00000000000E+00 -0.00000000000E+00 -0.64921607942E+03  0.64921607942E+03  0.00000000000E+00 0. -1.
         25    2    1    2    0    0 -0.10486930643E+03 -0.38947354922E+02 -0.34586255518E+03  0.38439389639E+03  0.12499317027E+03 0.  0.
          2    1    1    2  501    0  0.13019252117E+03  0.60231302680E+02 -0.26284770876E+03  0.29944418577E+03  0.00000000000E+00 0. -1.
          1    1    1    2  502    0 -0.25323214740E+02 -0.21283947757E+02  0.90048106025E+02  0.95931918753E+02  0.00000000000E+00 0. -1.
         22    1    3    3    0    0 -0.13010683948E+03 -0.13206069033E+02 -0.25347540973E+03  0.28522267315E+03  0.00000000000E+00 0. -1.
         22    1    3    3    0    0  0.25237533050E+02 -0.25741285889E+02 -0.92387145452E+02  0.99171223237E+02  0.00000000000E+00 0. -1.
</event>
<event>
 7    1  0.6386201E-006  0.2302247E+03  0.7818608E-02  0.1134251E+00
          2   -1    0    0  502    0  0.00000000000E+00  0.00000000000E+00  0.14454228684E+04  0.14454228684E+04  0.00000000000E+00 0. -1.
          1   -1    0    0  501    0 -0.00000000000E+00 -0.00000000000E+00 -0.22710600418E+04  0.22710600418E+04  0.00000000000E+00 0. -1.
         25    2    1    2    0    0 -0.69078384023E+02 -0.17061925128E+02 -0.16695473712E+02  0.14479808746E+03  0.12499925944E+03 0.  0.
          2    1    1    2  501    0 -0.73730262836E+02 -0.19587194399E+03 -0.21733461805E+04  0.21834000070E+04  0.00000000000E+00 0. -1.
          1    1    1    2  502    0  0.14280864686E+03  0.21293386912E+03  0.13644044809E+04  0.13882848158E+04  0.00000000000E+00 0. -1.
         22    1    3    3    0    0 -0.41658235493E+02  0.52362722176E+02  0.49054726359E+01  0.67091928873E+02  0.00000000000E+00 0.  1.
         22    1    3    3    0    0 -0.27420148530E+02 -0.69424647305E+02 -0.21600946348E+02  0.77706158584E+02  0.00000000000E+00 0.  1.
</event>
<event>
 7    1  0.6386201E-006  0.7569999E+02  0.7818608E-02  0.1400916E+00
          2   -1    0    0  502    0  0.00000000000E+00  0.00000000000E+00  0.29629446334E+03  0.29629446334E+03  0.00000000000E+00 0. -1.
          1   -1    0    0  501    0 -0.00000000000E+00 -0.00000000000E+00 -0.19045114571E+04  0.19045114571E+04  0.00000000000E+00 0. -1.
         25    2    1    2    0    0  0.46693998433E+02 -0.65283806538E+02 -0.26434225215E+03  0.30322123231E+03  0.12499593821E+03 0.  0.
          2    1    1    2  501    0 -0.15625328505E+01  0.76092305541E+02 -0.16178840686E+04  0.16196732201E+04  0.00000000000E+00 0. -1.
          1    1    1    2  502    0 -0.45131465583E+02 -0.10808499003E+02  0.27400932695E+03  0.27791146808E+03  0.00000000000E+00 0. -1.
         22    1    3    3    0    0  0.84395173497E+02 -0.45069687848E+02 -0.12470803817E+03  0.15718115936E+03  0.00000000000E+00 0. -1.
         22    1    3    3    0    0 -0.37701175064E+02 -0.20214118690E+02 -0.13963421397E+03  0.14604007295E+03  0.00000000000E+00 0. -1.
</event>
<event>
 7    1  0.6386201E-006  0.1112530E+03  0.7818608E-02  0.1371194E+00
          2   -1    0    0  502    0  0.00000000000E+00  0.00000000000E+00  0.87114816112E+02  0.87114816112E+02  0.00000000000E+00 0. -1.
          1   -1    0    0  501    0 -0.00000000000E+00 -0.00000000000E+00 -0.13704885420E+04  0.13704885420E+04  0.00000000000E+00 0. -1.
         25    2    1    2    0    0 -0.42293189241E+02  0.72853581070E+02 -0.15915858480E+03  0.21920875039E+03  0.12499865200E+03 0.  0.
          2    1    1    2  501    0 -0.24160056389E+00  0.40151931054E+02 -0.11166935040E+04  0.11174151502E+04  0.00000000000E+00 0. -1.
          1    1    1    2  502    0  0.42534789805E+02 -0.11300551212E+03 -0.75216370351E+01  0.12097945750E+03  0.00000000000E+00 0. -1.
         22    1    3    3    0    0 -0.21920542407E+02  0.10560172963E+03 -0.91989265575E+02  0.14175422555E+03  0.00000000000E+00 0. -1.
         22    1    3    3    0    0 -0.20372646834E+02 -0.32748148561E+02 -0.67169319221E+02  0.77454524838E+02  0.00000000000E+00 0. -1.
</event>
<event>
 7    1  0.6386201E-006  0.8872177E+02  0.7818608E-02  0.1418121E+00
          2   -1    0    0  502    0  0.00000000000E+00  0.00000000000E+00  0.56779166593E+03  0.56779166593E+03  0.00000000000E+00 0. -1.
          1   -1    0    0  501    0 -0.00000000000E+00 -0.00000000000E+00 -0.62577624308E+03  0.62577624308E+03  0.00000000000E+00 0. -1.
         25    2    1    2    0    0  0.57482786126E+02  0.10638558943E+03  0.74009522679E+02  0.18900899305E+03  0.12499930267E+03 0.  0.
          2    1    1    2  501    0 -0.15478240876E+02 -0.30965804514E+02 -0.56346960038E+03  0.56453206069E+03  0.00000000000E+00 0. -1.
          1    1    1    2  502    0 -0.42004545250E+02 -0.75419784918E+02  0.43147550056E+03  0.44002685527E+03  0.00000000000E+00 0. -1.
         22    1    3    3    0    0  0.32758198232E+02  0.35984693289E+02  0.99004787859E+02  0.11031747695E+03  0.00000000000E+00 0. -1.
         22    1    3    3    0    0  0.24724587894E+02  0.70400896144E+02 -0.24995265180E+02  0.78691516098E+02  0.00000000000E+00 0. -1.
</event>
<event>
 7    1  0.6386201E-006  0.1537125E+03  0.7818608E-02  0.1209505E+00
          2   -1    0    0  502    0  0.00000000000E+00  0.00000000000E+00  0.23770344282E+03  0.23770344282E+03  0.00000000000E+00 0. -1.
          1   -1    0    0  501    0 -0.00000000000E+00 -0.00000000000E+00 -0.10387758504E+04  0.10387758504E+04  0.00000000000E+00 0. -1.
         25    2    1    2    0    0  0.49661031280E+02  0.28647832938E+02  0.29699134013E+01  0.13752902449E+03  0.12497398062E+03 0.  0.
          2    1    1    2  501    0  0.11686814376E+03  0.99846735755E+02 -0.89621503819E+03  0.90930134078E+03  0.00000000000E+00 0. -1.
          1    1    1    2  502    0 -0.16652917504E+03 -0.12849456869E+03  0.92172717190E+02  0.22964892797E+03  0.00000000000E+00 0. -1.
         22    1    3    3    0    0 -0.24359109239E+02  0.92959347012E+01 -0.41518739323E+02  0.49026383916E+02  0.00000000000E+00 0.  1.
         22    1    3    3    0    0  0.74020140520E+02  0.19351898236E+02  0.44488652724E+02  0.88502640577E+02  0.00000000000E+00 0.  1.
</event>
<event>
 7    1  0.6386201E-006  0.2972166E+02  0.7818608E-02  0.1608209E+00
          2   -1    0    0  502    0  0.00000000000E+00  0.00000000000E+00  0.68231737026E+03  0.68231737026E+03  0.00000000000E+00 0. -1.
          1   -1    0    0  501    0 -0.00000000000E+00 -0.00000000000E+00 -0.39847988198E+03  0.39847988198E+03  0.00000000000E+00 0. -1.
         25    2    1    2    0    0  0.23416020550E+02 -0.40845306660E+02 -0.18807994855E+03  0.23068671899E+03  0.12500258469E+03 0.  0.
          2    1    1    2  501    0 -0.26405084690E+02  0.12503233245E+02 -0.18765852998E+03  0.18991914915E+03  0.00000000000E+00 0. -1.
          1    1    1    2  502    0  0.29890641392E+01  0.28342073415E+02  0.65957596682E+03  0.66019138410E+03  0.00000000000E+00 0. -1.
         22    1    3    3    0    0 -0.42360986440E+02 -0.44371372648E+02 -0.55863122323E+02  0.82969634919E+02  0.00000000000E+00 0.  1.
         22    1    3    3    0    0  0.65777006991E+02  0.35260659885E+01 -0.13221682623E+03  0.14771708408E+03  0.00000000000E+00 0.  1.
</event>
<event>
 7    1  0.6386201E-006  0.1155156E+03  0.7818608E-02  0.1322274E+00
          2   -1    0    0  502    0  0.00000000000E+00  0.00000000000E+00  0.36759457000E+03  0.36759457000E+03  0.00000000000E+00 0. -1.
          1   -1    0    0  501    0 -0.00000000000E+00 -0.00000000000E+00 -0.14663322039E+04  0.14663322039E+04  0.00000000000E+00 0. -1.
         25    2    1    2    0    0 -0.55451711456E+02 -0.11447792598E+03 -0.44032563333E+03  0.47507015544E+03  0.12499960553E+03 0.  0.
          2    1    1    2  501    0 -0.37279559167E+02  0.45511774074E+02 -0.99821107506E+03  0.99994321713E+03  0.00000000000E+00 0. -1.
          1    1    1    2  502    0  0.92731270623E+02  0.68966151906E+02  0.33979907447E+03  0.35891340136E+03  0.00000000000E+00 0. -1.
         22    1    3    3    0    0 -0.17411036765E+02 -0.12798271513E+03 -0.38831573876E+03  0.40923322512E+03  0.00000000000E+00 0.  1.
         22    1    3    3    0    0 -0.38040674692E+02  0.13504789151E+02 -0.52009894572E+02  0.65836930323E+02  0.00000000000E+00 0.  1.
</event>
<event>
 7    1  0.6386201E-006  0.6488342E+02  0.7818608E-02  0.1384053E+00
          2   -1    0    0  502    0  0.00000000000E+00  0.00000000000E+00  0.11911716926E+04  0.11911716926E+04  0.00000000000E+00 0. -1.
          1   -1    0    0  501    0 -0.00000000000E+00 -0.00000000000E+00 -0.98869086249E+03  0.98869086249E+03  0.00000000000E+00 0. -1.
         25    2    1    2    0    0 -0.55964259521E+02  0.11033630167E+03  0.57362438162E+03  0.59998144753E+03  0.12500683336E+03 0.  0.
          2    1    1    2  501    0  0.16345409478E+02 -0.62684555295E+02 -0.97284369281E+03  0.97499814181E+03  0.00000000000E+00 0. -1.
          1    1    1    2  502    0  0.39618850043E+02 -0.47651746373E+02  0.60170014129E+03  0.60488296574E+03  0.00000000000E+00 0. -1.
         22    1    3    3    0    0 -0.19846433920E+02  0.63947058639E+02  0.50584408472E+03  0.51025615655E+03  0.00000000000E+00 0.  1.
         22    1    3    3    0    0 -0.36117825601E+02  0.46389243029E+02  0.67780296898E+02  0.89725290987E+02  0.00000000000E+00 0.  1.
</event>
<event>
 7    1  0.6386201E-006  0.8157101E+02  0.7818608E-02  0.1381609E+00
          2   -1    0    0  502    0  0.00000000000E+00  0.00000000000E+00  0.36872769557E+03  0.36872769557E+03  0.00000000000E+00 0. -1.
          1   -1    0    0  501    0 -0.00000000000E+00 -0.00000000000E+00 -0.70038407160E+03  0.70038407160E+03  0.00000000000E+00 0. -1.
         25    2    1    2    0    0  0.15478640257E+02 -0.61857736067E+02 -0.32530428023E+02  0.14404971443E+03  0.12500449457E+03 0.  0.
          2    1    1    2  501    0  0.32644071564E+02  0.76431062967E+02 -0.60722543315E+03  0.61288666935E+03  0.00000000000E+00 0. -1.
          1    1    1    2  502    0 -0.48122711821E+02 -0.14573326900E+02  0.30809948515E+03  0.31217538340E+03  0.00000000000E+00 0. -1.
         22    1    3    3    0    0 -0.40518647236E+01  0.23810019500E+02 -0.49022759906E+02  0.54649479642E+02  0.00000000000E+00 0. -1.
         22    1    3    3    0    0  0.19530504981E+02 -0.85667755567E+02  0.16492331883E+02  0.89400234785E+02  0.00000000000E+00 0. -1.
</event>
<event>
 7    1  0.6386201E-006  0.1275616E+03  0.7818608E-02  0.1338730E+00
          2   -1    0    0  502    0  0.00000000000E+00  0.00000000000E+00  0.81901468283E+03  0.81901468283E+03  0.00000000000E+00 0. -1.
          1   -1    0    0  501    0 -0.00000000000E+00 -0.00000000000E+00 -0.13828952714E+04  0.13828952714E+04  0.00000000000E+00 0. -1.
         25    2    1    2    0    0  0.90024456309E+02 -0.75073836292E+02 -0.33816643461E+03  0.37910677998E+03  0.12499971803E+03 0.  0.
          2    1    1    2  501    0 -0.12355048204E+03  0.43431472829E+02 -0.10194008721E+04  0.10277787469E+04  0.00000000000E+00 0. -1.
          1    1    1    2  502    0  0.33526025726E+02  0.31642363463E+02  0.79368671814E+03  0.79502442738E+03  0.00000000000E+00 0. -1.
         22    1    3    3    0    0  0.27016271055E+02 -0.79327360596E+02 -0.28335094791E+03  0.29548344915E+03  0.00000000000E+00 0. -1.
         22    1    3    3    0    0  0.63008185254E+02  0.42535243039E+01 -0.54815486700E+02  0.83623330836E+02  0.00000000000E+00 0. -1.
</event>
<event>
 7    1  0.6386201E-006  0.1022173E+03  0.7818608E-02  0.1386634E+00
          2   -1    0    0  502    0  0.00000000000E+00  0.00000000000E+00  0.25249992583E+04  0.25249992583E+04  0.00000000000E+00 0. -1.
          1   -1    0    0  501    0 -0.00000000000E+00 -0.00000000000E+00 -0.21060610858E+02  0.21060610858E+02  0.00000000000E+00 0. -1.
         25    2    1    2    0    0  0.46188204968E+02 -0.55615318586E+02  0.63829614361E+03  0.65442597055E+03  0.12499988018E+03 0.  0.
          2    1    1    2  501    0  0.91803267184E+01 -0.37413626378E+02  0.21112091730E+02  0.43929241453E+02  0.00000000000E+00 0. -1.
          1    1    1    2  502    0 -0.55368531686E+02  0.93028944964E+02  0.18445304121E+04  0.18477046572E+04  0.00000000000E+00 0. -1.
         22    1    3    3    0    0  0.15296841293E+02  0.19599208026E+02  0.43154246954E+03  0.43225805409E+03  0.00000000000E+00 0.  1.
         22    1    3    3    0    0  0.30891363675E+02 -0.75214526612E+02  0.20675367407E+03  0.22216791646E+03  0.00000000000E+00 0.  1.
</event>
<event>
 7    1  0.6386201E-006  0.6489442E+02  0.7818608E-02  0.1412372E+00
          2   -1    0    0  502    0  0.00000000000E+00  0.00000000000E+00  0.85457790023E+03  0.85457790023E+03  0.00000000000E+00 0. -1.
          1   -1    0    0  501    0 -0.00000000000E+00 -0.00000000000E+00 -0.12993983627E+04  0.12993983627E+04  0.00000000000E+00 0. -1.
         25    2    1    2    0    0 -0.18662435402E+02  0.11016310014E+03 -0.72434111406E+02  0.18263828418E+03  0.12500338886E+03 0.  0.
          2    1    1    2  501    0  0.20748493756E+02 -0.60722805557E+02 -0.11702165634E+04  0.11719746432E+04  0.00000000000E+00 0. -1.
          1    1    1    2  502    0 -0.20860583543E+01 -0.49440294581E+02  0.79783021236E+03  0.79936333549E+03  0.00000000000E+00 0. -1.
         22    1    3    3    0    0  0.31456595387E+02  0.11254705544E+03 -0.57792439477E+02  0.13036994724E+03  0.00000000000E+00 0. -1.
         22    1    3    3    0    0 -0.50119030789E+02 -0.23839553024E+01 -0.14641671929E+02  0.52268336945E+02  0.00000000000E+00 0. -1.
</event>
<event>
 7    1  0.6386201E-006  0.1246153E+03  0.7818608E-02  0.1400249E+00
          2   -1    0    0  502    0  0.00000000000E+00  0.00000000000E+00  0.24386450412E+04  0.24386450412E+04  0.00000000000E+00 0. -1.
          1   -1    0    0  501    0 -0.00000000000E+00 -0.00000000000E+00 -0.37152154968E+03  0.37152154968E+03  0.00000000000E+00 0. -1.
         25    2    1    2    0    0  0.11875048666E+03 -0.94006377155E+02  0.10070831851E+04  0.10260509724E+04  0.12500071673E+03 0.  0.
          2    1    1    2  501    0 -0.10193712638E+03  0.71191979541E+02 -0.35121586863E+03  0.37257490799E+03  0.00000000000E+00 0. -1.
          1    1    1    2  502    0 -0.16813360285E+02  0.22814397614E+02  0.14112561750E+04  0.14115407105E+04  0.00000000000E+00 0. -1.
         22    1    3    3    0    0  0.88149823927E+00 -0.14830751389E+02  0.47843338475E+03  0.47866400728E+03  0.00000000000E+00 0. -1.
         22    1    3    3    0    0  0.11786898842E+03 -0.79175625765E+02  0.52864980035E+03  0.54738696509E+03  0.00000000000E+00 0. -1.
</event>
<event>
 7    1  0.6386201E-006  0.2149000E+03  0.7818608E-02  0.1248964E+00
          2   -1    0    0  502    0  0.00000000000E+00  0.00000000000E+00  0.44246998062E+04  0.44246998062E+04  0.00000000000E+00 0. -1.
          1   -1    0    0  501    0 -0.00000000000E+00 -0.00000000000E+00 -0.58911747892E+02  0.58911747892E+02  0.00000000000E+00 0. -1.
         25    2    1    2    0    0  0.14666799149E+03 -0.70245580679E+02  0.16612676755E+04  0.16738821243E+04  0.12500054127E+03 0.  0.
          2    1    1    2  501    0 -0.20971489551E+03  0.74178288669E+02  0.18473829550E+03  0.28915565658E+03  0.00000000000E+00 0. -1.
          1    1    1    2  502    0  0.63046904014E+02 -0.39327079906E+01  0.25197820873E+04  0.25205737731E+04  0.00000000000E+00 0. -1.
         22    1    3    3    0    0  0.94275130125E+02 -0.79877151911E+02  0.14744297089E+04  0.14795982989E+04  0.00000000000E+00 0.  1.
         22    1    3    3    0    0  0.52392861370E+02  0.96315712320E+01  0.18683796656E+03  0.19428382545E+03  0.00000000000E+00 0.  1.
</event>
<event>
 7    1  0.6386201E-006  0.1591142E+03  0.7818608E-02  0.1401495E+00
          2   -1    0    0  502    0  0.00000000000E+00  0.00000000000E+00  0.42326457107E+03  0.42326457107E+03  0.00000000000E+00 0. -1.
          1   -1    0    0  501    0 -0.00000000000E+00 -0.00000000000E+00 -0.10516993911E+04  0.10516993911E+04  0.00000000000E+00 0. -1.
         25    2    1    2    0    0 -0.68699848846E+02  0.15720493679E+03  0.31715119488E+02  0.21462480428E+03  0.12499958571E+03 0.  0.
          2    1    1    2  501    0  0.47558193075E+02 -0.15119943888E+03 -0.95328957729E+03  0.96637677446E+03  0.00000000000E+00 0. -1.
          1    1    1    2  502    0  0.21141655771E+02 -0.60054979064E+01  0.29313963779E+03  0.29396238341E+03  0.00000000000E+00 0. -1.
         22    1    3    3    0    0  0.18773195290E+02  0.10709974222E+03  0.33582075742E+02  0.11380045455E+03  0.00000000000E+00 0.  1.
         22    1    3    3    0    0 -0.87473044136E+02  0.50105194570E+02 -0.18669562544E+01  0.10082434973E+03  0.00000000000E+00 0.  1.
</event>
<event>
 7    1  0.6386201E-006  0.3702653E+02  0.7818608E-02  0.1627896E+00
          2   -1    0    0  502    0  0.00000000000E+00  0.00000000000E+00  0.33618250729E+03  0.33618250729E+03  0.00000000000E+00 0. -1.
          1   -1    0    0  501    0 -0.00000000000E+00 -0.00000000000E+00 -0.70280826712E+02  0.70280826712E+02  0.00000000000E+00 0. -1.
         25    2    1    2    0    0  0.32685917046E+02 -0.34467925808E+02  0.24012726425E+03  0.27485024870E+03  0.12500059637E+03 0.  0.
          2    1    1    2  501    0 -0.34041185018E+02  0.14136682219E+02 -0.44881602705E+02  0.58077588818E+02  0.00000000000E+00 0. -1.
          1    1    1    2  502    0  0.13552679719E+01  0.20331243589E+02  0.70656019036E+02  0.73535496484E+02  0.00000000000E+00 0. -1.
         22    1    3    3    0    0 -0.33819778449E+02  0.16966988305E+02  0.29230973848E+02  0.47813240202E+02  0.00000000000E+00 0. -1.
         22    1    3    3    0    0  0.66505695495E+02 -0.51434914114E+02  0.21089629040E+03  0.22703700850E+03  0.00000000000E+00 0. -1.
</event>
<event>
 7    1  0.6386201E-006  0.1861730E+03  0.7818608E-02  0.1263694E+00
          2   -1    0    0  502    0  0.00000000000E+00  0.00000000000E+00  0.28239160444E+04  0.28239160444E+04  0.00000000000E+00 0. -1.
          1   -1    0    0  501    0 -0.00000000000E+00 -0.00000000000E+00 -0.42260434531E+02  0.42260434531E+02  0.00000000000E+00 0. -1.
         25    2    1    2    0    0  0.76004284732E+02 -0.15387575326E+03  0.11462367658E+04  0.11657351946E+04  0.12500168778E+03 0.  0.
          2    1    1    2  501    0  0.38605763839E+02 -0.49829622856E+02  0.12363936119E+04  0.12379994183E+04  0.00000000000E+00 0. -1.
          1    1    1    2  502    0 -0.11461004857E+03  0.20370537612E+03  0.39902523225E+03  0.46244186603E+03  0.00000000000E+00 0. -1.
         22    1    3    3    0    0  0.70162075176E+02 -0.16818765463E+03  0.86072620238E+03  0.87980645567E+03  0.00000000000E+00 0.  1.
         22    1    3    3    0    0  0.58422095561E+01  0.14311901368E+02  0.28551056339E+03  0.28592873892E+03  0.00000000000E+00 0.  1.
</event>
<event>
 7    1  0.6386201E-006  0.5415251E+02  0.7818608E-02  0.1497415E+00
          2   -1    0    0  502    0  0.00000000000E+00  0.00000000000E+00  0.53548575458E+03  0.53548575458E+03  0.00000000000E+00 0. -1.
          1   -1    0    0  501    0 -0.00000000000E+00 -0.00000000000E+00 -0.76730406941E+03  0.76730406941E+03  0.00000000000E+00 0. -1.
         25    2    1    2    0    0  0.28503509253E+02  0.63137353981E+02  0.13963228962E+03  0.19980340956E+03  0.12500180263E+03 0.  0.
          2    1    1    2  501    0 -0.41869750917E+02 -0.34269267472E+02 -0.73553124141E+03  0.73751858677E+03  0.00000000000E+00 0. -1.
          1    1    1    2  502    0  0.13366241663E+02 -0.28868086509E+02  0.36408063697E+03  0.36546782766E+03  0.00000000000E+00 0. -1.
         22    1    3    3    0    0 -0.25333897219E+02 -0.14626765526E+02  0.86514924755E+02  0.91326780429E+02  0.00000000000E+00 0.  1.
         22    1    3    3    0    0  0.53837406473E+02  0.77764119507E+02  0.53117364861E+02  0.10847662913E+03  0.00000000000E+00 0.  1.
</event>
<event>
 7    1  0.6386201E-006  0.8050086E+02  0.7818608E-02  0.1347095E+00
          2   -1    0    0  502    0  0.00000000000E+00  0.00000000000E+00  0.21789906527E+03  0.21789906527E+03  0.00000000000E+00 0. -1.
          1   -1    0    0  501    0 -0.00000000000E+00 -0.00000000000E+00 -0.24043557756E+03  0.24043557756E+03  0.00000000000E+00 0. -1.
         25    2    1    2    0    0  0.99081749469E+02 -0.88693857588E+02 -0.42792902868E+02  0.18744513009E+03  0.12498260202E+03 0.  0.
          2    1    1    2  501    0 -0.64809188838E+02  0.20474734530E+02 -0.10448170251E+03  0.12464297763E+03  0.00000000000E+00 0. -1.
          1    1    1    2  502    0 -0.34272560630E+02  0.68219123058E+02  0.12473809309E+03  0.14624653510E+03  0.00000000000E+00 0. -1.
         22    1    3    3    0    0  0.82108768635E+02 -0.13164956419E+02 -0.66507173271E+02  0.10648178277E+03  0.00000000000E+00 0.  1.
         22    1    3    3    0    0  0.16972980833E+02 -0.75528901169E+02  0.23714270403E+02  0.80963347330E+02  0.00000000000E+00 0.  1.
</event>
<event>
 7    1  0.6386201E-006  0.8011855E+02  0.7818608E-02  0.1386457E+00
          2   -1    0    0  502    0  0.00000000000E+00  0.00000000000E+00  0.21052312848E+04  0.21052312848E+04  0.00000000000E+00 0. -1.
          1   -1    0    0  501    0 -0.00000000000E+00 -0.00000000000E+00 -0.53031748405E+02  0.53031748405E+02  0.00000000000E+00 0. -1.
         25    2    1    2    0    0 -0.10279682739E+03 -0.70018402877E+02  0.41293048085E+03  0.44900620815E+03  0.12500091392E+03 0.  0.
          2    1    1    2  501    0  0.58774359721E+02  0.48004721891E+02  0.69599000655E+01  0.76205766798E+02  0.00000000000E+00 0. -1.
          1    1    1    2  502    0  0.44022467670E+02  0.22013680986E+02  0.16323091555E+04  0.16330510583E+04  0.00000000000E+00 0. -1.
         22    1    3    3    0    0  0.54214735908E+01  0.19519232914E+02  0.14579542859E+03  0.14719612708E+03  0.00000000000E+00 0. -1.
         22    1    3    3    0    0 -0.10821830098E+03 -0.89537635791E+02  0.26713505226E+03  0.30181008107E+03  0.00000000000E+00 0. -1.
</event>
<event>
 7    1  0.6386201E-006  0.4030714E+02  0.7818608E-02  0.1576868E+00
          2   -1    0    0  502    0  0.00000000000E+00  0.00000000000E+00  0.57511979663E+03  0.57511979663E+03  0.00000000000E+00 0. -1.
          1   -1    0    0  501    0 -0.00000000000E+00 -0.00000000000E+00 -0.61794692795E+02  0.61794692795E+02  0.00000000000E+00 0. -1.
         25    2    1    2    0    0  0.19873474416E+02 -0.61694826491E+02  0.32748628948E+03  0.35647393668E+03  0.12500076451E+03 0.  0.
          2    1    1    2  501    0 -0.15088081073E+02  0.36726995067E+02 -0.38120685630E+02  0.55042792717E+02  0.00000000000E+00 0. -1.
          1    1    1    2  502    0 -0.47853933429E+01  0.24967831424E+02  0.22395949999E+03  0.22539776004E+03  0.00000000000E+00 0. -1.
         22    1    3    3    0    0  0.97746950779E+01 -0.99699636263E+02  0.25568599029E+03  0.27461042909E+03  0.00000000000E+00 0. -1.
         22    1    3    3    0    0  0.10098779338E+02  0.38004809772E+02  0.71800299191E+02  0.81863507583E+02  0.00000000000E+00 0. -1.
</event>
<event>
 7    1  0.6386201E-006  0.4065890E+02  0.7818608E-02  0.1546239E+00
          2   -1    0    0  502    0  0.00000000000E+00  0.00000000000E+00  0.20149687072E+03  0.20149687072E+03  0.00000000000E+00 0. -1.
          1   -1    0    0  501    0 -0.00000000000E+00 -0.00000000000E+00 -0.10419342042E+04  0.10419342042E+04  0.00000000000E+00 0. -1.
         25    2    1    2    0    0 -0.31871317825E+02 -0.60260250288E+02 -0.27143867911E+03  0.30651445178E+03  0.12500029589E+03 0.  0.
          2    1    1    2  501    0  0.10362145462E+02  0.38508157490E+02 -0.75115332582E+03  0.75221112139E+03  0.00000000000E+00 0. -1.
          1    1    1    2  502    0  0.21509172363E+02  0.21752092798E+02  0.18215467146E+03  0.18470550173E+03  0.00000000000E+00 0. -1.
         22    1    3    3    0    0  0.38273309094E+02  0.11603672467E+02 -0.55942009586E+02  0.68767723826E+02  0.00000000000E+00 0.  1.
         22    1    3    3    0    0 -0.70144626919E+02 -0.71863922755E+02 -0.21549666952E+03  0.23774672796E+03  0.00000000000E+00 0.  1.
</event>
<event>
 7    1  0.6386201E-006  0.1416849E+03  0.7818608E-02  0.1311745E+00
          2   -1    0    0  502    0  0.00000000000E+00  0.00000000000E+00  0.39356123416E+04  0.39356123416E+04  0.00000000000E+00 0. -1.
          1   -1    0    0  501    0 -0.00000000000E+00 -0.00000000000E+00 -0.10693237114E+03  0.10693237114E+03  0.00000000000E+00 0. -1.
         25    2    1    2    0    0 -0.78463381713E+02 -0.11622518963E+03  0.24098326103E+03  0.30553501538E+03  0.12495565835E+03 0.  0.
          2    1    1    2  501    0 -0.38726300238E+02  0.35770572506E+02 -0.63791107250E+02  0.82756060514E+02  0.00000000000E+00 0. -1.
          1    1    1    2  502    0  0.11718968195E+03  0.80454617126E+02  0.36514878167E+04  0.36542536368E+04  0.00000000000E+00 0. -1.
         22    1    3    3    0    0 -0.10533526608E+03 -0.11155565918E+03  0.22922511374E+03  0.27583389231E+03  0.00000000000E+00 0. -1.
         22    1    3    3    0    0  0.26871884372E+02 -0.46695304520E+01  0.11758147288E+02  0.29701123076E+02  0.00000000000E+00 0. -1.
</event>
<event>
 7    1  0.6774654E-006  0.7820001E+02  0.7818608E-02  0.1336463E+00
          2   -1    0    0  502    0  0.00000000000E+00  0.00000000000E+00  0.12360243785E+04  0.12360243785E+04  0.00000000000E+00 0. -1.
          1   -1    0    0  501    0 -0.00000000000E+00 -0.00000000000E+00 -0.83411152247E+03  0.83411152247E+03  0.00000000000E+00 0. -1.
         25    2    1    2    0    0  0.11362856012E+02 -0.73275399129E+02 -0.72403640271E+02  0.16237067817E+03  0.12499420543E+03 0.  0.
          2    1    1    2  501    0  0.61978425591E+02  0.50836509661E+02 -0.71324209336E+03  0.71773251264E+03  0.00000000000E+00 0. -1.
          1    1    1    2  502    0 -0.73341281603E+02  0.22438889468E+02  0.11875585897E+04  0.11900327102E+04  0.00000000000E+00 0. -1.
         22    1    3    3    0    0  0.12667672139E+02 -0.74464263266E+02  0.13259756015E+02  0.76689096687E+02  0.00000000000E+00 0.  1.
         22    1    3    3    0    0 -0.13048161270E+01  0.11888641367E+01 -0.85663396286E+02  0.85681581488E+02  0.00000000000E+00 0.  1.
</event>
<event>
 7    1  0.6386201E-006  0.6563851E+02  0.7818608E-02  0.1395704E+00
          2   -1    0    0  502    0  0.00000000000E+00  0.00000000000E+00  0.10075356387E+04  0.10075356387E+04  0.00000000000E+00 0. -1.
          1   -1    0    0  501    0 -0.00000000000E+00 -0.00000000000E+00 -0.21371364711E+03  0.21371364711E+03  0.00000000000E+00 0. -1.
         25    2    1    2    0    0 -0.26572161909E+02  0.95329650861E+02  0.16180343397E+03  0.22715873862E+03  0.12500767643E+03 0.  0.
          2    1    1    2  501    0  0.44903878735E+02 -0.33095425084E+02 -0.17540669462E+03  0.18406296206E+03  0.00000000000E+00 0. -1.
          1    1    1    2  502    0 -0.18331716826E+02 -0.62234225777E+02  0.80742525227E+03  0.81002758515E+03  0.00000000000E+00 0. -1.
         22    1    3    3    0    0  0.43497720741E+02  0.39058297751E+02  0.25235043266E+02  0.63674247082E+02  0.00000000000E+00 0.  1.
         22    1    3    3    0    0 -0.70069882650E+02  0.56271353110E+02  0.13656839070E+03  0.16348449154E+03  0.00000000000E+00 0.  1.
</event>
<event>
 7    1  0.6386201E-006  0.4770388E+02  0.7818608E-02  0.1481870E+00
          2   -1    0    0  502    0  0.00000000000E+00  0.00000000000E+00  0.49008331270E+03  0.49008331270E+03  0.00000000000E+00 0. -1.
          1   -1    0    0  501    0 -0.00000000000E+00 -0.00000000000E+00 -0.16519036160E+03  0.16519036160E+03  0.00000000000E+00 0. -1.
         25    2    1    2    0    0 -0.10210376575E+02 -0.46612141536E+01  0.15899935007E+03  0.20256821259E+03  0.12500843460E+03 0.  0.
          2    1    1    2  501    0 -0.32819827437E+02 -0.23292595367E+02 -0.13839127233E+03  0.14412435717E+03  0.00000000000E+00 0. -1.
          1    1    1    2  502    0  0.43030204012E+02  0.27953809521E+02  0.30428487336E+03  0.30858110454E+03  0.00000000000E+00 0. -1.
         22    1    3    3    0    0  0.34985695584E+01  0.37137135781E+02 -0.30418782529E+00  0.37302806506E+02  0.00000000000E+00 0.  1.
         22    1    3    3    0    0 -0.13708946133E+02 -0.41798349935E+02  0.15930353790E+03  0.16526540608E+03  0.00000000000E+00 0.  1.
</event>
<event>
 7    1  0.6386201E-006  0.1370007E+03  0.7818608E-02  0.1355929E+00
          2   -1    0    0  502    0  0.00000000000E+00  0.00000000000E+00  0.22237500298E+03  0.22237500298E+03  0.00000000000E+00 0. -1.
          1   -1    0    0  501    0 -0.00000000000E+00 -0.00000000000E+00 -0.10429449888E+04  0.10429449888E+04  0.00000000000E+00 0. -1.
         25    2    1    2    0    0 -0.40597957550E+02  0.95267935028E+02 -0.69737690477E+03  0.71601953872E+03  0.12500103567E+03 0.  0.
          2    1    1    2  501    0  0.10378550258E+01  0.37029196107E+02 -0.31266386517E+03  0.31485064887E+03  0.00000000000E+00 0. -1.
          1    1    1    2  502    0  0.39560102524E+02 -0.13229713113E+03  0.18947078416E+03  0.23444980415E+03  0.00000000000E+00 0. -1.
         22    1    3    3    0    0  0.31783410860E+02 -0.10592103564E+02 -0.12128760610E+03  0.12582949279E+03  0.00000000000E+00 0.  1.
         22    1    3    3    0    0 -0.72381368410E+02  0.10586003859E+03 -0.57608929868E+03  0.59019004593E+03  0.00000000000E+00 0.  1.
</event>
<event>
 7    1  0.6386201E-006  0.2905523E+03  0.7818608E-02  0.1291079E+00
          2   -1    0    0  502    0  0.00000000000E+00  0.00000000000E+00  0.31859209859E+03  0.31859209859E+03  0.00000000000E+00 0. -1.
          1   -1    0    0  501    0 -0.00000000000E+00 -0.00000000000E+00 -0.26670658637E+04  0.26670658637E+04  0.00000000000E+00 0. -1.
         25    2    1    2    0    0 -0.11581196201E+03 -0.29100510969E+03 -0.14420674518E+04  0.14809710773E+04  0.12498164673E+03 0.  0.
          2    1    1    2  501    0 -0.89540911595E+01  0.29772509108E+02 -0.11352423312E+04  0.11356679658E+04  0.00000000000E+00 0. -1.
          1    1    1    2  502    0  0.12476605317E+03  0.26123260058E+03  0.22883601785E+03  0.36901891915E+03  0.00000000000E+00 0. -1.
         22    1    3    3    0    0 -0.57813282683E+02 -0.22808698359E+02 -0.30446418839E+03  0.31074274632E+03  0.00000000000E+00 0.  1.
         22    1    3    3    0    0 -0.57998679331E+02 -0.26819641133E+03 -0.11376032634E+04  0.11702283310E+04  0.00000000000E+00 0.  1.
</event>
<event>
 7    1  0.1108604E-005  0.1094346E+03  0.7818608E-02  0.1391725E+00
          2   -1    0    0  502    0  0.00000000000E+00  0.00000000000E+00  0.87346751037E+03  0.87346751037E+03  0.00000000000E+00 0. -1.
          1   -1    0    0  501    0 -0.00000000000E+00 -0.00000000000E+00 -0.18698618028E+04  0.18698618028E+04  0.00000000000E+00 0. -1.
         25    2    1    2    0    0 -0.10199580287E+03 -0.92649361607E+02 -0.37758932664E+03  0.42094868204E+03  0.12504817196E+03 0.  0.
          2    1    1    2  501    0  0.10611622186E+02  0.32868513710E+02 -0.14668887410E+04  0.14672953091E+04  0.00000000000E+00 0. -1.
          1    1    1    2  502    0  0.91384180681E+02  0.59780847897E+02  0.84808377517E+03  0.85508532204E+03  0.00000000000E+00 0. -1.
         22    1    3    3    0    0 -0.65820959834E+02 -0.38573419560E+02 -0.33408090178E+03  0.34268112931E+03  0.00000000000E+00 0.  1.
         22    1    3    3    0    0 -0.36174843033E+02 -0.54075942046E+02 -0.43508424857E+02  0.78267552729E+02  0.00000000000E+00 0.  1.
</event>
<event>
 7    1  0.6386201E-006  0.8498523E+02  0.7818608E-02  0.1396883E+00
          2   -1    0    0  502    0  0.00000000000E+00  0.00000000000E+00  0.25983040023E+04  0.25983040023E+04  0.00000000000E+00 0. -1.
          1   -1    0    0  501    0 -0.00000000000E+00 -0.00000000000E+00 -0.12162475901E+03  0.12162475901E+03  0.00000000000E+00 0. -1.
         25    2    1    2    0    0 -0.12558761745E+03  0.90089771663E+01  0.86057104793E+03  0.87867045351E+03  0.12500330405E+03 0.  0.
          2    1    1    2  501    0  0.83150922573E+02 -0.13568438939E+02 -0.96508649136E+02  0.12810971008E+03  0.00000000000E+00 0. -1.
          1    1    1    2  502    0  0.42436694876E+02  0.45594617726E+01  0.17126168445E+04  0.17131485977E+04  0.00000000000E+00 0. -1.
         22    1    3    3    0    0 -0.33508133302E+02  0.57990407375E+02  0.23079192088E+03  0.24031353081E+03  0.00000000000E+00 0.  1.
         22    1    3    3    0    0 -0.92079484146E+02 -0.48981430209E+02  0.62977912704E+03  0.63835692271E+03  0.00000000000E+00 0.  1.
</event>
<event>
 7    1  0.6386201E-006  0.8560637E+02  0.7818608E-02  0.1411845E+00
          2   -1    0    0  502    0  0.00000000000E+00  0.00000000000E+00  0.25056831172E+04  0.25056831172E+04  0.00000000000E+00 0. -1.
          1   -1    0    0  501    0 -0.00000000000E+00 -0.00000000000E+00 -0.59965142978E+02  0.59965142978E+02  0.00000000000E+00 0. -1.
         25    2    1    2    0    0  0.96076858826E+02 -0.17021206589E+02  0.74497585812E+03  0.76167102452E+03  0.12503294020E+03 0.  0.
          2    1    1    2  501    0 -0.24463730213E+02 -0.28640059414E+02 -0.43572635824E+02  0.57596021493E+02  0.00000000000E+00 0. -1.
          1    1    1    2  502    0 -0.71613128613E+02  0.45661266003E+02  0.17443147519E+04  0.17463812142E+04  0.00000000000E+00 0. -1.
         22    1    3    3    0    0  0.29148725464E+02  0.42606381586E+02  0.12487201696E+03  0.13512206543E+03  0.00000000000E+00 0. -1.
         22    1    3    3    0    0  0.66928133362E+02 -0.59627588175E+02  0.62010384116E+03  0.62654895909E+03  0.00000000000E+00 0. -1.
</event>
<event>
 7    1  0.6386201E-006  0.7651878E+02  0.7818608E-02  0.1374734E+00
          2   -1    0    0  502    0  0.00000000000E+00  0.00000000000E+00  0.10635426572E+04  0.10635426572E+04  0.00000000000E+00 0. -1.
          1   -1    0    0  501    0 -0.00000000000E+00 -0.00000000000E+00 -0.58142117463E+03  0.58142117463E+03  0.00000000000E+00 0. -1.
         25    2    1    2    0    0 -0.18639417326E+02 -0.87472114139E+01 -0.75473208117E+02  0.14745978904E+03  0.12499697059E+03 0.  0.
          2    1    1    2  501    0 -0.49401045471E+02 -0.27829872693E+02 -0.46678483709E+03  0.47021596022E+03  0.00000000000E+00 0. -1.
          1    1    1    2  502    0  0.68040462796E+02  0.36577084106E+02  0.10243795278E+04  0.10272880826E+04  0.00000000000E+00 0. -1.
         22    1    3    3    0    0  0.17806544607E+02  0.51250340817E+02 -0.46722051700E+02  0.71600423042E+02  0.00000000000E+00 0.  1.
         22    1    3    3    0    0 -0.36445961933E+02 -0.59997552231E+02 -0.28751156417E+02  0.75859366002E+02  0.00000000000E+00 0.  1.
</event>
<event>
 7    1  0.6386201E-006  0.1297690E+03  0.7818608E-02  0.1228255E+00
          2   -1    0    0  502    0  0.00000000000E+00  0.00000000000E+00  0.45189439588E+03  0.45189439588E+03  0.00000000000E+00 0. -1.
          1   -1    0    0  501    0 -0.00000000000E+00 -0.00000000000E+00 -0.18881398657E+04  0.18881398657E+04  0.00000000000E+00 0. -1.
         25    2    1    2    0    0  0.21443534705E+02  0.25823342189E+02 -0.19600881663E+00  0.12942819847E+03  0.12499979983E+03 0.  0.
          2    1    1    2  501    0  0.79066017072E+02 -0.10790763294E+03 -0.18099187946E+04  0.18148557891E+04  0.00000000000E+00 0. -1.
          1    1    1    2  502    0 -0.10050955178E+03  0.82084290754E+02  0.37386933357E+03  0.39575027400E+03  0.00000000000E+00 0. -1.
         22    1    3    3    0    0  0.61710591801E+02 -0.78731490035E-01  0.34126468022E+02  0.70518218630E+02  0.00000000000E+00 0.  1.
         22    1    3    3    0    0 -0.40267057096E+02  0.25902073679E+02 -0.34322476839E+02  0.58909979837E+02  0.00000000000E+00 0.  1.
</event>
<event>
 7    1  0.6386201E-006  0.9547964E+02  0.7818608E-02  0.1420152E+00
          2   -1    0    0  502    0  0.00000000000E+00  0.00000000000E+00  0.29245394652E+03  0.29245394652E+03  0.00000000000E+00 0. -1.
          1   -1    0    0  501    0 -0.00000000000E+00 -0.00000000000E+00 -0.60980807681E+03  0.60980807681E+03  0.00000000000E+00 0. -1.
         25    2    1    2    0    0  0.68377670963E+02  0.35611599409E+02 -0.25269579533E+02  0.14902219167E+03  0.12500148023E+03 0.  0.
          2    1    1    2  501    0 -0.95201868451E+02 -0.18776926075E+02 -0.51703962722E+03  0.52606648327E+03  0.00000000000E+00 0. -1.
          1    1    1    2  502    0  0.26824197488E+02 -0.16834673334E+02  0.22495507646E+03  0.22717334840E+03  0.00000000000E+00 0. -1.
         22    1    3    3    0    0  0.69969704701E+02  0.60274098656E+02  0.22665017046E+02  0.95091690186E+02  0.00000000000E+00 0.  1.
         22    1    3    3    0    0 -0.15920337383E+01 -0.24662499247E+02 -0.47934596580E+02  0.53930501479E+02  0.00000000000E+00 0.  1.
</event>
<event>
 7    1  0.6386201E-006  0.7810352E+02  0.7818608E-02  0.1390122E+00
          2   -1    0    0  502    0  0.00000000000E+00  0.00000000000E+00  0.11175945572E+03  0.11175945572E+03  0.00000000000E+00 0. -1.
          1   -1    0    0  501    0 -0.00000000000E+00 -0.00000000000E+00 -0.51486608034E+03  0.51486608034E+03  0.00000000000E+00 0. -1.
         25    2    1    2    0    0  0.65207429216E+02  0.21067682207E+02 -0.24545849333E+02  0.14464357847E+03  0.12499363989E+03 0.  0.
          2    1    1    2  501    0  0.17480603970E+02 -0.45797756500E+02 -0.39163444778E+03  0.39469044415E+03  0.00000000000E+00 0. -1.
          1    1    1    2  502    0 -0.82688033186E+02  0.24730074293E+02  0.13073672496E+02  0.87291513443E+02  0.00000000000E+00 0. -1.
         22    1    3    3    0    0 -0.29285103330E+02 -0.23066986522E+02 -0.13997600046E+02  0.39820044592E+02  0.00000000000E+00 0. -1.
         22    1    3    3    0    0  0.94492532547E+02  0.44134668728E+02 -0.10548249287E+02  0.10482353387E+03  0.00000000000E+00 0. -1.
</event>
<event>
 7    1  0.6386201E-006  0.5527731E+02  0.7818608E-02  0.1511119E+00
          2   -1    0    0  502    0  0.00000000000E+00  0.00000000000E+00  0.27153443465E+04  0.27153443465E+04  0.00000000000E+00 0. -1.
          1   -1    0    0  501    0 -0.00000000000E+00 -0.00000000000E+00 -0.21911300647E+02  0.21911300647E+02  0.00000000000E+00 0. -1.
         25    2    1    2    0    0  0.48901867330E+02  0.20532544297E+02  0.82874928260E+03  0.83979976483E+03  0.12500117440E+03 0.  0.
          2    1    1    2  501    0 -0.33679172581E+02 -0.44484391774E+02  0.31541188263E+02  0.64093637237E+02  0.00000000000E+00 0. -1.
          1    1    1    2  502    0 -0.15222694750E+02  0.23951847477E+02  0.18331425750E+04  0.18333622451E+04  0.00000000000E+00 0. -1.
         22    1    3    3    0    0  0.36606897942E+02  0.66656202280E+02  0.32429703816E+03  0.33309410568E+03  0.00000000000E+00 0.  1.
         22    1    3    3    0    0  0.12294969388E+02 -0.46123657984E+02  0.50445224444E+03  0.50670565916E+03  0.00000000000E+00 0.  1.
</event>
<event>
 7    1  0.6386201E-006  0.8465652E+02  0.7818608E-02  0.1391388E+00
          2   -1    0    0  502    0  0.00000000000E+00  0.00000000000E+00  0.17093461553E+04  0.17093461553E+04  0.00000000000E+00 0. -1.
          1   -1    0    0  501    0 -0.00000000000E+00 -0.00000000000E+00 -0.11544797473E+04  0.11544797473E+04  0.00000000000E+00 0. -1.
         25    2    1    2    0    0  0.53754855433E+02  0.98429653714E+02  0.36268507892E+03  0.39967871460E+03  0.12499850887E+03 0.  0.
          2    1    1    2  501    0 -0.11445313850E+02 -0.83795122441E+02 -0.11340305923E+04  0.11371798459E+04  0.00000000000E+00 0. -1.
          1    1    1    2  502    0 -0.42309541584E+02 -0.14634531273E+02  0.13262119213E+04  0.13269673421E+04  0.00000000000E+00 0. -1.
         22    1    3    3    0    0  0.85889360117E+01  0.65040723161E+02  0.51334570182E+02  0.83302482477E+02  0.00000000000E+00 0.  1.
         22    1    3    3    0    0  0.45165919422E+02  0.33388930554E+02  0.31135050874E+03  0.31637623213E+03  0.00000000000E+00 0.  1.
</event>
<event>
 7    1  0.6386201E-006  0.6100554E+02  0.7818608E-02  0.1403335E+00
          2   -1    0    0  502    0  0.00000000000E+00  0.00000000000E+00  0.12675416130E+04  0.12675416130E+04  0.00000000000E+00 0. -1.
          1   -1    0    0  501    0 -0.00000000000E+00 -0.00000000000E+00 -0.39404162299E+03  0.39404162299E+03  0.00000000000E+00 0. -1.
         25    2    1    2    0    0  0.50810929885E+02  0.10525078265E+03  0.26405443172E+03  0.31465585893E+03  0.12499635516E+03 0.  0.
          2    1    1    2  501    0 -0.28943143569E+02 -0.53157340828E+02 -0.36543380241E+03  0.37041230054E+03  0.00000000000E+00 0. -1.
          1    1    1    2  502    0 -0.21867786315E+02 -0.52093441822E+02  0.97487936070E+03  0.97651507652E+03  0.00000000000E+00 0. -1.
         22    1    3    3    0    0  0.34458513261E+02  0.45733408646E+02  0.16599743079E+02  0.59619504131E+02  0.00000000000E+00 0.  1.
         22    1    3    3    0    0  0.16352416623E+02  0.59517374004E+02  0.24745468864E+03  0.25503635479E+03  0.00000000000E+00 0.  1.
</event>
<event>
 7    1  0.6386201E-006  0.1621671E+03  0.7818608E-02  0.1325922E+00
          2   -1    0    0  502    0  0.00000000000E+00  0.00000000000E+00  0.27830615692E+04  0.27830615692E+04  0.00000000000E+00 0. -1.
          1   -1    0    0  501    0 -0.00000000000E+00 -0.00000000000E+00 -0.10564496434E+03  0.10564496434E+03  0.00000000000E+00 0. -1.
         25    2    1    2    0    0 -0.47913115638E+02  0.18475235265E+03  0.56249764474E+03  0.60700731496E+03  0.12500072647E+03 0.  0.
          2    1    1    2  501    0  0.17695491160E+02 -0.15767980928E+03 -0.75436724004E+01  0.15884885790E+03  0.00000000000E+00 0. -1.
          1    1    1    2  502    0  0.30217624479E+02 -0.27072543363E+02  0.21224626325E+04  0.21228503607E+04  0.00000000000E+00 0. -1.
         22    1    3    3    0    0 -0.45241987901E+02  0.11658559392E+03  0.49679665322E+03  0.51229479094E+03  0.00000000000E+00 0.  1.
         22    1    3    3    0    0 -0.26711277375E+01  0.68166758728E+02  0.65700991524E+02  0.94712524019E+02  0.00000000000E+00 0.  1.
</event>
<event>
 7    1  0.6386201E-006  0.8988628E+02  0.7818608E-02  0.1350891E+00
          2   -1    0    0  502    0  0.00000000000E+00  0.00000000000E+00  0.10630148735E+04  0.10630148735E+04  0.00000000000E+00 0. -1.
          1   -1    0    0  501    0 -0.00000000000E+00 -0.00000000000E+00 -0.45828647721E+03  0.45828647721E+03  0.00000000000E+00 0. -1.
         25    2    1    2    0    0 -0.44638334834E+02 -0.78169215313E+02 -0.19754618065E+03  0.25050467417E+03  0.12500036453E+03 0.  0.
          2    1    1    2  501    0  0.87175429230E+02  0.37389591438E+02 -0.22377887664E+03  0.24305251005E+03  0.00000000000E+00 0. -1.
          1    1    1    2  502    0 -0.42537094396E+02  0.40779623875E+02  0.10260534536E+04  0.10277441665E+04  0.00000000000E+00 0. -1.
         22    1    3    3    0    0 -0.29968678641E+02 -0.26718258620E+02 -0.19263924577E+03  0.19677872358E+03  0.00000000000E+00 0.  1.
         22    1    3    3    0    0 -0.14669656193E+02 -0.51450956694E+02 -0.49069348889E+01  0.53725950597E+02  0.00000000000E+00 0.  1.
</event>
<event>
 7    1  0.6386201E-006  0.3932887E+02  0.7818608E-02  0.1520758E+00
          2   -1    0    0  502    0  0.00000000000E+00  0.00000000000E+00  0.68616055280E+03  0.68616055280E+03  0.00000000000E+00 0. -1.
          1   -1    0    0  501    0 -0.00000000000E+00 -0.00000000000E+00 -0.26446533193E+03  0.26446533193E+03  0.00000000000E+00 0. -1.
         25    2    1    2    0    0  0.36117613201E+01 -0.84435336503E+00 -0.29167207872E+02  0.12840286663E+03  0.12499124926E+03 0.  0.
          2    1    1    2  501    0 -0.40945916117E+02 -0.11080663792E+01 -0.18286370435E+03  0.18739511794E+03  0.00000000000E+00 0. -1.
          1    1    1    2  502    0  0.37334154797E+02  0.19524197442E+01  0.63372613309E+03  0.63482790016E+03  0.00000000000E+00 0. -1.
         22    1    3    3    0    0  0.50458930323E+02 -0.38328654025E+02 -0.25465123043E+02  0.68291008634E+02  0.00000000000E+00 0.  1.
         22    1    3    3    0    0 -0.46847169003E+02  0.37484300660E+02 -0.37020848291E+01  0.60111857995E+02  0.00000000000E+00 0.  1.
</event>
<event>
 7    1  0.6386201E-006  0.7572549E+02  0.7818608E-02  0.1356799E+00
          2   -1    0    0  502    0  0.00000000000E+00  0.00000000000E+00  0.26650165305E+04  0.26650165305E+04  0.00000000000E+00 0. -1.
          1   -1    0    0  501    0 -0.00000000000E+00 -0.00000000000E+00 -0.10548664019E+03  0.10548664019E+03  0.00000000000E+00 0. -1.
         25    2    1    2    0    0  0.12091821044E+03 -0.72440777955E+02  0.21598806554E+03  0.28662126653E+03  0.12502810101E+03 0.  0.
          2    1    1    2  501    0 -0.54917276703E+02  0.37550888225E+02 -0.53688514672E+02  0.85489374162E+02  0.00000000000E+00 0. -1.
          1    1    1    2  502    0 -0.66000933740E+02  0.34889889731E+02  0.23972303394E+04  0.23983925300E+04  0.00000000000E+00 0. -1.
         22    1    3    3    0    0  0.95560144038E+02 -0.10766549351E+03  0.15248531797E+03  0.20970305629E+03  0.00000000000E+00 0. -1.
         22    1    3    3    0    0  0.25358066406E+02  0.35224715551E+02  0.63502747569E+02  0.76918210238E+02  0.00000000000E+00 0. -1.
</event>
<event>
 7    1  0.6386201E-006  0.9948395E+02  0.7818608E-02  0.1338388E+00
          2   -1    0    0  502    0  0.00000000000E+00  0.00000000000E+00  0.92670245554E+03  0.92670245554E+03  0.00000000000E+00 0. -1.
          1   -1    0    0  501    0 -0.00000000000E+00 -0.00000000000E+00 -0.13581122633E+03  0.13581122633E+03  0.00000000000E+00 0. -1.
         25    2    1    2    0    0  0.10848930980E+02 -0.15325787905E+03  0.14126764048E+03  0.24328349296E+03  0.12499853960E+03 0.  0.
          2    1    1    2  501    0 -0.15529714763E+02  0.57216997284E+02 -0.70841550998E+02  0.92376848651E+02  0.00000000000E+00 0. -1.
          1    1    1    2  502    0  0.46807837827E+01  0.96040881769E+02  0.72046513972E+03  0.72685334027E+03  0.00000000000E+00 0. -1.
         22    1    3    3    0    0 -0.54190803166E+02 -0.51493213272E+02  0.35550427485E+02  0.82776971769E+02  0.00000000000E+00 0.  1.
         22    1    3    3    0    0  0.65039734146E+02 -0.10176466578E+03  0.10571721300E+03  0.16050652119E+03  0.00000000000E+00 0.  1.
</event>
<event>
 7    1  0.6386201E-006  0.3584867E+02  0.7818608E-02  0.1550588E+00
          2   -1    0    0  502    0  0.00000000000E+00  0.00000000000E+00  0.11598749119E+03  0.11598749119E+03  0.00000000000E+00 0. -1.
          1   -1    0    0  501    0 -0.00000000000E+00 -0.00000000000E+00 -0.14276011565E+03  0.14276011565E+03  0.00000000000E+00 0. -1.
         25    2    1    2    0    0  0.24559642259E+00  0.23672583926E+01 -0.16778422392E+01  0.12504212119E+03  0.12500821048E+03 0.  0.
          2    1    1    2  501    0 -0.36093821984E+02 -0.21885632521E+01 -0.68470982143E+02  0.77432739782E+02  0.00000000000E+00 0. -1.
          1    1    1    2  502    0  0.35848225562E+02 -0.17869514050E+00  0.43376199928E+02  0.56272745872E+02  0.00000000000E+00 0. -1.
         22    1    3    3    0    0 -0.64192260704E+01  0.38416394469E+02 -0.50633864584E+02  0.63881249753E+02  0.00000000000E+00 0. -1.
         22    1    3    3    0    0  0.66648224930E+01 -0.36049136076E+02  0.48956022345E+02  0.61160871434E+02  0.00000000000E+00 0. -1.
</event>
<event>
 7    1  0.6386201E-006  0.8014051E+02  0.7818608E-02  0.1473312E+00
          2   -1    0    0  502    0  0.00000000000E+00  0.00000000000E+00  0.22189639622E+04  0.22189639622E+04  0.00000000000E+00 0. -1.
          1   -1    0    0  501    0 -0.00000000000E+00 -0.00000000000E+00 -0.16163865295E+03  0.16163865295E+03  0.00000000000E+00 0. -1.
         25    2    1    2    0    0  0.16881963371E+02  0.10322660452E+03  0.39463398195E+03  0.42696910900E+03  0.12500363099E+03 0.  0.
          2    1    1    2  501    0 -0.91855552357E+01 -0.78963905684E+02 -0.13451353098E+03  0.15624840109E+03  0.00000000000E+00 0. -1.
          1    1    1    2  502    0 -0.76964081352E+01 -0.24262698832E+02  0.17972048583E+04  0.17973851051E+04  0.00000000000E+00 0. -1.
         22    1    3    3    0    0 -0.31546113944E+02 -0.15206368407E+02  0.82003692113E+02  0.89168360225E+02  0.00000000000E+00 0. -1.
         22    1    3    3    0    0  0.48428077315E+02  0.11843297292E+03  0.31263028984E+03  0.33780074878E+03  0.00000000000E+00 0. -1.
</event>
<event>
 7    1  0.6386201E-006  0.4649146E+02  0.7818608E-02  0.1544753E+00
          2   -1    0    0  502    0  0.00000000000E+00  0.00000000000E+00  0.92886356866E+03  0.92886356866E+03  0.00000000000E+00 0. -1.
          1   -1    0    0  501    0 -0.00000000000E+00 -0.00000000000E+00 -0.17243678076E+03  0.17243678076E+03  0.00000000000E+00 0. -1.
         25    2    1    2    0    0  0.40285095071E+02 -0.31112311723E+02  0.95335272087E+02  0.16525272345E+03  0.12501513380E+03 0.  0.
          2    1    1    2  501    0 -0.16344737648E+02  0.43620643604E+02 -0.13329598890E+03  0.14120103276E+03  0.00000000000E+00 0. -1.
          1    1    1    2  502    0 -0.23940357424E+02 -0.12508331882E+02  0.79438750472E+03  0.79484659321E+03  0.00000000000E+00 0. -1.
         22    1    3    3    0    0  0.34508757509E+02  0.28617887465E+02  0.95217695897E+02  0.10524375250E+03  0.00000000000E+00 0. -1.
         22    1    3    3    0    0  0.57763375627E+01 -0.59730199188E+02  0.11757619029E+00  0.60008970953E+02  0.00000000000E+00 0. -1.
</event>
<event>
 7    1  0.6386201E-006  0.1032519E+03  0.7818608E-02  0.1317617E+00
          2   -1    0    0  502    0  0.00000000000E+00  0.00000000000E+00  0.62421713823E+03  0.62421713823E+03  0.00000000000E+00 0. -1.
          1   -1    0    0  501    0 -0.00000000000E+00 -0.00000000000E+00 -0.12311294332E+03  0.12311294332E+03  0.00000000000E+00 0. -1.
         25    2    1    2    0    0  0.88595971195E+02 -0.76711490613E+02  0.36588103998E+03  0.40401442904E+03  0.12499929821E+03 0.  0.
          2    1    1    2  501    0 -0.10325251758E+03  0.96803286017E+01 -0.71195425750E+02  0.12579181132E+03  0.00000000000E+00 0. -1.
          1    1    1    2  502    0  0.14656546381E+02  0.67031162012E+02  0.20641858068E+03  0.21752384118E+03  0.00000000000E+00 0. -1.
         22    1    3    3    0    0  0.10059791567E+02 -0.35820862282E+01  0.23285589455E+03  0.23310061856E+03  0.00000000000E+00 0.  1.
         22    1    3    3    0    0  0.78536179628E+02 -0.73129404385E+02  0.13302514544E+03  0.17091381049E+03  0.00000000000E+00 0.  1.
</event>
<event>
 7    1  0.6386201E-006  0.6725134E+02  0.7818608E-02  0.1442819E+00
          2   -1    0    0  502    0  0.00000000000E+00  0.00000000000E+00  0.18641943661E+03  0.18641943661E+03  0.00000000000E+00 0. -1.
          1   -1    0    0  501    0 -0.00000000000E+00 -0.00000000000E+00 -0.23291494142E+04  0.23291494142E+04  0.00000000000E+00 0. -1.
         25    2    1    2    0    0  0.73544215098E+02  0.63195695555E+02 -0.53862112201E+03  0.56137417091E+03  0.12500319666E+03 0.  0.
          2    1    1    2  501    0 -0.12470670481E+02 -0.35765294955E+02 -0.17725401700E+04  0.17729448181E+04  0.00000000000E+00 0. -1.
          1    1    1    2  502    0 -0.61073544617E+02 -0.27430400600E+02  0.16843131439E+03  0.18124986178E+03  0.00000000000E+00 0. -1.
         22    1    3    3    0    0 -0.31562322551E+02 -0.55233978022E+01 -0.91243101627E+02  0.96705696433E+02  0.00000000000E+00 0. -1.
         22    1    3    3    0    0  0.10510653765E+03  0.68719093357E+02 -0.44737802038E+03  0.46466847447E+03  0.00000000000E+00 0. -1.
</event>
<event>
 7    1  0.6386201E-006  0.9457950E+02  0.7818608E-02  0.1299274E+00
          2   -1    0    0  502    0  0.00000000000E+00  0.00000000000E+00  0.77554964445E+03  0.77554964445E+03  0.00000000000E+00 0. -1.
          1   -1    0    0  501    0 -0.00000000000E+00 -0.00000000000E+00 -0.11626584789E+04  0.11626584789E+04  0.00000000000E+00 0. -1.
         25    2    1    2    0    0 -0.82662946718E+02  0.11258467167E+02 -0.41316688980E+02  0.15585444346E+03  0.12499449154E+03 0.  0.
          2    1    1    2  501    0  0.43942539114E+02  0.76830501471E+02 -0.10589958600E+04  0.10626881500E+04  0.00000000000E+00 0. -1.
          1    1    1    2  502    0  0.38720407604E+02 -0.88088968638E+02  0.71320371456E+03  0.71966552983E+03  0.00000000000E+00 0. -1.
         22    1    3    3    0    0 -0.10535956111E+03  0.32568263956E+02 -0.84780763658E+01  0.11060382775E+03  0.00000000000E+00 0. -1.
         22    1    3    3    0    0  0.22696614388E+02 -0.21309796789E+02 -0.32838612615E+02  0.45250615712E+02  0.00000000000E+00 0. -1.
</event>
<event>
 7    1  0.6386201E-006  0.6293529E+02  0.7818608E-02  0.1457482E+00
          2   -1    0    0  502    0  0.00000000000E+00  0.00000000000E+00  0.34450533924E+03  0.34450533924E+03  0.00000000000E+00 0. -1.
          1   -1    0    0  501    0 -0.00000000000E+00 -0.00000000000E+00 -0.79492389319E+02  0.79492389319E+02  0.00000000000E+00 0. -1.
         25    2    1    2    0    0  0.59073621283E+02  0.71039322846E+01  0.13487383774E+02  0.13910059128E+03  0.12500762532E+03 0.  0.
          2    1    1    2  501    0 -0.65721108282E+02  0.28613810520E+02  0.71505213854E+02  0.10124727075E+03  0.00000000000E+00 0. -1.
          1    1    1    2  502    0  0.66474869988E+01 -0.35717742805E+02  0.18002035229E+03  0.18364986652E+03  0.00000000000E+00 0. -1.
         22    1    3    3    0    0 -0.38313726533E+02  0.13837204267E+02  0.62540046159E+01  0.41213134272E+02  0.00000000000E+00 0.  1.
         22    1    3    3    0    0  0.97387347816E+02 -0.67332719820E+01  0.72333791577E+01  0.97887457012E+02  0.00000000000E+00 0.  1.
</event>
<event>
 7    1  0.6386201E-006  0.7999960E+02  0.7818608E-02  0.1488386E+00
          2   -1    0    0  502    0  0.00000000000E+00  0.00000000000E+00  0.38773456467E+03  0.38773456467E+03  0.00000000000E+00 0. -1.
          1   -1    0    0  501    0 -0.00000000000E+00 -0.00000000000E+00 -0.72607108423E+03  0.72607108423E+03  0.00000000000E+00 0. -1.
         25    2    1    2    0    0 -0.53744668974E+02 -0.23844036411E+02 -0.16717374905E+02  0.13914662931E+03  0.12500114523E+03 0.  0.
          2    1    1    2  501    0  0.70719805561E+02  0.39253759918E+02 -0.64520849328E+03  0.65025852425E+03  0.00000000000E+00 0. -1.
          1    1    1    2  502    0 -0.16975136588E+02 -0.15409723506E+02  0.32358934862E+03  0.32440049535E+03  0.00000000000E+00 0. -1.
         22    1    3    3    0    0 -0.76430244414E+02 -0.41053620402E+01 -0.52192248400E+02  0.92641605404E+02  0.00000000000E+00 0. -1.
         22    1    3    3    0    0  0.22685575441E+02 -0.19738674371E+02  0.35474873496E+02  0.46505023907E+02  0.00000000000E+00 0. -1.
</event>
<event>
 7    1  0.6386201E-006  0.7287087E+02  0.7818608E-02  0.1476381E+00
          2   -1    0    0  502    0  0.00000000000E+00  0.00000000000E+00  0.24475854680E+03  0.24475854680E+03  0.00000000000E+00 0. -1.
          1   -1    0    0  501    0 -0.00000000000E+00 -0.00000000000E+00 -0.18926921297E+04  0.18926921297E+04  0.00000000000E+00 0. -1.
         25    2    1    2    0    0  0.32615077922E+02 -0.76267941761E+02  0.36805880704E+01  0.15005701177E+03  0.12499207097E+03 0.  0.
          2    1    1    2  501    0  0.15606092779E+02  0.22507851935E+02 -0.18116294623E+04  0.18118364888E+04  0.00000000000E+00 0. -1.
          1    1    1    2  502    0 -0.48221170701E+02  0.53760089826E+02  0.16001529132E+03  0.17555717592E+03  0.00000000000E+00 0. -1.
         22    1    3    3    0    0 -0.41120588575E+02  0.36401930040E+01  0.11373290184E+01  0.41297061968E+02  0.00000000000E+00 0.  1.
         22    1    3    3    0    0  0.73735666497E+02 -0.79908134765E+02  0.25432590520E+01  0.10875994981E+03  0.00000000000E+00 0.  1.
</event>
<event>
 7    1  0.6386201E-006  0.1626122E+03  0.7818608E-02  0.1232039E+00
          2   -1    0    0  502    0  0.00000000000E+00  0.00000000000E+00  0.20046147518E+04  0.20046147518E+04  0.00000000000E+00 0. -1.
          1   -1    0    0  501    0 -0.00000000000E+00 -0.00000000000E+00 -0.42548663674E+03  0.42548663674E+03  0.00000000000E+00 0. -1.
         25    2    1    2    0    0 -0.82698184135E+02 -0.11820687134E+02  0.21574552878E+03  0.26296430478E+03  0.12500149638E+03 0.  0.
          2    1    1    2  501    0 -0.82415655855E+02 -0.55072566921E+02 -0.39118522548E+03  0.40354827294E+03  0.00000000000E+00 0. -1.
          1    1    1    2  502    0  0.16511383999E+03  0.66893254055E+02  0.17545678118E+04  0.17635888109E+04  0.00000000000E+00 0. -1.
         22    1    3    3    0    0 -0.97728976308E+02 -0.53828293152E+01  0.80485621627E+02  0.12671962338E+03  0.00000000000E+00 0.  1.
         22    1    3    3    0    0  0.15030792173E+02 -0.64378578186E+01  0.13525990715E+03  0.13624468140E+03  0.00000000000E+00 0.  1.
</event>
<event>
 7    1  0.6386201E-006  0.9777196E+02  0.7818608E-02  0.1386040E+00
          2   -1    0    0  502    0  0.00000000000E+00  0.00000000000E+00  0.26535807010E+04  0.26535807010E+04  0.00000000000E+00 0. -1.
          1   -1    0    0  501    0 -0.00000000000E+00 -0.00000000000E+00 -0.11199686123E+03  0.11199686123E+03  0.00000000000E+00 0. -1.
         25    2    1    2    0    0 -0.49452018984E+02 -0.96845375168E+02  0.27719649443E+03  0.32293501183E+03  0.12499838586E+03 0.  0.
          2    1    1    2  501    0  0.89834538872E+01  0.97010231832E+02 -0.62275103031E+02  0.11562817988E+03  0.00000000000E+00 0. -1.
          1    1    1    2  502    0  0.40468565097E+02 -0.16485666437E+00  0.23266624484E+04  0.23270143705E+04  0.00000000000E+00 0. -1.
         22    1    3    3    0    0 -0.62293989828E+02 -0.10151154550E+03  0.28378604546E+03  0.30776558390E+03  0.00000000000E+00 0. -1.
         22    1    3    3    0    0  0.12841970844E+02  0.46661703368E+01 -0.65895510284E+01  0.15169427923E+02  0.00000000000E+00 0. -1.
</event>
<event>
 7    1  0.6386201E-006  0.2252221E+03  0.7818608E-02  0.1228474E+00
          2   -1    0    0  502    0  0.00000000000E+00  0.00000000000E+00  0.73893114567E+03  0.73893114567E+03  0.00000000000E+00 0. -1.
          1   -1    0    0  501    0 -0.00000000000E+00 -0.00000000000E+00 -0.14766162584E+04  0.14766162584E+04  0.00000000000E+00 0. -1.
         25    2    1    2    0    0 -0.17439496004E+03  0.22771273542E+03 -0.84053592671E+02  0.32396954439E+03  0.12499826916E+03 0.  0.
          2    1    1    2  501    0  0.63708119591E+02 -0.38135065197E+02 -0.12520059734E+04  0.12542057109E+04  0.00000000000E+00 0. -1.
          1    1    1    2  502    0  0.11068684045E+03 -0.18957767022E+03  0.59837445334E+03  0.63737214883E+03  0.00000000000E+00 0. -1.
         22    1    3    3    0    0 -0.17007261852E+03  0.21182645257E+03 -0.37051929907E+02  0.27416780826E+03  0.00000000000E+00 0. -1.
         22    1    3    3    0    0 -0.43223415239E+01  0.15886282856E+02 -0.47001662764E+02  0.49801736133E+02  0.00000000000E+00 0. -1.
</event>
<event>
 7    1  0.6386201E-006  0.1623782E+03  0.7818608E-02  0.1289958E+00
          2   -1    0    0  502    0  0.00000000000E+00  0.00000000000E+00  0.19923292562E+03  0.19923292562E+03  0.00000000000E+00 0. -1.
          1   -1    0    0  501    0 -0.00000000000E+00 -0.00000000000E+00 -0.31360724326E+03  0.31360724326E+03  0.00000000000E+00 0. -1.
         25    2    1    2    0    0 -0.11584850946E+03  0.12108776909E+03 -0.14459169346E+03  0.25419410636E+03  0.12499904369E+03 0.  0.
          2    1    1    2  501    0  0.66154843181E+02 -0.14737308291E+03 -0.42207385134E+02  0.16696332592E+03  0.00000000000E+00 0. -1.
          1    1    1    2  502    0  0.49693666284E+02  0.26285313816E+02  0.72424760956E+02  0.91682736601E+02  0.00000000000E+00 0. -1.
         22    1    3    3    0    0 -0.12965332341E+03  0.10232453154E+03 -0.76111806591E+02  0.18186066405E+03  0.00000000000E+00 0. -1.
         22    1    3    3    0    0  0.13804813944E+02  0.18763237548E+02 -0.68479886869E+02  0.72333442313E+02  0.00000000000E+00 0. -1.
</event>
<event>
 7    1  0.6386201E-006  0.1338796E+03  0.7818608E-02  0.1300022E+00
          2   -1    0    0  502    0  0.00000000000E+00  0.00000000000E+00  0.14932300523E+04  0.14932300523E+04  0.00000000000E+00 0. -1.
          1   -1    0    0  501    0 -0.00000000000E+00 -0.00000000000E+00 -0.21498468124E+03  0.21498468124E+03  0.00000000000E+00 0. -1.
         25    2    1    2    0    0 -0.72766244956E+02  0.88330748680E+02  0.52148821663E+03  0.54833652881E+03  0.12500296468E+03 0.  0.
          2    1    1    2  501    0  0.28754481360E+02 -0.13213734633E+03 -0.17773161751E+03  0.22332851667E+03  0.00000000000E+00 0. -1.
          1    1    1    2  502    0  0.44011763596E+02  0.43806597646E+02  0.93448877197E+03  0.93654968809E+03  0.00000000000E+00 0. -1.
         22    1    3    3    0    0 -0.95113895999E+02  0.50725274289E+02  0.23519630745E+03  0.25872187712E+03  0.00000000000E+00 0.  1.
         22    1    3    3    0    0  0.22347651043E+02  0.37605474392E+02  0.28629190918E+03  0.28961465169E+03  0.00000000000E+00 0.  1.
</event>
<event>
 7    1  0.6386201E-006  0.6577562E+02  0.7818608E-02  0.1442184E+00
          2   -1    0    0  502    0  0.00000000000E+00  0.00000000000E+00  0.27603831581E+03  0.27603831581E+03  0.00000000000E+00 0. -1.
          1   -1    0    0  501    0 -0.00000000000E+00 -0.00000000000E+00 -0.52707300974E+03  0.52707300974E+03  0.00000000000E+00 0. -1.
         25    2    1    2    0    0 -0.80817121151E+02 -0.96973622083E+01 -0.58628544629E+02  0.16027260016E+03  0.12499821684E+03 0.  0.
          2    1    1    2  501    0  0.53618795923E+02  0.37523271974E+02 -0.41334798273E+03  0.41849674556E+03  0.00000000000E+00 0. -1.
          1    1    1    2  502    0  0.27198325228E+02 -0.27825909766E+02  0.22094183344E+03  0.22434197982E+03  0.00000000000E+00 0. -1.
         22    1    3    3    0    0 -0.89927692221E+02  0.14444989382E+02 -0.84132511759E+02  0.12399164118E+03  0.00000000000E+00 0. -1.
         22    1    3    3    0    0  0.91105710708E+01 -0.24142351591E+02  0.25503967131E+02  0.36280958986E+02  0.00000000000E+00 0. -1.
</event>
<event>
 7    1  0.6386201E-006  0.3895000E+02  0.7818608E-02  0.1561563E+00
          2   -1    0    0  502    0  0.00000000000E+00  0.00000000000E+00  0.25448401959E+03  0.25448401959E+03  0.00000000000E+00 0. -1.
          1   -1    0    0  501    0 -0.00000000000E+00 -0.00000000000E+00 -0.86149251966E+03  0.86149251966E+03  0.00000000000E+00 0. -1.
         25    2    1    2    0    0  0.32844565090E+02  0.48642868757E+02 -0.10153116757E+03  0.17140173391E+03  0.12500032905E+03 0.  0.
          2    1    1    2  501    0 -0.57994172764E+01 -0.38303115725E+02 -0.72355101196E+03  0.72458735072E+03  0.00000000000E+00 0. -1.
          1    1    1    2  502    0 -0.27045147813E+02 -0.10339753033E+02  0.21807367947E+03  0.21998745462E+03  0.00000000000E+00 0. -1.
         22    1    3    3    0    0  0.77899009030E+02  0.32867360182E+02 -0.40024725482E+02  0.93544094539E+02  0.00000000000E+00 0. -1.
         22    1    3    3    0    0 -0.45054443940E+02  0.15775508575E+02 -0.61506442091E+02  0.77857639370E+02  0.00000000000E+00 0. -1.
</event>
<event>
 7    1  0.6386201E-006  0.1122341E+03  0.7818608E-02  0.1350517E+00
          2   -1    0    0  502    0  0.00000000000E+00  0.00000000000E+00  0.26923426530E+04  0.26923426530E+04  0.00000000000E+00 0. -1.
          1   -1    0    0  501    0 -0.00000000000E+00 -0.00000000000E+00 -0.13035610162E+03  0.13035610162E+03  0.00000000000E+00 0. -1.
         25    2    1    2    0    0  0.12582264940E+03 -0.44740282839E+01  0.22165915080E+03  0.28391873651E+03  0.12500285508E+03 0.  0.
          2    1    1    2  501    0 -0.23484760630E+02 -0.41108855389E+02 -0.92215389827E+02  0.10365881581E+03  0.00000000000E+00 0. -1.
          1    1    1    2  502    0 -0.10233788877E+03  0.45582883673E+02  0.24325427904E+04  0.24351212023E+04  0.00000000000E+00 0. -1.
         22    1    3    3    0    0  0.36817916984E+02 -0.59103734195E+02  0.11643018074E+03  0.13566428194E+03  0.00000000000E+00 0. -1.
         22    1    3    3    0    0  0.89004732417E+02  0.54629705911E+02  0.10522897006E+03  0.14825445457E+03  0.00000000000E+00 0. -1.
</event>
<event>
 7    1  0.6386201E-006  0.8485382E+02  0.7818608E-02  0.1357071E+00
          2   -1    0    0  502    0  0.00000000000E+00  0.00000000000E+00  0.19947735060E+04  0.19947735060E+04  0.00000000000E+00 0. -1.
          1   -1    0    0  501    0 -0.00000000000E+00 -0.00000000000E+00 -0.65645561654E+02  0.65645561654E+02  0.00000000000E+00 0. -1.
         25    2    1    2    0    0 -0.25184703957E+02  0.46874457897E+02  0.59241724173E+03  0.60779043280E+03  0.12497814926E+03 0.  0.
          2    1    1    2  501    0  0.81987865917E+02 -0.30077037108E+02 -0.24048102586E+02  0.90581176614E+02  0.00000000000E+00 0. -1.
          1    1    1    2  502    0 -0.56803161960E+02 -0.16797420789E+02  0.13607588052E+04  0.13620474582E+04  0.00000000000E+00 0. -1.
         22    1    3    3    0    0 -0.26340123332E+02 -0.20350168420E+02  0.43933319470E+03  0.44059231429E+03  0.00000000000E+00 0. -1.
         22    1    3    3    0    0  0.11554193748E+01  0.67224626317E+02  0.15308404703E+03  0.16719811851E+03  0.00000000000E+00 0. -1.
</event>
<event>
 7    1  0.6386201E-006  0.1201802E+03  0.7818608E-02  0.1248621E+00
          2   -1    0    0  502    0  0.00000000000E+00  0.00000000000E+00  0.11720627637E+04  0.11720627637E+04  0.00000000000E+00 0. -1.
          1   -1    0    0  501    0 -0.00000000000E+00 -0.00000000000E+00 -0.14493890048E+03  0.14493890048E+03  0.00000000000E+00 0. -1.
         25    2    1    2    0    0 -0.22366252875E+03 -0.18558068819E+02  0.17450924083E+03  0.31056080888E+03  0.12500084877E+03 0.  0.
          2    1    1    2  501    0  0.11282672216E+03 -0.10823767297E+02 -0.29326377790E+02  0.11707715236E+03  0.00000000000E+00 0. -1.
          1    1    1    2  502    0  0.11083580659E+03  0.29381836116E+02  0.88194100019E+03  0.88936370295E+03  0.00000000000E+00 0. -1.
         22    1    3    3    0    0 -0.23120401075E+03 -0.23512479512E+02  0.18476958955E+03  0.29689717496E+03  0.00000000000E+00 0. -1.
         22    1    3    3    0    0  0.75414819963E+01  0.49544106929E+01 -0.10260348722E+02  0.13663633920E+02  0.00000000000E+00 0. -1.
</event>
<event>
 7    1  0.6386201E-006  0.3899575E+02  0.7818608E-02  0.1554323E+00
          2   -1    0    0  502    0  0.00000000000E+00  0.00000000000E+00  0.45377236260E+02  0.45377236260E+02  0.00000000000E+00 0. -1.
          1   -1    0    0  501    0 -0.00000000000E+00 -0.00000000000E+00 -0.19163378625E+04  0.19163378625E+04  0.00000000000E+00 0. -1.
         25    2    1    2    0    0  0.41534880780E+02 -0.21870094627E+02 -0.43700947212E+03  0.45695253840E+03  0.12499958507E+03 0.  0.
          2    1    1    2  501    0 -0.33492666497E+01  0.30096482026E+02 -0.14583778426E+04  0.14586922046E+04  0.00000000000E+00 0. -1.
          1    1    1    2  502    0 -0.38185614130E+02 -0.82263873987E+01  0.24426688469E+02  0.46070355823E+02  0.00000000000E+00 0. -1.
         22    1    3    3    0    0  0.67725056894E+02 -0.49568288604E+02 -0.37406956205E+03  0.38336892913E+03  0.00000000000E+00 0.  1.
         22    1    3    3    0    0 -0.26190176115E+02  0.27698193977E+02 -0.62939910070E+02  0.73583609276E+02  0.00000000000E+00 0.  1.
</event>
<event>
 7    1  0.6386201E-006  0.5173910E+02  0.7818608E-02  0.1562818E+00
          2   -1    0    0  502    0  0.00000000000E+00  0.00000000000E+00  0.13245905124E+04  0.13245905124E+04  0.00000000000E+00 0. -1.
          1   -1    0    0  501    0 -0.00000000000E+00 -0.00000000000E+00 -0.76703380887E+03  0.76703380887E+03  0.00000000000E+00 0. -1.
         25    2    1    2    0    0  0.59884146821E+02  0.33167725651E+02  0.26030707873E+02  0.14487510525E+03  0.12499995721E+03 0.  0.
          2    1    1    2  501    0 -0.21578920265E+02  0.14106823110E+01 -0.70690893516E+03  0.70723962165E+03  0.00000000000E+00 0. -1.
          1    1    1    2  502    0 -0.38305226555E+02 -0.34578407962E+02  0.12384349309E+04  0.12395095944E+04  0.00000000000E+00 0. -1.
         22    1    3    3    0    0 -0.17711382021E+00 -0.53193577046E+01 -0.44348134459E+02  0.44666362799E+02  0.00000000000E+00 0. -1.
         22    1    3    3    0    0  0.60061260641E+02  0.38487083355E+02  0.70378842331E+02  0.10020874245E+03  0.00000000000E+00 0. -1.
</event>
<event>
 7    1  0.6386201E-006  0.2144710E+03  0.7818608E-02  0.1263787E+00
          2   -1    0    0  502    0  0.00000000000E+00  0.00000000000E+00  0.21921145289E+04  0.21921145289E+04  0.00000000000E+00 0. -1.
          1   -1    0    0  501    0 -0.00000000000E+00 -0.00000000000E+00 -0.26188620125E+03  0.26188620125E+03  0.00000000000E+00 0. -1.
         25    2    1    2    0    0  0.22857992201E+03  0.52645664416E+02  0.91004282369E+02  0.28093770640E+03  0.12499547489E+03 0.  0.
          2    1    1    2  501    0 -0.18849967957E+03 -0.89823294358E+02 -0.10108206229E+03  0.23198693223E+03  0.00000000000E+00 0. -1.
          1    1    1    2  502    0 -0.40080242440E+02  0.37177629942E+02  0.19403061075E+04  0.19410760915E+04  0.00000000000E+00 0. -1.
         22    1    3    3    0    0  0.21113451314E+03  0.27776690819E+02  0.33048252316E+02  0.21550293310E+03  0.00000000000E+00 0.  1.
         22    1    3    3    0    0  0.17445408867E+02  0.24868973597E+02  0.57956030052E+02  0.65434773307E+02  0.00000000000E+00 0.  1.
</event>
<event>
 7    1  0.6386201E-006  0.4270107E+02  0.7818608E-02  0.1516949E+00
          2   -1    0    0  502    0  0.00000000000E+00  0.00000000000E+00  0.71350140940E+02  0.71350140940E+02  0.00000000000E+00 0. -1.
          1   -1    0    0  501    0 -0.00000000000E+00 -0.00000000000E+00 -0.12178867520E+04  0.12178867520E+04  0.00000000000E+00 0. -1.
         25    2    1    2    0    0  0.10385420727E+02  0.72837555552E+01 -0.44835177252E+03  0.46562406252E+03  0.12500218246E+03 0.  0.
          2    1    1    2  501    0 -0.45193758292E+02 -0.12785642979E+01 -0.75519485297E+03  0.75654700876E+03  0.00000000000E+00 0. -1.
          1    1    1    2  502    0  0.34808337565E+02 -0.60051912573E+01  0.57010014441E+02  0.67065821643E+02  0.00000000000E+00 0. -1.
         22    1    3    3    0    0  0.49767130228E+02  0.45462807111E+02 -0.19254877202E+03  0.20400652854E+03  0.00000000000E+00 0. -1.
         22    1    3    3    0    0 -0.39381709501E+02 -0.38179051555E+02 -0.25580300050E+03  0.26161753398E+03  0.00000000000E+00 0. -1.
</event>
<event>
 7    1  0.6386201E-006  0.5172005E+02  0.7818608E-02  0.1465469E+00
          2   -1    0    0  502    0  0.00000000000E+00  0.00000000000E+00  0.20998559848E+04  0.20998559848E+04  0.00000000000E+00 0. -1.
          1   -1    0    0  501    0 -0.00000000000E+00 -0.00000000000E+00 -0.26653228238E+02  0.26653228238E+02  0.00000000000E+00 0. -1.
         25    2    1    2    0    0 -0.17693244731E+02  0.25867424230E+02  0.76654227405E+03  0.77729943772E+03  0.12500073373E+03 0.  0.
          2    1    1    2  501    0 -0.15830327390E+02 -0.50705435519E+02  0.12751388902E+02  0.54628182977E+02  0.00000000000E+00 0. -1.
          1    1    1    2  502    0  0.33523572121E+02  0.24838011290E+02  0.12939090936E+04  0.12945815923E+04  0.00000000000E+00 0. -1.
         22    1    3    3    0    0 -0.46765486175E+01 -0.30090731874E+02  0.50606557121E+02  0.59062220373E+02  0.00000000000E+00 0.  1.
         22    1    3    3    0    0 -0.13016696114E+02  0.55958156104E+02  0.71593571693E+03  0.71823721735E+03  0.00000000000E+00 0.  1.
</event>
<event>
 7    1  0.6386201E-006  0.6775452E+02  0.7818608E-02  0.1452447E+00
          2   -1    0    0  502    0  0.00000000000E+00  0.00000000000E+00  0.14159874602E+04  0.14159874602E+04  0.00000000000E+00 0. -1.
          1   -1    0    0  501    0 -0.00000000000E+00 -0.00000000000E+00 -0.68256842633E+02  0.68256842633E+02  0.00000000000E+00 0. -1.
         25    2    1    2    0    0  0.16161931435E+02  0.32722427596E+02  0.45131776406E+02  0.13781981462E+03  0.12500183505E+03 0.  0.
          2    1    1    2  501    0 -0.47018897677E+01  0.34696147290E+02 -0.64399787119E+01  0.35600614179E+02  0.00000000000E+00 0. -1.
          1    1    1    2  502    0 -0.11460041667E+02 -0.67418574885E+02  0.13090388198E+04  0.13108238740E+04  0.00000000000E+00 0. -1.
         22    1    3    3    0    0  0.43980990271E+02  0.69634910554E+02  0.18282161019E+02  0.84365785036E+02  0.00000000000E+00 0.  1.
         22    1    3    3    0    0 -0.27819058836E+02 -0.36912482959E+02  0.26849615387E+02  0.53454029587E+02  0.00000000000E+00 0.  1.
</event>
<event>
 7    1  0.6386201E-006  0.3184527E+02  0.7818608E-02  0.1595691E+00
          2   -1    0    0  502    0  0.00000000000E+00  0.00000000000E+00  0.43815590059E+03  0.43815590059E+03  0.00000000000E+00 0. -1.
          1   -1    0    0  501    0 -0.00000000000E+00 -0.00000000000E+00 -0.24492994935E+03  0.24492994935E+03  0.00000000000E+00 0. -1.
         25    2    1    2    0    0  0.23356535221E+02 -0.11996238236E+02 -0.42334738059E+02  0.13455970492E+03  0.12499858668E+03 0.  0.
          2    1    1    2  501    0 -0.28107633574E+02 -0.16281332384E+02 -0.15426478163E+03  0.15764752995E+03  0.00000000000E+00 0. -1.
          1    1    1    2  502    0  0.47510983532E+01  0.28277570620E+02  0.38982547092E+03  0.39087861507E+03  0.00000000000E+00 0. -1.
         22    1    3    3    0    0  0.29645130985E+02 -0.55066953466E+02 -0.60850206360E+02  0.87257955335E+02  0.00000000000E+00 0. -1.
         22    1    3    3    0    0 -0.62885957645E+01  0.43070715230E+02  0.18515468301E+02  0.47301749582E+02  0.00000000000E+00 0. -1.
</event>
<event>
 7    1  0.6386201E-006  0.1575710E+03  0.7818608E-02  0.1378626E+00
          2   -1    0    0  502    0  0.00000000000E+00  0.00000000000E+00  0.59972098328E+03  0.59972098328E+03  0.00000000000E+00 0. -1.
          1   -1    0    0  501    0 -0.00000000000E+00 -0.00000000000E+00 -0.40483925953E+03  0.40483925953E+03  0.00000000000E+00 0. -1.
         25    2    1    2    0    0 -0.42433821277E+01 -0.17932296763E+03 -0.28075411233E+02  0.22042487113E+03  0.12499664830E+03 0.  0.
          2    1    1    2  501    0  0.61990810711E+01  0.15272456465E+03 -0.25937713598E+03  0.30106431194E+03  0.00000000000E+00 0. -1.
          1    1    1    2  502    0 -0.19556989434E+01  0.26598402982E+02  0.48233427097E+03  0.48307105973E+03  0.00000000000E+00 0. -1.
         22    1    3    3    0    0  0.16566688660E+02 -0.16650203792E+03  0.17977820763E+02  0.16828721236E+03  0.00000000000E+00 0.  1.
         22    1    3    3    0    0 -0.20810070788E+02 -0.12820929713E+02 -0.46053231996E+02  0.52137658772E+02  0.00000000000E+00 0.  1.
</event>
<event>
 7    1  0.6386201E-006  0.1346398E+03  0.7818608E-02  0.1353952E+00
          2   -1    0    0  502    0  0.00000000000E+00  0.00000000000E+00  0.37449397301E+03  0.37449397301E+03  0.00000000000E+00 0. -1.
          1   -1    0    0  501    0 -0.00000000000E+00 -0.00000000000E+00 -0.81421053216E+03  0.81421053216E+03  0.00000000000E+00 0. -1.
         25    2    1    2    0    0 -0.44095509248E+02  0.16470123595E+03 -0.29788650882E+02  0.21350066865E+03  0.12499704290E+03 0.  0.
          2    1    1    2  501    0  0.34406769970E+02 -0.12761620076E+03 -0.68491835565E+03  0.69755492574E+03  0.00000000000E+00 0. -1.
          1    1    1    2  502    0  0.96887392775E+01 -0.37085035196E+02  0.27499044738E+03  0.27764891077E+03  0.00000000000E+00 0. -1.
         22    1    3    3    0    0 -0.58649821530E+02  0.26791273875E+02  0.17792562639E+02  0.66889081371E+02  0.00000000000E+00 0.  1.
         22    1    3    3    0    0  0.14554312282E+02  0.13790996208E+03 -0.47581213521E+02  0.14661158728E+03  0.00000000000E+00 0.  1.
</event>
<event>
 7    1  0.6386201E-006  0.7165802E+02  0.7818608E-02  0.1393490E+00
          2   -1    0    0  502    0  0.00000000000E+00  0.00000000000E+00  0.12846278051E+04  0.12846278051E+04  0.00000000000E+00 0. -1.
          1   -1    0    0  501    0 -0.00000000000E+00 -0.00000000000E+00 -0.83942601558E+03  0.83942601558E+03  0.00000000000E+00 0. -1.
         25    2    1    2    0    0 -0.26342680304E+02 -0.26054312024E+00  0.17503861657E+03  0.21669761252E+03  0.12500133316E+03 0.  0.
          2    1    1    2  501    0  0.60776649946E+02 -0.38714239121E+02 -0.81638752512E+03  0.81956158076E+03  0.00000000000E+00 0. -1.
          1    1    1    2  502    0 -0.34433969642E+02  0.38974782241E+02  0.10865506981E+04  0.10877946274E+04  0.00000000000E+00 0. -1.
         22    1    3    3    0    0  0.45297244056E+02  0.22448336252E+02  0.89858974874E+02  0.10310384806E+03  0.00000000000E+00 0.  1.
         22    1    3    3    0    0 -0.71639924359E+02 -0.22708879372E+02  0.85179641698E+02  0.11359376446E+03  0.00000000000E+00 0.  1.
</event>
<event>
 7    1  0.6386201E-006  0.8127221E+02  0.7818608E-02  0.1332410E+00
          2   -1    0    0  502    0  0.00000000000E+00  0.00000000000E+00  0.34289163853E+04  0.34289163853E+04  0.00000000000E+00 0. -1.
          1   -1    0    0  501    0 -0.00000000000E+00 -0.00000000000E+00 -0.52725159498E+03  0.52725159498E+03  0.00000000000E+00 0. -1.
         25    2    1    2    0    0 -0.78448123200E+02  0.10502172254E+03  0.35252647400E+03  0.39633686894E+03  0.12499731425E+03 0.  0.
          2    1    1    2  501    0  0.75796631723E+02 -0.28609873045E+02 -0.50161724035E+03  0.50811761436E+03  0.00000000000E+00 0. -1.
          1    1    1    2  502    0  0.26514914764E+01 -0.76411849498E+02  0.30507555567E+04  0.30517134970E+04  0.00000000000E+00 0. -1.
         22    1    3    3    0    0  0.21877818118E+02  0.70387416372E+02  0.12175064547E+03  0.14232444267E+03  0.00000000000E+00 0.  1.
         22    1    3    3    0    0 -0.10032594132E+03  0.34634306170E+02  0.23077582853E+03  0.25401242627E+03  0.00000000000E+00 0.  1.
</event>
<event>
 7    1  0.6386201E-006  0.5371277E+02  0.7818608E-02  0.1443058E+00
          2   -1    0    0  502    0  0.00000000000E+00  0.00000000000E+00  0.38642395206E+03  0.38642395206E+03  0.00000000000E+00 0. -1.
          1   -1    0    0  501    0 -0.00000000000E+00 -0.00000000000E+00 -0.86670443746E+03  0.86670443746E+03  0.00000000000E+00 0. -1.
         25    2    1    2    0    0  0.98890246686E+02  0.13009274993E+02 -0.17861876288E+03  0.23974619213E+03  0.12500020825E+03 0.  0.
          2    1    1    2  501    0 -0.45611155182E+02 -0.12676471877E+02 -0.65466816762E+03  0.65637754388E+03  0.00000000000E+00 0. -1.
          1    1    1    2  502    0 -0.53279091504E+02 -0.33280311525E+00  0.35300644509E+03  0.35700465351E+03  0.00000000000E+00 0. -1.
         22    1    3    3    0    0  0.11327689406E+03 -0.16567215092E+02 -0.91273330125E+02  0.14641362005E+03  0.00000000000E+00 0.  1.
         22    1    3    3    0    0 -0.14386647373E+02  0.29576490085E+02 -0.87345432750E+02  0.93332572078E+02  0.00000000000E+00 0.  1.
</event>
<event>
 7    1  0.6386201E-006  0.7068420E+02  0.7818608E-02  0.1388511E+00
          2   -1    0    0  502    0  0.00000000000E+00  0.00000000000E+00  0.21368112366E+03  0.21368112366E+03  0.00000000000E+00 0. -1.
          1   -1    0    0  501    0 -0.00000000000E+00 -0.00000000000E+00 -0.11442725202E+03  0.11442725202E+03  0.00000000000E+00 0. -1.
         25    2    1    2    0    0 -0.20574440446E+02 -0.48054599638E+02  0.81892749030E+02  0.15833332957E+03  0.12502187314E+03 0.  0.
          2    1    1    2  501    0 -0.29286644578E+02  0.70964127461E+02 -0.43169266557E+02  0.88074970973E+02  0.00000000000E+00 0. -1.
          1    1    1    2  502    0  0.49861085024E+02 -0.22909527823E+02  0.60530389162E+02  0.81700075134E+02  0.00000000000E+00 0. -1.
         22    1    3    3    0    0 -0.34136635928E+02 -0.86848929666E+02  0.47322615765E+02  0.10463018904E+03  0.00000000000E+00 0. -1.
         22    1    3    3    0    0  0.13562195482E+02  0.38794330028E+02  0.34570133265E+02  0.53703140528E+02  0.00000000000E+00 0. -1.
</event>
<event>
 7    1  0.6386201E-006  0.1460624E+03  0.7818608E-02  0.1234736E+00
          2   -1    0    0  502    0  0.00000000000E+00  0.00000000000E+00  0.24032239176E+04  0.24032239176E+04  0.00000000000E+00 0. -1.
          1   -1    0    0  501    0 -0.00000000000E+00 -0.00000000000E+00 -0.14855996606E+03  0.14855996606E+03  0.00000000000E+00 0. -1.
         25    2    1    2    0    0 -0.15880156101E+03 -0.29034147617E+02 -0.43553371531E+02  0.20876076954E+03  0.12499298068E+03 0.  0.
          2    1    1    2  501    0  0.11375119067E+03 -0.68395184030E+02  0.18830610111E+03  0.23038320749E+03  0.00000000000E+00 0. -1.
          1    1    1    2  502    0  0.45050370340E+02  0.97429331646E+02  0.21099112219E+04  0.21126399066E+04  0.00000000000E+00 0. -1.
         22    1    3    3    0    0 -0.69900298228E+02  0.29705198782E+02  0.27403384032E+02  0.80742776664E+02  0.00000000000E+00 0. -1.
         22    1    3    3    0    0 -0.88901262787E+02 -0.58739346399E+02 -0.70956755563E+02  0.12801799288E+03  0.00000000000E+00 0. -1.
</event>
<event>
 7    1  0.6386201E-006  0.4660466E+02  0.7818608E-02  0.1477757E+00
          2   -1    0    0  502    0  0.00000000000E+00  0.00000000000E+00  0.53411470624E+03  0.53411470624E+03  0.00000000000E+00 0. -1.
          1   -1    0    0  501    0 -0.00000000000E+00 -0.00000000000E+00 -0.76631316182E+03  0.76631316182E+03  0.00000000000E+00 0. -1.
         25    2    1    2    0    0  0.57001122809E+02  0.43524586205E+02  0.17703467734E+03  0.22827674338E+03  0.12500190791E+03 0.  0.
          2    1    1    2  501    0 -0.14597438566E+02 -0.44211345814E+02 -0.73859958463E+03  0.74006558812E+03  0.00000000000E+00 0. -1.
          1    1    1    2  502    0 -0.42403684243E+02  0.68675960903E+00  0.32936645171E+03  0.33208553656E+03  0.00000000000E+00 0. -1.
         22    1    3    3    0    0  0.79862756384E+02  0.28281986422E+02  0.18162999458E+03  0.20041802700E+03  0.00000000000E+00 0. -1.
         22    1    3    3    0    0 -0.22861633575E+02  0.15242599784E+02 -0.45953172414E+01  0.27858716381E+02  0.00000000000E+00 0. -1.
</event>
<event>
 7    1  0.6386201E-006  0.8908553E+02  0.7818608E-02  0.1367324E+00
          2   -1    0    0  502    0  0.00000000000E+00  0.00000000000E+00  0.26440898423E+03  0.26440898423E+03  0.00000000000E+00 0. -1.
          1   -1    0    0  501    0 -0.00000000000E+00 -0.00000000000E+00 -0.85032653840E+03  0.85032653840E+03  0.00000000000E+00 0. -1.
         25    2    1    2    0    0 -0.88034188997E+02 -0.87206580315E+02 -0.84456954685E+02  0.19522840838E+03  0.12500459256E+03 0.  0.
          2    1    1    2  501    0  0.86067513534E+01  0.51057780960E+02 -0.70037797112E+03  0.70228931046E+03  0.00000000000E+00 0. -1.
          1    1    1    2  502    0  0.79427437644E+02  0.36148799355E+02  0.19891737164E+03  0.21721780379E+03  0.00000000000E+00 0. -1.
         22    1    3    3    0    0 -0.11228847307E+03 -0.89147449106E+02 -0.47608408288E+02  0.15107127261E+03  0.00000000000E+00 0. -1.
         22    1    3    3    0    0  0.24254284078E+02  0.19408687912E+01 -0.36848546397E+02  0.44157135769E+02  0.00000000000E+00 0. -1.
</event>
<event>
 7    1  0.6386201E-006  0.5601580E+02  0.7818608E-02  0.1518770E+00
          2   -1    0    0  502    0  0.00000000000E+00  0.00000000000E+00  0.32909710230E+02  0.32909710230E+02  0.00000000000E+00 0. -1.
          1   -1    0    0  501    0 -0.00000000000E+00 -0.00000000000E+00 -0.98696911754E+03  0.98696911754E+03  0.00000000000E+00 0. -1.
         25    2    1    2    0    0 -0.42100611164E+02  0.51901892597E+02 -0.42347109827E+03  0.44656095404E+03  0.12499058638E+03 0.  0.
          2    1    1    2  501    0 -0.68345468990E+01 -0.25706645396E+02 -0.51497071259E+03  0.51565722867E+03  0.00000000000E+00 0. -1.
          1    1    1    2  502    0  0.48935158063E+02 -0.26195247200E+02 -0.15617596446E+02  0.57660645065E+02  0.00000000000E+00 0. -1.
         22    1    3    3    0    0 -0.69350892271E+02  0.17146201710E+02 -0.37173714874E+03  0.37853935891E+03  0.00000000000E+00 0.  1.
         22    1    3    3    0    0  0.27250281107E+02  0.34755690887E+02 -0.51733949533E+02  0.68021595128E+02  0.00000000000E+00 0.  1.
</event>
<event>
 7    1  0.6386201E-006  0.8143383E+02  0.7818608E-02  0.1378932E+00
          2   -1    0    0  502    0  0.00000000000E+00  0.00000000000E+00  0.19397050126E+04  0.19397050126E+04  0.00000000000E+00 0. -1.
          1   -1    0    0  501    0 -0.00000000000E+00 -0.00000000000E+00 -0.38591537813E+02  0.38591537813E+02  0.00000000000E+00 0. -1.
         25    2    1    2    0    0  0.28062558598E+02  0.10482755939E+03  0.66330859045E+03  0.68365164604E+03  0.12499985028E+03 0.  0.
          2    1    1    2  501    0 -0.53096761696E+02 -0.59847800078E+02  0.29542559427E+02  0.85286505933E+02  0.00000000000E+00 0. -1.
          1    1    1    2  502    0  0.25034203098E+02 -0.44979759307E+02  0.12082623249E+04  0.12093583984E+04  0.00000000000E+00 0. -1.
         22    1    3    3    0    0  0.49230047961E+02  0.11716469247E+03  0.41210118530E+03  0.43125230401E+03  0.00000000000E+00 0. -1.
         22    1    3    3    0    0 -0.21167489363E+02 -0.12337133088E+02  0.25120740515E+03  0.25239934203E+03  0.00000000000E+00 0. -1.
</event>
<event>
 7    1  0.6386201E-006  0.3882833E+02  0.7818608E-02  0.1578247E+00
          2   -1    0    0  502    0  0.00000000000E+00  0.00000000000E+00  0.88755028449E+03  0.88755028449E+03  0.00000000000E+00 0. -1.
          1   -1    0    0  501    0 -0.00000000000E+00 -0.00000000000E+00 -0.15409991754E+02  0.15409991754E+02  0.00000000000E+00 0. -1.
         25    2    1    2    0    0  0.54205682448E+01 -0.16732628558E+02  0.44576927003E+03  0.46329677498E+03  0.12499718470E+03 0.  0.
          2    1    1    2  501    0 -0.24759216085E+02  0.34358769221E+02  0.66485943074E+02  0.78828449370E+02  0.00000000000E+00 0. -1.
          1    1    1    2  502    0  0.19338647840E+02 -0.17626140663E+02  0.35988507963E+03  0.36083505190E+03  0.00000000000E+00 0. -1.
         22    1    3    3    0    0 -0.22181856652E+02  0.45700406832E+02  0.27000401984E+03  0.27474121037E+03  0.00000000000E+00 0.  1.
         22    1    3    3    0    0  0.27602424897E+02 -0.62433035390E+02  0.17576525019E+03  0.18855556460E+03  0.00000000000E+00 0.  1.
</event>
<event>
 7    1  0.6386201E-006  0.8083639E+02  0.7818608E-02  0.1405238E+00
          2   -1    0    0  502    0  0.00000000000E+00  0.00000000000E+00  0.85350346772E+03  0.85350346772E+03  0.00000000000E+00 0. -1.
          1   -1    0    0  501    0 -0.00000000000E+00 -0.00000000000E+00 -0.41261488277E+02  0.41261488277E+02  0.00000000000E+00 0. -1.
         25    2    1    2    0    0 -0.93480205791E+02 -0.51333105118E+02  0.27255916267E+03  0.31825598844E+03  0.12499896187E+03 0.  0.
          2    1    1    2  501    0  0.73426273104E+02  0.14426198696E+02  0.62546561391E+02  0.97527458352E+02  0.00000000000E+00 0. -1.
          1    1    1    2  502    0  0.20053932686E+02  0.36906906422E+02  0.47713625539E+03  0.47898150921E+03  0.00000000000E+00 0. -1.
         22    1    3    3    0    0  0.28219440760E+02 -0.23338037214E+02  0.39597169194E+02  0.53934558735E+02  0.00000000000E+00 0.  1.
         22    1    3    3    0    0 -0.12169964655E+03 -0.27995067904E+02  0.23296199347E+03  0.26432142970E+03  0.00000000000E+00 0.  1.
</event>
<event>
 7    1  0.6386201E-006  0.7194682E+02  0.7818608E-02  0.1410325E+00
          2   -1    0    0  502    0  0.00000000000E+00  0.00000000000E+00  0.11902550335E+04  0.11902550335E+04  0.00000000000E+00 0. -1.
          1   -1    0    0  501    0 -0.00000000000E+00 -0.00000000000E+00 -0.41127733946E+03  0.41127733946E+03  0.00000000000E+00 0. -1.
         25    2    1    2    0    0 -0.20253765149E+02  0.88349076779E+02  0.18890682950E+03  0.24398030057E+03  0.12499928986E+03 0.  0.
          2    1    1    2  501    0 -0.20667372602E+02 -0.68799921760E+02 -0.37984410198E+03  0.38657743252E+03  0.00000000000E+00 0. -1.
          1    1    1    2  502    0  0.40921137751E+02 -0.19549155019E+02  0.96991496653E+03  0.97097463988E+03  0.00000000000E+00 0. -1.
         22    1    3    3    0    0  0.38835072988E+01  0.10714628634E+03  0.88524398042E+02  0.13903948128E+03  0.00000000000E+00 0.  1.
         22    1    3    3    0    0 -0.24137272448E+02 -0.18797209562E+02  0.10038243146E+03  0.10494081929E+03  0.00000000000E+00 0.  1.
</event>
<event>
 7    1  0.6386201E-006  0.8057804E+02  0.7818608E-02  0.1443274E+00
          2   -1    0    0  502    0  0.00000000000E+00  0.00000000000E+00  0.18518147333E+03  0.18518147333E+03  0.00000000000E+00 0. -1.
          1   -1    0    0  501    0 -0.00000000000E+00 -0.00000000000E+00 -0.31609639317E+03  0.31609639317E+03  0.00000000000E+00 0. -1.
         25    2    1    2    0    0  0.73452252211E+02  0.74675876729E+02  0.26796712519E+02  0.16527441368E+03  0.12500339234E+03 0.  0.
          2    1    1    2  501    0 -0.14697607587E+02 -0.27867729681E+02 -0.22976385611E+03  0.23191390558E+03  0.00000000000E+00 0. -1.
          1    1    1    2  502    0 -0.58754644624E+02 -0.46808147048E+02  0.72052223754E+02  0.10408954723E+03  0.00000000000E+00 0. -1.
         22    1    3    3    0    0  0.84199417291E+02  0.67199617218E+02 -0.26047766509E+02  0.11083238050E+03  0.00000000000E+00 0.  1.
         22    1    3    3    0    0 -0.10747165081E+02  0.74762595112E+01  0.52844479028E+02  0.54442033185E+02  0.00000000000E+00 0.  1.
</event>
<event>
 7    1  0.6386201E-006  0.7652137E+02  0.7818608E-02  0.1350938E+00
          2   -1    0    0  502    0  0.00000000000E+00  0.00000000000E+00  0.17145308962E+03  0.17145308962E+03  0.00000000000E+00 0. -1.
          1   -1    0    0  501    0 -0.00000000000E+00 -0.00000000000E+00 -0.53399814791E+03  0.53399814791E+03  0.00000000000E+00 0. -1.
         25    2    1    2    0    0  0.38841218321E+02 -0.56086903369E+02 -0.94230399456E+02  0.17075884833E+03  0.12499934052E+03 0.  0.
          2    1    1    2  501    0 -0.66602292600E+02 -0.18751286295E+02 -0.38618680260E+03  0.39233623669E+03  0.00000000000E+00 0. -1.
          1    1    1    2  502    0  0.27761074279E+02  0.74838189664E+02  0.11787214378E+03  0.14235615251E+03  0.00000000000E+00 0. -1.
         22    1    3    3    0    0 -0.43372942817E+02 -0.12266009662E+02 -0.12370398551E+02  0.46740709472E+02  0.00000000000E+00 0.  1.
         22    1    3    3    0    0  0.82214161138E+02 -0.43820893707E+02 -0.81860000906E+02  0.12401813886E+03  0.00000000000E+00 0.  1.
</event>
<event>
 7    1  0.6386201E-006  0.2893050E+03  0.7818608E-02  0.1175939E+00
          2   -1    0    0  502    0  0.00000000000E+00  0.00000000000E+00  0.17383585515E+04  0.17383585515E+04  0.00000000000E+00 0. -1.
          1   -1    0    0  501    0 -0.00000000000E+00 -0.00000000000E+00 -0.90579909602E+03  0.90579909602E+03  0.00000000000E+00 0. -1.
         25    2    1    2    0    0 -0.30494476757E+03  0.91642081150E+02 -0.15490595398E+03  0.37551316887E+03  0.12499881245E+03 0.  0.
          2    1    1    2  501    0  0.23267265574E+03 -0.16372320138E+03 -0.60728841015E+03  0.67062736635E+03  0.00000000000E+00 0. -1.
          1    1    1    2  502    0  0.72272111826E+02  0.72081120233E+02  0.15947538196E+04  0.15980171123E+04  0.00000000000E+00 0. -1.
         22    1    3    3    0    0 -0.19578981680E+03  0.42668948638E+02 -0.30111544157E+02  0.20263513178E+03  0.00000000000E+00 0.  1.
         22    1    3    3    0    0 -0.10915495076E+03  0.48973132511E+02 -0.12479440983E+03  0.17287803709E+03  0.00000000000E+00 0.  1.
</event>
<event>
 7    1  0.6386201E-006  0.8416437E+02  0.7818608E-02  0.1362722E+00
          2   -1    0    0  502    0  0.00000000000E+00  0.00000000000E+00  0.31638509129E+04  0.31638509129E+04  0.00000000000E+00 0. -1.
          1   -1    0    0  501    0 -0.00000000000E+00 -0.00000000000E+00 -0.53098626900E+03  0.53098626900E+03  0.00000000000E+00 0. -1.
         25    2    1    2    0    0 -0.50526330663E+02 -0.13043739946E+03  0.25243545050E+03  0.31450847781E+03  0.12500040272E+03 0.  0.
          2    1    1    2  501    0  0.17485575520E+02  0.54199173697E+02 -0.49772643610E+03  0.50097395239E+03  0.00000000000E+00 0. -1.
          1    1    1    2  502    0  0.33040755143E+02  0.76238225766E+02  0.28781556295E+04  0.28793547517E+04  0.00000000000E+00 0. -1.
         22    1    3    3    0    0 -0.68494272019E+02 -0.57727514926E+02  0.59477189166E+02  0.10752426382E+03  0.00000000000E+00 0. -1.
         22    1    3    3    0    0  0.17967941356E+02 -0.72709884537E+02  0.19295826133E+03  0.20698421399E+03  0.00000000000E+00 0. -1.
</event>
<event>
 7    1  0.6386201E-006  0.7296111E+02  0.7818608E-02  0.1378372E+00
          2   -1    0    0  502    0  0.00000000000E+00  0.00000000000E+00  0.16054129130E+04  0.16054129130E+04  0.00000000000E+00 0. -1.
          1   -1    0    0  501    0 -0.00000000000E+00 -0.00000000000E+00 -0.35057365430E+03  0.35057365430E+03  0.00000000000E+00 0. -1.
         25    2    1    2    0    0 -0.17194666739E+02 -0.19961508584E+02  0.96542961783E+03  0.97384442059E+03  0.12499796051E+03 0.  0.
          2    1    1    2  501    0 -0.56672885538E+01  0.72958936405E+02 -0.34116825410E+03  0.34892821921E+03  0.00000000000E+00 0. -1.
          1    1    1    2  502    0  0.22861955293E+02 -0.52997427821E+02  0.63057789497E+03  0.63321392750E+03  0.00000000000E+00 0. -1.
         22    1    3    3    0    0  0.19568966059E+02 -0.57479579971E+02  0.73499143622E+03  0.73749525955E+03  0.00000000000E+00 0.  1.
         22    1    3    3    0    0 -0.36763632798E+02  0.37518071387E+02  0.23043818161E+03  0.23634916104E+03  0.00000000000E+00 0.  1.
</event>
<event>
 7    1  0.6386201E-006  0.1011714E+03  0.7818608E-02  0.1283510E+00
          2   -1    0    0  502    0  0.00000000000E+00  0.00000000000E+00  0.12186598847E+04  0.12186598847E+04  0.00000000000E+00 0. -1.
          1   -1    0    0  501    0 -0.00000000000E+00 -0.00000000000E+00 -0.20068744496E+03  0.20068744496E+03  0.00000000000E+00 0. -1.
         25    2    1    2    0    0  0.97174650747E+01 -0.32649932733E+02  0.22548968832E+03  0.26006475523E+03  0.12501052012E+03 0.  0.
          2    1    1    2  501    0 -0.10477100898E+03  0.20133349530E+02 -0.16528574902E+03  0.19672746355E+03  0.00000000000E+00 0. -1.
          1    1    1    2  502    0  0.95053543906E+02  0.12516583203E+02  0.95776850040E+03  0.96255511085E+03  0.00000000000E+00 0. -1.
         22    1    3    3    0    0  0.13746340391E+02 -0.66989300437E+02  0.21232898895E+03  0.22306978235E+03  0.00000000000E+00 0. -1.
         22    1    3    3    0    0 -0.40288753167E+01  0.34339367704E+02  0.13160699364E+02  0.36994972880E+02  0.00000000000E+00 0. -1.
</event>
<event>
 7    1  0.6386201E-006  0.6502207E+02  0.7818608E-02  0.1408941E+00
          2   -1    0    0  502    0  0.00000000000E+00  0.00000000000E+00  0.20334881423E+03  0.20334881423E+03  0.00000000000E+00 0. -1.
          1   -1    0    0  501    0 -0.00000000000E+00 -0.00000000000E+00 -0.37620912564E+03  0.37620912564E+03  0.00000000000E+00 0. -1.
         25    2    1    2    0    0 -0.75803821130E+02 -0.80151911400E+02 -0.62332294521E+02  0.17798939686E+03  0.12499744899E+03 0.  0.
          2    1    1    2  501    0  0.33306679462E+02  0.52455315760E+02 -0.24767026268E+03  0.25534575396E+03  0.00000000000E+00 0. -1.
          1    1    1    2  502    0  0.42497141668E+02  0.27696595640E+02  0.13714224579E+03  0.14622278906E+03  0.00000000000E+00 0. -1.
         22    1    3    3    0    0 -0.99443352192E+02 -0.95702534050E+02 -0.46941855413E+02  0.14577891860E+03  0.00000000000E+00 0. -1.
         22    1    3    3    0    0  0.23639531061E+02  0.15550622650E+02 -0.15390439109E+02  0.32210478257E+02  0.00000000000E+00 0. -1.
</event>
<event>
 7    1  0.6386201E-006  0.1653434E+03  0.7818608E-02  0.1304276E+00
          2   -1    0    0  502    0  0.00000000000E+00  0.00000000000E+00  0.25295117333E+03  0.25295117333E+03  0.00000000000E+00 0. -1.
          1   -1    0    0  501    0 -0.00000000000E+00 -0.00000000000E+00 -0.52486603883E+03  0.52486603883E+03  0.00000000000E+00 0. -1.
         25    2    1    2    0    0 -0.12367003105E+03  0.71636086937E+01  0.48344562254E+02  0.18250494705E+03  0.12500106051E+03 0.  0.
          2    1    1    2  501    0  0.17118140340E+03  0.18224827030E+01 -0.43679449679E+03  0.46914371651E+03  0.00000000000E+00 0. -1.
          1    1    1    2  502    0 -0.47511372345E+02 -0.89860913967E+01  0.11653506903E+03  0.12616854860E+03  0.00000000000E+00 0. -1.
         22    1    3    3    0    0 -0.85355912678E+02 -0.55918761419E+02  0.24489956359E+02  0.10493949528E+03  0.00000000000E+00 0.  1.
         22    1    3    3    0    0 -0.38314118372E+02  0.63082370113E+02  0.23854605894E+02  0.77565451769E+02  0.00000000000E+00 0.  1.
</event>
<event>
 7    1  0.6386201E-006  0.9074630E+02  0.7818608E-02  0.1350720E+00
          2   -1    0    0  502    0  0.00000000000E+00  0.00000000000E+00  0.46769921557E+03  0.46769921557E+03  0.00000000000E+00 0. -1.
          1   -1    0    0  501    0 -0.00000000000E+00 -0.00000000000E+00 -0.20979903468E+04  0.20979903468E+04  0.00000000000E+00 0. -1.
         25    2    1    2    0    0  0.23785207372E+02  0.38818270998E+02 -0.21269080519E+03  0.25086909334E+03  0.12500131649E+03 0.  0.
          2    1    1    2  501    0 -0.39639225760E+01 -0.93808682871E+02 -0.18631190639E+04  0.18654834301E+04  0.00000000000E+00 0. -1.
          1    1    1    2  502    0 -0.19821284797E+02  0.54990411873E+02  0.44551873790E+03  0.44933703892E+03  0.00000000000E+00 0. -1.
         22    1    3    3    0    0  0.22424293507E+02  0.70502900518E+02 -0.60969202281E+02  0.95868407453E+02  0.00000000000E+00 0.  1.
         22    1    3    3    0    0  0.13609138652E+01 -0.31684629520E+02 -0.15172160291E+03  0.15500068588E+03  0.00000000000E+00 0.  1.
</event>
<event>
 7    1  0.6386201E-006  0.7806857E+02  0.7818608E-02  0.1400266E+00
          2   -1    0    0  502    0  0.00000000000E+00  0.00000000000E+00  0.63102613718E+03  0.63102613718E+03  0.00000000000E+00 0. -1.
          1   -1    0    0  501    0 -0.00000000000E+00 -0.00000000000E+00 -0.18185908194E+04  0.18185908194E+04  0.00000000000E+00 0. -1.
         25    2    1    2    0    0 -0.35126211184E+02 -0.36223617914E+02  0.75261160401E+02  0.15439577486E+03  0.12501124679E+03 0.  0.
          2    1    1    2  501    0  0.76337964521E+02  0.17582413368E+02 -0.17771681605E+04  0.17788938407E+04  0.00000000000E+00 0. -1.
          1    1    1    2  502    0 -0.41211753337E+02  0.18641204546E+02  0.51434231783E+03  0.51632734097E+03  0.00000000000E+00 0. -1.
         22    1    3    3    0    0 -0.72986188098E+02 -0.27576511390E+02  0.10282801914E+02  0.78696782963E+02  0.00000000000E+00 0. -1.
         22    1    3    3    0    0  0.37859976913E+02 -0.86471065244E+01  0.64978358487E+02  0.75698991901E+02  0.00000000000E+00 0. -1.
</event>
<event>
 7    1  0.6386201E-006  0.7380963E+02  0.7818608E-02  0.1382068E+00
          2   -1    0    0  502    0  0.00000000000E+00  0.00000000000E+00  0.15581818533E+03  0.15581818533E+03  0.00000000000E+00 0. -1.
          1   -1    0    0  501    0 -0.00000000000E+00 -0.00000000000E+00 -0.73114022185E+03  0.73114022185E+03  0.00000000000E+00 0. -1.
         25    2    1    2    0    0 -0.98660987089E+02 -0.54675705542E+02 -0.10963612524E+03  0.20092399516E+03  0.12500779465E+03 0.  0.
          2    1    1    2  501    0  0.72047659738E+02  0.61309165822E+01 -0.56645922261E+03  0.57105560525E+03  0.00000000000E+00 0. -1.
          1    1    1    2  502    0  0.26613327351E+02  0.48544788960E+02  0.10077331133E+03  0.11497880676E+03  0.00000000000E+00 0. -1.
         22    1    3    3    0    0 -0.95275279215E+02 -0.91082376169E+02 -0.86383661393E+02  0.15759287748E+03  0.00000000000E+00 0. -1.
         22    1    3    3    0    0 -0.33857078742E+01  0.36406670627E+02 -0.23252463852E+02  0.43331117677E+02  0.00000000000E+00 0. -1.
</event>
<event>
 7    1  0.6386201E-006  0.1256404E+03  0.7818608E-02  0.1276311E+00
          2   -1    0    0  502    0  0.00000000000E+00  0.00000000000E+00  0.32585343488E+04  0.32585343488E+04  0.00000000000E+00 0. -1.
          1   -1    0    0  501    0 -0.00000000000E+00 -0.00000000000E+00 -0.12681286116E+04  0.12681286116E+04  0.00000000000E+00 0. -1.
         25    2    1    2    0    0 -0.69380299540E+02  0.13696919392E+02  0.67095904132E+02  0.15852344854E+03  0.12500636712E+03 0.  0.
          2    1    1    2  501    0 -0.16001648247E+02  0.81113270132E+02 -0.12197211051E+04  0.12225199342E+04  0.00000000000E+00 0. -1.
          1    1    1    2  502    0  0.85381947787E+02 -0.94810189523E+02  0.31430309382E+04  0.31456195777E+04  0.00000000000E+00 0. -1.
         22    1    3    3    0    0 -0.10206534306E+03 -0.44273020267E+01  0.31491371042E+02  0.10690482546E+03  0.00000000000E+00 0.  1.
         22    1    3    3    0    0  0.32685043517E+02  0.18124221419E+02  0.35604533090E+02  0.51618623076E+02  0.00000000000E+00 0.  1.
</event>
<event>
 7    1  0.6386201E-006  0.4075283E+02  0.7818608E-02  0.1553007E+00
          2   -1    0    0  502    0  0.00000000000E+00  0.00000000000E+00  0.72674263226E+02  0.72674263226E+02  0.00000000000E+00 0. -1.
          1   -1    0    0  501    0 -0.00000000000E+00 -0.00000000000E+00 -0.24775303467E+03  0.24775303467E+03  0.00000000000E+00 0. -1.
         25    2    1    2    0    0 -0.11469986144E+02 -0.11621217790E+02 -0.56589741434E+02  0.13818100273E+03  0.12499990958E+03 0.  0.
          2    1    1    2  501    0 -0.12853278208E+02 -0.26242625475E+02 -0.13204977793E+03  0.13524431967E+03  0.00000000000E+00 0. -1.
          1    1    1    2  502    0  0.24323264352E+02  0.37863843265E+02  0.13560747925E+02  0.47001975488E+02  0.00000000000E+00 0. -1.
         22    1    3    3    0    0  0.14058047395E+02 -0.64016628053E+02 -0.42829947775E+02  0.78295349736E+02  0.00000000000E+00 0. -1.
         22    1    3    3    0    0 -0.25528033538E+02  0.52395410263E+02 -0.13759793659E+02  0.59885652994E+02  0.00000000000E+00 0. -1.
</event>
<event>
 7    1  0.6386201E-006  0.1654289E+03  0.7818608E-02  0.1361308E+00
          2   -1    0    0  502    0  0.00000000000E+00  0.00000000000E+00  0.21584790133E+04  0.21584790133E+04  0.00000000000E+00 0. -1.
          1   -1    0    0  501    0 -0.00000000000E+00 -0.00000000000E+00 -0.13825336145E+03  0.13825336145E+03  0.00000000000E+00 0. -1.
         25    2    1    2    0    0  0.12322579259E+03 -0.14768883017E+03  0.64727418572E+03  0.68672064975E+03  0.12499917112E+03 0.  0.
          2    1    1    2  501    0 -0.10651434641E+03  0.12359836391E+03 -0.62159387100E+02  0.17460140594E+03  0.00000000000E+00 0. -1.
          1    1    1    2  502    0 -0.16711446179E+02  0.24090466258E+02  0.14351108533E+04  0.14354103191E+04  0.00000000000E+00 0. -1.
         22    1    3    3    0    0  0.14287136816E+03 -0.10771843608E+03  0.57118996845E+03  0.59855949526E+03  0.00000000000E+00 0.  1.
         22    1    3    3    0    0 -0.19645575571E+02 -0.39970394093E+02  0.76084217271E+02  0.88161154491E+02  0.00000000000E+00 0.  1.
</event>
<event>
 7    1  0.6386201E-006  0.8921122E+02  0.7818608E-02  0.1462805E+00
          2   -1    0    0  502    0  0.00000000000E+00  0.00000000000E+00  0.32725321195E+02  0.32725321195E+02  0.00000000000E+00 0. -1.
          1   -1    0    0  501    0 -0.00000000000E+00 -0.00000000000E+00 -0.10066939306E+04  0.10066939306E+04  0.00000000000E+00 0. -1.
         25    2    1    2    0    0  0.33867148412E+01 -0.77155203997E+02 -0.29041200169E+03  0.32546639229E+03  0.12499938577E+03 0.  0.
          2    1    1    2  501    0 -0.17378225952E+02 -0.17493904641E+02 -0.54508141881E+03  0.54563888477E+03  0.00000000000E+00 0. -1.
          1    1    1    2  502    0  0.13991511111E+02  0.94649108638E+02 -0.13847518888E+03  0.16831397471E+03  0.00000000000E+00 0. -1.
         22    1    3    3    0    0  0.40589455820E+02 -0.85136256301E+02 -0.26055801157E+03  0.27710316392E+03  0.00000000000E+00 0.  1.
         22    1    3    3    0    0 -0.37202740978E+02  0.79810523044E+01 -0.29853990123E+02  0.48363228371E+02  0.00000000000E+00 0.  1.
</event>
<event>
 7    1  0.6386201E-006  0.4982075E+02  0.7818608E-02  0.1474686E+00
          2   -1    0    0  502    0  0.00000000000E+00  0.00000000000E+00  0.23206558339E+03  0.23206558339E+03  0.00000000000E+00 0. -1.
          1   -1    0    0  501    0 -0.00000000000E+00 -0.00000000000E+00 -0.19006312993E+04  0.19006312993E+04  0.00000000000E+00 0. -1.
         25    2    1    2    0    0 -0.51682182902E+02  0.95267409471E+01 -0.13385687595E+03  0.19053778551E+03  0.12500071057E+03 0.  0.
          2    1    1    2  501    0  0.27269114996E+02 -0.41899429150E+02 -0.17360531712E+04  0.17367728061E+04  0.00000000000E+00 0. -1.
          1    1    1    2  502    0  0.24413067906E+02  0.32372688203E+02  0.20134433126E+03  0.20538629106E+03  0.00000000000E+00 0. -1.
         22    1    3    3    0    0  0.32119472603E+01  0.12731823433E+02 -0.13490269194E+03  0.13554022364E+03  0.00000000000E+00 0. -1.
         22    1    3    3    0    0 -0.54894130162E+02 -0.32050824855E+01  0.10458159828E+01  0.54997561865E+02  0.00000000000E+00 0. -1.
</event>
<event>
 7    1  0.6386201E-006  0.9321409E+02  0.7818608E-02  0.1416841E+00
          2   -1    0    0  502    0  0.00000000000E+00  0.00000000000E+00  0.13978904449E+04  0.13978904449E+04  0.00000000000E+00 0. -1.
          1   -1    0    0  501    0 -0.00000000000E+00 -0.00000000000E+00 -0.20070550102E+04  0.20070550102E+04  0.00000000000E+00 0. -1.
         25    2    1    2    0    0  0.78786238853E+02 -0.97773841756E+02 -0.20301078605E+02  0.17834243530E+03  0.12500757926E+03 0.  0.
          2    1    1    2  501    0 -0.61832593683E+02  0.69138825213E+02 -0.19063955931E+04  0.19086507287E+04  0.00000000000E+00 0. -1.
          1    1    1    2  502    0 -0.16953645170E+02  0.28635016543E+02  0.13175321064E+04  0.13179522911E+04  0.00000000000E+00 0. -1.
         22    1    3    3    0    0  0.20772082238E+02  0.30064357805E+02 -0.80832459202E+01  0.37425711420E+02  0.00000000000E+00 0.  1.
         22    1    3    3    0    0  0.58014156616E+02 -0.12783819956E+03 -0.12217832685E+02  0.14091672388E+03  0.00000000000E+00 0.  1.
</event>
<event>
 7    1  0.6386201E-006  0.9320810E+02  0.7818608E-02  0.1388067E+00
          2   -1    0    0  502    0  0.00000000000E+00  0.00000000000E+00  0.10429697486E+04  0.10429697486E+04  0.00000000000E+00 0. -1.
          1   -1    0    0  501    0 -0.00000000000E+00 -0.00000000000E+00 -0.10574282492E+03  0.10574282492E+03  0.00000000000E+00 0. -1.
         25    2    1    2    0    0  0.54573424611E+01 -0.75165489644E+02  0.56889438534E+03  0.58732056046E+03  0.12499994258E+03 0.  0.
          2    1    1    2  501    0 -0.30290541201E+02 -0.28749038205E+02 -0.85499451341E+02  0.95153456393E+02  0.00000000000E+00 0. -1.
          1    1    1    2  502    0  0.24833198739E+02  0.10391452785E+03  0.45383198964E+03  0.46623855662E+03  0.00000000000E+00 0. -1.
         22    1    3    3    0    0 -0.10441811898E+02 -0.13985411754E+02  0.27626714574E+01  0.17670753555E+02  0.00000000000E+00 0. -1.
         22    1    3    3    0    0  0.15899154359E+02 -0.61180077890E+02  0.56613171388E+03  0.56964980690E+03  0.00000000000E+00 0. -1.
</event>
<event>
 7    1  0.6386201E-006  0.5464181E+02  0.7818608E-02  0.1496273E+00
          2   -1    0    0  502    0  0.00000000000E+00  0.00000000000E+00  0.80516472403E+03  0.80516472403E+03  0.00000000000E+00 0. -1.
          1   -1    0    0  501    0 -0.00000000000E+00 -0.00000000000E+00 -0.14234368689E+03  0.14234368689E+03  0.00000000000E+00 0. -1.
         25    2    1    2    0    0 -0.63208707873E+02 -0.35587393381E+01  0.74473213047E+02  0.15867218472E+03  0.12499038909E+03 0.  0.
          2    1    1    2  501    0  0.17572519459E+02 -0.26476001877E+02 -0.96610634244E+02  0.10170244227E+03  0.00000000000E+00 0. -1.
          1    1    1    2  502    0  0.45636188414E+02  0.30034741215E+02  0.68495845833E+03  0.68713378393E+03  0.00000000000E+00 0. -1.
         22    1    3    3    0    0  0.16050938420E+02 -0.41030905162E+02  0.52021202465E+02  0.68171645927E+02  0.00000000000E+00 0. -1.
         22    1    3    3    0    0 -0.79259646293E+02  0.37472165824E+02  0.22452010582E+02  0.90500538790E+02  0.00000000000E+00 0. -1.
</event>
<event>
 7    1  0.6386201E-006  0.1621808E+03  0.7818608E-02  0.1265854E+00
          2   -1    0    0  502    0  0.00000000000E+00  0.00000000000E+00  0.40685649305E+03  0.40685649305E+03  0.00000000000E+00 0. -1.
          1   -1    0    0  501    0 -0.00000000000E+00 -0.00000000000E+00 -0.20528397788E+04  0.20528397788E+04  0.00000000000E+00 0. -1.
         25    2    1    2    0    0  0.85754148823E+02 -0.19995301713E+03 -0.35456680889E+03  0.43437037393E+03  0.12500006671E+03 0.  0.
          2    1    1    2  501    0 -0.31717368871E+02  0.15412733306E+03 -0.16511753918E+04  0.16586565048E+04  0.00000000000E+00 0. -1.
          1    1    1    2  502    0 -0.54036779952E+02  0.45825684067E+02  0.35975891501E+03  0.36666939310E+03  0.00000000000E+00 0. -1.
         22    1    3    3    0    0  0.10611798018E+03 -0.19417369837E+03 -0.34765500289E+03  0.41210247741E+03  0.00000000000E+00 0.  1.
         22    1    3    3    0    0 -0.20363831358E+02 -0.57793187502E+01 -0.69118060079E+01  0.22267896513E+02  0.00000000000E+00 0.  1.
</event>
<event>
 7    1  0.6386201E-006  0.8059234E+02  0.7818608E-02  0.1411498E+00
          2   -1    0    0  502    0  0.00000000000E+00  0.00000000000E+00  0.22043629015E+04  0.22043629015E+04  0.00000000000E+00 0. -1.
          1   -1    0    0  501    0 -0.00000000000E+00 -0.00000000000E+00 -0.30793223941E+03  0.30793223941E+03  0.00000000000E+00 0. -1.
         25    2    1    2    0    0 -0.53458148800E+02 -0.54616974428E+02  0.24693775678E+03  0.28713269337E+03  0.12500456116E+03 0.  0.
          2    1    1    2  501    0  0.20950611782E+02  0.78126119538E+02 -0.28193974215E+03  0.29331320613E+03  0.00000000000E+00 0. -1.
          1    1    1    2  502    0  0.32507537018E+02 -0.23509145110E+02  0.19314326475E+04  0.19318492414E+04  0.00000000000E+00 0. -1.
         22    1    3    3    0    0  0.12145095035E+02  0.29305412229E+02  0.23101343602E+02  0.39242611987E+02  0.00000000000E+00 0. -1.
         22    1    3    3    0    0 -0.65603243835E+02 -0.83922386657E+02  0.22383641318E+03  0.24789008139E+03  0.00000000000E+00 0. -1.
</event>
<event>
 7    1  0.6386201E-006  0.4325901E+02  0.7818608E-02  0.1489875E+00
          2   -1    0    0  502    0  0.00000000000E+00  0.00000000000E+00  0.34199755819E+02  0.34199755819E+02  0.00000000000E+00 0. -1.
          1   -1    0    0  501    0 -0.00000000000E+00 -0.00000000000E+00 -0.20150444100E+04  0.20150444100E+04  0.00000000000E+00 0. -1.
         25    2    1    2    0    0 -0.22543638177E+02 -0.69657286638E+01 -0.42037210163E+03  0.43919790895E+03  0.12500144961E+03 0.  0.
          2    1    1    2  501    0  0.18372670037E+02 -0.37723857221E+02 -0.15644260572E+04  0.15649886686E+04  0.00000000000E+00 0. -1.
          1    1    1    2  502    0  0.41709681401E+01  0.44689585885E+02  0.39535046410E+01  0.45057588270E+02  0.00000000000E+00 0. -1.
         22    1    3    3    0    0  0.81733104894E+00  0.40303752228E+02 -0.34422608449E+03  0.34657850152E+03  0.00000000000E+00 0.  1.
         22    1    3    3    0    0 -0.23360969226E+02 -0.47269480892E+02 -0.76146017140E+02  0.92619407433E+02  0.00000000000E+00 0.  1.
</event>
<event>
 7    1  0.6386201E-006  0.1152205E+03  0.7818608E-02  0.1290312E+00
          2   -1    0    0  502    0  0.00000000000E+00  0.00000000000E+00  0.41196209602E+03  0.41196209602E+03  0.00000000000E+00 0. -1.
          1   -1    0    0  501    0 -0.00000000000E+00 -0.00000000000E+00 -0.41316726315E+03  0.41316726315E+03  0.00000000000E+00 0. -1.
         25    2    1    2    0    0 -0.69147257995E+02 -0.98988980760E+02  0.71367929610E+02  0.18788392367E+03  0.12500730297E+03 0.  0.
          2    1    1    2  501    0  0.11201039241E+03  0.32671247518E+02 -0.33944405945E+03  0.35893733146E+03  0.00000000000E+00 0. -1.
          1    1    1    2  502    0 -0.42863134417E+02  0.66317733242E+02  0.26687096271E+03  0.27830810403E+03  0.00000000000E+00 0. -1.
         22    1    3    3    0    0 -0.95201332662E+02 -0.59501835339E+02  0.13402166710E+02  0.11306361140E+03  0.00000000000E+00 0.  1.
         22    1    3    3    0    0  0.26054074667E+02 -0.39487145421E+02  0.57965762900E+02  0.74820312275E+02  0.00000000000E+00 0.  1.
</event>
<event>
 7    1  0.6386201E-006  0.6718212E+02  0.7818608E-02  0.1409867E+00
          2   -1    0    0  502    0  0.00000000000E+00  0.00000000000E+00  0.83293684028E+02  0.83293684028E+02  0.00000000000E+00 0. -1.
          1   -1    0    0  501    0 -0.00000000000E+00 -0.00000000000E+00 -0.50966304179E+03  0.50966304179E+03  0.00000000000E+00 0. -1.
         25    2    1    2    0    0  0.76152639316E+02  0.45623790539E+02 -0.30950048469E+02  0.15640981599E+03  0.12500148119E+03 0.  0.
          2    1    1    2  501    0 -0.29551810264E+02 -0.59909016525E+02 -0.37940707489E+03  0.38524294702E+03  0.00000000000E+00 0. -1.
          1    1    1    2  502    0 -0.46600829052E+02  0.14285225987E+02 -0.16012234405E+02  0.51303962815E+02  0.00000000000E+00 0. -1.
         22    1    3    3    0    0  0.25712953985E+02  0.85205427416E+02 -0.21927164278E+02  0.91661995380E+02  0.00000000000E+00 0.  1.
         22    1    3    3    0    0  0.50439685332E+02 -0.39581636877E+02 -0.90228841909E+01  0.64747820607E+02  0.00000000000E+00 0.  1.
</event>
<event>
 7    1  0.6386201E-006  0.1984077E+03  0.7818608E-02  0.1201729E+00
          2   -1    0    0  502    0  0.00000000000E+00  0.00000000000E+00  0.58227597133E+03  0.58227597133E+03  0.00000000000E+00 0. -1.
          1   -1    0    0  501    0 -0.00000000000E+00 -0.00000000000E+00 -0.11363545958E+04  0.11363545958E+04  0.00000000000E+00 0. -1.
         25    2    1    2    0    0  0.14617577541E+03  0.19657263167E+03 -0.29432372128E+03  0.40281557308E+03  0.12500310465E+03 0.  0.
          2    1    1    2  501    0  0.29939619415E+02 -0.10778905657E+03 -0.76515750832E+03  0.77329223070E+03  0.00000000000E+00 0. -1.
          1    1    1    2  502    0 -0.17611539483E+03 -0.88783575099E+02  0.50540260511E+03  0.54252276335E+03  0.00000000000E+00 0. -1.
         22    1    3    3    0    0  0.41785825813E+02  0.47180910540E+01 -0.81821310688E+01  0.42839968381E+02  0.00000000000E+00 0. -1.
         22    1    3    3    0    0  0.10438994960E+03  0.19185454062E+03 -0.28614159021E+03  0.35997560470E+03  0.00000000000E+00 0. -1.
</event>
<event>
 7    1  0.6386201E-006  0.1472593E+03  0.7818608E-02  0.1242465E+00
          2   -1    0    0  502    0  0.00000000000E+00  0.00000000000E+00  0.16100726750E+04  0.16100726750E+04  0.00000000000E+00 0. -1.
          1   -1    0    0  501    0 -0.00000000000E+00 -0.00000000000E+00 -0.56325666089E+03  0.56325666089E+03  0.00000000000E+00 0. -1.
         25    2    1    2    0    0 -0.91541096701E+02  0.21854194524E+03 -0.28314995619E+02  0.26939088689E+03  0.12501742577E+03 0.  0.
          2    1    1    2  501    0  0.56340259457E+02 -0.12663971478E+03 -0.40112933936E+03  0.42440144803E+03  0.00000000000E+00 0. -1.
          1    1    1    2  502    0  0.35200837244E+02 -0.91902230461E+02  0.14762603491E+04  0.14795370010E+04  0.00000000000E+00 0. -1.
         22    1    3    3    0    0 -0.48574231204E+02  0.21030480168E+03 -0.48478286016E+02  0.22121869217E+03  0.00000000000E+00 0. -1.
         22    1    3    3    0    0 -0.42966865497E+02  0.82371435544E+01  0.20163290397E+02  0.48172194721E+02  0.00000000000E+00 0. -1.
</event>
<event>
 7    1  0.6386201E-006  0.1405516E+03  0.7818608E-02  0.1421802E+00
          2   -1    0    0  502    0  0.00000000000E+00  0.00000000000E+00  0.35794788064E+03  0.35794788064E+03  0.00000000000E+00 0. -1.
          1   -1    0    0  501    0 -0.00000000000E+00 -0.00000000000E+00 -0.30507594388E+03  0.30507594388E+03  0.00000000000E+00 0. -1.
         25    2    1    2    0    0 -0.92535383044E+02 -0.97626414127E+02  0.42274928990E+02  0.18843106683E+03  0.12500153389E+03 0.  0.
          2    1    1    2  501    0  0.11141794362E+03  0.87895166804E+02 -0.20973689785E+03  0.25323721059E+03  0.00000000000E+00 0. -1.
          1    1    1    2  502    0 -0.18882560576E+02  0.97312473232E+01  0.22033390561E+03  0.22135554710E+03  0.00000000000E+00 0. -1.
         22    1    3    3    0    0 -0.92806217562E+01 -0.11686477212E+02  0.64954592508E+02  0.66646851221E+02  0.00000000000E+00 0. -1.
         22    1    3    3    0    0 -0.83254761287E+02 -0.85939936915E+02 -0.22679663518E+02  0.12178421561E+03  0.00000000000E+00 0. -1.
</event>
<event>
 7    1  0.6386201E-006  0.1487777E+03  0.7818608E-02  0.1267498E+00
          2   -1    0    0  502    0  0.00000000000E+00  0.00000000000E+00  0.49104498870E+03  0.49104498870E+03  0.00000000000E+00 0. -1.
          1   -1    0    0  501    0 -0.00000000000E+00 -0.00000000000E+00 -0.41836352381E+03  0.41836352381E+03  0.00000000000E+00 0. -1.
         25    2    1    2    0    0  0.82676367627E+02  0.15607088165E+03 -0.22040274980E+03  0.30886015903E+03  0.12499489531E+03 0.  0.
          2    1    1    2  501    0 -0.10606647746E+03 -0.83749222680E+02 -0.11987693089E+03  0.18065023803E+03  0.00000000000E+00 0. -1.
          1    1    1    2  502    0  0.23390109830E+02 -0.72321658970E+02  0.41296114558E+03  0.41989811545E+03  0.00000000000E+00 0. -1.
         22    1    3    3    0    0  0.40365258890E+02  0.10320702767E+03 -0.21381707444E+03  0.24082937115E+03  0.00000000000E+00 0.  1.
         22    1    3    3    0    0  0.42311108737E+02  0.52863853983E+02 -0.65856753636E+01  0.68030787887E+02  0.00000000000E+00 0.  1.
</event>
<event>
 7    1  0.6386201E-006  0.4250569E+02  0.7818608E-02  0.1494472E+00
          2   -1    0    0  502    0  0.00000000000E+00  0.00000000000E+00  0.34693219729E+03  0.34693219729E+03  0.00000000000E+00 0. -1.
          1   -1    0    0  501    0 -0.00000000000E+00 -0.00000000000E+00 -0.19414325023E+04  0.19414325023E+04  0.00000000000E+00 0. -1.
         25    2    1    2    0    0  0.79714797266E+02 -0.25158885954E+02 -0.40552566323E+03  0.43250777153E+03  0.12499796179E+03 0.  0.
          2    1    1    2  501    0 -0.38632959924E+02  0.14774241037E+02 -0.15207872342E+04  0.15213495967E+04  0.00000000000E+00 0. -1.
          1    1    1    2  502    0 -0.41081837342E+02  0.10384644917E+02  0.33181259243E+03  0.33450733131E+03  0.00000000000E+00 0. -1.
         22    1    3    3    0    0 -0.10073880022E+02 -0.71815269116E+01  0.38961460533E+01  0.12970633814E+02  0.00000000000E+00 0. -1.
         22    1    3    3    0    0  0.89788677288E+02 -0.17977359042E+02 -0.40942180928E+03  0.41953713771E+03  0.00000000000E+00 0. -1.
</event>
<event>
 7    1  0.6386201E-006  0.7097920E+02  0.7818608E-02  0.1474032E+00
          2   -1    0    0  502    0  0.00000000000E+00  0.00000000000E+00  0.48872948927E+04  0.48872948927E+04  0.00000000000E+00 0. -1.
          1   -1    0    0  501    0 -0.00000000000E+00 -0.00000000000E+00 -0.13528573360E+04  0.13528573360E+04  0.00000000000E+00 0. -1.
         25    2    1    2    0    0  0.82416820945E+02  0.39689035645E+01  0.61786491824E+03  0.63575971489E+03  0.12500029326E+03 0.  0.
          2    1    1    2  501    0 -0.14713590373E+02 -0.24516111759E+02 -0.13434640724E+04  0.13437682997E+04  0.00000000000E+00 0. -1.
          1    1    1    2  502    0 -0.67703230572E+02  0.20547208195E+02  0.42600367109E+04  0.42606242141E+04  0.00000000000E+00 0. -1.
         22    1    3    3    0    0  0.84034309322E+02  0.27267953423E+02  0.59969831430E+03  0.60617107701E+03  0.00000000000E+00 0. -1.
         22    1    3    3    0    0 -0.16174883773E+01 -0.23299049859E+02  0.18166603938E+02  0.29588637881E+02  0.00000000000E+00 0. -1.
</event>
<event>
 7    1  0.6386201E-006  0.3465899E+02  0.7818608E-02  0.1559166E+00
          2   -1    0    0  502    0  0.00000000000E+00  0.00000000000E+00  0.13609022854E+02  0.13609022854E+02  0.00000000000E+00 0. -1.
          1   -1    0    0  501    0 -0.00000000000E+00 -0.00000000000E+00 -0.12267180371E+04  0.12267180371E+04  0.00000000000E+00 0. -1.
         25    2    1    2    0    0  0.28586019893E+02  0.27321321296E+02 -0.55932102594E+03  0.57448082394E+03  0.12499836753E+03 0.  0.
          2    1    1    2  501    0 -0.32037093102E+02  0.80666056983E+01 -0.60269098101E+03  0.60359577869E+03  0.00000000000E+00 0. -1.
          1    1    1    2  502    0  0.34510732093E+01 -0.35387926994E+02 -0.51097007334E+02  0.62250457362E+02  0.00000000000E+00 0. -1.
         22    1    3    3    0    0  0.31253398671E+01  0.76473622562E+00  0.66119688081E+01  0.73532783368E+01  0.00000000000E+00 0. -1.
         22    1    3    3    0    0  0.25460680026E+02  0.26556585070E+02 -0.56593299475E+03  0.56712754560E+03  0.00000000000E+00 0. -1.
</event>
<event>
 7    1  0.6386201E-006  0.5033794E+02  0.7818608E-02  0.1500293E+00
          2   -1    0    0  502    0  0.00000000000E+00  0.00000000000E+00  0.25293897317E+03  0.25293897317E+03  0.00000000000E+00 0. -1.
          1   -1    0    0  501    0 -0.00000000000E+00 -0.00000000000E+00 -0.81588887659E+03  0.81588887659E+03  0.00000000000E+00 0. -1.
         25    2    1    2    0    0  0.25667043703E+02  0.13819035916E+02 -0.44171387250E+03  0.45998212112E+03  0.12499057450E+03 0.  0.
          2    1    1    2  501    0  0.23883276802E+02 -0.23565115087E+02 -0.36164096277E+03  0.36319404113E+03  0.00000000000E+00 0. -1.
          1    1    1    2  502    0 -0.49550320505E+02  0.97460791710E+01  0.24040493185E+03  0.24565168751E+03  0.00000000000E+00 0. -1.
         22    1    3    3    0    0  0.74859406495E+02 -0.64140032575E+01 -0.25457411816E+03  0.26542993768E+03  0.00000000000E+00 0.  1.
         22    1    3    3    0    0 -0.49192362792E+02  0.20233039174E+02 -0.18713975433E+03  0.19455218344E+03  0.00000000000E+00 0.  1.
</event>
<event>
 7    1  0.6386201E-006  0.3364116E+02  0.7818608E-02  0.1577923E+00
          2   -1    0    0  502    0  0.00000000000E+00  0.00000000000E+00  0.18060399190E+04  0.18060399190E+04  0.00000000000E+00 0. -1.
          1   -1    0    0  501    0 -0.00000000000E+00 -0.00000000000E+00 -0.12003056069E+03  0.12003056069E+03  0.00000000000E+00 0. -1.
         25    2    1    2    0    0  0.23502930656E+02  0.57567594089E+01  0.59699549622E+03  0.61042135187E+03  0.12500030515E+03 0.  0.
          2    1    1    2  501    0 -0.13391222119E+02  0.27137088476E+02 -0.11104626091E+03  0.11509569264E+03  0.00000000000E+00 0. -1.
          1    1    1    2  502    0 -0.10111708536E+02 -0.32893847885E+02  0.12000601231E+04  0.12005534352E+04  0.00000000000E+00 0. -1.
         22    1    3    3    0    0  0.23123960388E+01 -0.12540526817E+02  0.57413543519E+03  0.57427703239E+03  0.00000000000E+00 0. -1.
         22    1    3    3    0    0  0.21190534617E+02  0.18297286225E+02  0.22860061027E+02  0.36144319481E+02  0.00000000000E+00 0. -1.
</event>
<event>
 7    1  0.6386201E-006  0.1012222E+03  0.7818608E-02  0.1291372E+00
          2   -1    0    0  502    0  0.00000000000E+00  0.00000000000E+00  0.34557464894E+04  0.34557464894E+04  0.00000000000E+00 0. -1.
          1   -1    0    0  501    0 -0.00000000000E+00 -0.00000000000E+00 -0.91812716712E+02  0.91812716712E+02  0.00000000000E+00 0. -1.
         25    2    1    2    0    0 -0.12208726031E+03  0.14185983067E+03  0.40414330372E+03  0.46258374208E+03  0.12498959081E+03 0.  0.
          2    1    1    2  501    0  0.51818064612E+02 -0.72355523469E+02 -0.29722681222E+02  0.93828947429E+02  0.00000000000E+00 0. -1.
          1    1    1    2  502    0  0.70269195699E+02 -0.69504307204E+02  0.29895131502E+04  0.29911465166E+04  0.00000000000E+00 0. -1.
         22    1    3    3    0    0  0.26075107219E+02  0.23789324414E+02  0.55015983588E+02  0.65365140731E+02  0.00000000000E+00 0.  1.
         22    1    3    3    0    0 -0.14816236753E+03  0.11807050626E+03  0.34912732013E+03  0.39721860135E+03  0.00000000000E+00 0.  1.
</event>
<event>
 7    1  0.6386201E-006  0.2080793E+03  0.7818608E-02  0.1247259E+00
          2   -1    0    0  502    0  0.00000000000E+00  0.00000000000E+00  0.26494775609E+04  0.26494775609E+04  0.00000000000E+00 0. -1.
          1   -1    0    0  501    0 -0.00000000000E+00 -0.00000000000E+00 -0.19470208177E+04  0.19470208177E+04  0.00000000000E+00 0. -1.
         25    2    1    2    0    0  0.64380072972E+02 -0.15048379170E+03  0.12947568407E+03  0.24326635134E+03  0.12499759825E+03 0.  0.
          2    1    1    2  501    0  0.63756138662E+02 -0.18421520352E+02 -0.18849783511E+04  0.18861462250E+04  0.00000000000E+00 0. -1.
          1    1    1    2  502    0 -0.12813621163E+03  0.16890531205E+03  0.24579594103E+04  0.24670858023E+04  0.00000000000E+00 0. -1.
         22    1    3    3    0    0  0.37218120014E+02  0.18042449602E+00  0.69511986840E+02  0.78848825767E+02  0.00000000000E+00 0.  1.
         22    1    3    3    0    0  0.27161952958E+02 -0.15066421620E+03  0.59963697233E+02  0.16441752558E+03  0.00000000000E+00 0.  1.
</event>
<event>
 7    1  0.6386201E-006  0.1282046E+03  0.7818608E-02  0.1252190E+00
          2   -1    0    0  502    0  0.00000000000E+00  0.00000000000E+00  0.13575020991E+04  0.13575020991E+04  0.00000000000E+00 0. -1.
          1   -1    0    0  501    0 -0.00000000000E+00 -0.00000000000E+00 -0.33893876952E+03  0.33893876952E+03  0.00000000000E+00 0. -1.
         25    2    1    2    0    0  0.10561196216E+03  0.59948774856E+01  0.47684314605E+01  0.16382311732E+03  0.12500180287E+03 0.  0.
          2    1    1    2  501    0 -0.16096238203E+02 -0.10125996009E+03 -0.24576362215E+03  0.26629387220E+03  0.00000000000E+00 0. -1.
          1    1    1    2  502    0 -0.89515723958E+02  0.95265082600E+02  0.12595585203E+04  0.12663238791E+04  0.00000000000E+00 0. -1.
         22    1    3    3    0    0  0.11569356600E+03  0.43660065277E+02  0.11740105447E+02  0.12421365701E+03  0.00000000000E+00 0. -1.
         22    1    3    3    0    0 -0.10081603835E+02 -0.37665187792E+02 -0.69716739867E+01  0.39609460302E+02  0.00000000000E+00 0. -1.
</event>
<event>
 7    1  0.6386201E-006  0.5961578E+02  0.7818608E-02  0.1436582E+00
          2   -1    0    0  502    0  0.00000000000E+00  0.00000000000E+00  0.18139227662E+04  0.18139227662E+04  0.00000000000E+00 0. -1.
          1   -1    0    0  501    0 -0.00000000000E+00 -0.00000000000E+00 -0.23352647583E+04  0.23352647583E+04  0.00000000000E+00 0. -1.
         25    2    1    2    0    0  0.99240001905E+01  0.43244891362E+02  0.14325768215E+04  0.14387040769E+04  0.12499785952E+03 0.  0.
          2    1    1    2  501    0 -0.16156172641E+02  0.41751053784E+02 -0.23271830309E+04  0.23276135916E+04  0.00000000000E+00 0. -1.
          1    1    1    2  502    0  0.62321724500E+01 -0.84995945146E+02  0.37326421734E+03  0.38286985597E+03  0.00000000000E+00 0. -1.
         22    1    3    3    0    0 -0.44100197338E+02  0.54462821147E+02  0.55712288436E+03  0.56151307605E+03  0.00000000000E+00 0. -1.
         22    1    3    3    0    0  0.54024197528E+02 -0.11217929785E+02  0.87545393717E+03  0.87719100085E+03  0.00000000000E+00 0. -1.
</event>
<event>
 7    1  0.6386201E-006  0.5561677E+02  0.7818608E-02  0.1443214E+00
          2   -1    0    0  502    0  0.00000000000E+00  0.00000000000E+00  0.50652766208E+03  0.50652766208E+03  0.00000000000E+00 0. -1.
          1   -1    0    0  501    0 -0.00000000000E+00 -0.00000000000E+00 -0.33880458261E+03  0.33880458261E+03  0.00000000000E+00 0. -1.
         25    2    1    2    0    0  0.39107300080E+02 -0.36133695736E+02  0.35004521770E+03  0.37548978538E+03  0.12500359836E+03 0.  0.
          2    1    1    2  501    0  0.23876155791E+02  0.38927688893E+02 -0.31745687653E+03  0.32072465486E+03  0.00000000000E+00 0. -1.
          1    1    1    2  502    0 -0.62983455870E+02 -0.27939931572E+01  0.13513473829E+03  0.14911780445E+03  0.00000000000E+00 0. -1.
         22    1    3    3    0    0  0.55758920098E+02  0.27929237313E+02  0.10960150575E+03  0.12610150487E+03  0.00000000000E+00 0.  1.
         22    1    3    3    0    0 -0.16651620019E+02 -0.64062933049E+02  0.24044371196E+03  0.24938828052E+03  0.00000000000E+00 0.  1.
</event>
<event>
 7    1  0.6386201E-006  0.4754208E+02  0.7818608E-02  0.1467831E+00
          2   -1    0    0  502    0  0.00000000000E+00  0.00000000000E+00  0.20979093959E+04  0.20979093959E+04  0.00000000000E+00 0. -1.
          1   -1    0    0  501    0 -0.00000000000E+00 -0.00000000000E+00 -0.27131907821E+02  0.27131907821E+02  0.00000000000E+00 0. -1.
         25    2    1    2    0    0  0.12840730500E+02  0.23067781659E+01  0.80730747081E+03  0.81703208041E+03  0.12500344958E+03 0.  0.
          2    1    1    2  501    0  0.59721941607E+01 -0.47165474034E+02  0.41201867566E+01  0.47720278529E+02  0.00000000000E+00 0. -1.
          1    1    1    2  502    0 -0.18812924661E+02  0.44858695869E+02  0.12593498305E+04  0.12602889448E+04  0.00000000000E+00 0. -1.
         22    1    3    3    0    0 -0.18884583136E+02 -0.55519907171E+02  0.43373799823E+03  0.43768451959E+03  0.00000000000E+00 0. -1.
         22    1    3    3    0    0  0.31725313636E+02  0.57826685337E+02  0.37356947258E+03  0.37934756082E+03  0.00000000000E+00 0. -1.
</event>
<event>
 7    1  0.6386201E-006  0.8201220E+02  0.7818608E-02  0.1324865E+00
          2   -1    0    0  502    0  0.00000000000E+00  0.00000000000E+00  0.75310131788E+03  0.75310131788E+03  0.00000000000E+00 0. -1.
          1   -1    0    0  501    0 -0.00000000000E+00 -0.00000000000E+00 -0.98256865635E+03  0.98256865635E+03  0.00000000000E+00 0. -1.
         25    2    1    2    0    0  0.58488122234E+02  0.52295405792E+02  0.32141566457E+03  0.35367906687E+03  0.12500073202E+03 0.  0.
          2    1    1    2  501    0  0.17472162534E+02 -0.80359458953E+02 -0.96071849096E+03  0.96423178644E+03  0.00000000000E+00 0. -1.
          1    1    1    2  502    0 -0.75960284768E+02  0.28064053161E+02  0.40983548793E+03  0.41775912091E+03  0.00000000000E+00 0. -1.
         22    1    3    3    0    0 -0.38362830901E+02  0.27083020583E+02  0.11724456862E+03  0.12629919109E+03  0.00000000000E+00 0.  1.
         22    1    3    3    0    0  0.96850953134E+02  0.25212385209E+02  0.20417109594E+03  0.22737987578E+03  0.00000000000E+00 0.  1.
</event>
<event>
 7    1  0.6386201E-006  0.1060957E+03  0.7818608E-02  0.1393302E+00
          2   -1    0    0  502    0  0.00000000000E+00  0.00000000000E+00  0.27467729960E+04  0.27467729960E+04  0.00000000000E+00 0. -1.
          1   -1    0    0  501    0 -0.00000000000E+00 -0.00000000000E+00 -0.14406399894E+04  0.14406399894E+04  0.00000000000E+00 0. -1.
         25    2    1    2    0    0  0.11309155890E+03  0.73983182644E+02  0.14648718438E+04  0.14763928647E+04  0.12499264085E+03 0.  0.
          2    1    1    2  501    0 -0.77974857370E+02 -0.71892417976E+02 -0.14326764829E+04  0.14365968477E+04  0.00000000000E+00 0. -1.
          1    1    1    2  502    0 -0.35116701530E+02 -0.20907646679E+01  0.12739376457E+04  0.12744232731E+04  0.00000000000E+00 0. -1.
         22    1    3    3    0    0 -0.14241323945E+01 -0.29279902284E+02  0.27971648624E+03  0.28124838401E+03  0.00000000000E+00 0.  1.
         22    1    3    3    0    0  0.11451569129E+03  0.10326308493E+03  0.11851553576E+04  0.11951444807E+04  0.00000000000E+00 0.  1.
</event>
<event>
 7    1  0.6386201E-006  0.5612196E+02  0.7818608E-02  0.1485983E+00
          2   -1    0    0  502    0  0.00000000000E+00  0.00000000000E+00  0.14226937546E+04  0.14226937546E+04  0.00000000000E+00 0. -1.
          1   -1    0    0  501    0 -0.00000000000E+00 -0.00000000000E+00 -0.15945848525E+03  0.15945848525E+03  0.00000000000E+00 0. -1.
         25    2    1    2    0    0 -0.22941789778E+02  0.76367440460E+01  0.12810022223E+03  0.18060824943E+03  0.12500010900E+03 0.  0.
          2    1    1    2  501    0  0.54843312633E+02 -0.16954211093E+02 -0.12679097714E+03  0.13918040846E+03  0.00000000000E+00 0. -1.
          1    1    1    2  502    0 -0.31901522855E+02  0.93174670472E+01  0.12619260242E+04  0.12623635819E+04  0.00000000000E+00 0. -1.
         22    1    3    3    0    0  0.15552419505E+02  0.37237366535E+02  0.12566766044E+03  0.13198810590E+03  0.00000000000E+00 0. -1.
         22    1    3    3    0    0 -0.38494209282E+02 -0.29600622489E+02  0.24325617898E+01  0.48620143530E+02  0.00000000000E+00 0. -1.
</event>
<event>
 7    1  0.6386201E-006  0.1184684E+03  0.7818608E-02  0.1285835E+00
          2   -1    0    0  502    0  0.00000000000E+00  0.00000000000E+00  0.44081202279E+04  0.44081202279E+04  0.00000000000E+00 0. -1.
          1   -1    0    0  501    0 -0.00000000000E+00 -0.00000000000E+00 -0.99442647175E+02  0.99442647175E+02  0.00000000000E+00 0. -1.
         25    2    1    2    0    0 -0.16292194649E+03 -0.48458743637E+01  0.52320605999E+02  0.21196887220E+03  0.12500525519E+03 0.  0.
          2    1    1    2  501    0  0.85328353807E+02 -0.15025230040E+02  0.78332522694E+02  0.11680183908E+03  0.00000000000E+00 0. -1.
          1    1    1    2  502    0  0.77593592680E+02  0.19871104403E+02  0.41780244521E+04  0.41787921638E+04  0.00000000000E+00 0. -1.
         22    1    3    3    0    0 -0.10247331728E+02  0.40421777289E+01 -0.34426693206E+02  0.36146150742E+02  0.00000000000E+00 0. -1.
         22    1    3    3    0    0 -0.15267461476E+03 -0.88880520925E+01  0.86747299205E+02  0.17582272146E+03  0.00000000000E+00 0. -1.
</event>
<event>
 7    1  0.6386201E-006  0.1733171E+03  0.7818608E-02  0.1353328E+00
          2   -1    0    0  502    0  0.00000000000E+00  0.00000000000E+00  0.14613563050E+04  0.14613563050E+04  0.00000000000E+00 0. -1.
          1   -1    0    0  501    0 -0.00000000000E+00 -0.00000000000E+00 -0.50333931172E+03  0.50333931172E+03  0.00000000000E+00 0. -1.
         25    2    1    2    0    0 -0.39626088285E+02  0.17762027951E+03  0.16230557785E+03  0.27402111328E+03  0.12500111741E+03 0.  0.
          2    1    1    2  501    0  0.10129159768E+02 -0.17252306664E+03 -0.43060603090E+03  0.46399176959E+03  0.00000000000E+00 0. -1.
          1    1    1    2  502    0  0.29496928517E+02 -0.50972128758E+01  0.12263174463E+04  0.12266827338E+04  0.00000000000E+00 0. -1.
         22    1    3    3    0    0 -0.12287332718E+02  0.47945775870E+01 -0.18299048479E+02  0.22557076379E+02  0.00000000000E+00 0.  1.
         22    1    3    3    0    0 -0.27338755567E+02  0.17282570193E+03  0.18060462633E+03  0.25146403690E+03  0.00000000000E+00 0.  1.
</event>
<event>
 7    1  0.6386201E-006  0.4763165E+02  0.7818608E-02  0.1489502E+00
          2   -1    0    0  502    0  0.00000000000E+00  0.00000000000E+00  0.31215563086E+04  0.31215563086E+04  0.00000000000E+00 0. -1.
          1   -1    0    0  501    0 -0.00000000000E+00 -0.00000000000E+00 -0.43109744540E+03  0.43109744540E+03  0.00000000000E+00 0. -1.
         25    2    1    2    0    0  0.10524663372E+02  0.41957443055E+02  0.18237865644E+04  0.18285769586E+04  0.12500026166E+03 0.  0.
          2    1    1    2  501    0 -0.38195622136E+02  0.93862642618E+00 -0.42734673845E+03  0.42905130397E+03  0.00000000000E+00 0. -1.
          1    1    1    2  502    0  0.27670958764E+02 -0.42896069482E+02  0.12940190372E+04  0.12950254914E+04  0.00000000000E+00 0. -1.
         22    1    3    3    0    0 -0.43634176274E+02  0.22070825061E+02  0.32286091849E+03  0.32654285376E+03  0.00000000000E+00 0. -1.
         22    1    3    3    0    0  0.54158839646E+02  0.19886617994E+02  0.15009256459E+04  0.15020341048E+04  0.00000000000E+00 0. -1.
</event>
<event>
 7    1  0.8674326E-006  0.7794389E+02  0.7818608E-02  0.1376762E+00
          2   -1    0    0  502    0  0.00000000000E+00  0.00000000000E+00  0.25344583911E+04  0.25344583911E+04  0.00000000000E+00 0. -1.
          1   -1    0    0  501    0 -0.00000000000E+00 -0.00000000000E+00 -0.14684366241E+04  0.14684366241E+04  0.00000000000E+00 0. -1.
         25    2    1    2    0    0 -0.10086214659E+03  0.42477375972E+02 -0.16006350566E+03  0.23070094053E+03  0.12500039212E+03 0.  0.
          2    1    1    2  501    0  0.51719495720E+02  0.17947743485E+02 -0.12718585983E+04  0.12730362610E+04  0.00000000000E+00 0. -1.
          1    1    1    2  502    0  0.49142650870E+02 -0.60425119457E+02  0.24979438709E+04  0.24991578137E+04  0.00000000000E+00 0. -1.
         22    1    3    3    0    0 -0.23760115473E+02 -0.40845348458E+02 -0.22478118476E+02  0.52327348377E+02  0.00000000000E+00 0. -1.
         22    1    3    3    0    0 -0.77102031118E+02  0.83322724430E+02 -0.13758538719E+03  0.17837359215E+03  0.00000000000E+00 0. -1.
</event>
<event>
 7    1  0.6386201E-006  0.5408049E+02  0.7818608E-02  0.1447376E+00
          2   -1    0    0  502    0  0.00000000000E+00  0.00000000000E+00  0.19571672981E+04  0.19571672981E+04  0.00000000000E+00 0. -1.
          1   -1    0    0  501    0 -0.00000000000E+00 -0.00000000000E+00 -0.68994710898E+03  0.68994710898E+03  0.00000000000E+00 0. -1.
         25    2    1    2    0    0  0.75369338340E+02  0.54662190073E+02  0.11890907054E+03  0.19604482092E+03  0.12500285024E+03 0.  0.
          2    1    1    2  501    0 -0.31113921959E+02 -0.43938369639E+02 -0.64997801430E+03  0.65220401374E+03  0.00000000000E+00 0. -1.
          1    1    1    2  502    0 -0.44255416381E+02 -0.10723820434E+02  0.17982891329E+04  0.17988655724E+04  0.00000000000E+00 0. -1.
         22    1    3    3    0    0 -0.13084690623E+01  0.75862129895E+02  0.50712675914E+02  0.91260891635E+02  0.00000000000E+00 0. -1.
         22    1    3    3    0    0  0.76677807402E+02 -0.21199939822E+02  0.68196394630E+02  0.10478392929E+03  0.00000000000E+00 0. -1.
</event>
<event>
 7    1  0.6386201E-006  0.1037794E+03  0.7818608E-02  0.1357289E+00
          2   -1    0    0  502    0  0.00000000000E+00  0.00000000000E+00  0.14540783535E+04  0.14540783535E+04  0.00000000000E+00 0. -1.
          1   -1    0    0  501    0 -0.00000000000E+00 -0.00000000000E+00 -0.28271240975E+03  0.28271240975E+03  0.00000000000E+00 0. -1.
         25    2    1    2    0    0 -0.21379764905E+02  0.75522421967E+02 -0.95892393876E+02  0.17601054843E+03  0.12499452544E+03 0.  0.
          2    1    1    2  501    0  0.35000166980E+01 -0.12043792424E+03 -0.12153937214E+03  0.17114135296E+03  0.00000000000E+00 0. -1.
          1    1    1    2  502    0  0.17879748207E+02  0.44915502269E+02  0.13887977098E+04  0.13896388619E+04  0.00000000000E+00 0. -1.
         22    1    3    3    0    0  0.49795284941E+02  0.14655878903E+02 -0.48546317461E+02  0.71071162420E+02  0.00000000000E+00 0. -1.
         22    1    3    3    0    0 -0.71175049845E+02  0.60866543065E+02 -0.47346076415E+02  0.10493938601E+03  0.00000000000E+00 0. -1.
</event>
<event>
 7    1  0.6386201E-006  0.1021071E+03  0.7818608E-02  0.1385280E+00
          2   -1    0    0  502    0  0.00000000000E+00  0.00000000000E+00  0.40041922126E+03  0.40041922126E+03  0.00000000000E+00 0. -1.
          1   -1    0    0  501    0 -0.00000000000E+00 -0.00000000000E+00 -0.12369322010E+03  0.12369322010E+03  0.00000000000E+00 0. -1.
         25    2    1    2    0    0 -0.73876691880E+02  0.44817675843E+02  0.28211614550E+03  0.32043867305E+03  0.12500013586E+03 0.  0.
          2    1    1    2  501    0  0.63485658681E+02 -0.82396982991E+02 -0.71990320160E+02  0.12650018917E+03  0.00000000000E+00 0. -1.
          1    1    1    2  502    0  0.10391033199E+02  0.37579307149E+02  0.66600175828E+02  0.77173579138E+02  0.00000000000E+00 0. -1.
         22    1    3    3    0    0 -0.90645722047E+02  0.73852017719E+02  0.19888133587E+03  0.23070447157E+03  0.00000000000E+00 0. -1.
         22    1    3    3    0    0  0.16769030167E+02 -0.29034341876E+02  0.83234809625E+02  0.89734201475E+02  0.00000000000E+00 0. -1.
</event>
<event>
 7    1  0.6386201E-006  0.1131741E+03  0.7818608E-02  0.1327001E+00
          2   -1    0    0  502    0  0.00000000000E+00  0.00000000000E+00  0.51294499942E+03  0.51294499942E+03  0.00000000000E+00 0. -1.
          1   -1    0    0  501    0 -0.00000000000E+00 -0.00000000000E+00 -0.34617664966E+03  0.34617664966E+03  0.00000000000E+00 0. -1.
         25    2    1    2    0    0 -0.15260346091E+02  0.90181212086E+02  0.69803499138E+00  0.15488945621E+03  0.12499890886E+03 0.  0.
          2    1    1    2  501    0 -0.37926655322E+02 -0.11224679013E+03 -0.25397845451E+03  0.28025493472E+03  0.00000000000E+00 0. -1.
          1    1    1    2  502    0  0.53187001413E+02  0.22065578047E+02  0.42004876928E+03  0.42397725815E+03  0.00000000000E+00 0. -1.
         22    1    3    3    0    0  0.24348622455E+02  0.10725124974E+03 -0.10053383841E+02  0.11043892662E+03  0.00000000000E+00 0.  1.
         22    1    3    3    0    0 -0.39608968546E+02 -0.17070037650E+02  0.10751418832E+02  0.44450529598E+02  0.00000000000E+00 0.  1.
</event>
<event>
 7    1  0.6386201E-006  0.1235515E+03  0.7818608E-02  0.1304525E+00
          2   -1    0    0  502    0  0.00000000000E+00  0.00000000000E+00  0.23541542741E+04  0.23541542741E+04  0.00000000000E+00 0. -1.
          1   -1    0    0  501    0 -0.00000000000E+00 -0.00000000000E+00 -0.29622763854E+03  0.29622763854E+03  0.00000000000E+00 0. -1.
         25    2    1    2    0    0  0.91987326915E+02  0.51121947926E+02 -0.10416609675E+03  0.19378560722E+03  0.12500865563E+03 0.  0.
          2    1    1    2  501    0 -0.14214996577E+03 -0.10477466831E+02 -0.11219343846E+03  0.18139392965E+03  0.00000000000E+00 0. -1.
          1    1    1    2  502    0  0.50162638854E+02 -0.40644481095E+02  0.22742861708E+04  0.22752023758E+04  0.00000000000E+00 0. -1.
         22    1    3    3    0    0  0.99111400995E+02  0.41259437273E+02 -0.20570682093E+02  0.10930948693E+03  0.00000000000E+00 0.  1.
         22    1    3    3    0    0 -0.71240740805E+01  0.98625106534E+01 -0.83595414655E+02  0.84476120290E+02  0.00000000000E+00 0.  1.
</event>
<event>
 7    1  0.6386201E-006  0.1243457E+03  0.7818608E-02  0.1361434E+00
          2   -1    0    0  502    0  0.00000000000E+00  0.00000000000E+00  0.15200729577E+04  0.15200729577E+04  0.00000000000E+00 0. -1.
          1   -1    0    0  501    0 -0.00000000000E+00 -0.00000000000E+00 -0.19905029324E+03  0.19905029324E+03  0.00000000000E+00 0. -1.
         25    2    1    2    0    0  0.81151922886E+02  0.88664220785E+02  0.13552698608E+04  0.13663186536E+04  0.12499315560E+03 0.  0.
          2    1    1    2  501    0 -0.51135388344E+02 -0.11350987360E+03 -0.17048563733E+03  0.21110346251E+03  0.00000000000E+00 0. -1.
          1    1    1    2  502    0 -0.30016534542E+02  0.24845652817E+02  0.13623844102E+03  0.14170113486E+03  0.00000000000E+00 0. -1.
         22    1    3    3    0    0 -0.32998286838E+02  0.89999177330E+01  0.27108536374E+03  0.27323462424E+03  0.00000000000E+00 0.  1.
         22    1    3    3    0    0  0.11415020972E+03  0.79664303052E+02  0.10841844970E+04  0.10930840293E+04  0.00000000000E+00 0.  1.
</event>
<event>
 7    1  0.6386201E-006  0.8322084E+02  0.7818608E-02  0.1321380E+00
          2   -1    0    0  502    0  0.00000000000E+00  0.00000000000E+00  0.93262325815E+03  0.93262325815E+03  0.00000000000E+00 0. -1.
          1   -1    0    0  501    0 -0.00000000000E+00 -0.00000000000E+00 -0.29137771960E+03  0.29137771960E+03  0.00000000000E+00 0. -1.
         25    2    1    2    0    0  0.74308346659E+02  0.44638098006E+02  0.25790091181E+03  0.29941979794E+03  0.12500017966E+03 0.  0.
          2    1    1    2  501    0  0.49433255711E+01 -0.82165549337E+02 -0.26132131447E+03  0.27397891043E+03  0.00000000000E+00 0. -1.
          1    1    1    2  502    0 -0.79251672230E+02  0.37527451332E+02  0.64466594121E+03  0.65060226938E+03  0.00000000000E+00 0. -1.
         22    1    3    3    0    0  0.23676945261E+02 -0.42257413450E+01 -0.72269456102E+01  0.25113410155E+02  0.00000000000E+00 0. -1.
         22    1    3    3    0    0  0.50631401398E+02  0.48863839350E+02  0.26512785742E+03  0.27430638779E+03  0.00000000000E+00 0. -1.
</event>
<event>
 7    1  0.6386201E-006  0.3571911E+02  0.7818608E-02  0.1594144E+00
          2   -1    0    0  502    0  0.00000000000E+00  0.00000000000E+00  0.13539470406E+04  0.13539470406E+04  0.00000000000E+00 0. -1.
          1   -1    0    0  501    0 -0.00000000000E+00 -0.00000000000E+00 -0.30014919405E+03  0.30014919405E+03  0.00000000000E+00 0. -1.
         25    2    1    2    0    0  0.18122632603E+02  0.27000237571E+02  0.10082105056E+03  0.16385281958E+03  0.12500167842E+03 0.  0.
          2    1    1    2  501    0 -0.35034205051E+02 -0.75095467713E+01 -0.26730155552E+03  0.26969225127E+03  0.00000000000E+00 0. -1.
          1    1    1    2  502    0  0.16911572448E+02 -0.19490690800E+02  0.12202783515E+04  0.12205511638E+04  0.00000000000E+00 0. -1.
         22    1    3    3    0    0 -0.49379469767E+02  0.21123197840E+02  0.17560358335E+02  0.56505643137E+02  0.00000000000E+00 0. -1.
         22    1    3    3    0    0  0.67502102371E+02  0.58770397309E+01  0.83260692230E+02  0.10734717645E+03  0.00000000000E+00 0. -1.
</event>
<event>
 7    1  0.6386201E-006  0.1131192E+03  0.7818608E-02  0.1308244E+00
          2   -1    0    0  502    0  0.00000000000E+00  0.00000000000E+00  0.13015668332E+04  0.13015668332E+04  0.00000000000E+00 0. -1.
          1   -1    0    0  501    0 -0.00000000000E+00 -0.00000000000E+00 -0.82815283337E+03  0.82815283337E+03  0.00000000000E+00 0. -1.
         25    2    1    2    0    0  0.59825974182E+02  0.48280095502E+02  0.35951585497E+02  0.15108664127E+03  0.12499816744E+03 0.  0.
          2    1    1    2  501    0 -0.11510607169E+03 -0.84016331692E+01 -0.76529353610E+03  0.77394715038E+03  0.00000000000E+00 0. -1.
          1    1    1    2  502    0  0.55280097513E+02 -0.39878462333E+02  0.12027559505E+04  0.12046858749E+04  0.00000000000E+00 0. -1.
         22    1    3    3    0    0 -0.30189205027E+02 -0.82650751245E+01  0.31924133592E+02  0.44708498885E+02  0.00000000000E+00 0. -1.
         22    1    3    3    0    0  0.90015179208E+02  0.56545170626E+02  0.40274519057E+01  0.10637814239E+03  0.00000000000E+00 0. -1.
</event>
<event>
 7    1  0.6386201E-006  0.1266271E+03  0.7818608E-02  0.1293998E+00
          2   -1    0    0  502    0  0.00000000000E+00  0.00000000000E+00  0.82640020028E+03  0.82640020028E+03  0.00000000000E+00 0. -1.
          1   -1    0    0  501    0 -0.00000000000E+00 -0.00000000000E+00 -0.17525082754E+04  0.17525082754E+04  0.00000000000E+00 0. -1.
         25    2    1    2    0    0  0.95170929573E+02  0.13335464223E+03 -0.54426818361E+03  0.58196131525E+03  0.12494058713E+03 0.  0.
          2    1    1    2  501    0 -0.68735120571E+02 -0.97321609945E+01 -0.11834226260E+04  0.11854570188E+04  0.00000000000E+00 0. -1.
          1    1    1    2  502    0 -0.26435809002E+02 -0.12362248124E+03  0.80158273443E+03  0.81149014166E+03  0.00000000000E+00 0. -1.
         22    1    3    3    0    0  0.66916435641E+02  0.15182551172E+03 -0.38625748401E+03  0.42038510835E+03  0.00000000000E+00 0.  1.
         22    1    3    3    0    0  0.28254493931E+02 -0.18470869488E+02 -0.15801069960E+03  0.16157620690E+03  0.00000000000E+00 0.  1.
</event>
<event>
 7    1  0.6386201E-006  0.1012129E+03  0.7818608E-02  0.1370130E+00
          2   -1    0    0  502    0  0.00000000000E+00  0.00000000000E+00  0.10740746463E+04  0.10740746463E+04  0.00000000000E+00 0. -1.
          1   -1    0    0  501    0 -0.00000000000E+00 -0.00000000000E+00 -0.92611057049E+03  0.92611057049E+03  0.00000000000E+00 0. -1.
         25    2    1    2    0    0 -0.60667220221E+02 -0.56423729231E+02 -0.16316342117E+02  0.15084618489E+03  0.12499679854E+03 0.  0.
          2    1    1    2  501    0  0.97484937410E+02  0.31383643457E+02 -0.83892153841E+03  0.84514945051E+03  0.00000000000E+00 0. -1.
          1    1    1    2  502    0 -0.36817717189E+02  0.25040085774E+02  0.10032019563E+04  0.10041895814E+04  0.00000000000E+00 0. -1.
         22    1    3    3    0    0 -0.22962907338E+02 -0.93523982298E+02 -0.32347684261E+01  0.96356079751E+02  0.00000000000E+00 0.  1.
         22    1    3    3    0    0 -0.37704312883E+02  0.37100253067E+02 -0.13081573691E+02  0.54490105137E+02  0.00000000000E+00 0.  1.
</event>
<event>
 7    1  0.6386201E-006  0.7429446E+02  0.7818608E-02  0.1411005E+00
          2   -1    0    0  502    0  0.00000000000E+00  0.00000000000E+00  0.75471735628E+03  0.75471735628E+03  0.00000000000E+00 0. -1.
          1   -1    0    0  501    0 -0.00000000000E+00 -0.00000000000E+00 -0.42606189287E+03  0.42606189287E+03  0.00000000000E+00 0. -1.
         25    2    1    2    0    0  0.12828665547E+02  0.11609024377E+03  0.26172295917E+02  0.17306514239E+03  0.12500014031E+03 0.  0.
          2    1    1    2  501    0 -0.49388806932E+01 -0.43405643654E+02 -0.34921038788E+03  0.35193229099E+03  0.00000000000E+00 0. -1.
          1    1    1    2  502    0 -0.78897848541E+01 -0.72684600113E+02  0.65169355536E+03  0.65578181577E+03  0.00000000000E+00 0. -1.
         22    1    3    3    0    0 -0.53812838711E+02  0.35933204530E+02  0.23332080319E+02  0.68785192956E+02  0.00000000000E+00 0.  1.
         22    1    3    3    0    0  0.66641504258E+02  0.80157039237E+02  0.28402155981E+01  0.10427994943E+03  0.00000000000E+00 0.  1.
</event>
<event>
 7    1  0.6386201E-006  0.5467879E+02  0.7818608E-02  0.1459236E+00
          2   -1    0    0  502    0  0.00000000000E+00  0.00000000000E+00  0.13102897453E+03  0.13102897453E+03  0.00000000000E+00 0. -1.
          1   -1    0    0  501    0 -0.00000000000E+00 -0.00000000000E+00 -0.53572241710E+03  0.53572241710E+03  0.00000000000E+00 0. -1.
         25    2    1    2    0    0 -0.51395488662E+00  0.29918600948E+02  0.11141344151E+01  0.12855807338E+03  0.12502219844E+03 0.  0.
          2    1    1    2  501    0  0.35914083729E+02  0.20365324964E+02 -0.45658250719E+03  0.45844536615E+03  0.00000000000E+00 0. -1.
          1    1    1    2  502    0 -0.35400128842E+02 -0.50283925912E+02  0.50774930207E+02  0.79747952103E+02  0.00000000000E+00 0. -1.
         22    1    3    3    0    0  0.38859369037E+02 -0.34620014258E+02 -0.70423548016E+01  0.52518479703E+02  0.00000000000E+00 0. -1.
         22    1    3    3    0    0 -0.39373323923E+02  0.64538615206E+02  0.81564892167E+01  0.76039593672E+02  0.00000000000E+00 0. -1.
</event>
<event>
 7    1  0.6386201E-006  0.3282121E+02  0.7818608E-02  0.1580411E+00
          2   -1    0    0  502    0  0.00000000000E+00  0.00000000000E+00  0.13441147169E+04  0.13441147169E+04  0.00000000000E+00 0. -1.
          1   -1    0    0  501    0 -0.00000000000E+00 -0.00000000000E+00 -0.41856217685E+03  0.41856217685E+03  0.00000000000E+00 0. -1.
         25    2    1    2    0    0 -0.14313580400E+02 -0.36761198518E+02 -0.24240206246E+03  0.27557007148E+03  0.12499536037E+03 0.  0.
          2    1    1    2  501    0 -0.16576881441E+02  0.25654151176E+02 -0.15790951921E+03  0.16083639118E+03  0.00000000000E+00 0. -1.
          1    1    1    2  502    0  0.30890461841E+02  0.11107047342E+02  0.13258641217E+04  0.13262704311E+04  0.00000000000E+00 0. -1.
         22    1    3    3    0    0  0.30238915065E+02  0.21125182779E+02 -0.16527877919E+03  0.16934503294E+03  0.00000000000E+00 0. -1.
         22    1    3    3    0    0 -0.44552495465E+02 -0.57886381297E+02 -0.77123283271E+02  0.10622503855E+03  0.00000000000E+00 0. -1.
</event>
<event>
 7    1  0.6386201E-006  0.4383086E+02  0.7818608E-02  0.1591359E+00
          2   -1    0    0  502    0  0.00000000000E+00  0.00000000000E+00  0.14371588260E+04  0.14371588260E+04  0.00000000000E+00 0. -1.
          1   -1    0    0  501    0 -0.00000000000E+00 -0.00000000000E+00 -0.27046690980E+02  0.27046690980E+02  0.00000000000E+00 0. -1.
         25    2    1    2    0    0  0.23884459797E+02  0.17161871090E+02  0.93354098941E+03  0.94233131537E+03  0.12499812710E+03 0.  0.
          2    1    1    2  501    0  0.55389341119E+01  0.20658121211E+02 -0.16167616791E+02  0.26810997665E+02  0.00000000000E+00 0. -1.
          1    1    1    2  502    0 -0.29423393909E+02 -0.37819992301E+02  0.49273876241E+03  0.49506320395E+03  0.00000000000E+00 0. -1.
         22    1    3    3    0    0  0.73473883073E+02  0.24314441009E+02  0.62016701695E+03  0.62497738555E+03  0.00000000000E+00 0.  1.
         22    1    3    3    0    0 -0.49589423276E+02 -0.71525699190E+01  0.31337397247E+03  0.31735392983E+03  0.00000000000E+00 0.  1.
</event>
<event>
 7    1  0.6721918E-006  0.1406386E+03  0.7818608E-02  0.1327640E+00
          2   -1    0    0  502    0  0.00000000000E+00  0.00000000000E+00  0.10322335434E+04  0.10322335434E+04  0.00000000000E+00 0. -1.
          1   -1    0    0  501    0 -0.00000000000E+00 -0.00000000000E+00 -0.13523971317E+04  0.13523971317E+04  0.00000000000E+00 0. -1.
         25    2    1    2    0    0 -0.89331193021E+02 -0.58777710826E+02 -0.38567567169E+03  0.41929150055E+03  0.12499902944E+03 0.  0.
          2    1    1    2  501    0  0.12844542730E+03  0.83132290367E+02 -0.94322335825E+03  0.95555193948E+03  0.00000000000E+00 0. -1.
          1    1    1    2  502    0 -0.39114234274E+02 -0.24354579540E+02  0.10087354417E+04  0.10097872351E+04  0.00000000000E+00 0. -1.
         22    1    3    3    0    0 -0.32063339868E+02  0.11892379102E+01 -0.86160921083E+01  0.33222117536E+02  0.00000000000E+00 0.  1.
         22    1    3    3    0    0 -0.57267853153E+02 -0.59966948737E+02 -0.37705957958E+03  0.38606938302E+03  0.00000000000E+00 0.  1.
</event>
<event>
 7    1  0.6386201E-006  0.4269305E+02  0.7818608E-02  0.1489500E+00
          2   -1    0    0  502    0  0.00000000000E+00  0.00000000000E+00  0.24532138045E+03  0.24532138045E+03  0.00000000000E+00 0. -1.
          1   -1    0    0  501    0 -0.00000000000E+00 -0.00000000000E+00 -0.21823059912E+03  0.21823059912E+03  0.00000000000E+00 0. -1.
         25    2    1    2    0    0 -0.49652971724E+01  0.39315135950E+02 -0.82976958378E+01  0.13138030510E+03  0.12498639414E+03 0.  0.
          2    1    1    2  501    0  0.40791380238E+02 -0.16094702695E+02 -0.14257109568E+03  0.14916264104E+03  0.00000000000E+00 0. -1.
          1    1    1    2  502    0 -0.35826083066E+02 -0.23220433255E+02  0.17795957285E+03  0.18300903343E+03  0.00000000000E+00 0. -1.
         22    1    3    3    0    0  0.46523126649E+02 -0.19270680548E+02 -0.16412379064E+02  0.52963446154E+02  0.00000000000E+00 0.  1.
         22    1    3    3    0    0 -0.51488423822E+02  0.58585816498E+02  0.81146832259E+01  0.78416858941E+02  0.00000000000E+00 0.  1.
</event>
<event>
 7    1  0.6386201E-006  0.4610819E+02  0.7818608E-02  0.1519895E+00
          2   -1    0    0  502    0  0.00000000000E+00  0.00000000000E+00  0.54096446824E+03  0.54096446824E+03  0.00000000000E+00 0. -1.
          1   -1    0    0  501    0 -0.00000000000E+00 -0.00000000000E+00 -0.66377786157E+02  0.66377786157E+02  0.00000000000E+00 0. -1.
         25    2    1    2    0    0 -0.31971840741E+01  0.31868863444E+02  0.43692828251E+03  0.45558497044E+03  0.12500197914E+03 0.  0.
          2    1    1    2  501    0 -0.12403887132E+02  0.29577292553E+02 -0.40152828917E+02  0.51389904853E+02  0.00000000000E+00 0. -1.
          1    1    1    2  502    0  0.15601071206E+02 -0.61446155998E+02  0.77811228489E+02  0.10036737911E+03  0.00000000000E+00 0. -1.
         22    1    3    3    0    0 -0.46671035733E+02  0.44413482326E+02  0.12736736802E+03  0.14273468193E+03  0.00000000000E+00 0.  1.
         22    1    3    3    0    0  0.43473851659E+02 -0.12544618881E+02  0.30956091449E+03  0.31285028851E+03  0.00000000000E+00 0.  1.
</event>
<event>
 7    1  0.6386201E-006  0.9165692E+02  0.7818608E-02  0.1484669E+00
          2   -1    0    0  502    0  0.00000000000E+00  0.00000000000E+00  0.24676880339E+03  0.24676880339E+03  0.00000000000E+00 0. -1.
          1   -1    0    0  501    0 -0.00000000000E+00 -0.00000000000E+00 -0.33999099216E+03  0.33999099216E+03  0.00000000000E+00 0. -1.
         25    2    1    2    0    0  0.55699534607E+02 -0.88497774934E+02 -0.19042478312E+03  0.25063947583E+03  0.12499701793E+03 0.  0.
          2    1    1    2  501    0 -0.40046350346E+02  0.75201624709E+02 -0.10367698611E+03  0.13419356163E+03  0.00000000000E+00 0. -1.
          1    1    1    2  502    0 -0.15653184261E+02  0.13296150226E+02  0.20087958046E+03  0.20192675810E+03  0.00000000000E+00 0. -1.
         22    1    3    3    0    0  0.49979531854E+02 -0.71019227644E+02 -0.34197655635E+02  0.93333616401E+02  0.00000000000E+00 0.  1.
         22    1    3    3    0    0  0.57200027530E+01 -0.17478547290E+02 -0.15622712749E+03  0.15730585942E+03  0.00000000000E+00 0.  1.
</event>
<event>
 7    1  0.6386201E-006  0.1279161E+03  0.7818608E-02  0.1318805E+00
          2   -1    0    0  502    0  0.00000000000E+00  0.00000000000E+00  0.25233563579E+02  0.25233563579E+02  0.00000000000E+00 0. -1.
          1   -1    0    0  501    0 -0.00000000000E+00 -0.00000000000E+00 -0.18499704645E+04  0.18499704645E+04  0.00000000000E+00 0. -1.
         25    2    1    2    0    0  0.10386581972E+03  0.25663284985E+02 -0.72703613958E+03  0.74542173260E+03  0.12500119391E+03 0.  0.
          2    1    1    2  501    0  0.34471499434E+02 -0.42597881401E+02 -0.79105294220E+03  0.79294868759E+03  0.00000000000E+00 0. -1.
          1    1    1    2  502    0 -0.13833731915E+03  0.16934596416E+02 -0.30664781918E+03  0.33683360793E+03  0.00000000000E+00 0. -1.
         22    1    3    3    0    0  0.51337502316E+01 -0.38970878811E+02 -0.10137039885E+03  0.10872461795E+03  0.00000000000E+00 0. -1.
         22    1    3    3    0    0  0.98732069488E+02  0.64634163796E+02 -0.62566574073E+03  0.63669711464E+03  0.00000000000E+00 0. -1.
</event>
<event>
 7    1  0.6386201E-006  0.8730065E+02  0.7818608E-02  0.1357236E+00
          2   -1    0    0  502    0  0.00000000000E+00  0.00000000000E+00  0.45803441748E+02  0.45803441748E+02  0.00000000000E+00 0. -1.
          1   -1    0    0  501    0 -0.00000000000E+00 -0.00000000000E+00 -0.14144221413E+04  0.14144221413E+04  0.00000000000E+00 0. -1.
         25    2    1    2    0    0 -0.78974522469E+02 -0.26131549072E+02 -0.29234590518E+03  0.32864944264E+03  0.12499797926E+03 0.  0.
          2    1    1    2  501    0 -0.77321406216E+01  0.56972237767E+02 -0.10242483946E+04  0.10258608072E+04  0.00000000000E+00 0. -1.
          1    1    1    2  502    0  0.86706663091E+02 -0.30840688695E+02 -0.52024399754E+02  0.10571533320E+03  0.00000000000E+00 0. -1.
         22    1    3    3    0    0  0.27219904859E+02  0.87855661564E+01 -0.11896388094E+03  0.12235405331E+03  0.00000000000E+00 0.  1.
         22    1    3    3    0    0 -0.10619442733E+03 -0.34917115228E+02 -0.17338202423E+03  0.20629538933E+03  0.00000000000E+00 0.  1.
</event>
<event>
 7    1  0.6386201E-006  0.3279668E+02  0.7818608E-02  0.1619213E+00
          2   -1    0    0  502    0  0.00000000000E+00  0.00000000000E+00  0.11225903156E+04  0.11225903156E+04  0.00000000000E+00 0. -1.
          1   -1    0    0  501    0 -0.00000000000E+00 -0.00000000000E+00 -0.47125476969E+02  0.47125476969E+02  0.00000000000E+00 0. -1.
         25    2    1    2    0    0  0.10897088652E+02 -0.78703307223E+01  0.17934387325E+03  0.21902117120E+03  0.12500143965E+03 0.  0.
          2    1    1    2  501    0 -0.11161690118E+02  0.32069405579E+02 -0.16499972466E+02  0.37752869982E+02  0.00000000000E+00 0. -1.
          1    1    1    2  502    0  0.26460146550E+00 -0.24199074857E+02  0.91262093783E+03  0.91294175138E+03  0.00000000000E+00 0. -1.
         22    1    3    3    0    0 -0.45520062866E+02 -0.31736995305E+02  0.12643916929E+03  0.13808032635E+03  0.00000000000E+00 0.  1.
         22    1    3    3    0    0  0.56417151518E+02  0.23866664583E+02  0.52904703968E+02  0.80940844854E+02  0.00000000000E+00 0.  1.
</event>
<event>
 7    1  0.6386201E-006  0.4642940E+02  0.7818608E-02  0.1527152E+00
          2   -1    0    0  502    0  0.00000000000E+00  0.00000000000E+00  0.74120368934E+03  0.74120368934E+03  0.00000000000E+00 0. -1.
          1   -1    0    0  501    0 -0.00000000000E+00 -0.00000000000E+00 -0.76712221541E+02  0.76712221541E+02  0.00000000000E+00 0. -1.
         25    2    1    2    0    0 -0.42579597584E+02 -0.95236030904E+01  0.12339289221E+03  0.18098361513E+03  0.12500216779E+03 0.  0.
          2    1    1    2  501    0  0.13499031351E+02 -0.27181959371E+02 -0.42076625483E+02  0.51879911090E+02  0.00000000000E+00 0. -1.
          1    1    1    2  502    0  0.29080566233E+02  0.36705562461E+02  0.58317520108E+03  0.58505238466E+03  0.00000000000E+00 0. -1.
         22    1    3    3    0    0  0.33097178845E+02 -0.22707622540E+02  0.87351953325E+02  0.96132320884E+02  0.00000000000E+00 0.  1.
         22    1    3    3    0    0 -0.75676776429E+02  0.13184019449E+02  0.36040938881E+02  0.84851294245E+02  0.00000000000E+00 0.  1.
</event>
<event>
 7    1  0.6386201E-006  0.1741318E+03  0.7818608E-02  0.1387601E+00
          2   -1    0    0  502    0  0.00000000000E+00  0.00000000000E+00  0.94542887973E+03  0.94542887973E+03  0.00000000000E+00 0. -1.
          1   -1    0    0  501    0 -0.00000000000E+00 -0.00000000000E+00 -0.47934738199E+03  0.47934738199E+03  0.00000000000E+00 0. -1.
         25    2    1    2    0    0  0.22702185850E+01  0.17611326763E+03 -0.16653473835E+03  0.27272515480E+03  0.12499661619E+03 0.  0.
          2    1    1    2  501    0  0.19859225298E+02 -0.17240471764E+03 -0.23056445342E+03  0.28857883269E+03  0.00000000000E+00 0. -1.
          1    1    1    2  502    0 -0.22129443883E+02 -0.37085499918E+01  0.86318068950E+03  0.86347227423E+03  0.00000000000E+00 0. -1.
         22    1    3    3    0    0  0.63351864627E+02  0.10006946771E+03 -0.91366511424E+02  0.14958340994E+03  0.00000000000E+00 0.  1.
         22    1    3    3    0    0 -0.61081646042E+02  0.76043799924E+02 -0.75168226922E+02  0.12314174487E+03  0.00000000000E+00 0.  1.
</event>
<event>
 7    1  0.6386201E-006  0.5525688E+02  0.7818608E-02  0.1423145E+00
          2   -1    0    0  502    0  0.00000000000E+00  0.00000000000E+00  0.58479729842E+03  0.58479729842E+03  0.00000000000E+00 0. -1.
          1   -1    0    0  501    0 -0.00000000000E+00 -0.00000000000E+00 -0.74706407568E+02  0.74706407568E+02  0.00000000000E+00 0. -1.
         25    2    1    2    0    0  0.38453218502E+02 -0.39698216406E+02  0.22473919023E+03  0.26303401381E+03  0.12499836159E+03 0.  0.
          2    1    1    2  501    0 -0.50611650785E+02 -0.17277976632E+02 -0.39468172188E+02  0.66466565185E+02  0.00000000000E+00 0. -1.
          1    1    1    2  502    0  0.12158432283E+02  0.56976193037E+02  0.32481987281E+03  0.33000312699E+03  0.00000000000E+00 0. -1.
         22    1    3    3    0    0  0.31387079754E+02 -0.78129576284E+02  0.92227869017E+02  0.12488138087E+03  0.00000000000E+00 0.  1.
         22    1    3    3    0    0  0.70661387483E+01  0.38431359879E+02  0.13251132121E+03  0.13815263294E+03  0.00000000000E+00 0.  1.
</event>
<event>
 7    1  0.6386201E-006  0.1576137E+03  0.7818608E-02  0.1270098E+00
          2   -1    0    0  502    0  0.00000000000E+00  0.00000000000E+00  0.12511817317E+04  0.12511817317E+04  0.00000000000E+00 0. -1.
          1   -1    0    0  501    0 -0.00000000000E+00 -0.00000000000E+00 -0.96496192041E+03  0.96496192041E+03  0.00000000000E+00 0. -1.
         25    2    1    2    0    0  0.82506813888E+02 -0.97650848589E+02  0.22117577157E+03  0.28440541849E+03  0.12499863026E+03 0.  0.
          2    1    1    2  501    0 -0.33964323018E+02 -0.61167365104E+02 -0.92511100333E+03  0.92775287133E+03  0.00000000000E+00 0. -1.
          1    1    1    2  502    0 -0.48542490870E+02  0.15881821369E+03  0.99015504302E+03  0.10039853623E+04  0.00000000000E+00 0. -1.
         22    1    3    3    0    0  0.27139553929E+02  0.29509894480E+02  0.48276767072E+02  0.62753768800E+02  0.00000000000E+00 0.  1.
         22    1    3    3    0    0  0.55367259959E+02 -0.12716074307E+03  0.17289900449E+03  0.22165164968E+03  0.00000000000E+00 0.  1.
</event>
<event>
 7    1  0.6386201E-006  0.1191740E+03  0.7818608E-02  0.1253525E+00
          2   -1    0    0  502    0  0.00000000000E+00  0.00000000000E+00  0.26623071470E+03  0.26623071470E+03  0.00000000000E+00 0. -1.
          1   -1    0    0  501    0 -0.00000000000E+00 -0.00000000000E+00 -0.11990992858E+04  0.11990992858E+04  0.00000000000E+00 0. -1.
         25    2    1    2    0    0 -0.13493802100E+03 -0.14058605522E+03  0.44040391218E+02  0.23566287367E+03  0.12499890213E+03 0.  0.
          2    1    1    2  501    0  0.11299165421E+03  0.33974255480E+02 -0.10760126648E+04  0.10824622944E+04  0.00000000000E+00 0. -1.
          1    1    1    2  502    0  0.21946366792E+02  0.10661179974E+03  0.99103702462E+02  0.14720483247E+03  0.00000000000E+00 0. -1.
         22    1    3    3    0    0 -0.15303811372E+03 -0.13459015455E+03  0.58158478003E+02  0.21193768546E+03  0.00000000000E+00 0. -1.
         22    1    3    3    0    0  0.18100092719E+02 -0.59959006726E+01 -0.14118086785E+02  0.23725188214E+02  0.00000000000E+00 0. -1.
</event>
<event>
 7    1  0.6386201E-006  0.1152283E+03  0.7818608E-02  0.1353417E+00
          2   -1    0    0  502    0  0.00000000000E+00  0.00000000000E+00  0.75744950289E+03  0.75744950289E+03  0.00000000000E+00 0. -1.
          1   -1    0    0  501    0 -0.00000000000E+00 -0.00000000000E+00 -0.66576851668E+03  0.66576851668E+03  0.00000000000E+00 0. -1.
         25    2    1    2    0    0 -0.48962295797E+01  0.79926541458E+02  0.14356327018E+03  0.20651364097E+03  0.12500098508E+03 0.  0.
          2    1    1    2  501    0  0.15566414842E+02  0.42211788162E+02 -0.62702605609E+03  0.62863807023E+03  0.00000000000E+00 0. -1.
          1    1    1    2  502    0 -0.10670185263E+02 -0.12213832962E+03  0.57514377212E+03  0.58806630836E+03  0.00000000000E+00 0. -1.
         22    1    3    3    0    0  0.19992557137E+02  0.43946111771E+02  0.15412252303E+03  0.16150763198E+03  0.00000000000E+00 0. -1.
         22    1    3    3    0    0 -0.24888786717E+02  0.35980429687E+02 -0.10559252857E+02  0.45006008994E+02  0.00000000000E+00 0. -1.
</event>
<event>
 7    1  0.6386201E-006  0.6381805E+02  0.7818608E-02  0.1469030E+00
          2   -1    0    0  502    0  0.00000000000E+00  0.00000000000E+00  0.67490992961E+02  0.67490992961E+02  0.00000000000E+00 0. -1.
          1   -1    0    0  501    0 -0.00000000000E+00 -0.00000000000E+00 -0.28613286277E+03  0.28613286277E+03  0.00000000000E+00 0. -1.
         25    2    1    2    0    0  0.64737592056E+02 -0.18516363680E+02 -0.58319411061E+02  0.15348389835E+03  0.12498936674E+03 0.  0.
          2    1    1    2  501    0 -0.45626560300E+02  0.45368179121E+02 -0.15355941966E+03  0.16649489496E+03  0.00000000000E+00 0. -1.
          1    1    1    2  502    0 -0.19111031756E+02 -0.26851815441E+02 -0.67630390838E+01  0.33645062415E+02  0.00000000000E+00 0. -1.
         22    1    3    3    0    0 -0.20539632341E+02  0.16842013309E+02  0.19331613998E+02  0.32851806780E+02  0.00000000000E+00 0. -1.
         22    1    3    3    0    0  0.85277224396E+02 -0.35358376988E+02 -0.77651025058E+02  0.12063209157E+03  0.00000000000E+00 0. -1.
</event>
<event>
 7    1  0.6386201E-006  0.8378587E+02  0.7818608E-02  0.1326536E+00
          2   -1    0    0  502    0  0.00000000000E+00  0.00000000000E+00  0.53483439079E+03  0.53483439079E+03  0.00000000000E+00 0. -1.
          1   -1    0    0  501    0 -0.00000000000E+00 -0.00000000000E+00 -0.26880644332E+03  0.26880644332E+03  0.00000000000E+00 0. -1.
         25    2    1    2    0    0 -0.39962737300E+02 -0.13655222867E+03 -0.96361514442E+01  0.18963465603E+03  0.12499966331E+03 0.  0.
          2    1    1    2  501    0 -0.11696566928E+02  0.77978107878E+02 -0.15628691625E+03  0.17505140724E+03  0.00000000000E+00 0. -1.
          1    1    1    2  502    0  0.51659304229E+02  0.58574120789E+02  0.43195101516E+03  0.43895477084E+03  0.00000000000E+00 0. -1.
         22    1    3    3    0    0 -0.50543952665E+02 -0.59787170942E+01 -0.26787240586E+02  0.57515149894E+02  0.00000000000E+00 0.  1.
         22    1    3    3    0    0  0.10581215365E+02 -0.13057351157E+03  0.17151089142E+02  0.13211950614E+03  0.00000000000E+00 0.  1.
</event>
<event>
 7    1  0.6386201E-006  0.2728931E+02  0.7818608E-02  0.1668508E+00
          2   -1    0    0  502    0  0.00000000000E+00  0.00000000000E+00  0.56191417321E+03  0.56191417321E+03  0.00000000000E+00 0. -1.
          1   -1    0    0  501    0 -0.00000000000E+00 -0.00000000000E+00 -0.97496304790E+03  0.97496304790E+03  0.00000000000E+00 0. -1.
         25    2    1    2    0    0  0.74813877533E+01 -0.38967252895E+02  0.14018620172E+03  0.19196899886E+03  0.12500202962E+03 0.  0.
          2    1    1    2  501    0  0.10978781311E+02  0.19029291702E+02 -0.94847800916E+03  0.94873240771E+03  0.00000000000E+00 0. -1.
          1    1    1    2  502    0 -0.18460169064E+02  0.19937961193E+02  0.39524293275E+03  0.39617581454E+03  0.00000000000E+00 0. -1.
         22    1    3    3    0    0 -0.87979805319E+01 -0.83367078724E+02  0.91531454472E+02  0.12411881982E+03  0.00000000000E+00 0. -1.
         22    1    3    3    0    0  0.16279368285E+02  0.44399825830E+02  0.48654747251E+02  0.67850179038E+02  0.00000000000E+00 0. -1.
</event>
<event>
 7    1  0.6386201E-006  0.1444219E+03  0.7818608E-02  0.1285065E+00
          2   -1    0    0  502    0  0.00000000000E+00  0.00000000000E+00  0.25194032791E+04  0.25194032791E+04  0.00000000000E+00 0. -1.
          1   -1    0    0  501    0 -0.00000000000E+00 -0.00000000000E+00 -0.58671372972E+03  0.58671372972E+03  0.00000000000E+00 0. -1.
         25    2    1    2    0    0 -0.77414740134E+02  0.11796771704E+03 -0.21613333447E+02  0.18974324250E+03  0.12500375049E+03 0.  0.
          2    1    1    2  501    0  0.12669834873E+03 -0.73794575249E+02 -0.46940039064E+03  0.49176705628E+03  0.00000000000E+00 0. -1.
          1    1    1    2  502    0 -0.49283608593E+02 -0.44173141796E+02  0.24237032734E+04  0.24246067100E+04  0.00000000000E+00 0. -1.
         22    1    3    3    0    0 -0.83229772678E+02  0.11641000323E+03  0.22813745236E+02  0.14491014762E+03  0.00000000000E+00 0. -1.
         22    1    3    3    0    0  0.58150325445E+01  0.15577138141E+01 -0.44427078683E+02  0.44833094876E+02  0.00000000000E+00 0. -1.
</event>
<event>
 7    1  0.6386201E-006  0.6270240E+02  0.7818608E-02  0.1415155E+00
          2   -1    0    0  502    0  0.00000000000E+00  0.00000000000E+00  0.38563748324E+03  0.38563748324E+03  0.00000000000E+00 0. -1.
          1   -1    0    0  501    0 -0.00000000000E+00 -0.00000000000E+00 -0.54890725521E+03  0.54890725521E+03  0.00000000000E+00 0. -1.
         25    2    1    2    0    0  0.49090176286E+01 -0.52519699829E+02 -0.19887116817E+03  0.24073806819E+03  0.12499063414E+03 0.  0.
          2    1    1    2  501    0 -0.49490655501E+02  0.79177803399E+01 -0.32443783898E+03  0.32828634999E+03  0.00000000000E+00 0. -1.
          1    1    1    2  502    0  0.44581637872E+02  0.44601919489E+02  0.36003923518E+03  0.36552032027E+03  0.00000000000E+00 0. -1.
         22    1    3    3    0    0  0.34546712638E+01  0.27357597247E+02 -0.13684579437E+03  0.13959636212E+03  0.00000000000E+00 0. -1.
         22    1    3    3    0    0  0.14543463647E+01 -0.79877297075E+02 -0.62025373804E+02  0.10114170607E+03  0.00000000000E+00 0. -1.
</event>
<event>
 7    1  0.6386201E-006  0.8577734E+02  0.7818608E-02  0.1441707E+00
          2   -1    0    0  502    0  0.00000000000E+00  0.00000000000E+00  0.22974078890E+04  0.22974078890E+04  0.00000000000E+00 0. -1.
          1   -1    0    0  501    0 -0.00000000000E+00 -0.00000000000E+00 -0.26431591027E+03  0.26431591027E+03  0.00000000000E+00 0. -1.
         25    2    1    2    0    0 -0.65803305044E+02  0.57607778882E+02  0.56565799801E+02  0.16270695559E+03  0.12500053018E+03 0.  0.
          2    1    1    2  501    0  0.41633073271E+02 -0.75283084786E+02 -0.20237959279E+03  0.21990533241E+03  0.00000000000E+00 0. -1.
          1    1    1    2  502    0  0.24170231772E+02  0.17675305904E+02  0.21789057717E+04  0.21791115113E+04  0.00000000000E+00 0. -1.
         22    1    3    3    0    0 -0.98827896885E+02  0.47434670236E+02  0.64584649384E+02  0.12723277125E+03  0.00000000000E+00 0.  1.
         22    1    3    3    0    0  0.33024591841E+02  0.10173108645E+02 -0.80188495837E+01  0.35474184338E+02  0.00000000000E+00 0.  1.
</event>
<event>
 7    1  0.6386201E-006  0.1387758E+03  0.7818608E-02  0.1344742E+00
          2   -1    0    0  502    0  0.00000000000E+00  0.00000000000E+00  0.25287701681E+04  0.25287701681E+04  0.00000000000E+00 0. -1.
          1   -1    0    0  501    0 -0.00000000000E+00 -0.00000000000E+00 -0.28936437109E+02  0.28936437109E+02  0.00000000000E+00 0. -1.
         25    2    1    2    0    0 -0.71787520758E+02  0.87659650447E+02  0.66437951112E+03  0.68546510904E+03  0.12499847383E+03 0.  0.
          2    1    1    2  501    0  0.82136540351E+02 -0.12653612657E+03  0.29566757065E+03  0.33192938243E+03  0.00000000000E+00 0. -1.
          1    1    1    2  502    0 -0.10349019593E+02  0.38876476126E+02  0.15397866493E+04  0.15403121138E+04  0.00000000000E+00 0. -1.
         22    1    3    3    0    0 -0.14174264401E+02  0.55491508615E+02  0.55336230365E+03  0.55631830493E+03  0.00000000000E+00 0. -1.
         22    1    3    3    0    0 -0.57613256356E+02  0.32168141832E+02  0.11101720746E+03  0.12914680410E+03  0.00000000000E+00 0. -1.
</event>
<event>
 7    1  0.6386201E-006  0.8428100E+02  0.7818608E-02  0.1476591E+00
          2   -1    0    0  502    0  0.00000000000E+00  0.00000000000E+00  0.18954402387E+03  0.18954402387E+03  0.00000000000E+00 0. -1.
          1   -1    0    0  501    0 -0.00000000000E+00 -0.00000000000E+00 -0.71749077710E+03  0.71749077710E+03  0.00000000000E+00 0. -1.
         25    2    1    2    0    0  0.58270005305E+02  0.69606565589E+02 -0.69415867374E+02  0.16935143609E+03  0.12498351399E+03 0.  0.
          2    1    1    2  501    0 -0.22765068127E+02  0.63927810476E+01 -0.58524345976E+03  0.58572094309E+03  0.00000000000E+00 0. -1.
          1    1    1    2  502    0 -0.35504937178E+02 -0.75999346636E+02  0.12671257391E+03  0.15196242180E+03  0.00000000000E+00 0. -1.
         22    1    3    3    0    0  0.39365809693E+02  0.10414553658E+03 -0.34052777545E+02  0.11642831022E+03  0.00000000000E+00 0. -1.
         22    1    3    3    0    0  0.18904195612E+02 -0.34538970993E+02 -0.35363089829E+02  0.52923125864E+02  0.00000000000E+00 0. -1.
</event>
<event>
 7    1  0.6386201E-006  0.1190557E+03  0.7818608E-02  0.1412441E+00
          2   -1    0    0  502    0  0.00000000000E+00  0.00000000000E+00  0.21523308161E+04  0.21523308161E+04  0.00000000000E+00 0. -1.
          1   -1    0    0  501    0 -0.00000000000E+00 -0.00000000000E+00 -0.61404666065E+03  0.61404666065E+03  0.00000000000E+00 0. -1.
         25    2    1    2    0    0  0.13849456140E+02  0.13382499714E+03 -0.12201476192E+03  0.22048228928E+03  0.12499560178E+03 0.  0.
          2    1    1    2  501    0 -0.22264718635E+02 -0.15199754615E+02 -0.44070474163E+03  0.44152850365E+03  0.00000000000E+00 0. -1.
          1    1    1    2  502    0  0.84152624956E+01 -0.11862524253E+03  0.21010036590E+04  0.21043666838E+04  0.00000000000E+00 0. -1.
         22    1    3    3    0    0  0.33246992198E+02  0.44732693342E+02  0.13313679737E+02  0.57302970359E+02  0.00000000000E+00 0. -1.
         22    1    3    3    0    0 -0.19397536058E+02  0.89092303800E+02 -0.13532844166E+03  0.16317931892E+03  0.00000000000E+00 0. -1.
</event>
<event>
 7    1  0.6386201E-006  0.9281598E+02  0.7818608E-02  0.1339795E+00
          2   -1    0    0  502    0  0.00000000000E+00  0.00000000000E+00  0.73817890568E+03  0.73817890568E+03  0.00000000000E+00 0. -1.
          1   -1    0    0  501    0 -0.00000000000E+00 -0.00000000000E+00 -0.48113067357E+03  0.48113067357E+03  0.00000000000E+00 0. -1.
         25    2    1    2    0    0 -0.14361205674E+02 -0.70968965618E+02  0.16606453970E+03  0.22010248333E+03  0.12499933404E+03 0.  0.
          2    1    1    2  501    0 -0.62170531467E+02  0.86957364966E+01 -0.44743770318E+03  0.45181997415E+03  0.00000000000E+00 0. -1.
          1    1    1    2  502    0  0.76531737140E+02  0.62273229121E+02  0.53842139559E+03  0.54738712177E+03  0.00000000000E+00 0. -1.
         22    1    3    3    0    0 -0.38678331031E+01 -0.37997480603E+01 -0.20674319547E+02  0.21373481396E+02  0.00000000000E+00 0.  1.
         22    1    3    3    0    0 -0.10493372571E+02 -0.67169217557E+02  0.18673885925E+03  0.19872900193E+03  0.00000000000E+00 0.  1.
</event>
<event>
 7    1  0.6386201E-006  0.6668090E+02  0.7818608E-02  0.1461400E+00
          2   -1    0    0  502    0  0.00000000000E+00  0.00000000000E+00  0.74228670848E+02  0.74228670848E+02  0.00000000000E+00 0. -1.
          1   -1    0    0  501    0 -0.00000000000E+00 -0.00000000000E+00 -0.19309086510E+04  0.19309086510E+04  0.00000000000E+00 0. -1.
         25    2    1    2    0    0  0.81629340081E+02  0.98370354263E+01 -0.28078763933E+03  0.31816248363E+03  0.12500220463E+03 0.  0.
          2    1    1    2  501    0 -0.18117196733E+02 -0.27972853917E+02 -0.16115629931E+04  0.16119075638E+04  0.00000000000E+00 0. -1.
          1    1    1    2  502    0 -0.63512143348E+02  0.18135818491E+02  0.35670652259E+02  0.75067274478E+02  0.00000000000E+00 0. -1.
         22    1    3    3    0    0  0.37373712887E+02  0.42486606062E+02 -0.24748009048E+03  0.25386669986E+03  0.00000000000E+00 0. -1.
         22    1    3    3    0    0  0.44255627194E+02 -0.32649570635E+02 -0.33307548844E+02  0.64295783773E+02  0.00000000000E+00 0. -1.
</event>
<event>
 7    1  0.6386201E-006  0.1417483E+03  0.7818608E-02  0.1266561E+00
          2   -1    0    0  502    0  0.00000000000E+00  0.00000000000E+00  0.39436737767E+03  0.39436737767E+03  0.00000000000E+00 0. -1.
          1   -1    0    0  501    0 -0.00000000000E+00 -0.00000000000E+00 -0.17658338276E+04  0.17658338276E+04  0.00000000000E+00 0. -1.
         25    2    1    2    0    0  0.18849722515E+03  0.25585713766E+02 -0.75999722331E+03  0.79335161544E+03  0.12500069459E+03 0.  0.
          2    1    1    2  501    0 -0.11619110641E+03 -0.60991513736E+02 -0.98044733556E+03  0.98919023234E+03  0.00000000000E+00 0. -1.
          1    1    1    2  502    0 -0.72306118742E+02  0.35405799970E+02  0.36897810890E+03  0.37765935752E+03  0.00000000000E+00 0. -1.
         22    1    3    3    0    0  0.42811044613E+02 -0.46539567913E+02 -0.26058168372E+03  0.26814460802E+03  0.00000000000E+00 0. -1.
         22    1    3    3    0    0  0.14568618054E+03  0.72125281679E+02 -0.49941553959E+03  0.52520700742E+03  0.00000000000E+00 0. -1.
</event>
<event>
 7    1  0.6386201E-006  0.1109124E+03  0.7818608E-02  0.1323651E+00
          2   -1    0    0  502    0  0.00000000000E+00  0.00000000000E+00  0.39950570107E+03  0.39950570107E+03  0.00000000000E+00 0. -1.
          1   -1    0    0  501    0 -0.00000000000E+00 -0.00000000000E+00 -0.17745344751E+03  0.17745344751E+03  0.00000000000E+00 0. -1.
         25    2    1    2    0    0  0.59886273373E+02 -0.57014947168E+02  0.17318008151E+03  0.22902845426E+03  0.12500248913E+03 0.  0.
          2    1    1    2  501    0 -0.11223052381E+03  0.26624695206E+02 -0.12125703182E+03  0.16735540814E+03  0.00000000000E+00 0. -1.
          1    1    1    2  502    0  0.52344250435E+02  0.30390251962E+02  0.17012920386E+03  0.18057528617E+03  0.00000000000E+00 0. -1.
         22    1    3    3    0    0  0.65335223020E+02 -0.86830144563E+02  0.92018852099E+02  0.14239253672E+03  0.00000000000E+00 0.  1.
         22    1    3    3    0    0 -0.54489496473E+01  0.29815197396E+02  0.81161229415E+02  0.86635917541E+02  0.00000000000E+00 0.  1.
</event>
<event>
 7    1  0.6386201E-006  0.1060323E+03  0.7818608E-02  0.1332431E+00
          2   -1    0    0  502    0  0.00000000000E+00  0.00000000000E+00  0.18900118007E+04  0.18900118007E+04  0.00000000000E+00 0. -1.
          1   -1    0    0  501    0 -0.00000000000E+00 -0.00000000000E+00 -0.46534525143E+02  0.46534525143E+02  0.00000000000E+00 0. -1.
         25    2    1    2    0    0 -0.66126872678E+02  0.15427127221E+01  0.57602947813E+03  0.59313583739E+03  0.12500007465E+03 0.  0.
          2    1    1    2  501    0 -0.48588484737E+02  0.32746155245E+02 -0.10789286059E+02  0.59578185823E+02  0.00000000000E+00 0. -1.
          1    1    1    2  502    0  0.11471535741E+03 -0.34288867967E+02  0.12782370834E+04  0.12838323026E+04  0.00000000000E+00 0. -1.
         22    1    3    3    0    0 -0.11609088399E+02 -0.47841487512E+02  0.10005139794E+03  0.11150722439E+03  0.00000000000E+00 0.  1.
         22    1    3    3    0    0 -0.54517784279E+02  0.49384200235E+02  0.47597808019E+03  0.48162861300E+03  0.00000000000E+00 0.  1.
</event>
<event>
 7    1  0.6386201E-006  0.6206857E+02  0.7818608E-02  0.1460703E+00
          2   -1    0    0  502    0  0.00000000000E+00  0.00000000000E+00  0.60878875450E+03  0.60878875450E+03  0.00000000000E+00 0. -1.
          1   -1    0    0  501    0 -0.00000000000E+00 -0.00000000000E+00 -0.92064177789E+03  0.92064177789E+03  0.00000000000E+00 0. -1.
         25    2    1    2    0    0 -0.70406278544E+02 -0.42839581997E+02 -0.37707025748E+03  0.40570820239E+03  0.12499957027E+03 0.  0.
          2    1    1    2  501    0  0.89075327110E+01  0.34865473862E+02 -0.52702004019E+03  0.52824716579E+03  0.00000000000E+00 0. -1.
          1    1    1    2  502    0  0.61498745833E+02  0.79741081348E+01  0.59223727427E+03  0.59547516420E+03  0.00000000000E+00 0. -1.
         22    1    3    3    0    0 -0.45165665562E+01  0.41771941279E+02 -0.12107729617E+03  0.12816007997E+03  0.00000000000E+00 0. -1.
         22    1    3    3    0    0 -0.65889711988E+02 -0.84611523276E+02 -0.25599296132E+03  0.27754812242E+03  0.00000000000E+00 0. -1.
</event>
<event>
 7    1  0.6386201E-006  0.4793182E+02  0.7818608E-02  0.1474592E+00
          2   -1    0    0  502    0  0.00000000000E+00  0.00000000000E+00  0.35751625061E+03  0.35751625061E+03  0.00000000000E+00 0. -1.
          1   -1    0    0  501    0 -0.00000000000E+00 -0.00000000000E+00 -0.13431610716E+04  0.13431610716E+04  0.00000000000E+00 0. -1.
         25    2    1    2    0    0 -0.69600981405E+02  0.52676961204E+02  0.12411105584E+03  0.19659138383E+03  0.12500183662E+03 0.  0.
          2    1    1    2  501    0  0.33262829308E+02 -0.25924643074E+02 -0.13039937719E+04  0.13046755382E+04  0.00000000000E+00 0. -1.
          1    1    1    2  502    0  0.36338152097E+02 -0.26752318130E+02  0.19423789504E+03  0.19941040017E+03  0.00000000000E+00 0. -1.
         22    1    3    3    0    0 -0.84205488093E+02  0.83315334525E+02  0.98809811221E+02  0.15425753786E+03  0.00000000000E+00 0. -1.
         22    1    3    3    0    0  0.14604506688E+02 -0.30638373321E+02  0.25301244623E+02  0.42333845973E+02  0.00000000000E+00 0. -1.
</event>
<event>
 7    1  0.6386201E-006  0.7565054E+02  0.7818608E-02  0.1389361E+00
          2   -1    0    0  502    0  0.00000000000E+00  0.00000000000E+00  0.44008855230E+03  0.44008855230E+03  0.00000000000E+00 0. -1.
          1   -1    0    0  501    0 -0.00000000000E+00 -0.00000000000E+00 -0.97521150140E+03  0.97521150140E+03  0.00000000000E+00 0. -1.
         25    2    1    2    0    0 -0.20569804602E+02 -0.24481020664E+02 -0.23387396491E+03  0.26710571160E+03  0.12500396982E+03 0.  0.
          2    1    1    2  501    0  0.64226070704E+02  0.50692477319E+02 -0.72086818498E+03  0.72549683358E+03  0.00000000000E+00 0. -1.
          1    1    1    2  502    0 -0.43656266101E+02 -0.26211456655E+02  0.41961920080E+03  0.42269750852E+03  0.00000000000E+00 0. -1.
         22    1    3    3    0    0 -0.62596217277E+01 -0.61239530932E+02 -0.21450083286E+03  0.22315929358E+03  0.00000000000E+00 0.  1.
         22    1    3    3    0    0 -0.14310182875E+02  0.36758510268E+02 -0.19373132049E+02  0.43946418016E+02  0.00000000000E+00 0.  1.
</event>
<event>
 7    1  0.6386201E-006  0.1501202E+03  0.7818608E-02  0.1213544E+00
          2   -1    0    0  502    0  0.00000000000E+00  0.00000000000E+00  0.14461327266E+04  0.14461327266E+04  0.00000000000E+00 0. -1.
          1   -1    0    0  501    0 -0.00000000000E+00 -0.00000000000E+00 -0.83020790842E+03  0.83020790842E+03  0.00000000000E+00 0. -1.
         25    2    1    2    0    0  0.11411304865E+03 -0.57573858171E+02  0.67166200758E+03  0.69504804631E+03  0.12500158896E+03 0.  0.
          2    1    1    2  501    0 -0.21659050873E+02  0.14934066536E+03 -0.80589858100E+03  0.81990503820E+03  0.00000000000E+00 0. -1.
          1    1    1    2  502    0 -0.92453997776E+02 -0.91766807188E+02  0.75016139158E+03  0.76138755048E+03  0.00000000000E+00 0. -1.
         22    1    3    3    0    0  0.13185958626E+03 -0.64763386225E+02  0.64881494844E+03  0.66523836630E+03  0.00000000000E+00 0. -1.
         22    1    3    3    0    0 -0.17746537614E+02  0.71895280541E+01  0.22847059141E+02  0.29809680010E+02  0.00000000000E+00 0. -1.
</event>
<event>
 7    1  0.6386201E-006  0.7905824E+02  0.7818608E-02  0.1332250E+00
          2   -1    0    0  502    0  0.00000000000E+00  0.00000000000E+00  0.64175683088E+03  0.64175683088E+03  0.00000000000E+00 0. -1.
          1   -1    0    0  501    0 -0.00000000000E+00 -0.00000000000E+00 -0.53111038732E+03  0.53111038732E+03  0.00000000000E+00 0. -1.
         25    2    1    2    0    0 -0.60361789429E+02  0.69787133181E+02 -0.25929861524E+03  0.30228358235E+03  0.12500321081E+03 0.  0.
          2    1    1    2  501    0  0.83327510393E+02  0.58619288256E+01 -0.24073059063E+03  0.25481180009E+03  0.00000000000E+00 0. -1.
          1    1    1    2  502    0 -0.22965720964E+02 -0.75649062007E+02  0.61067564943E+03  0.61577183577E+03  0.00000000000E+00 0. -1.
         22    1    3    3    0    0  0.21423791892E+02  0.50459772202E+02 -0.17445261317E+03  0.18286301351E+03  0.00000000000E+00 0.  1.
         22    1    3    3    0    0 -0.81785581321E+02  0.19327360979E+02 -0.84846002072E+02  0.11942056884E+03  0.00000000000E+00 0.  1.
</event>
<event>
 7    1  0.6386201E-006  0.8126411E+02  0.7818608E-02  0.1382425E+00
          2   -1    0    0  502    0  0.00000000000E+00  0.00000000000E+00  0.13119845561E+03  0.13119845561E+03  0.00000000000E+00 0. -1.
          1   -1    0    0  501    0 -0.00000000000E+00 -0.00000000000E+00 -0.27064480379E+03  0.27064480379E+03  0.00000000000E+00 0. -1.
         25    2    1    2    0    0  0.56478249422E+01  0.78136871642E+02 -0.18945843123E+03  0.24011322408E+03  0.12499037794E+03 0.  0.
          2    1    1    2  501    0 -0.55532165478E+02 -0.83165315062E+02  0.49519114196E+02  0.11159047317E+03  0.00000000000E+00 0. -1.
          1    1    1    2  502    0  0.49884340536E+02  0.50284434201E+01  0.49296885584E+00  0.50139562146E+02  0.00000000000E+00 0. -1.
         22    1    3    3    0    0 -0.34276693843E+02 -0.39141449252E+01 -0.12159714728E+03  0.12639651300E+03  0.00000000000E+00 0.  1.
         22    1    3    3    0    0  0.39924518785E+02  0.82051016567E+02 -0.67861283950E+02  0.11371671108E+03  0.00000000000E+00 0.  1.
</event>
<event>
 7    1  0.6386201E-006  0.1109711E+03  0.7818608E-02  0.1264867E+00
          2   -1    0    0  502    0  0.00000000000E+00  0.00000000000E+00  0.29034338775E+04  0.29034338775E+04  0.00000000000E+00 0. -1.
          1   -1    0    0  501    0 -0.00000000000E+00 -0.00000000000E+00 -0.34208875137E+04  0.34208875137E+04  0.00000000000E+00 0. -1.
         25    2    1    2    0    0 -0.18490211102E+02  0.21540249163E+02  0.62795821772E+03  0.64090709829E+03  0.12499806077E+03 0.  0.
          2    1    1    2  501    0  0.33009971419E+02  0.10594776911E+03 -0.34116961942E+04  0.34135004775E+04  0.00000000000E+00 0. -1.
          1    1    1    2  502    0 -0.14519760317E+02 -0.12748801827E+03  0.22662843403E+04  0.22699138154E+04  0.00000000000E+00 0. -1.
         22    1    3    3    0    0  0.44014386826E+02  0.43514380517E+02  0.29601438864E+03  0.30241574999E+03  0.00000000000E+00 0. -1.
         22    1    3    3    0    0 -0.62504597928E+02 -0.21974131355E+02  0.33194382907E+03  0.33849134830E+03  0.00000000000E+00 0. -1.
</event>
<event>
 7    1  0.9006348E-006  0.7613154E+02  0.7818608E-02  0.1364046E+00
          2   -1    0    0  502    0  0.00000000000E+00  0.00000000000E+00  0.94722021396E+03  0.94722021396E+03  0.00000000000E+00 0. -1.
          1   -1    0    0  501    0 -0.00000000000E+00 -0.00000000000E+00 -0.32498186261E+04  0.32498186261E+04  0.00000000000E+00 0. -1.
         25    2    1    2    0    0  0.11686819882E+03 -0.28904196965E+02 -0.11664303978E+04  0.11792704172E+04  0.12500086201E+03 0.  0.
          2    1    1    2  501    0 -0.71398217649E+02 -0.13633981414E+02 -0.20753009873E+04  0.20765735669E+04  0.00000000000E+00 0. -1.
          1    1    1    2  502    0 -0.45469981169E+02  0.42538178379E+02  0.93913297299E+03  0.94119485590E+03  0.00000000000E+00 0. -1.
         22    1    3    3    0    0  0.67399820098E+02 -0.12000216732E+02 -0.19933895527E+03  0.21076707532E+03  0.00000000000E+00 0.  1.
         22    1    3    3    0    0  0.49468378720E+02 -0.16903980233E+02 -0.96709144257E+03  0.96850334193E+03  0.00000000000E+00 0.  1.
</event>
<event>
 7    1  0.6386201E-006  0.7316941E+02  0.7818608E-02  0.1410029E+00
          2   -1    0    0  502    0  0.00000000000E+00  0.00000000000E+00  0.80476710064E+03  0.80476710064E+03  0.00000000000E+00 0. -1.
          1   -1    0    0  501    0 -0.00000000000E+00 -0.00000000000E+00 -0.30231497578E+03  0.30231497578E+03  0.00000000000E+00 0. -1.
         25    2    1    2    0    0  0.14038737687E+02  0.29181917320E+02  0.53398892036E+03  0.54937874114E+03  0.12499665476E+03 0.  0.
          2    1    1    2  501    0 -0.65355829156E+01 -0.73243742022E+02 -0.28806903828E+03  0.29730645873E+03  0.00000000000E+00 0. -1.
          1    1    1    2  502    0 -0.75031547710E+01  0.44061824702E+02  0.25653224278E+03  0.26039687655E+03  0.00000000000E+00 0. -1.
         22    1    3    3    0    0  0.46844250242E+02 -0.33667159203E+02  0.26476046143E+03  0.27097225564E+03  0.00000000000E+00 0. -1.
         22    1    3    3    0    0 -0.32805512555E+02  0.62849076523E+02  0.26922845893E+03  0.27840648550E+03  0.00000000000E+00 0. -1.
</event>
<event>
 7    1  0.6386201E-006  0.6220024E+02  0.7818608E-02  0.1400266E+00
          2   -1    0    0  502    0  0.00000000000E+00  0.00000000000E+00  0.47805163098E+03  0.47805163098E+03  0.00000000000E+00 0. -1.
          1   -1    0    0  501    0 -0.00000000000E+00 -0.00000000000E+00 -0.16345856747E+03  0.16345856747E+03  0.00000000000E+00 0. -1.
         25    2    1    2    0    0  0.25521024558E+02 -0.17064771119E+02  0.23432047711E+03  0.26734817932E+03  0.12500573540E+03 0.  0.
          2    1    1    2  501    0 -0.32070725625E+02 -0.53294828273E+02 -0.13443388377E+03  0.14812609246E+03  0.00000000000E+00 0. -1.
          1    1    1    2  502    0  0.65497010669E+01  0.70359599392E+02  0.21470647017E+03  0.22603592666E+03  0.00000000000E+00 0. -1.
         22    1    3    3    0    0  0.42756635621E+02  0.22530934459E+02  0.21441973037E+03  0.21979898469E+03  0.00000000000E+00 0. -1.
         22    1    3    3    0    0 -0.17235611063E+02 -0.39595705578E+02  0.19900746739E+02  0.47549194627E+02  0.00000000000E+00 0. -1.
</event>
<event>
 7    1  0.6386201E-006  0.7301127E+02  0.7818608E-02  0.1416052E+00
          2   -1    0    0  502    0  0.00000000000E+00  0.00000000000E+00  0.22920590057E+04  0.22920590057E+04  0.00000000000E+00 0. -1.
          1   -1    0    0  501    0 -0.00000000000E+00 -0.00000000000E+00 -0.11648824897E+04  0.11648824897E+04  0.00000000000E+00 0. -1.
         25    2    1    2    0    0 -0.21233417823E+02 -0.28137823845E+02  0.14827010521E+03  0.19711003098E+03  0.12500298017E+03 0.  0.
          2    1    1    2  501    0  0.62926284311E+02  0.37565679237E+02 -0.11390693001E+04  0.11414244469E+04  0.00000000000E+00 0. -1.
          1    1    1    2  502    0 -0.41692866488E+02 -0.94278553917E+01  0.21179757109E+04  0.21184070174E+04  0.00000000000E+00 0. -1.
         22    1    3    3    0    0  0.18894378400E+02  0.27229639815E+02 -0.74886973606E+00  0.33151344248E+02  0.00000000000E+00 0.  1.
         22    1    3    3    0    0 -0.40127796223E+02 -0.55367463660E+02  0.14901897494E+03  0.16395868673E+03  0.00000000000E+00 0.  1.
</event>
<event>
 7    1  0.6386201E-006  0.8223561E+02  0.7818608E-02  0.1371328E+00
          2   -1    0    0  502    0  0.00000000000E+00  0.00000000000E+00  0.15373695335E+04  0.15373695335E+04  0.00000000000E+00 0. -1.
          1   -1    0    0  501    0 -0.00000000000E+00 -0.00000000000E+00 -0.17361559411E+04  0.17361559411E+04  0.00000000000E+00 0. -1.
         25    2    1    2    0    0 -0.69767778591E+02 -0.11027473114E+02  0.38762050123E+03  0.41335603072E+03  0.12499762824E+03 0.  0.
          2    1    1    2  501    0  0.70037257067E+02 -0.43232415937E+02 -0.17216570635E+04  0.17236233067E+04  0.00000000000E+00 0. -1.
          1    1    1    2  502    0 -0.26947847566E+00  0.54259889051E+02  0.11352501547E+04  0.11365461372E+04  0.00000000000E+00 0. -1.
         22    1    3    3    0    0 -0.52093371741E+02  0.20746177754E+02  0.36759565713E+03  0.37184767098E+03  0.00000000000E+00 0.  1.
         22    1    3    3    0    0 -0.17674406850E+02 -0.31773650868E+02  0.20024844092E+02  0.41508359735E+02  0.00000000000E+00 0.  1.
</event>
<event>
 7    1  0.6386201E-006  0.1642446E+03  0.7818608E-02  0.1325034E+00
          2   -1    0    0  502    0  0.00000000000E+00  0.00000000000E+00  0.10872255383E+04  0.10872255383E+04  0.00000000000E+00 0. -1.
          1   -1    0    0  501    0 -0.00000000000E+00 -0.00000000000E+00 -0.36998341574E+03  0.36998341574E+03  0.00000000000E+00 0. -1.
         25    2    1    2    0    0  0.30414409423E+02  0.13811851271E+03 -0.20234435999E+03  0.27671408673E+03  0.12500274366E+03 0.  0.
          2    1    1    2  501    0  0.38649008381E+02  0.11677345514E+02 -0.12066819518E+03  0.12724354433E+03  0.00000000000E+00 0. -1.
          1    1    1    2  502    0 -0.69063417803E+02 -0.14979585822E+03  0.10402546778E+04  0.10532513230E+04  0.00000000000E+00 0. -1.
         22    1    3    3    0    0 -0.45738579684E+02  0.39943269894E+02 -0.93746111676E+02  0.11169519209E+03  0.00000000000E+00 0. -1.
         22    1    3    3    0    0  0.76152989107E+02  0.98175242816E+02 -0.10859824832E+03  0.16501889464E+03  0.00000000000E+00 0. -1.
</event>
<event>
 7    1  0.6386201E-006  0.5358959E+02  0.7818608E-02  0.1435075E+00
          2   -1    0    0  502    0  0.00000000000E+00  0.00000000000E+00  0.25682175028E+04  0.25682175028E+04  0.00000000000E+00 0. -1.
          1   -1    0    0  501    0 -0.00000000000E+00 -0.00000000000E+00 -0.22210568635E+02  0.22210568635E+02  0.00000000000E+00 0. -1.
         25    2    1    2    0    0 -0.35161873551E+02  0.29344747428E+02  0.51354637646E+03  0.53052190374E+03  0.12500455201E+03 0.  0.
          2    1    1    2  501    0  0.54056449246E+02  0.17346752963E+02  0.46711887826E+02  0.73518773165E+02  0.00000000000E+00 0. -1.
          1    1    1    2  502    0 -0.18894575695E+02 -0.46691500391E+02  0.19857486698E+04  0.19863873945E+04  0.00000000000E+00 0. -1.
         22    1    3    3    0    0 -0.76751801821E+02 -0.71916814153E+01  0.32494131632E+03  0.33396020484E+03  0.00000000000E+00 0.  1.
         22    1    3    3    0    0  0.41589928271E+02  0.36536428843E+02  0.18860506014E+03  0.19656169891E+03  0.00000000000E+00 0.  1.
</event>
<event>
 7    1  0.6386201E-006  0.3201601E+02  0.7818608E-02  0.1602729E+00
          2   -1    0    0  502    0  0.00000000000E+00  0.00000000000E+00  0.29827481790E+04  0.29827481790E+04  0.00000000000E+00 0. -1.
          1   -1    0    0  501    0 -0.00000000000E+00 -0.00000000000E+00 -0.47743517972E+02  0.47743517972E+02  0.00000000000E+00 0. -1.
         25    2    1    2    0    0  0.55752870541E+02 -0.19388524983E+02  0.13534171144E+04  0.13604586641E+04  0.12500237505E+03 0.  0.
          2    1    1    2  501    0 -0.29221002782E+02  0.12801052187E+02 -0.38338919989E+02  0.49875913290E+02  0.00000000000E+00 0. -1.
          1    1    1    2  502    0 -0.26531867759E+02  0.65874727968E+01  0.16199264666E+04  0.16201571196E+04  0.00000000000E+00 0. -1.
         22    1    3    3    0    0 -0.39852126285E+02 -0.35160605487E+01  0.48619225251E+03  0.48783548564E+03  0.00000000000E+00 0. -1.
         22    1    3    3    0    0  0.95604996825E+02 -0.15872464435E+02  0.86722486184E+03  0.87262317844E+03  0.00000000000E+00 0. -1.
</event>
<event>
 7    1  0.6386201E-006  0.1062267E+03  0.7818608E-02  0.1327969E+00
          2   -1    0    0  502    0  0.00000000000E+00  0.00000000000E+00  0.54050530376E+03  0.54050530376E+03  0.00000000000E+00 0. -1.
          1   -1    0    0  501    0 -0.00000000000E+00 -0.00000000000E+00 -0.10910456537E+04  0.10910456537E+04  0.00000000000E+00 0. -1.
         25    2    1    2    0    0  0.13605506165E+03  0.88693487049E+02 -0.35475634024E+02  0.20799439106E+03  0.12500252660E+03 0.  0.
          2    1    1    2  501    0 -0.94663176210E+02 -0.44122499798E+02 -0.96444238229E+03  0.97008093512E+03  0.00000000000E+00 0. -1.
          1    1    1    2  502    0 -0.41391885437E+02 -0.44570987251E+02  0.44937766640E+03  0.45347563126E+03  0.00000000000E+00 0. -1.
         22    1    3    3    0    0  0.10128545968E+03  0.30979016058E+02 -0.75088895243E+02  0.12983368579E+03  0.00000000000E+00 0. -1.
         22    1    3    3    0    0  0.34769601970E+02  0.57714470991E+02  0.39613261220E+02  0.78160705264E+02  0.00000000000E+00 0. -1.
</event>
<event>
 7    1  0.6386201E-006  0.7100425E+02  0.7818608E-02  0.1450539E+00
          2   -1    0    0  502    0  0.00000000000E+00  0.00000000000E+00  0.57156335776E+03  0.57156335776E+03  0.00000000000E+00 0. -1.
          1   -1    0    0  501    0 -0.00000000000E+00 -0.00000000000E+00 -0.39439670788E+03  0.39439670788E+03  0.00000000000E+00 0. -1.
         25    2    1    2    0    0  0.75786074264E+01  0.36926395105E+02 -0.13708481435E+03  0.18931024351E+03  0.12500051211E+03 0.  0.
          2    1    1    2  501    0  0.33608011027E+01  0.33715602675E+02 -0.22759757109E+03  0.23010582612E+03  0.00000000000E+00 0. -1.
          1    1    1    2  502    0 -0.10939408529E+02 -0.70641997780E+02  0.54184903531E+03  0.54654399601E+03  0.00000000000E+00 0. -1.
         22    1    3    3    0    0 -0.78757977028E+01  0.61529214005E+02 -0.14623650293E+03  0.15884894446E+03  0.00000000000E+00 0.  1.
         22    1    3    3    0    0  0.15454405129E+02 -0.24602818900E+02  0.91516885892E+01  0.30461299049E+02  0.00000000000E+00 0.  1.
</event>
<event>
 7    1  0.6386201E-006  0.4987099E+02  0.7818608E-02  0.1473764E+00
          2   -1    0    0  502    0  0.00000000000E+00  0.00000000000E+00  0.97911336023E+03  0.97911336023E+03  0.00000000000E+00 0. -1.
          1   -1    0    0  501    0 -0.00000000000E+00 -0.00000000000E+00 -0.48652613447E+02  0.48652613447E+02  0.00000000000E+00 0. -1.
         25    2    1    2    0    0 -0.63242282339E+02 -0.50379434988E+02  0.44379594774E+03  0.46809947927E+03  0.12499842208E+03 0.  0.
          2    1    1    2  501    0  0.23114460759E+02  0.43158925777E+02 -0.18885249535E+02  0.52474982805E+02  0.00000000000E+00 0. -1.
          1    1    1    2  502    0  0.40127821580E+02  0.72205092108E+01  0.50555004858E+03  0.50719151160E+03  0.00000000000E+00 0. -1.
         22    1    3    3    0    0 -0.32624564524E+02 -0.39873157448E+02  0.42972678232E+03  0.43280404150E+03  0.00000000000E+00 0. -1.
         22    1    3    3    0    0 -0.30617717815E+02 -0.10506277540E+02  0.14069165412E+02  0.35295437769E+02  0.00000000000E+00 0. -1.
</event>
<event>
 7    1  0.6386201E-006  0.2125926E+03  0.7818608E-02  0.1163481E+00
          2   -1    0    0  502    0  0.00000000000E+00  0.00000000000E+00  0.10415604344E+04  0.10415604344E+04  0.00000000000E+00 0. -1.
          1   -1    0    0  501    0 -0.00000000000E+00 -0.00000000000E+00 -0.10521950579E+04  0.10521950579E+04  0.00000000000E+00 0. -1.
         25    2    1    2    0    0 -0.14424245205E+03 -0.15544844376E+03 -0.15306604674E+03  0.28985942312E+03  0.12497666527E+03 0.  0.
          2    1    1    2  501    0  0.14843563332E+03 -0.60223836847E+02 -0.81084568138E+03  0.82651725135E+03  0.00000000000E+00 0. -1.
          1    1    1    2  502    0 -0.41931812635E+01  0.21567228061E+03  0.95327710460E+03  0.97737881783E+03  0.00000000000E+00 0. -1.
         22    1    3    3    0    0 -0.16254346733E+03 -0.15791171683E+03 -0.14815483548E+03  0.27075144388E+03  0.00000000000E+00 0. -1.
         22    1    3    3    0    0  0.18301015282E+02  0.24632730711E+01 -0.49112112675E+01  0.19107979242E+02  0.00000000000E+00 0. -1.
</event>
<event>
 7    1  0.6386201E-006  0.1155764E+03  0.7818608E-02  0.1417088E+00
          2   -1    0    0  502    0  0.00000000000E+00  0.00000000000E+00  0.78368395549E+03  0.78368395549E+03  0.00000000000E+00 0. -1.
          1   -1    0    0  501    0 -0.00000000000E+00 -0.00000000000E+00 -0.35043109517E+02  0.35043109517E+02  0.00000000000E+00 0. -1.
         25    2    1    2    0    0 -0.11946136610E+03  0.33128290030E+02  0.35248868438E+03  0.39400749930E+03  0.12500054120E+03 0.  0.
          2    1    1    2  501    0  0.99110290885E+02 -0.50546914193E+02  0.21988972157E+03  0.24643321599E+03  0.00000000000E+00 0. -1.
          1    1    1    2  502    0  0.20351075210E+02  0.17418624163E+02  0.17626244003E+03  0.17828634971E+03  0.00000000000E+00 0. -1.
         22    1    3    3    0    0  0.12353047478E+02  0.53071854912E+01 -0.30627647190E+01  0.13789290321E+02  0.00000000000E+00 0. -1.
         22    1    3    3    0    0 -0.13181441357E+03  0.27821104539E+02  0.35555144910E+03  0.38021820898E+03  0.00000000000E+00 0. -1.
</event>
<event>
 7    1  0.6386201E-006  0.6914120E+02  0.7818608E-02  0.1386629E+00
          2   -1    0    0  502    0  0.00000000000E+00  0.00000000000E+00  0.23104972005E+03  0.23104972005E+03  0.00000000000E+00 0. -1.
          1   -1    0    0  501    0 -0.00000000000E+00 -0.00000000000E+00 -0.71211109001E+03  0.71211109001E+03  0.00000000000E+00 0. -1.
         25    2    1    2    0    0  0.90239427295E+02  0.24255867242E+02 -0.19194999306E+03  0.24738896114E+03  0.12499998770E+03 0.  0.
          2    1    1    2  501    0 -0.26421001436E+02 -0.50455930022E+02 -0.48487484070E+03  0.48820844046E+03  0.00000000000E+00 0. -1.
          1    1    1    2  502    0 -0.63818425860E+02  0.26200062780E+02  0.19576346380E+03  0.20756340845E+03  0.00000000000E+00 0. -1.
         22    1    3    3    0    0  0.12205138464E+03  0.16729290483E+02 -0.15644295053E+03  0.19912510244E+03  0.00000000000E+00 0. -1.
         22    1    3    3    0    0 -0.31811957342E+02  0.75265767593E+01 -0.35507042533E+02  0.48263858705E+02  0.00000000000E+00 0. -1.
</event>
<event>
 7    1  0.6386201E-006  0.8649013E+02  0.7818608E-02  0.1322515E+00
          2   -1    0    0  502    0  0.00000000000E+00  0.00000000000E+00  0.21465161353E+04  0.21465161353E+04  0.00000000000E+00 0. -1.
          1   -1    0    0  501    0 -0.00000000000E+00 -0.00000000000E+00 -0.88064431707E+03  0.88064431707E+03  0.00000000000E+00 0. -1.
         25    2    1    2    0    0 -0.84984604342E+02 -0.13614338785E+03  0.50838258787E+03  0.54757224821E+03  0.12500042533E+03 0.  0.
          2    1    1    2  501    0  0.36309616443E+02  0.69491824264E+02 -0.85820911644E+03  0.86178326128E+03  0.00000000000E+00 0. -1.
          1    1    1    2  502    0  0.48674987899E+02  0.66651563587E+02  0.16156983468E+04  0.16178049429E+04  0.00000000000E+00 0. -1.
         22    1    3    3    0    0  0.13015673868E+02  0.14200569191E+02  0.94697909089E+02  0.96637249120E+02  0.00000000000E+00 0. -1.
         22    1    3    3    0    0 -0.98000278210E+02 -0.15034395704E+03  0.41368467878E+03  0.45093499909E+03  0.00000000000E+00 0. -1.
</event>
<event>
 7    1  0.6386201E-006  0.6739478E+02  0.7818608E-02  0.1386258E+00
          2   -1    0    0  502    0  0.00000000000E+00  0.00000000000E+00  0.49005441040E+04  0.49005441040E+04  0.00000000000E+00 0. -1.
          1   -1    0    0  501    0 -0.00000000000E+00 -0.00000000000E+00 -0.15497225658E+02  0.15497225658E+02  0.00000000000E+00 0. -1.
         25    2    1    2    0    0 -0.14428888547E+02  0.44953076020E+02  0.39214593676E+03  0.41428557116E+03  0.12500050755E+03 0.  0.
          2    1    1    2  501    0  0.63184002217E+02 -0.77474429385E+02  0.58965288973E+03  0.59806775178E+03  0.00000000000E+00 0. -1.
          1    1    1    2  502    0 -0.48755113670E+02  0.32521353365E+02  0.39032480518E+04  0.39036880067E+04  0.00000000000E+00 0. -1.
         22    1    3    3    0    0 -0.41485973293E+01  0.27026589065E+02  0.65244555464E+01  0.28110779008E+02  0.00000000000E+00 0. -1.
         22    1    3    3    0    0 -0.10280291218E+02  0.17926486955E+02  0.38562148121E+03  0.38617479215E+03  0.00000000000E+00 0. -1.
</event>
<event>
 7    1  0.6386201E-006  0.9929535E+02  0.7818608E-02  0.1299110E+00
          2   -1    0    0  502    0  0.00000000000E+00  0.00000000000E+00  0.76456743223E+03  0.76456743223E+03  0.00000000000E+00 0. -1.
          1   -1    0    0  501    0 -0.00000000000E+00 -0.00000000000E+00 -0.22975170418E+03  0.22975170418E+03  0.00000000000E+00 0. -1.
         25    2    1    2    0    0 -0.85288116861E+02  0.93730322574E+02  0.10835779993E+03  0.20838870365E+03  0.12500001103E+03 0.  0.
          2    1    1    2  501    0  0.98905485133E+02 -0.10402967177E+02 -0.16273552304E+03  0.19071803054E+03  0.00000000000E+00 0. -1.
          1    1    1    2  502    0 -0.13617368273E+02 -0.83327355396E+02  0.58919345115E+03  0.59521240222E+03  0.00000000000E+00 0. -1.
         22    1    3    3    0    0 -0.22098058558E+02  0.10994589872E+03  0.60030877632E+02  0.12720114428E+03  0.00000000000E+00 0.  1.
         22    1    3    3    0    0 -0.63190058302E+02 -0.16215576144E+02  0.48326922302E+02  0.81187559374E+02  0.00000000000E+00 0.  1.
</event>
<event>
 7    1  0.6386201E-006  0.5984514E+02  0.7818608E-02  0.1435581E+00
          2   -1    0    0  502    0  0.00000000000E+00  0.00000000000E+00  0.23234140066E+04  0.23234140066E+04  0.00000000000E+00 0. -1.
          1   -1    0    0  501    0 -0.00000000000E+00 -0.00000000000E+00 -0.10573259696E+03  0.10573259696E+03  0.00000000000E+00 0. -1.
         25    2    1    2    0    0  0.54347289891E+01  0.28269644859E+02  0.83896211396E+02  0.15327223621E+03  0.12500038003E+03 0.  0.
          2    1    1    2  501    0 -0.47880734230E+02 -0.43012004664E+02 -0.56189229510E+02  0.85439023687E+02  0.00000000000E+00 0. -1.
          1    1    1    2  502    0  0.42446005241E+02  0.14742359805E+02  0.21899744277E+04  0.21904353436E+04  0.00000000000E+00 0. -1.
         22    1    3    3    0    0  0.19851128442E+01 -0.38679346694E+02 -0.79749890769E+01  0.39542799401E+02  0.00000000000E+00 0.  1.
         22    1    3    3    0    0  0.34496161449E+01  0.66948991553E+02  0.91871200473E+02  0.11372943681E+03  0.00000000000E+00 0.  1.
</event>
<event>
 7    1  0.6386201E-006  0.5086465E+02  0.7818608E-02  0.1484643E+00
          2   -1    0    0  502    0  0.00000000000E+00  0.00000000000E+00  0.12167630256E+03  0.12167630256E+03  0.00000000000E+00 0. -1.
          1   -1    0    0  501    0 -0.00000000000E+00 -0.00000000000E+00 -0.20272203514E+04  0.20272203514E+04  0.00000000000E+00 0. -1.
         25    2    1    2    0    0  0.64398653092E+02 -0.17409986677E+02  0.30028792946E+01  0.14172033044E+03  0.12500136248E+03 0.  0.
          2    1    1    2  501    0 -0.48287000383E+02 -0.15915173074E+02 -0.19505374402E+04  0.19511999469E+04  0.00000000000E+00 0. -1.
          1    1    1    2  502    0 -0.16111652709E+02  0.33325159751E+02  0.41990512117E+02  0.55976376564E+02  0.00000000000E+00 0. -1.
         22    1    3    3    0    0 -0.17407115783E+02 -0.48801524214E+02 -0.11050834077E+02  0.52978461466E+02  0.00000000000E+00 0.  1.
         22    1    3    3    0    0  0.81805768875E+02  0.31391537537E+02  0.14053713372E+02  0.88741868978E+02  0.00000000000E+00 0.  1.
</event>
<event>
 7    1  0.6386201E-006  0.8488314E+02  0.7818608E-02  0.1451895E+00
          2   -1    0    0  502    0  0.00000000000E+00  0.00000000000E+00  0.23177307631E+03  0.23177307631E+03  0.00000000000E+00 0. -1.
          1   -1    0    0  501    0 -0.00000000000E+00 -0.00000000000E+00 -0.14527138800E+04  0.14527138800E+04  0.00000000000E+00 0. -1.
         25    2    1    2    0    0 -0.56331579161E+02 -0.95660120633E+02 -0.12981487034E+03  0.21166292241E+03  0.12500074668E+03 0.  0.
          2    1    1    2  501    0  0.36769754254E+02  0.75541118310E+02 -0.12795583879E+04  0.12823135901E+04  0.00000000000E+00 0. -1.
          1    1    1    2  502    0  0.19561824908E+02  0.20119002323E+02  0.18843245456E+03  0.19051044376E+03  0.00000000000E+00 0. -1.
         22    1    3    3    0    0 -0.88891667628E+02 -0.92630765334E+02 -0.77478243245E+02  0.14995020986E+03  0.00000000000E+00 0.  1.
         22    1    3    3    0    0  0.32560088466E+02 -0.30293552993E+01 -0.52336627095E+02  0.61712712549E+02  0.00000000000E+00 0.  1.
</event>
<event>
 7    1  0.6386201E-006  0.6698556E+02  0.7818608E-02  0.1534001E+00
          2   -1    0    0  502    0  0.00000000000E+00  0.00000000000E+00  0.50291087811E+02  0.50291087811E+02  0.00000000000E+00 0. -1.
          1   -1    0    0  501    0 -0.00000000000E+00 -0.00000000000E+00 -0.16440753144E+04  0.16440753144E+04  0.00000000000E+00 0. -1.
         25    2    1    2    0    0  0.63061477973E+02 -0.54698961040E+02 -0.54066854059E+03  0.56117397685E+03  0.12500014068E+03 0.  0.
          2    1    1    2  501    0 -0.19517883913E+02  0.48327990584E+01 -0.10656287443E+04  0.10658184294E+04  0.00000000000E+00 0. -1.
          1    1    1    2  502    0 -0.43543594060E+02  0.49866161982E+02  0.12513058368E+02  0.67373995905E+02  0.00000000000E+00 0. -1.
         22    1    3    3    0    0  0.49622085147E+02 -0.92882641946E+02 -0.44506553583E+03  0.45735420375E+03  0.00000000000E+00 0. -1.
         22    1    3    3    0    0  0.13439392826E+02  0.38183680906E+02 -0.95603004762E+02  0.10381977310E+03  0.00000000000E+00 0. -1.
</event>
<event>
 7    1  0.6386201E-006  0.5881529E+02  0.7818608E-02  0.1459798E+00
          2   -1    0    0  502    0  0.00000000000E+00  0.00000000000E+00  0.66108380395E+03  0.66108380395E+03  0.00000000000E+00 0. -1.
          1   -1    0    0  501    0 -0.00000000000E+00 -0.00000000000E+00 -0.10706668757E+03  0.10706668757E+03  0.00000000000E+00 0. -1.
         25    2    1    2    0    0 -0.89410846229E+02  0.33691021320E+02  0.56817889229E+02  0.16727838417E+03  0.12499760371E+03 0.  0.
          2    1    1    2  501    0  0.33852899761E+02 -0.17754574604E+02 -0.43031520214E+02  0.57558278931E+02  0.00000000000E+00 0. -1.
          1    1    1    2  502    0  0.55557946468E+02 -0.15936446717E+02  0.54023074737E+03  0.54331382842E+03  0.00000000000E+00 0. -1.
         22    1    3    3    0    0  0.22613814694E+02 -0.46670419374E+01 -0.16162421855E+02  0.28184921069E+02  0.00000000000E+00 0.  1.
         22    1    3    3    0    0 -0.11202466092E+03  0.38358063258E+02  0.72980311083E+02  0.13909346310E+03  0.00000000000E+00 0.  1.
</event>
<event>
 7    1  0.6386201E-006  0.1293645E+03  0.7818608E-02  0.1235496E+00
          2   -1    0    0  502    0  0.00000000000E+00  0.00000000000E+00  0.15103374920E+04  0.15103374920E+04  0.00000000000E+00 0. -1.
          1   -1    0    0  501    0 -0.00000000000E+00 -0.00000000000E+00 -0.48696695304E+03  0.48696695304E+03  0.00000000000E+00 0. -1.
         25    2    1    2    0    0 -0.27922818819E+02  0.21710493228E+00  0.27956506566E+03  0.30752291811E+03  0.12503594796E+03 0.  0.
          2    1    1    2  501    0 -0.10885275357E+03 -0.69901690563E+02 -0.45917328424E+03  0.47704850200E+03  0.00000000000E+00 0. -1.
          1    1    1    2  502    0  0.13677557239E+03  0.69684585630E+02  0.12029787575E+04  0.12127330249E+04  0.00000000000E+00 0. -1.
         22    1    3    3    0    0 -0.41863193154E+02 -0.28626200168E+02  0.36815697612E+02  0.62668826922E+02  0.00000000000E+00 0.  1.
         22    1    3    3    0    0  0.13940374335E+02  0.28843305101E+02  0.24274936805E+03  0.24485409119E+03  0.00000000000E+00 0.  1.
</event>
<event>
 7    1  0.6386201E-006  0.9722053E+02  0.7818608E-02  0.1294641E+00
          2   -1    0    0  502    0  0.00000000000E+00  0.00000000000E+00  0.22273549382E+04  0.22273549382E+04  0.00000000000E+00 0. -1.
          1   -1    0    0  501    0 -0.00000000000E+00 -0.00000000000E+00 -0.12816666306E+03  0.12816666306E+03  0.00000000000E+00 0. -1.
         25    2    1    2    0    0 -0.15686242193E+03  0.49728478148E+02  0.74239112849E+03  0.77061702746E+03  0.12500909723E+03 0.  0.
          2    1    1    2  501    0  0.65931506800E+02 -0.61085437959E+02 -0.94674145766E+02  0.13054343414E+03  0.00000000000E+00 0. -1.
          1    1    1    2  502    0  0.90930915126E+02  0.11356959811E+02  0.14514712924E+04  0.14543611397E+04  0.00000000000E+00 0. -1.
         22    1    3    3    0    0 -0.87995545872E+02  0.85324578207E+02  0.54354838854E+03  0.55719686864E+03  0.00000000000E+00 0. -1.
         22    1    3    3    0    0 -0.68866876054E+02 -0.35596100060E+02  0.19884273996E+03  0.21342015882E+03  0.00000000000E+00 0. -1.
</event>
<event>
 7    1  0.6386201E-006  0.3300283E+02  0.7818608E-02  0.1587093E+00
          2   -1    0    0  502    0  0.00000000000E+00  0.00000000000E+00  0.35809175461E+03  0.35809175461E+03  0.00000000000E+00 0. -1.
          1   -1    0    0  501    0 -0.00000000000E+00 -0.00000000000E+00 -0.14970770555E+03  0.14970770555E+03  0.00000000000E+00 0. -1.
         25    2    1    2    0    0  0.11963777265E+02 -0.51944174077E+02 -0.45015105159E+02  0.14315485303E+03  0.12500249224E+03 0.  0.
          2    1    1    2  501    0 -0.20912662464E+02  0.20312858983E+02 -0.50855423366E+02  0.58619329382E+02  0.00000000000E+00 0. -1.
          1    1    1    2  502    0  0.89488851992E+01  0.31631315094E+02  0.30425457758E+03  0.30602527775E+03  0.00000000000E+00 0. -1.
         22    1    3    3    0    0 -0.44275166021E+02 -0.18819413207E+02 -0.59279872981E+02  0.76345032453E+02  0.00000000000E+00 0. -1.
         22    1    3    3    0    0  0.56238943286E+02 -0.33124760870E+02  0.14264767822E+02  0.66809820578E+02  0.00000000000E+00 0. -1.
</event>
<event>
 7    1  0.6386201E-006  0.3773223E+02  0.7818608E-02  0.1540015E+00
          2   -1    0    0  502    0  0.00000000000E+00  0.00000000000E+00  0.57564013966E+02  0.57564013966E+02  0.00000000000E+00 0. -1.
          1   -1    0    0  501    0 -0.00000000000E+00 -0.00000000000E+00 -0.12116461525E+04  0.12116461525E+04  0.00000000000E+00 0. -1.
         25    2    1    2    0    0  0.64809319739E+01  0.16990122873E+02 -0.49548758444E+02  0.13568738831E+03  0.12500128451E+03 0.  0.
          2    1    1    2  501    0  0.36077592643E+02 -0.11051180020E+02 -0.10861161616E+04  0.10867713825E+04  0.00000000000E+00 0. -1.
          1    1    1    2  502    0 -0.42558524617E+02 -0.59389428525E+01 -0.18417218465E+02  0.46751395656E+02  0.00000000000E+00 0. -1.
         22    1    3    3    0    0 -0.13077357138E+02  0.46032575814E+02 -0.77365003225E+02  0.90969000378E+02  0.00000000000E+00 0.  1.
         22    1    3    3    0    0  0.19558289112E+02 -0.29042452941E+02  0.27816244781E+02  0.44718387935E+02  0.00000000000E+00 0.  1.
</event>
<event>
 7    1  0.6386201E-006  0.1167397E+03  0.7818608E-02  0.1418354E+00
          2   -1    0    0  502    0  0.00000000000E+00  0.00000000000E+00  0.80492792797E+03  0.80492792797E+03  0.00000000000E+00 0. -1.
          1   -1    0    0  501    0 -0.00000000000E+00 -0.00000000000E+00 -0.99901935588E+03  0.99901935588E+03  0.00000000000E+00 0. -1.
         25    2    1    2    0    0 -0.45774498050E+02  0.12917921017E+03  0.21520636924E+03  0.28410829611E+03  0.12498467724E+03 0.  0.
          2    1    1    2  501    0  0.52723754880E+02 -0.10385243825E+03 -0.96073887915E+03  0.96777286446E+03  0.00000000000E+00 0. -1.
          1    1    1    2  502    0 -0.69492568301E+01 -0.25326771925E+02  0.55144108201E+03  0.55206612328E+03  0.00000000000E+00 0. -1.
         22    1    3    3    0    0 -0.25591686931E+02  0.13395766061E+03  0.10540532887E+03  0.17236552042E+03  0.00000000000E+00 0. -1.
         22    1    3    3    0    0 -0.20182811118E+02 -0.47784504327E+01  0.10980104037E+03  0.11174277569E+03  0.00000000000E+00 0. -1.
</event>
<event>
 7    1  0.6386201E-006  0.7520284E+02  0.7818608E-02  0.1359334E+00
          2   -1    0    0  502    0  0.00000000000E+00  0.00000000000E+00  0.65773643961E+03  0.65773643961E+03  0.00000000000E+00 0. -1.
          1   -1    0    0  501    0 -0.00000000000E+00 -0.00000000000E+00 -0.28182332233E+03  0.28182332233E+03  0.00000000000E+00 0. -1.
         25    2    1    2    0    0  0.15367316245E+02  0.13791215423E+03  0.22210209205E+03  0.29019141154E+03  0.12500319735E+03 0.  0.
          2    1    1    2  501    0 -0.15079669641E+01 -0.73819243763E+02 -0.23950286809E+03  0.25062557439E+03  0.00000000000E+00 0. -1.
          1    1    1    2  502    0 -0.13859349281E+02 -0.64092910467E+02  0.39331389332E+03  0.39874277600E+03  0.00000000000E+00 0. -1.
         22    1    3    3    0    0 -0.44719757751E+02  0.63471643527E+02  0.15493527319E+03  0.17330160168E+03  0.00000000000E+00 0. -1.
         22    1    3    3    0    0  0.60087073996E+02  0.74440510704E+02  0.67166818858E+02  0.11688980987E+03  0.00000000000E+00 0. -1.
</event>
<event>
 7    1  0.6386201E-006  0.6993469E+02  0.7818608E-02  0.1432634E+00
          2   -1    0    0  502    0  0.00000000000E+00  0.00000000000E+00  0.78670293800E+03  0.78670293800E+03  0.00000000000E+00 0. -1.
          1   -1    0    0  501    0 -0.00000000000E+00 -0.00000000000E+00 -0.65467425513E+02  0.65467425513E+02  0.00000000000E+00 0. -1.
         25    2    1    2    0    0 -0.12430887175E+02 -0.38826619689E+02  0.34339601689E+03  0.36770630561E+03  0.12500027767E+03 0.  0.
          2    1    1    2  501    0  0.13011817253E+01 -0.39292611513E+02 -0.41850755445E+02  0.57420276251E+02  0.00000000000E+00 0. -1.
          1    1    1    2  502    0  0.11129705450E+02  0.78119231202E+02  0.41969025104E+03  0.42704378165E+03  0.00000000000E+00 0. -1.
         22    1    3    3    0    0  0.39225068106E+02 -0.22563109229E+02  0.28296253027E+03  0.28655801054E+03  0.00000000000E+00 0. -1.
         22    1    3    3    0    0 -0.51655955281E+02 -0.16263510459E+02  0.60433486622E+02  0.81148295076E+02  0.00000000000E+00 0. -1.
</event>
<event>
 7    1  0.6386201E-006  0.4801702E+02  0.7818608E-02  0.1470542E+00
          2   -1    0    0  502    0  0.00000000000E+00  0.00000000000E+00  0.37986074773E+03  0.37986074773E+03  0.00000000000E+00 0. -1.
          1   -1    0    0  501    0 -0.00000000000E+00 -0.00000000000E+00 -0.54598238997E+02  0.54598238997E+02  0.00000000000E+00 0. -1.
         25    2    1    2    0    0  0.87431657438E+01 -0.67676257479E+01  0.20951859838E+03  0.24422446916E+03  0.12500121825E+03 0.  0.
          2    1    1    2  501    0 -0.12108112922E+02  0.49968944303E+02 -0.14130980304E+02  0.53321537840E+02  0.00000000000E+00 0. -1.
          1    1    1    2  502    0  0.33649471777E+01 -0.43201318555E+02  0.12987489066E+03  0.13691297973E+03  0.00000000000E+00 0. -1.
         22    1    3    3    0    0  0.29515537817E+02 -0.24661518165E+02  0.60719321881E+01  0.38938744347E+02  0.00000000000E+00 0.  1.
         22    1    3    3    0    0 -0.20772372074E+02  0.17893892417E+02  0.20344666619E+03  0.20528572482E+03  0.00000000000E+00 0.  1.
</event>
<event>
 7    1  0.6386201E-006  0.3519689E+02  0.7818608E-02  0.1579758E+00
          2   -1    0    0  502    0  0.00000000000E+00  0.00000000000E+00  0.20197253504E+04  0.20197253504E+04  0.00000000000E+00 0. -1.
          1   -1    0    0  501    0 -0.00000000000E+00 -0.00000000000E+00 -0.12731779766E+03  0.12731779766E+03  0.00000000000E+00 0. -1.
         25    2    1    2    0    0 -0.14997841103E+02  0.61559837553E+02  0.18375284317E+03  0.23108980170E+03  0.12499136066E+03 0.  0.
          2    1    1    2  501    0  0.41052300517E+01 -0.28301168495E+02 -0.10150441690E+03  0.10545594200E+03  0.00000000000E+00 0. -1.
          1    1    1    2  502    0  0.10892611052E+02 -0.33258669058E+02  0.18101591265E+04  0.18104974044E+04  0.00000000000E+00 0. -1.
         22    1    3    3    0    0 -0.34609952392E+02 -0.20925021280E+02  0.11508890616E+03  0.12198836683E+03  0.00000000000E+00 0. -1.
         22    1    3    3    0    0  0.19612111289E+02  0.82484858834E+02  0.68663937008E+02  0.10910143487E+03  0.00000000000E+00 0. -1.
</event>
<event>
 7    1  0.6386201E-006  0.1713469E+03  0.7818608E-02  0.1264820E+00
          2   -1    0    0  502    0  0.00000000000E+00  0.00000000000E+00  0.87621026692E+03  0.87621026692E+03  0.00000000000E+00 0. -1.
          1   -1    0    0  501    0 -0.00000000000E+00 -0.00000000000E+00 -0.21137354180E+03  0.21137354180E+03  0.00000000000E+00 0. -1.
         25    2    1    2    0    0 -0.26659708321E+02  0.23130733073E+03  0.54231773298E+03  0.60328079935E+03  0.12500151226E+03 0.  0.
          2    1    1    2  501    0  0.32990546347E+02 -0.16386320231E+03 -0.13697950768E+03  0.21610856241E+03  0.00000000000E+00 0. -1.
          1    1    1    2  502    0 -0.63308380253E+01 -0.67444128421E+02  0.25949849983E+03  0.26819444696E+03  0.00000000000E+00 0. -1.
         22    1    3    3    0    0 -0.13170902516E+02 -0.11331584552E+02  0.69859467337E+02  0.71987656290E+02  0.00000000000E+00 0.  1.
         22    1    3    3    0    0 -0.13488805805E+02  0.24263891529E+03  0.47245826564E+03  0.53129314306E+03  0.00000000000E+00 0.  1.
</event>
<event>
 7    1  0.6386201E-006  0.7679030E+02  0.7818608E-02  0.1504664E+00
          2   -1    0    0  502    0  0.00000000000E+00  0.00000000000E+00  0.51661536260E+03  0.51661536260E+03  0.00000000000E+00 0. -1.
          1   -1    0    0  501    0 -0.00000000000E+00 -0.00000000000E+00 -0.59661221124E+02  0.59661221124E+02  0.00000000000E+00 0. -1.
         25    2    1    2    0    0  0.15741002213E+01 -0.57006911962E+02  0.40053455714E+03  0.42344455061E+03  0.12500036072E+03 0.  0.
          2    1    1    2  501    0 -0.16839770577E+01  0.78352204366E+02 -0.13679359053E+02  0.79555191985E+02  0.00000000000E+00 0. -1.
          1    1    1    2  502    0  0.10987683638E+00 -0.21345292404E+02  0.70098943395E+02  0.73276841129E+02  0.00000000000E+00 0. -1.
         22    1    3    3    0    0  0.13843130721E+00 -0.25216062502E+02  0.38866133288E+03  0.38947849831E+03  0.00000000000E+00 0. -1.
         22    1    3    3    0    0  0.14356689141E+01 -0.31790849460E+02  0.11873224256E+02  0.33966052300E+02  0.00000000000E+00 0. -1.
</event>
<event>
 7    1  0.6386201E-006  0.7821760E+02  0.7818608E-02  0.1406485E+00
          2   -1    0    0  502    0  0.00000000000E+00  0.00000000000E+00  0.25819196557E+04  0.25819196557E+04  0.00000000000E+00 0. -1.
          1   -1    0    0  501    0 -0.00000000000E+00 -0.00000000000E+00 -0.10527060903E+03  0.10527060903E+03  0.00000000000E+00 0. -1.
         25    2    1    2    0    0 -0.39353575313E+02  0.19603966185E+02  0.12704656926E+03  0.18354636123E+03  0.12496166044E+03 0.  0.
          2    1    1    2  501    0 -0.39675817333E+02 -0.16544037328E+02 -0.70325970354E+02  0.82423405404E+02  0.00000000000E+00 0. -1.
          1    1    1    2  502    0  0.79029392646E+02 -0.30599288568E+01  0.24199284478E+04  0.24212204981E+04  0.00000000000E+00 0. -1.
         22    1    3    3    0    0 -0.29105198694E+02  0.67903319453E+02  0.10751055171E+03  0.13044727714E+03  0.00000000000E+00 0. -1.
         22    1    3    3    0    0 -0.10248376619E+02 -0.48299353268E+02  0.19536017546E+02  0.53099084088E+02  0.00000000000E+00 0. -1.
</event>
<event>
 7    1  0.6386201E-006  0.7790276E+02  0.7818608E-02  0.1469127E+00
          2   -1    0    0  502    0  0.00000000000E+00  0.00000000000E+00  0.14377261937E+03  0.14377261937E+03  0.00000000000E+00 0. -1.
          1   -1    0    0  501    0 -0.00000000000E+00 -0.00000000000E+00 -0.59829688295E+03  0.59829688295E+03  0.00000000000E+00 0. -1.
         25    2    1    2    0    0 -0.38808063554E+02 -0.88938399657E+02 -0.43857679293E+03  0.46625126302E+03  0.12499812895E+03 0.  0.
          2    1    1    2  501    0 -0.65830143501E+01  0.26165256014E+02 -0.13285937597E+03  0.13557127455E+03  0.00000000000E+00 0. -1.
          1    1    1    2  502    0  0.45391077904E+02  0.62773143642E+02  0.11691190531E+03  0.14024696475E+03  0.00000000000E+00 0. -1.
         22    1    3    3    0    0  0.32202435248E+02  0.66850799543E+01 -0.15891076360E+03  0.16227851958E+03  0.00000000000E+00 0. -1.
         22    1    3    3    0    0 -0.71010498802E+02 -0.95623479611E+02 -0.27966602933E+03  0.30397274344E+03  0.00000000000E+00 0. -1.
</event>
<event>
 7    1  0.6386201E-006  0.9695427E+02  0.7818608E-02  0.1397059E+00
          2   -1    0    0  502    0  0.00000000000E+00  0.00000000000E+00  0.13044409855E+04  0.13044409855E+04  0.00000000000E+00 0. -1.
          1   -1    0    0  501    0 -0.00000000000E+00 -0.00000000000E+00 -0.33422164148E+03  0.33422164148E+03  0.00000000000E+00 0. -1.
         25    2    1    2    0    0 -0.92460844653E+02  0.14899786608E+02  0.34310157632E+03  0.37697963661E+03  0.12499577318E+03 0.  0.
          2    1    1    2  501    0  0.94549479429E+02  0.22401537948E+02 -0.30946215836E+03  0.32435822854E+03  0.00000000000E+00 0. -1.
          1    1    1    2  502    0 -0.20886347763E+01 -0.37301324557E+02  0.93657992611E+03  0.93732476187E+03  0.00000000000E+00 0. -1.
         22    1    3    3    0    0  0.81333594597E+00  0.38582750265E+02  0.28460761467E+02  0.47951069609E+02  0.00000000000E+00 0. -1.
         22    1    3    3    0    0 -0.93274180599E+02 -0.23682963657E+02  0.31464081485E+03  0.32902856700E+03  0.00000000000E+00 0. -1.
</event>
<event>
 7    1  0.6386201E-006  0.6725550E+02  0.7818608E-02  0.1376277E+00
          2   -1    0    0  502    0  0.00000000000E+00  0.00000000000E+00  0.18796119539E+04  0.18796119539E+04  0.00000000000E+00 0. -1.
          1   -1    0    0  501    0 -0.00000000000E+00 -0.00000000000E+00 -0.32868717684E+02  0.32868717684E+02  0.00000000000E+00 0. -1.
         25    2    1    2    0    0  0.40878134397E+02 -0.51770729732E+02  0.65417745903E+03  0.66927037540E+03  0.12499382850E+03 0.  0.
          2    1    1    2  501    0  0.21188885038E+02  0.66092225960E+02  0.24792219121E+02  0.73700782292E+02  0.00000000000E+00 0. -1.
          1    1    1    2  502    0 -0.62067019435E+02 -0.14321496229E+02  0.11677735581E+04  0.11695095139E+04  0.00000000000E+00 0. -1.
         22    1    3    3    0    0 -0.35890064727E+02  0.15484957588E+02  0.19671354143E+03  0.20055946261E+03  0.00000000000E+00 0. -1.
         22    1    3    3    0    0  0.76768199123E+02 -0.67255687320E+02  0.45746391760E+03  0.46871091280E+03  0.00000000000E+00 0. -1.
</event>
<event>
 7    1  0.6386201E-006  0.1717379E+03  0.7818608E-02  0.1276739E+00
          2   -1    0    0  502    0  0.00000000000E+00  0.00000000000E+00  0.15155100164E+04  0.15155100164E+04  0.00000000000E+00 0. -1.
          1   -1    0    0  501    0 -0.00000000000E+00 -0.00000000000E+00 -0.57342526498E+03  0.57342526498E+03  0.00000000000E+00 0. -1.
         25    2    1    2    0    0 -0.92190277436E+02 -0.99200060485E+02 -0.65758830261E+02  0.19567491677E+03  0.12499900016E+03 0.  0.
          2    1    1    2  501    0 -0.58668391429E+02  0.13660108398E+02 -0.43544413698E+03  0.43959091795E+03  0.00000000000E+00 0. -1.
          1    1    1    2  502    0  0.15085866886E+03  0.85539952087E+02  0.14432877186E+04  0.14536694466E+04  0.00000000000E+00 0. -1.
         22    1    3    3    0    0 -0.16399331219E+02  0.21204815936E+02  0.16359170836E+02  0.31403897111E+02  0.00000000000E+00 0. -1.
         22    1    3    3    0    0 -0.75790946217E+02 -0.12040487642E+03 -0.82118001096E+02  0.16427101965E+03  0.00000000000E+00 0. -1.
</event>
<event>
 7    1  0.6386201E-006  0.1114147E+03  0.7818608E-02  0.1345561E+00
          2   -1    0    0  502    0  0.00000000000E+00  0.00000000000E+00  0.18064281875E+03  0.18064281875E+03  0.00000000000E+00 0. -1.
          1   -1    0    0  501    0 -0.00000000000E+00 -0.00000000000E+00 -0.16851922205E+04  0.16851922205E+04  0.00000000000E+00 0. -1.
         25    2    1    2    0    0 -0.48173467519E+02 -0.49470913768E+02 -0.11291778325E+03  0.18205422548E+03  0.12500104383E+03 0.  0.
          2    1    1    2  501    0 -0.27824245713E+02 -0.41251980089E+02 -0.15132588603E+04  0.15140767130E+04  0.00000000000E+00 0. -1.
          1    1    1    2  502    0  0.75997713232E+02  0.90722893857E+02  0.12162724178E+03  0.16970410080E+03  0.00000000000E+00 0. -1.
         22    1    3    3    0    0  0.13715794895E+02 -0.74671808548E+02 -0.57404767954E+02  0.95180404524E+02  0.00000000000E+00 0.  1.
         22    1    3    3    0    0 -0.61889262414E+02  0.25200894779E+02 -0.55513015295E+02  0.86873820953E+02  0.00000000000E+00 0.  1.
</event>
<event>
 7    1  0.8493845E-006  0.6458939E+02  0.7818608E-02  0.1455591E+00
          2   -1    0    0  502    0  0.00000000000E+00  0.00000000000E+00  0.55465833867E+03  0.55465833867E+03  0.00000000000E+00 0. -1.
          1   -1    0    0  501    0 -0.00000000000E+00 -0.00000000000E+00 -0.19595913264E+04  0.19595913264E+04  0.00000000000E+00 0. -1.
         25    2    1    2    0    0 -0.88798357516E+02 -0.36129579540E+02 -0.79337742106E+03  0.80886398014E+03  0.12499084492E+03 0.  0.
          2    1    1    2  501    0  0.25139699935E+02  0.25618090277E+02 -0.11562882753E+04  0.11568452216E+04  0.00000000000E+00 0. -1.
          1    1    1    2  502    0  0.63658657582E+02  0.10511489263E+02  0.54473270863E+03  0.54854046336E+03  0.00000000000E+00 0. -1.
         22    1    3    3    0    0 -0.86135582030E+02 -0.58597247931E+02 -0.35672374756E+03  0.37162455251E+03  0.00000000000E+00 0.  1.
         22    1    3    3    0    0 -0.26627754863E+01  0.22467668391E+02 -0.43665367350E+03  0.43723942763E+03  0.00000000000E+00 0.  1.
</event>
<event>
 7    1  0.6386201E-006  0.3537419E+03  0.7818608E-02  0.1201814E+00
          2   -1    0    0  502    0  0.00000000000E+00  0.00000000000E+00  0.11503987723E+04  0.11503987723E+04  0.00000000000E+00 0. -1.
          1   -1    0    0  501    0 -0.00000000000E+00 -0.00000000000E+00 -0.26052073754E+04  0.26052073754E+04  0.00000000000E+00 0. -1.
         25    2    1    2    0    0 -0.28855505492E+03 -0.18681954591E+03 -0.32758487993E+03  0.49102271172E+03  0.12500354958E+03 0.  0.
          2    1    1    2  501    0  0.26063961093E+03  0.24294864132E+03 -0.21805116835E+04  0.22094316580E+04  0.00000000000E+00 0. -1.
          1    1    1    2  502    0  0.27915443996E+02 -0.56129095410E+02  0.10532879603E+04  0.10551517781E+04  0.00000000000E+00 0. -1.
         22    1    3    3    0    0 -0.45623834060E+02 -0.78146250586E+02 -0.13498990188E+03  0.16251352043E+03  0.00000000000E+00 0.  1.
         22    1    3    3    0    0 -0.24293122086E+03 -0.10867329532E+03 -0.19259497806E+03  0.32850919129E+03  0.00000000000E+00 0.  1.
</event>
<event>
 7    1  0.6386201E-006  0.8459965E+02  0.7818608E-02  0.1333357E+00
          2   -1    0    0  502    0  0.00000000000E+00  0.00000000000E+00  0.27992609119E+04  0.27992609119E+04  0.00000000000E+00 0. -1.
          1   -1    0    0  501    0 -0.00000000000E+00 -0.00000000000E+00 -0.16252605648E+03  0.16252605648E+03  0.00000000000E+00 0. -1.
         25    2    1    2    0    0 -0.66366324653E+02  0.32669719665E+01  0.15433527081E+04  0.15498312082E+04  0.12499612101E+03 0.  0.
          2    1    1    2  501    0  0.44077966776E+02 -0.72617370607E+02 -0.14681587030E+03  0.16962030963E+03  0.00000000000E+00 0. -1.
          1    1    1    2  502    0  0.22288357877E+02  0.69350398641E+02  0.12401980177E+04  0.12423354506E+04  0.00000000000E+00 0. -1.
         22    1    3    3    0    0 -0.61142029272E+02  0.52702887937E+02  0.63359432056E+03  0.63871566850E+03  0.00000000000E+00 0.  1.
         22    1    3    3    0    0 -0.52242953818E+01 -0.49435915971E+02  0.90975838749E+03  0.91111553968E+03  0.00000000000E+00 0.  1.
</event>
<event>
 7    1  0.6386201E-006  0.5391815E+02  0.7818608E-02  0.1481315E+00
          2   -1    0    0  502    0  0.00000000000E+00  0.00000000000E+00  0.52479359471E+03  0.52479359471E+03  0.00000000000E+00 0. -1.
          1   -1    0    0  501    0 -0.00000000000E+00 -0.00000000000E+00 -0.10654077585E+03  0.10654077585E+03  0.00000000000E+00 0. -1.
         25    2    1    2    0    0 -0.50442817402E+02  0.18010009612E+02  0.11572235318E+03  0.17856518234E+03  0.12500009218E+03 0.  0.
          2    1    1    2  501    0  0.28828694024E+02 -0.46481904325E+02 -0.64177383518E+02  0.84323173470E+02  0.00000000000E+00 0. -1.
          1    1    1    2  502    0  0.21614123378E+02  0.28471894713E+02  0.36670784920E+03  0.36844601475E+03  0.00000000000E+00 0. -1.
         22    1    3    3    0    0  0.17055349005E+02  0.31580019894E+02  0.10230910137E+03  0.10842202179E+03  0.00000000000E+00 0. -1.
         22    1    3    3    0    0 -0.67498166407E+02 -0.13570010282E+02  0.13413251809E+02  0.70143160546E+02  0.00000000000E+00 0. -1.
</event>
<event>
 7    1  0.6386201E-006  0.2626244E+02  0.7818608E-02  0.1686239E+00
          2   -1    0    0  502    0  0.00000000000E+00  0.00000000000E+00  0.13760209132E+04  0.13760209132E+04  0.00000000000E+00 0. -1.
          1   -1    0    0  501    0 -0.00000000000E+00 -0.00000000000E+00 -0.30215525469E+03  0.30215525469E+03  0.00000000000E+00 0. -1.
         25    2    1    2    0    0 -0.56939944415E+01  0.38348190417E+00 -0.17839890715E+03  0.21790732821E+03  0.12499945994E+03 0.  0.
          2    1    1    2  501    0 -0.20329034235E+02 -0.40188697612E+01 -0.10284126995E+03  0.10490828257E+03  0.00000000000E+00 0. -1.
          1    1    1    2  502    0  0.26023028677E+02  0.36353878570E+01  0.13551058356E+04  0.13553605571E+04  0.00000000000E+00 0. -1.
         22    1    3    3    0    0  0.49309793373E+02  0.33977995531E+02 -0.98218812071E+02  0.11503432074E+03  0.00000000000E+00 0.  1.
         22    1    3    3    0    0 -0.55003787815E+02 -0.33594513627E+02 -0.80180095076E+02  0.10287300747E+03  0.00000000000E+00 0.  1.
</event>
<event>
 7    1  0.6386201E-006  0.9577298E+02  0.7818608E-02  0.1412756E+00
          2   -1    0    0  502    0  0.00000000000E+00  0.00000000000E+00  0.44305417686E+03  0.44305417686E+03  0.00000000000E+00 0. -1.
          1   -1    0    0  501    0 -0.00000000000E+00 -0.00000000000E+00 -0.14551978857E+03  0.14551978857E+03  0.00000000000E+00 0. -1.
         25    2    1    2    0    0  0.91920303634E+02 -0.60361107378E+02  0.26988717730E+03  0.31710850366E+03  0.12500363642E+03 0.  0.
          2    1    1    2  501    0 -0.91249077663E+02  0.26938065590E+02 -0.10087635435E+03  0.13866539734E+03  0.00000000000E+00 0. -1.
          1    1    1    2  502    0 -0.67122597093E+00  0.33423041788E+02  0.12852356533E+03  0.13280006443E+03  0.00000000000E+00 0. -1.
         22    1    3    3    0    0  0.90954334928E+01  0.35860294986E+02  0.39944512967E+02  0.54444942677E+02  0.00000000000E+00 0.  1.
         22    1    3    3    0    0  0.82824870141E+02 -0.96221402365E+02  0.22994266433E+03  0.26266356098E+03  0.00000000000E+00 0.  1.
</event>
<event>
 7    1  0.6386201E-006  0.1421196E+03  0.7818608E-02  0.1279993E+00
          2   -1    0    0  502    0  0.00000000000E+00  0.00000000000E+00  0.60416975682E+03  0.60416975682E+03  0.00000000000E+00 0. -1.
          1   -1    0    0  501    0 -0.00000000000E+00 -0.00000000000E+00 -0.20486223451E+04  0.20486223451E+04  0.00000000000E+00 0. -1.
         25    2    1    2    0    0  0.76059519334E+02  0.19214174025E+03 -0.15313143009E+03  0.28596826869E+03  0.12500046795E+03 0.  0.
          2    1    1    2  501    0 -0.67715914662E+02 -0.12207007915E+03 -0.18240790833E+04  0.18294127613E+04  0.00000000000E+00 0. -1.
          1    1    1    2  502    0 -0.83436046719E+01 -0.70071661107E+02  0.53275792509E+03  0.53741107188E+03  0.00000000000E+00 0. -1.
         22    1    3    3    0    0 -0.20572597830E+02  0.10750319082E+03 -0.95154487420E+02  0.14503290763E+03  0.00000000000E+00 0. -1.
         22    1    3    3    0    0  0.96632117164E+02  0.84638549434E+02 -0.57976942665E+02  0.14093536107E+03  0.00000000000E+00 0. -1.
</event>
<event>
 7    1  0.6386201E-006  0.9433547E+02  0.7818608E-02  0.1386509E+00
          2   -1    0    0  502    0  0.00000000000E+00  0.00000000000E+00  0.26732838466E+04  0.26732838466E+04  0.00000000000E+00 0. -1.
          1   -1    0    0  501    0 -0.00000000000E+00 -0.00000000000E+00 -0.31209608931E+04  0.31209608931E+04  0.00000000000E+00 0. -1.
         25    2    1    2    0    0 -0.29140516962E+02  0.59822440905E+02 -0.48660578271E+03  0.50679203810E+03  0.12500035182E+03 0.  0.
          2    1    1    2  501    0  0.94892501347E+01 -0.96697596879E+02 -0.26231986294E+04  0.26249974325E+04  0.00000000000E+00 0. -1.
          1    1    1    2  502    0  0.19651266828E+02  0.36875155974E+02  0.26621273656E+04  0.26624552691E+04  0.00000000000E+00 0. -1.
         22    1    3    3    0    0  0.36080851025E+02 -0.10311153761E+02 -0.71141405503E+02  0.80431631089E+02  0.00000000000E+00 0. -1.
         22    1    3    3    0    0 -0.65221367988E+02  0.70133594666E+02 -0.41546437720E+03  0.42636040701E+03  0.00000000000E+00 0. -1.
</event>
<event>
 7    1  0.6386201E-006  0.1636973E+03  0.7818608E-02  0.1197172E+00
          2   -1    0    0  502    0  0.00000000000E+00  0.00000000000E+00  0.13178498138E+04  0.13178498138E+04  0.00000000000E+00 0. -1.
          1   -1    0    0  501    0 -0.00000000000E+00 -0.00000000000E+00 -0.14308523819E+04  0.14308523819E+04  0.00000000000E+00 0. -1.
         25    2    1    2    0    0  0.46832701078E+01  0.46270219574E+02  0.92649945401E+02  0.16239761895E+03  0.12500443200E+03 0.  0.
          2    1    1    2  501    0  0.15718716472E+02  0.14160645772E+03 -0.13847995325E+04  0.13921096265E+04  0.00000000000E+00 0. -1.
          1    1    1    2  502    0 -0.20401986580E+02 -0.18787667729E+03  0.11791470190E+04  0.11941949503E+04  0.00000000000E+00 0. -1.
         22    1    3    3    0    0 -0.36393407372E+02  0.59192678288E+02  0.11362031939E+02  0.70408444329E+02  0.00000000000E+00 0.  1.
         22    1    3    3    0    0  0.41076677480E+02 -0.12922458714E+02  0.81287913462E+02  0.91989174619E+02  0.00000000000E+00 0.  1.
</event>
<event>
 7    1  0.6386201E-006  0.7432161E+02  0.7818608E-02  0.1460910E+00
          2   -1    0    0  502    0  0.00000000000E+00  0.00000000000E+00  0.91227228564E+03  0.91227228564E+03  0.00000000000E+00 0. -1.
          1   -1    0    0  501    0 -0.00000000000E+00 -0.00000000000E+00 -0.52674807266E+03  0.52674807266E+03  0.00000000000E+00 0. -1.
         25    2    1    2    0    0 -0.73812447374E+01 -0.49335644042E+02  0.16135673741E+03  0.21011756239E+03  0.12499961907E+03 0.  0.
          2    1    1    2  501    0 -0.20641128706E+02 -0.21780707071E+02 -0.49990600928E+03  0.50080582416E+03  0.00000000000E+00 0. -1.
          1    1    1    2  502    0  0.28022373444E+02  0.71116351113E+02  0.72407348485E+03  0.72809697175E+03  0.00000000000E+00 0. -1.
         22    1    3    3    0    0  0.48184261057E+02 -0.57809774916E+02  0.69567357114E+02  0.10248565883E+03  0.00000000000E+00 0.  1.
         22    1    3    3    0    0 -0.55565505795E+02  0.84741308740E+01  0.91789380298E+02  0.10763190356E+03  0.00000000000E+00 0.  1.
</event>
<event>
 7    1  0.6386201E-006  0.1454080E+03  0.7818608E-02  0.1232732E+00
          2   -1    0    0  502    0  0.00000000000E+00  0.00000000000E+00  0.75262628891E+03  0.75262628891E+03  0.00000000000E+00 0. -1.
          1   -1    0    0  501    0 -0.00000000000E+00 -0.00000000000E+00 -0.13025592046E+03  0.13025592046E+03  0.00000000000E+00 0. -1.
         25    2    1    2    0    0 -0.19759884792E+02  0.27700281941E+02  0.20311577906E+03  0.24090901795E+03  0.12499350607E+03 0.  0.
          2    1    1    2  501    0 -0.11675338164E+03  0.86672610719E+02 -0.38816381358E+02  0.15049985062E+03  0.00000000000E+00 0. -1.
          1    1    1    2  502    0  0.13651326643E+03 -0.11437289266E+03  0.45807097074E+03  0.49147334080E+03  0.00000000000E+00 0. -1.
         22    1    3    3    0    0 -0.32772556357E+02  0.65915204821E+02  0.69168616810E+02  0.10101065403E+03  0.00000000000E+00 0. -1.
         22    1    3    3    0    0  0.13012671564E+02 -0.38214922880E+02  0.13394716225E+03  0.13989836392E+03  0.00000000000E+00 0. -1.
</event>
<event>
 7    1  0.6386201E-006  0.5654509E+02  0.7818608E-02  0.1473582E+00
          2   -1    0    0  502    0  0.00000000000E+00  0.00000000000E+00  0.27425999115E+03  0.27425999115E+03  0.00000000000E+00 0. -1.
          1   -1    0    0  501    0 -0.00000000000E+00 -0.00000000000E+00 -0.59684576198E+03  0.59684576198E+03  0.00000000000E+00 0. -1.
         25    2    1    2    0    0  0.62887705401E+02 -0.21622315124E+02 -0.51605629587E+02  0.15071040092E+03  0.12501238314E+03 0.  0.
          2    1    1    2  501    0 -0.27875961690E+02 -0.22790367062E+02 -0.49146037028E+03  0.49277760260E+03  0.00000000000E+00 0. -1.
          1    1    1    2  502    0 -0.35011743712E+02  0.44412682185E+02  0.22048022904E+03  0.22761774960E+03  0.00000000000E+00 0. -1.
         22    1    3    3    0    0  0.60878996356E+02  0.24406413089E+01 -0.88000310197E+02  0.10703393631E+03  0.00000000000E+00 0. -1.
         22    1    3    3    0    0  0.20087090452E+01 -0.24062956432E+02  0.36394680610E+02  0.43676464612E+02  0.00000000000E+00 0. -1.
</event>
<event>
 7    1  0.6386201E-006  0.1193754E+03  0.7818608E-02  0.1345969E+00
          2   -1    0    0  502    0  0.00000000000E+00  0.00000000000E+00  0.82576132109E+03  0.82576132109E+03  0.00000000000E+00 0. -1.
          1   -1    0    0  501    0 -0.00000000000E+00 -0.00000000000E+00 -0.43455353161E+02  0.43455353161E+02  0.00000000000E+00 0. -1.
         25    2    1    2    0    0  0.63139733247E+02 -0.11104755662E+03  0.33121443537E+03  0.37635866294E+03  0.12499862090E+03 0.  0.
          2    1    1    2  501    0 -0.17206706389E+02  0.11668680485E+03  0.16371028659E+03  0.20177447586E+03  0.00000000000E+00 0. -1.
          1    1    1    2  502    0 -0.45933026857E+02 -0.56392482302E+01  0.28738124597E+03  0.29108353546E+03  0.00000000000E+00 0. -1.
         22    1    3    3    0    0  0.10086292170E+03 -0.74755326266E+02  0.24967702646E+03  0.27946431851E+03  0.00000000000E+00 0. -1.
         22    1    3    3    0    0 -0.37723188450E+02 -0.36292230358E+02  0.81537408912E+02  0.96894344433E+02  0.00000000000E+00 0. -1.
</event>
<event>
 7    1  0.6386201E-006  0.1296807E+03  0.7818608E-02  0.1322809E+00
          2   -1    0    0  502    0  0.00000000000E+00  0.00000000000E+00  0.10216769717E+04  0.10216769717E+04  0.00000000000E+00 0. -1.
          1   -1    0    0  501    0 -0.00000000000E+00 -0.00000000000E+00 -0.19956677076E+03  0.19956677076E+03  0.00000000000E+00 0. -1.
         25    2    1    2    0    0 -0.69816371826E+02 -0.41400748811E+02 -0.37060875881E+02  0.15357687710E+03  0.12499600346E+03 0.  0.
          2    1    1    2  501    0 -0.50552106529E+02 -0.12834046617E+02 -0.92871157100E+02  0.10651422463E+03  0.00000000000E+00 0. -1.
          1    1    1    2  502    0  0.12036847835E+03  0.54234795428E+02  0.95204223395E+03  0.96115264076E+03  0.00000000000E+00 0. -1.
         22    1    3    3    0    0  0.21217482406E+02  0.11978850070E+02  0.21841074060E+02  0.32721658343E+02  0.00000000000E+00 0.  1.
         22    1    3    3    0    0 -0.91033854232E+02 -0.53379598881E+02 -0.58901949941E+02  0.12085521875E+03  0.00000000000E+00 0.  1.
</event>
<event>
 7    1  0.6386201E-006  0.9615879E+02  0.7818608E-02  0.1370052E+00
          2   -1    0    0  502    0  0.00000000000E+00  0.00000000000E+00  0.89702474173E+03  0.89702474173E+03  0.00000000000E+00 0. -1.
          1   -1    0    0  501    0 -0.00000000000E+00 -0.00000000000E+00 -0.45576247313E+03  0.45576247313E+03  0.00000000000E+00 0. -1.
         25    2    1    2    0    0 -0.20107382622E+02  0.52632884466E+02  0.39718657974E+03  0.42018693700E+03  0.12500142215E+03 0.  0.
          2    1    1    2  501    0  0.61536853934E+02 -0.74606694924E+02 -0.43784740463E+03  0.44840081742E+03  0.00000000000E+00 0. -1.
          1    1    1    2  502    0 -0.41429471311E+02  0.21973810458E+02  0.48192309350E+03  0.48419946043E+03  0.00000000000E+00 0. -1.
         22    1    3    3    0    0 -0.19384840861E+02  0.40641497716E+02  0.40391554661E+03  0.40641760812E+03  0.00000000000E+00 0.  1.
         22    1    3    3    0    0 -0.72254176152E+00  0.11991386751E+02 -0.67289668740E+01  0.13769328887E+02  0.00000000000E+00 0.  1.
</event>
<event>
 7    1  0.6386201E-006  0.3270740E+03  0.7818608E-02  0.1203468E+00
          2   -1    0    0  502    0  0.00000000000E+00  0.00000000000E+00  0.27378498196E+04  0.27378498196E+04  0.00000000000E+00 0. -1.
          1   -1    0    0  501    0 -0.00000000000E+00 -0.00000000000E+00 -0.34220661844E+04  0.34220661844E+04  0.00000000000E+00 0. -1.
         25    2    1    2    0    0 -0.26604343105E+03 -0.16395517079E+01  0.58166081256E+02  0.29965164336E+03  0.12500407602E+03 0.  0.
          2    1    1    2  501    0  0.32910308138E+03  0.23056911182E+02 -0.32926454271E+04  0.33091319659E+04  0.00000000000E+00 0. -1.
          1    1    1    2  502    0 -0.63059650322E+02 -0.21417359475E+02  0.25502629811E+04  0.25511323947E+04  0.00000000000E+00 0. -1.
         22    1    3    3    0    0 -0.21783067346E+03  0.36016032127E+02  0.86658726093E+01  0.22095803723E+03  0.00000000000E+00 0.  1.
         22    1    3    3    0    0 -0.48212757596E+02 -0.37655583835E+02  0.49500208647E+02  0.78693606125E+02  0.00000000000E+00 0.  1.
</event>
<event>
 7    1  0.6386201E-006  0.1004977E+03  0.7818608E-02  0.1442740E+00
          2   -1    0    0  502    0  0.00000000000E+00  0.00000000000E+00  0.16344831223E+04  0.16344831223E+04  0.00000000000E+00 0. -1.
          1   -1    0    0  501    0 -0.00000000000E+00 -0.00000000000E+00 -0.53323783417E+03  0.53323783417E+03  0.00000000000E+00 0. -1.
         25    2    1    2    0    0  0.11971009857E+02  0.76905080278E+02 -0.10429288944E+03  0.18044603464E+03  0.12500427265E+03 0.  0.
          2    1    1    2  501    0 -0.87594910181E+01  0.23801033480E+02 -0.38886505080E+03  0.38969121829E+03  0.00000000000E+00 0. -1.
          1    1    1    2  502    0 -0.32115188394E+01 -0.10070611376E+03  0.15944032284E+04  0.15975837036E+04  0.00000000000E+00 0. -1.
         22    1    3    3    0    0  0.58371320912E+02  0.12737467431E+02 -0.16009957014E+02  0.61852832636E+02  0.00000000000E+00 0. -1.
         22    1    3    3    0    0 -0.46400311054E+02  0.64167612847E+02 -0.88282932424E+02  0.11859320201E+03  0.00000000000E+00 0. -1.
</event>
<event>
 7    1  0.6386201E-006  0.5013844E+02  0.7818608E-02  0.1530898E+00
          2   -1    0    0  502    0  0.00000000000E+00  0.00000000000E+00  0.17634842178E+02  0.17634842178E+02  0.00000000000E+00 0. -1.
          1   -1    0    0  501    0 -0.00000000000E+00 -0.00000000000E+00 -0.23887351975E+04  0.23887351975E+04  0.00000000000E+00 0. -1.
         25    2    1    2    0    0  0.23389481137E+02  0.23922750635E+01 -0.30315069515E+03  0.32875213547E+03  0.12499932719E+03 0.  0.
          2    1    1    2  501    0 -0.50784554313E+02 -0.12870801775E+01 -0.20308567960E+04  0.20314920756E+04  0.00000000000E+00 0. -1.
          1    1    1    2  502    0  0.27395073176E+02 -0.11051948860E+01 -0.37092864262E+02  0.46125828656E+02  0.00000000000E+00 0. -1.
         22    1    3    3    0    0 -0.38348344268E+02 -0.12369176521E+02 -0.22248889425E+03  0.22610816018E+03  0.00000000000E+00 0.  1.
         22    1    3    3    0    0  0.61737825405E+02  0.14761451585E+02 -0.80661800895E+02  0.10264397528E+03  0.00000000000E+00 0.  1.
</event>
<event>
 7    1  0.6386201E-006  0.2095481E+03  0.7818608E-02  0.1154963E+00
          2   -1    0    0  502    0  0.00000000000E+00  0.00000000000E+00  0.11177777521E+04  0.11177777521E+04  0.00000000000E+00 0. -1.
          1   -1    0    0  501    0 -0.00000000000E+00 -0.00000000000E+00 -0.10422219832E+04  0.10422219832E+04  0.00000000000E+00 0. -1.
         25    2    1    2    0    0 -0.42387551982E+02 -0.26417842482E+03  0.29746294397E+03  0.41916247369E+03  0.12500412639E+03 0.  0.
          2    1    1    2  501    0  0.16339191278E+03  0.13162730642E+03 -0.95926909904E+03  0.98194697888E+03  0.00000000000E+00 0. -1.
          1    1    1    2  502    0 -0.12100436079E+03  0.13255111840E+03  0.73736192396E+03  0.75889028273E+03  0.00000000000E+00 0. -1.
         22    1    3    3    0    0 -0.36868099640E+02 -0.26745293341E+03  0.23967301686E+03  0.36101728957E+03  0.00000000000E+00 0. -1.
         22    1    3    3    0    0 -0.55194523424E+01  0.32745085916E+01  0.57789927116E+02  0.58145184123E+02  0.00000000000E+00 0. -1.
</event>
<event>
 7    1  0.6386201E-006  0.7364365E+02  0.7818608E-02  0.1370378E+00
          2   -1    0    0  502    0  0.00000000000E+00  0.00000000000E+00  0.20997429182E+04  0.20997429182E+04  0.00000000000E+00 0. -1.
          1   -1    0    0  501    0 -0.00000000000E+00 -0.00000000000E+00 -0.68753711543E+02  0.68753711543E+02  0.00000000000E+00 0. -1.
         25    2    1    2    0    0  0.17778014595E+02 -0.16342085263E+02  0.18431465104E+03  0.22400911311E+03  0.12500028246E+03 0.  0.
          2    1    1    2  501    0 -0.77874153525E+02  0.27199475297E+02 -0.13263566028E+02  0.83547097062E+02  0.00000000000E+00 0. -1.
          1    1    1    2  502    0  0.60096138929E+02 -0.10857390034E+02  0.18599381216E+04  0.18609404195E+04  0.00000000000E+00 0. -1.
         22    1    3    3    0    0  0.65274166922E+02 -0.33194359540E+02  0.81889470282E+02  0.10985657794E+03  0.00000000000E+00 0. -1.
         22    1    3    3    0    0 -0.47496152327E+02  0.16852274277E+02  0.10242518076E+03  0.11415253518E+03  0.00000000000E+00 0. -1.
</event>
<event>
 7    1  0.6386201E-006  0.1095150E+03  0.7818608E-02  0.1271272E+00
          2   -1    0    0  502    0  0.00000000000E+00  0.00000000000E+00  0.70209537007E+03  0.70209537007E+03  0.00000000000E+00 0. -1.
          1   -1    0    0  501    0 -0.00000000000E+00 -0.00000000000E+00 -0.20908911276E+03  0.20908911276E+03  0.00000000000E+00 0. -1.
         25    2    1    2    0    0 -0.71169788658E+02  0.10371748610E+02 -0.56650664642E+01  0.14433330351E+03  0.12500918981E+03 0.  0.
          2    1    1    2  501    0  0.44830339664E+02 -0.11667212322E+03 -0.98864591453E+02  0.15936232658E+03  0.00000000000E+00 0. -1.
          1    1    1    2  502    0  0.26339448995E+02  0.10630037461E+03  0.59753591523E+03  0.60748885274E+03  0.00000000000E+00 0. -1.
         22    1    3    3    0    0  0.15454559447E+02  0.46206276336E+02  0.87071506145E+01  0.49494220394E+02  0.00000000000E+00 0.  1.
         22    1    3    3    0    0 -0.86624348106E+02 -0.35834527726E+02 -0.14372217079E+02  0.94839083114E+02  0.00000000000E+00 0.  1.
</event>
<event>
 7    1  0.6386201E-006  0.2973122E+03  0.7818608E-02  0.1223644E+00
          2   -1    0    0  502    0  0.00000000000E+00  0.00000000000E+00  0.56321204491E+03  0.56321204491E+03  0.00000000000E+00 0. -1.
          1   -1    0    0  501    0 -0.00000000000E+00 -0.00000000000E+00 -0.76352694922E+03  0.76352694922E+03  0.00000000000E+00 0. -1.
         25    2    1    2    0    0 -0.91267805788E+02  0.23753596790E+03 -0.39632281154E+02  0.28626705462E+03  0.12499984174E+03 0.  0.
          2    1    1    2  501    0 -0.34689604830E+02  0.47899707333E+02 -0.54345110455E+03  0.54665972385E+03  0.00000000000E+00 0. -1.
          1    1    1    2  502    0  0.12595741062E+03 -0.28543567523E+03  0.38276848139E+03  0.49381221566E+03  0.00000000000E+00 0. -1.
         22    1    3    3    0    0 -0.11442834438E+03  0.22619895421E+03 -0.20821914093E+02  0.25434890404E+03  0.00000000000E+00 0. -1.
         22    1    3    3    0    0  0.23160538595E+02  0.11337013694E+02 -0.18810367061E+02  0.31918150580E+02  0.00000000000E+00 0. -1.
</event>
<event>
 7    1  0.6386201E-006  0.8607899E+02  0.7818608E-02  0.1361216E+00
          2   -1    0    0  502    0  0.00000000000E+00  0.00000000000E+00  0.81286879201E+02  0.81286879201E+02  0.00000000000E+00 0. -1.
          1   -1    0    0  501    0 -0.00000000000E+00 -0.00000000000E+00 -0.26193943315E+04  0.26193943315E+04  0.00000000000E+00 0. -1.
         25    2    1    2    0    0  0.10703568857E+03 -0.85892802205E+02 -0.27704172829E+03  0.33348357206E+03  0.12499984608E+03 0.  0.
          2    1    1    2  501    0 -0.43017485271E+02  0.36460472669E+02 -0.22827603294E+04  0.22834567199E+04  0.00000000000E+00 0. -1.
          1    1    1    2  502    0 -0.64018203303E+02  0.49432329536E+02  0.21694605457E+02  0.83740918692E+02  0.00000000000E+00 0. -1.
         22    1    3    3    0    0  0.64889075104E+02 -0.34201119016E+02 -0.25164238078E+03  0.26211485348E+03  0.00000000000E+00 0.  1.
         22    1    3    3    0    0  0.42146613471E+02 -0.51691683189E+02 -0.25399347512E+02  0.71368718582E+02  0.00000000000E+00 0.  1.
</event>
<event>
 7    1  0.6386201E-006  0.1001727E+03  0.7818608E-02  0.1285704E+00
          2   -1    0    0  502    0  0.00000000000E+00  0.00000000000E+00  0.55428571530E+03  0.55428571530E+03  0.00000000000E+00 0. -1.
          1   -1    0    0  501    0 -0.00000000000E+00 -0.00000000000E+00 -0.49818533487E+03  0.49818533487E+03  0.00000000000E+00 0. -1.
         25    2    1    2    0    0 -0.52186404525E+02 -0.22165875637E+02 -0.68317569431E+02  0.15331959500E+03  0.12499944423E+03 0.  0.
          2    1    1    2  501    0 -0.25095455959E+02  0.91463301471E+02 -0.37615591801E+03  0.38792859147E+03  0.00000000000E+00 0. -1.
          1    1    1    2  502    0  0.77281860483E+02 -0.69297425834E+02  0.50057386786E+03  0.51122286370E+03  0.00000000000E+00 0. -1.
         22    1    3    3    0    0 -0.57340270517E+02  0.16996694812E+02 -0.90152367107E+02  0.10818615231E+03  0.00000000000E+00 0. -1.
         22    1    3    3    0    0  0.51538659921E+01 -0.39162570449E+02  0.21834797676E+02  0.45133442683E+02  0.00000000000E+00 0. -1.
</event>
<event>
 7    1  0.6386201E-006  0.1066843E+03  0.7818608E-02  0.1304591E+00
          2   -1    0    0  502    0  0.00000000000E+00  0.00000000000E+00  0.13041413601E+03  0.13041413601E+03  0.00000000000E+00 0. -1.
          1   -1    0    0  501    0 -0.00000000000E+00 -0.00000000000E+00 -0.11408141670E+04  0.11408141670E+04  0.00000000000E+00 0. -1.
         25    2    1    2    0    0 -0.40561617798E+02 -0.48663988705E+01 -0.23621225470E+03  0.27035375673E+03  0.12500399124E+03 0.  0.
          2    1    1    2  501    0 -0.73489964988E+02  0.13525975270E+02 -0.85662811309E+03  0.85988106799E+03  0.00000000000E+00 0. -1.
          1    1    1    2  502    0  0.11405158279E+03 -0.86595763992E+01  0.82440336777E+02  0.14099347831E+03  0.00000000000E+00 0. -1.
         22    1    3    3    0    0 -0.67644234318E+02  0.30011648491E+01 -0.55771497868E+02  0.87722342658E+02  0.00000000000E+00 0. -1.
         22    1    3    3    0    0  0.27082616521E+02 -0.78675637196E+01 -0.18044075684E+03  0.18263141407E+03  0.00000000000E+00 0. -1.
</event>
<event>
 7    1  0.6386201E-006  0.9596290E+02  0.7818608E-02  0.1410811E+00
          2   -1    0    0  502    0  0.00000000000E+00  0.00000000000E+00  0.26678116792E+02  0.26678116792E+02  0.00000000000E+00 0. -1.
          1   -1    0    0  501    0 -0.00000000000E+00 -0.00000000000E+00 -0.12696529789E+04  0.12696529789E+04  0.00000000000E+00 0. -1.
         25    2    1    2    0    0  0.40832499434E+01  0.79313424294E+02 -0.41116911168E+03  0.43702580418E+03  0.12499689160E+03 0.  0.
          2    1    1    2  501    0 -0.24300208880E+02  0.23597534443E+02 -0.63836278693E+03  0.63926081651E+03  0.00000000000E+00 0. -1.
          1    1    1    2  502    0  0.20216958937E+02 -0.10291095874E+03 -0.19344296351E+03  0.22004447502E+03  0.00000000000E+00 0. -1.
         22    1    3    3    0    0  0.22869587644E+02  0.21845951245E+02 -0.12839399572E+02  0.34133763434E+02  0.00000000000E+00 0. -1.
         22    1    3    3    0    0 -0.18786337701E+02  0.57467473049E+02 -0.39832971211E+03  0.40289204074E+03  0.00000000000E+00 0. -1.
</event>
<event>
 7    1  0.6386201E-006  0.1449318E+03  0.7818608E-02  0.1308024E+00
          2   -1    0    0  502    0  0.00000000000E+00  0.00000000000E+00  0.28985762132E+04  0.28985762132E+04  0.00000000000E+00 0. -1.
          1   -1    0    0  501    0 -0.00000000000E+00 -0.00000000000E+00 -0.35379656103E+03  0.35379656103E+03  0.00000000000E+00 0. -1.
         25    2    1    2    0    0 -0.45278593018E+02  0.13565538724E+03  0.23285585421E+03  0.30049915213E+03  0.12500142606E+03 0.  0.
          2    1    1    2  501    0 -0.71219198128E+01 -0.14544833481E+03 -0.30312075325E+03  0.33628578752E+03  0.00000000000E+00 0. -1.
          1    1    1    2  502    0  0.52400512831E+02  0.97929475619E+01  0.26150445512E+04  0.26155878346E+04  0.00000000000E+00 0. -1.
         22    1    3    3    0    0 -0.39414337287E+02  0.39932307771E+01  0.88395885358E+01  0.40590321522E+02  0.00000000000E+00 0. -1.
         22    1    3    3    0    0 -0.58642557315E+01  0.13166215647E+03  0.22401626567E+03  0.25990883060E+03  0.00000000000E+00 0. -1.
</event>
<event>
 7    1  0.6386201E-006  0.6086328E+02  0.7818608E-02  0.1451951E+00
          2   -1    0    0  502    0  0.00000000000E+00  0.00000000000E+00  0.61927460801E+03  0.61927460801E+03  0.00000000000E+00 0. -1.
          1   -1    0    0  501    0 -0.00000000000E+00 -0.00000000000E+00 -0.47018550441E+03  0.47018550441E+03  0.00000000000E+00 0. -1.
         25    2    1    2    0    0  0.72335644318E+01 -0.99245439797E+02  0.31743216585E+03  0.35537179995E+03  0.12499581797E+03 0.  0.
          2    1    1    2  501    0 -0.10283795696E+01  0.60620811211E+02 -0.44781047131E+03  0.45189618115E+03  0.00000000000E+00 0. -1.
          1    1    1    2  502    0 -0.62051848622E+01  0.38624628586E+02  0.27946740906E+03  0.28219213132E+03  0.00000000000E+00 0. -1.
         22    1    3    3    0    0 -0.12645309001E+01 -0.33217350529E+01 -0.11811115992E+02  0.12334318916E+02  0.00000000000E+00 0.  1.
         22    1    3    3    0    0  0.84980953318E+01 -0.95923704744E+02  0.32924328184E+03  0.34303748103E+03  0.00000000000E+00 0.  1.
</event>
<event>
 7    1  0.6386201E-006  0.4612579E+02  0.7818608E-02  0.1478897E+00
          2   -1    0    0  502    0  0.00000000000E+00  0.00000000000E+00  0.14950734693E+04  0.14950734693E+04  0.00000000000E+00 0. -1.
          1   -1    0    0  501    0 -0.00000000000E+00 -0.00000000000E+00 -0.86641340532E+02  0.86641340532E+02  0.00000000000E+00 0. -1.
         25    2    1    2    0    0 -0.73886894675E+01 -0.31625842857E+01  0.43149652116E+02  0.13248241581E+03  0.12500041340E+03 0.  0.
          2    1    1    2  501    0 -0.31715889686E+02  0.28298284366E+02 -0.30727446578E+02  0.52448703796E+02  0.00000000000E+00 0. -1.
          1    1    1    2  502    0  0.39104579154E+02 -0.25135700080E+02  0.13960099232E+04  0.13967836902E+04  0.00000000000E+00 0. -1.
         22    1    3    3    0    0  0.13098296187E+01 -0.13388553306E+02  0.86274087859E+02  0.87316592061E+02  0.00000000000E+00 0.  1.
         22    1    3    3    0    0 -0.86985190862E+01  0.10225969020E+02 -0.43124435743E+02  0.45165823748E+02  0.00000000000E+00 0.  1.
</event>
<event>
 7    1  0.6386201E-006  0.1020408E+03  0.7818608E-02  0.1414270E+00
          2   -1    0    0  502    0  0.00000000000E+00  0.00000000000E+00  0.11611288388E+03  0.11611288388E+03  0.00000000000E+00 0. -1.
          1   -1    0    0  501    0 -0.00000000000E+00 -0.00000000000E+00 -0.62212142597E+03  0.62212142597E+03  0.00000000000E+00 0. -1.
         25    2    1    2    0    0 -0.28119567830E+02 -0.89371424318E+02 -0.50684119514E+02  0.16423026299E+03  0.12499895092E+03 0.  0.
          2    1    1    2  501    0 -0.31009361594E+02  0.17420762794E+00 -0.46547607289E+03  0.46650786197E+03  0.00000000000E+00 0. -1.
          1    1    1    2  502    0  0.59128929425E+02  0.89197216691E+02  0.10151650309E+02  0.10749618488E+03  0.00000000000E+00 0. -1.
         22    1    3    3    0    0 -0.64731675282E+01 -0.47608527211E+02 -0.90590847222E+02  0.10254352911E+03  0.00000000000E+00 0. -1.
         22    1    3    3    0    0 -0.21646400302E+02 -0.41762897107E+02  0.39906727708E+02  0.61686733883E+02  0.00000000000E+00 0. -1.
</event>
<event>
 7    1  0.6386201E-006  0.1085206E+03  0.7818608E-02  0.1299587E+00
          2   -1    0    0  502    0  0.00000000000E+00  0.00000000000E+00  0.14599857960E+04  0.14599857960E+04  0.00000000000E+00 0. -1.
          1   -1    0    0  501    0 -0.00000000000E+00 -0.00000000000E+00 -0.20815742346E+03  0.20815742346E+03  0.00000000000E+00 0. -1.
         25    2    1    2    0    0 -0.14488114974E+03  0.98974249274E+02  0.81992722887E+02  0.23050896235E+03  0.12500050220E+03 0.  0.
          2    1    1    2  501    0  0.89670905105E+02 -0.45421123083E+02 -0.11371961323E+03  0.15177648065E+03  0.00000000000E+00 0. -1.
          1    1    1    2  502    0  0.55210244635E+02 -0.53553126191E+02  0.12835552629E+04  0.12858577765E+04  0.00000000000E+00 0. -1.
         22    1    3    3    0    0 -0.11831296837E+03  0.35659650635E+02  0.91029700566E-02  0.12357009853E+03  0.00000000000E+00 0.  1.
         22    1    3    3    0    0 -0.26568181375E+02  0.63314598638E+02  0.81983619917E+02  0.10693886383E+03  0.00000000000E+00 0.  1.
</event>
<event>
 7    1  0.6386201E-006  0.7696745E+02  0.7818608E-02  0.1347017E+00
          2   -1    0    0  502    0  0.00000000000E+00  0.00000000000E+00  0.10845514258E+03  0.10845514258E+03  0.00000000000E+00 0. -1.
          1   -1    0    0  501    0 -0.00000000000E+00 -0.00000000000E+00 -0.11086001906E+04  0.11086001906E+04  0.00000000000E+00 0. -1.
         25    2    1    2    0    0 -0.10390943776E+03  0.46156744203E+02 -0.51685772333E+03  0.54378034870E+03  0.12501018031E+03 0.  0.
          2    1    1    2  501    0  0.29620595252E+02 -0.64673947210E+02 -0.56023147956E+03  0.56472950144E+03  0.00000000000E+00 0. -1.
          1    1    1    2  502    0  0.74288842503E+02  0.18517203007E+02  0.76944154843E+02  0.10854548306E+03  0.00000000000E+00 0. -1.
         22    1    3    3    0    0 -0.10796540388E+03 -0.13440116451E+02 -0.31430446876E+03  0.33260256199E+03  0.00000000000E+00 0.  1.
         22    1    3    3    0    0  0.40559661242E+01  0.59596860654E+02 -0.20255325457E+03  0.21117778671E+03  0.00000000000E+00 0.  1.
</event>
<event>
 7    1  0.6386201E-006  0.3121169E+02  0.7818608E-02  0.1639910E+00
          2   -1    0    0  502    0  0.00000000000E+00  0.00000000000E+00  0.88856302278E+01  0.88856302278E+01  0.00000000000E+00 0. -1.
          1   -1    0    0  501    0 -0.00000000000E+00 -0.00000000000E+00 -0.19982395315E+04  0.19982395315E+04  0.00000000000E+00 0. -1.
         25    2    1    2    0    0  0.42542051984E+02  0.22912045933E+02 -0.10631757194E+04  0.10715883602E+04  0.12499686177E+03 0.  0.
          2    1    1    2  501    0 -0.12274417846E+02 -0.18923668592E+02 -0.87932912684E+03  0.87961837173E+03  0.00000000000E+00 0. -1.
          1    1    1    2  502    0 -0.30267634138E+02 -0.39883773404E+01 -0.46849055072E+02  0.55918429800E+02  0.00000000000E+00 0. -1.
         22    1    3    3    0    0 -0.21803720420E+02  0.54894058724E+02 -0.36815375912E+03  0.37286183804E+03  0.00000000000E+00 0. -1.
         22    1    3    3    0    0  0.64345772404E+02 -0.31982012791E+02 -0.69502196027E+03  0.69872652220E+03  0.00000000000E+00 0. -1.
</event>
<event>
 7    1  0.6386201E-006  0.1033764E+03  0.7818608E-02  0.1363508E+00
          2   -1    0    0  502    0  0.00000000000E+00  0.00000000000E+00  0.17926288726E+04  0.17926288726E+04  0.00000000000E+00 0. -1.
          1   -1    0    0  501    0 -0.00000000000E+00 -0.00000000000E+00 -0.45706161799E+02  0.45706161799E+02  0.00000000000E+00 0. -1.
         25    2    1    2    0    0 -0.72943315381E+02  0.27500279322E+02  0.49653788565E+03  0.51792957153E+03  0.12499670619E+03 0.  0.
          2    1    1    2  501    0 -0.97759669002E+01  0.45013011122E+02 -0.16368969015E+02  0.48884392659E+02  0.00000000000E+00 0. -1.
          1    1    1    2  502    0  0.82719282282E+02 -0.72513290443E+02  0.12667537942E+04  0.12715210702E+04  0.00000000000E+00 0. -1.
         22    1    3    3    0    0 -0.10244614202E+03  0.22488382545E+02  0.27400199300E+03  0.29339057847E+03  0.00000000000E+00 0. -1.
         22    1    3    3    0    0  0.29502826641E+02  0.50118967771E+01  0.22253589264E+03  0.22453899306E+03  0.00000000000E+00 0. -1.
</event>
<event>
 7    1  0.6386201E-006  0.1092797E+03  0.7818608E-02  0.1379656E+00
          2   -1    0    0  502    0  0.00000000000E+00  0.00000000000E+00  0.55164239423E+03  0.55164239423E+03  0.00000000000E+00 0. -1.
          1   -1    0    0  501    0 -0.00000000000E+00 -0.00000000000E+00 -0.11030788067E+03  0.11030788067E+03  0.00000000000E+00 0. -1.
         25    2    1    2    0    0 -0.44642798501E+02  0.74421063805E+02  0.20894340143E+03  0.25848169396E+03  0.12499586760E+03 0.  0.
          2    1    1    2  501    0  0.29656734934E+02 -0.10948690198E+03 -0.46053522036E+02  0.12242479538E+03  0.00000000000E+00 0. -1.
          1    1    1    2  502    0  0.14986063568E+02  0.35065838179E+02  0.27844463416E+03  0.28104378556E+03  0.00000000000E+00 0. -1.
         22    1    3    3    0    0 -0.69233461279E+02  0.93394494711E+02  0.18792525657E+03  0.22097897153E+03  0.00000000000E+00 0.  1.
         22    1    3    3    0    0  0.24590662777E+02 -0.18973430906E+02  0.21018144862E+02  0.37502722429E+02  0.00000000000E+00 0.  1.
</event>
<event>
 7    1  0.6386201E-006  0.1303084E+03  0.7818608E-02  0.1242065E+00
          2   -1    0    0  502    0  0.00000000000E+00  0.00000000000E+00  0.72995240625E+03  0.72995240625E+03  0.00000000000E+00 0. -1.
          1   -1    0    0  501    0 -0.00000000000E+00 -0.00000000000E+00 -0.11382487036E+04  0.11382487036E+04  0.00000000000E+00 0. -1.
         25    2    1    2    0    0 -0.12351616839E+03 -0.17904095597E+03  0.24480461430E+03  0.35052623429E+03  0.12500973551E+03 0.  0.
          2    1    1    2  501    0  0.29191687719E+02  0.10778262075E+03 -0.10743577303E+04  0.10801452591E+04  0.00000000000E+00 0. -1.
          1    1    1    2  502    0  0.94324480675E+02  0.71258335222E+02  0.42125681870E+03  0.43752961647E+03  0.00000000000E+00 0. -1.
         22    1    3    3    0    0 -0.14045011496E+03 -0.11676827963E+03  0.20561525216E+03  0.27502490404E+03  0.00000000000E+00 0. -1.
         22    1    3    3    0    0  0.16933946565E+02 -0.62272676344E+02  0.39189362146E+02  0.75501330257E+02  0.00000000000E+00 0. -1.
</event>
<event>
 7    1  0.6386201E-006  0.1209157E+03  0.7818608E-02  0.1324172E+00
          2   -1    0    0  502    0  0.00000000000E+00  0.00000000000E+00  0.88557194472E+03  0.88557194472E+03  0.00000000000E+00 0. -1.
          1   -1    0    0  501    0 -0.00000000000E+00 -0.00000000000E+00 -0.30549429333E+03  0.30549429333E+03  0.00000000000E+00 0. -1.
         25    2    1    2    0    0 -0.58426831786E+02 -0.13569974158E+03  0.37823477885E+03  0.42487068393E+03  0.12500174234E+03 0.  0.
          2    1    1    2  501    0  0.51091957077E+02  0.21061992808E+02 -0.27254830241E+03  0.27809453926E+03  0.00000000000E+00 0. -1.
          1    1    1    2  502    0  0.73348747086E+01  0.11463774877E+03  0.47439117495E+03  0.48810101486E+03  0.00000000000E+00 0. -1.
         22    1    3    3    0    0  0.86531126131E+00 -0.10538173380E+03  0.31824747944E+03  0.33524247456E+03  0.00000000000E+00 0.  1.
         22    1    3    3    0    0 -0.59292143047E+02 -0.30318007776E+02  0.59987299418E+02  0.89628209366E+02  0.00000000000E+00 0.  1.
</event>
<event>
 7    1  0.6386201E-006  0.6512257E+02  0.7818608E-02  0.1475266E+00
          2   -1    0    0  502    0  0.00000000000E+00  0.00000000000E+00  0.18448462196E+04  0.18448462196E+04  0.00000000000E+00 0. -1.
          1   -1    0    0  501    0 -0.00000000000E+00 -0.00000000000E+00 -0.17179617370E+02  0.17179617370E+02  0.00000000000E+00 0. -1.
         25    2    1    2    0    0 -0.41514100772E+02  0.53137517327E+00  0.72743538874E+03  0.73926351097E+03  0.12499836374E+03 0.  0.
          2    1    1    2  501    0 -0.26589650182E+02 -0.15724835847E+02  0.13365199723E+02  0.33658706494E+02  0.00000000000E+00 0. -1.
          1    1    1    2  502    0  0.68103750954E+02  0.15193460674E+02  0.10868660138E+04  0.10891036195E+04  0.00000000000E+00 0. -1.
         22    1    3    3    0    0  0.40468099527E+02  0.21973146660E+02  0.29941144456E+03  0.30293183950E+03  0.00000000000E+00 0.  1.
         22    1    3    3    0    0 -0.81982200300E+02 -0.21441771487E+02  0.42802394418E+03  0.43633167147E+03  0.00000000000E+00 0.  1.
</event>
<event>
 7    1  0.6386201E-006  0.2075194E+03  0.7818608E-02  0.1247713E+00
          2   -1    0    0  502    0  0.00000000000E+00  0.00000000000E+00  0.22832995639E+04  0.22832995639E+04  0.00000000000E+00 0. -1.
          1   -1    0    0  501    0 -0.00000000000E+00 -0.00000000000E+00 -0.16440739403E+03  0.16440739403E+03  0.00000000000E+00 0. -1.
         25    2    1    2    0    0 -0.11954299850E+03  0.84012273640E+02  0.10891176201E+04  0.11059617006E+04  0.12500200874E+03 0.  0.
          2    1    1    2  501    0  0.16581150494E+03 -0.13141607971E+03 -0.82800943708E+02  0.22719955426E+03  0.00000000000E+00 0. -1.
          1    1    1    2  502    0 -0.46268506438E+02  0.47403806072E+02  0.11125754935E+04  0.11145457031E+04  0.00000000000E+00 0. -1.
         22    1    3    3    0    0 -0.13651129536E+03  0.72412399705E+02  0.10540280691E+04  0.10652952923E+04  0.00000000000E+00 0.  1.
         22    1    3    3    0    0  0.16968296857E+02  0.11599873935E+02  0.35089550992E+02  0.40666408279E+02  0.00000000000E+00 0.  1.
</event>
<event>
 7    1  0.1208242E-005  0.9087313E+02  0.7818608E-02  0.1313072E+00
          2   -1    0    0  502    0  0.00000000000E+00  0.00000000000E+00  0.12703892842E+04  0.12703892842E+04  0.00000000000E+00 0. -1.
          1   -1    0    0  501    0 -0.00000000000E+00 -0.00000000000E+00 -0.81968100790E+03  0.81968100790E+03  0.00000000000E+00 0. -1.
         25    2    1    2    0    0  0.15716159695E+03 -0.93725969457E+01 -0.22955255055E+03  0.30513329487E+03  0.12499736416E+03 0.  0.
          2    1    1    2  501    0 -0.79281260776E+02  0.32410629606E+02 -0.54766812002E+03  0.55432511842E+03  0.00000000000E+00 0. -1.
          1    1    1    2  502    0 -0.77880336175E+02 -0.23038032660E+02  0.12279289469E+04  0.12306118788E+04  0.00000000000E+00 0. -1.
         22    1    3    3    0    0  0.24832796850E+02 -0.18768900796E+02  0.88012671519E+01  0.32348133485E+02  0.00000000000E+00 0. -1.
         22    1    3    3    0    0  0.13232880010E+03  0.93963038503E+01 -0.23835381770E+03  0.27278516139E+03  0.00000000000E+00 0. -1.
</event>
<event>
 7    1  0.6386201E-006  0.1033090E+03  0.7818608E-02  0.1367770E+00
          2   -1    0    0  502    0  0.00000000000E+00  0.00000000000E+00  0.19985333262E+04  0.19985333262E+04  0.00000000000E+00 0. -1.
          1   -1    0    0  501    0 -0.00000000000E+00 -0.00000000000E+00 -0.16902021763E+03  0.16902021763E+03  0.00000000000E+00 0. -1.
         25    2    1    2    0    0 -0.57531920643E+02  0.99254080866E+02 -0.77643734448E+01  0.16983886097E+03  0.12499463484E+03 0.  0.
          2    1    1    2  501    0  0.13062194333E+02 -0.10039315983E+03 -0.47909277632E+02  0.11200315328E+03  0.00000000000E+00 0. -1.
          1    1    1    2  502    0  0.44469726311E+02  0.11390789623E+01  0.18851867596E+04  0.18857115295E+04  0.00000000000E+00 0. -1.
         22    1    3    3    0    0 -0.91742035325E+02  0.84096377469E+02  0.16051378572E+02  0.12548485368E+03  0.00000000000E+00 0.  1.
         22    1    3    3    0    0  0.34210114682E+02  0.15157703397E+02 -0.23815752017E+02  0.44354007293E+02  0.00000000000E+00 0.  1.
</event>
<event>
 7    1  0.6386201E-006  0.3194067E+03  0.7818608E-02  0.1213235E+00
          2   -1    0    0  502    0  0.00000000000E+00  0.00000000000E+00  0.11802103677E+04  0.11802103677E+04  0.00000000000E+00 0. -1.
          1   -1    0    0  501    0 -0.00000000000E+00 -0.00000000000E+00 -0.15362831250E+04  0.15362831250E+04  0.00000000000E+00 0. -1.
         25    2    1    2    0    0  0.27893189537E+03  0.15230266219E+02 -0.64758232406E+03  0.71625591323E+03  0.12499881415E+03 0.  0.
          2    1    1    2  501    0  0.35113498597E+02  0.50399256337E+02 -0.83075083200E+03  0.83301859985E+03  0.00000000000E+00 0. -1.
          1    1    1    2  502    0 -0.31404539396E+03 -0.65629522555E+02  0.11222603987E+04  0.11672189796E+04  0.00000000000E+00 0. -1.
         22    1    3    3    0    0  0.43333534002E+02  0.42777007622E+02 -0.20835899583E+03  0.21707403966E+03  0.00000000000E+00 0. -1.
         22    1    3    3    0    0  0.23559836137E+03 -0.27546741404E+02 -0.43922332823E+03  0.49918187357E+03  0.00000000000E+00 0. -1.
</event>
<event>
 7    1  0.6386201E-006  0.1926157E+03  0.7818608E-02  0.1260305E+00
          2   -1    0    0  502    0  0.00000000000E+00  0.00000000000E+00  0.15599596737E+04  0.15599596737E+04  0.00000000000E+00 0. -1.
          1   -1    0    0  501    0 -0.00000000000E+00 -0.00000000000E+00 -0.25324765379E+03  0.25324765379E+03  0.00000000000E+00 0. -1.
         25    2    1    2    0    0  0.15025537938E+03 -0.80710346861E+02  0.21447608867E+03  0.30118865401E+03  0.12499509419E+03 0.  0.
          2    1    1    2  501    0 -0.19460260096E+03  0.35986569703E+02 -0.16227571709E+03  0.25592696978E+03  0.00000000000E+00 0. -1.
          1    1    1    2  502    0  0.44347221587E+02  0.44723777158E+02  0.12545116483E+04  0.12560917037E+04  0.00000000000E+00 0. -1.
         22    1    3    3    0    0 -0.14482078760E+02 -0.29965169810E+02  0.12247153977E+02  0.35463146892E+02  0.00000000000E+00 0.  1.
         22    1    3    3    0    0  0.16473745814E+03 -0.50745177050E+02  0.20222893469E+03  0.26572550712E+03  0.00000000000E+00 0.  1.
</event>
<event>
 7    1  0.6386201E-006  0.1266307E+03  0.7818608E-02  0.1290630E+00
          2   -1    0    0  502    0  0.00000000000E+00  0.00000000000E+00  0.19102570231E+04  0.19102570231E+04  0.00000000000E+00 0. -1.
          1   -1    0    0  501    0 -0.00000000000E+00 -0.00000000000E+00 -0.20378220645E+03  0.20378220645E+03  0.00000000000E+00 0. -1.
         25    2    1    2    0    0 -0.66658989642E+01  0.61599553934E+02  0.16224693633E+03  0.21398030227E+03  0.12499824860E+03 0.  0.
          2    1    1    2  501    0 -0.19655659329E+02  0.68885980369E+02 -0.16801527630E+03  0.18264927130E+03  0.00000000000E+00 0. -1.
          1    1    1    2  502    0  0.26321558293E+02 -0.13048553430E+03  0.17122431567E+04  0.17174096560E+04  0.00000000000E+00 0. -1.
         22    1    3    3    0    0  0.46516923738E+02  0.48230725744E+01  0.11199459934E+03  0.12136670262E+03  0.00000000000E+00 0. -1.
         22    1    3    3    0    0 -0.53182822702E+02  0.56776481360E+02  0.50252336991E+02  0.92613599645E+02  0.00000000000E+00 0. -1.
</event>
<event>
 7    1  0.6386201E-006  0.1129402E+03  0.7818608E-02  0.1328248E+00
          2   -1    0    0  502    0  0.00000000000E+00  0.00000000000E+00  0.54496409783E+03  0.54496409783E+03  0.00000000000E+00 0. -1.
          1   -1    0    0  501    0 -0.00000000000E+00 -0.00000000000E+00 -0.50741544840E+03  0.50741544840E+03  0.00000000000E+00 0. -1.
         25    2    1    2    0    0 -0.14603361719E+03  0.19015408007E+02  0.24820205459E+03  0.31451241953E+03  0.12500559605E+03 0.  0.
          2    1    1    2  501    0  0.99525231222E+02 -0.52089890280E+02 -0.46439442690E+03  0.47778741304E+03  0.00000000000E+00 0. -1.
          1    1    1    2  502    0  0.46508385965E+02  0.33074482273E+02  0.25374102174E+03  0.26007971366E+03  0.00000000000E+00 0. -1.
         22    1    3    3    0    0 -0.15871697887E+03  0.22897064923E+02  0.16436568065E+03  0.22963325530E+03  0.00000000000E+00 0. -1.
         22    1    3    3    0    0  0.12683361687E+02 -0.38816569154E+01  0.83836373943E+02  0.84879164227E+02  0.00000000000E+00 0. -1.
</event>
<event>
 7    1  0.6386201E-006  0.9825466E+02  0.7818608E-02  0.1368742E+00
          2   -1    0    0  502    0  0.00000000000E+00  0.00000000000E+00  0.12154572115E+04  0.12154572115E+04  0.00000000000E+00 0. -1.
          1   -1    0    0  501    0 -0.00000000000E+00 -0.00000000000E+00 -0.10461617620E+04  0.10461617620E+04  0.00000000000E+00 0. -1.
         25    2    1    2    0    0 -0.14109936489E+03  0.17911588692E+02 -0.38056688863E+02  0.19313929048E+03  0.12499847271E+03 0.  0.
          2    1    1    2  501    0  0.46195129232E+02  0.43211626920E+01 -0.92789569290E+03  0.92905493880E+03  0.00000000000E+00 0. -1.
          1    1    1    2  502    0  0.94904235655E+02 -0.22232751384E+02  0.11352478313E+04  0.11394247442E+04  0.00000000000E+00 0. -1.
         22    1    3    3    0    0  0.13729146852E+02 -0.92297653330E+01 -0.31775949150E+02  0.35824418847E+02  0.00000000000E+00 0.  1.
         22    1    3    3    0    0 -0.15482851174E+03  0.27141354025E+02 -0.62807397137E+01  0.15731487163E+03  0.00000000000E+00 0.  1.
</event>
<event>
 7    1  0.6386201E-006  0.5845608E+02  0.7818608E-02  0.1516856E+00
          2   -1    0    0  502    0  0.00000000000E+00  0.00000000000E+00  0.49041139534E+02  0.49041139534E+02  0.00000000000E+00 0. -1.
          1   -1    0    0  501    0 -0.00000000000E+00 -0.00000000000E+00 -0.18037434555E+04  0.18037434555E+04  0.00000000000E+00 0. -1.
         25    2    1    2    0    0 -0.44817858390E+02  0.11961335479E+02 -0.69770524137E+03  0.71032942381E+03  0.12499428997E+03 0.  0.
          2    1    1    2  501    0  0.59840678449E+02  0.90364569250E+01 -0.10949125853E+04  0.10965838472E+04  0.00000000000E+00 0. -1.
          1    1    1    2  502    0 -0.15022820059E+02 -0.20997792404E+02  0.37915510781E+02  0.45871324007E+02  0.00000000000E+00 0. -1.
         22    1    3    3    0    0 -0.17003457205E+02  0.58860931074E+02 -0.18835837593E+03  0.19807222053E+03  0.00000000000E+00 0.  1.
         22    1    3    3    0    0 -0.27814401185E+02 -0.46899595595E+02 -0.50934686544E+03  0.51225720328E+03  0.00000000000E+00 0.  1.
</event>
<event>
 7    1  0.6386201E-006  0.5014507E+02  0.7818608E-02  0.1461691E+00
          2   -1    0    0  502    0  0.00000000000E+00  0.00000000000E+00  0.15047340521E+04  0.15047340521E+04  0.00000000000E+00 0. -1.
          1   -1    0    0  501    0 -0.00000000000E+00 -0.00000000000E+00 -0.11203165175E+02  0.11203165175E+02  0.00000000000E+00 0. -1.
         25    2    1    2    0    0 -0.36997608117E+02 -0.72273379579E+01  0.88989718870E+03  0.89942458577E+03  0.12500608636E+03 0.  0.
          2    1    1    2  501    0 -0.89140704582E+01  0.43316273509E+02  0.97981899987E+02  0.10749982757E+03  0.00000000000E+00 0. -1.
          1    1    1    2  502    0  0.45911678575E+02 -0.36088935551E+02  0.50565179827E+03  0.50901280396E+03  0.00000000000E+00 0. -1.
         22    1    3    3    0    0 -0.65660222180E+02 -0.13248896116E+02  0.83052099450E+03  0.83321781086E+03  0.00000000000E+00 0.  1.
         22    1    3    3    0    0  0.28662614063E+02  0.60215581582E+01  0.59376194191E+02  0.66206774912E+02  0.00000000000E+00 0.  1.
</event>
<event>
 7    1  0.6386201E-006  0.5736745E+02  0.7818608E-02  0.1443972E+00
          2   -1    0    0  502    0  0.00000000000E+00  0.00000000000E+00  0.45236445884E+03  0.45236445884E+03  0.00000000000E+00 0. -1.
          1   -1    0    0  501    0 -0.00000000000E+00 -0.00000000000E+00 -0.16091136413E+03  0.16091136413E+03  0.00000000000E+00 0. -1.
         25    2    1    2    0    0 -0.27315695317E+02 -0.23926544684E+01 -0.53339735670E+02  0.13863805588E+03  0.12499404438E+03 0.  0.
          2    1    1    2  501    0  0.71043079536E+02  0.74956602548E+01 -0.43643808703E+02  0.83714312460E+02  0.00000000000E+00 0. -1.
          1    1    1    2  502    0 -0.43727384219E+02 -0.51030057863E+01  0.38843663908E+03  0.39092345463E+03  0.00000000000E+00 0. -1.
         22    1    3    3    0    0 -0.72138064318E+02 -0.10251733190E+02 -0.57673589160E+02  0.92925998749E+02  0.00000000000E+00 0. -1.
         22    1    3    3    0    0  0.44822369001E+02  0.78590787213E+01  0.43338534905E+01  0.45712057133E+02  0.00000000000E+00 0. -1.
</event>
<event>
 7    1  0.6386201E-006  0.3352312E+02  0.7818608E-02  0.1643851E+00
          2   -1    0    0  502    0  0.00000000000E+00  0.00000000000E+00  0.57417597437E+03  0.57417597437E+03  0.00000000000E+00 0. -1.
          1   -1    0    0  501    0 -0.00000000000E+00 -0.00000000000E+00 -0.94424096506E+03  0.94424096506E+03  0.00000000000E+00 0. -1.
         25    2    1    2    0    0  0.17174938926E+02 -0.41539734328E+01 -0.65800055529E+03  0.67000174351E+03  0.12500148607E+03 0.  0.
          2    1    1    2  501    0 -0.36815319382E+02 -0.18369474255E+01 -0.27884096784E+03  0.28126682609E+03  0.00000000000E+00 0. -1.
          1    1    1    2  502    0  0.19640380456E+02  0.59909208583E+01  0.56677653244E+03  0.56714836983E+03  0.00000000000E+00 0. -1.
         22    1    3    3    0    0 -0.38502903581E+02  0.39206059087E+02 -0.25298992448E+03  0.25888895408E+03  0.00000000000E+00 0.  1.
         22    1    3    3    0    0  0.55677842507E+02 -0.43360032520E+02 -0.40501063081E+03  0.41111278943E+03  0.00000000000E+00 0.  1.
</event>
<event>
 7    1  0.6386201E-006  0.7180870E+02  0.7818608E-02  0.1506981E+00
          2   -1    0    0  502    0  0.00000000000E+00  0.00000000000E+00  0.35982107480E+02  0.35982107480E+02  0.00000000000E+00 0. -1.
          1   -1    0    0  501    0 -0.00000000000E+00 -0.00000000000E+00 -0.52303823453E+03  0.52303823453E+03  0.00000000000E+00 0. -1.
         25    2    1    2    0    0  0.45448381786E+02 -0.62473408146E+02 -0.39236656435E+03  0.41898008579E+03  0.12499723731E+03 0.  0.
          2    1    1    2  501    0 -0.21918042894E+02 -0.49434536723E+01 -0.52491653933E+02  0.57098266796E+02  0.00000000000E+00 0. -1.
          1    1    1    2  502    0 -0.23530338892E+02  0.67416861818E+02 -0.42197908770E+02  0.82941989428E+02  0.00000000000E+00 0. -1.
         22    1    3    3    0    0 -0.15317812710E+01  0.34395441589E+02 -0.14794596473E+03  0.15189931282E+03  0.00000000000E+00 0.  1.
         22    1    3    3    0    0  0.46980163057E+02 -0.96868849735E+02 -0.24442059962E+03  0.26708077297E+03  0.00000000000E+00 0.  1.
</event>
<event>
 7    1  0.6386201E-006  0.5618839E+03  0.7818608E-02  0.1209319E+00
          2   -1    0    0  502    0  0.00000000000E+00  0.00000000000E+00  0.67533329321E+03  0.67533329321E+03  0.00000000000E+00 0. -1.
          1   -1    0    0  501    0 -0.00000000000E+00 -0.00000000000E+00 -0.28546830594E+04  0.28546830594E+04  0.00000000000E+00 0. -1.
         25    2    1    2    0    0  0.21262246174E+03 -0.53034535922E+03 -0.16951379093E+04  0.17932071941E+04  0.12499999333E+03 0.  0.
          2    1    1    2  501    0 -0.23031518413E+03  0.49852884322E+03 -0.10419895044E+04  0.11778447346E+04  0.00000000000E+00 0. -1.
          1    1    1    2  502    0  0.17692722390E+02  0.31816516000E+02  0.55777764748E+03  0.55896442387E+03  0.00000000000E+00 0. -1.
         22    1    3    3    0    0  0.15699541066E+03 -0.44825414399E+03 -0.15133782063E+04  0.15861566543E+04  0.00000000000E+00 0.  1.
         22    1    3    3    0    0  0.55627051089E+02 -0.82091215227E+02 -0.18175970293E+03  0.20705053982E+03  0.00000000000E+00 0.  1.
</event>
<event>
 7    1  0.6386201E-006  0.1278799E+03  0.7818608E-02  0.1418448E+00
          2   -1    0    0  502    0  0.00000000000E+00  0.00000000000E+00  0.55818084807E+03  0.55818084807E+03  0.00000000000E+00 0. -1.
          1   -1    0    0  501    0 -0.00000000000E+00 -0.00000000000E+00 -0.60590296684E+03  0.60590296684E+03  0.00000000000E+00 0. -1.
         25    2    1    2    0    0 -0.24627461105E+01  0.14914406358E+03 -0.52684619530E+03  0.56164169531E+03  0.12499785435E+03 0.  0.
          2    1    1    2  501    0 -0.92636995366E+01 -0.22094165146E+02 -0.51443643228E+02  0.56748715326E+02  0.00000000000E+00 0. -1.
          1    1    1    2  502    0  0.11726445647E+02 -0.12704989844E+03  0.53056771975E+03  0.54569340427E+03  0.00000000000E+00 0. -1.
         22    1    3    3    0    0  0.18048437043E+02  0.12694660883E+03 -0.51229543533E+03  0.52809828691E+03  0.00000000000E+00 0. -1.
         22    1    3    3    0    0 -0.20511183153E+02  0.22197454754E+02 -0.14550759971E+02  0.33543408408E+02  0.00000000000E+00 0. -1.
</event>
<event>
 7    1  0.8837092E-006  0.1021326E+03  0.7818608E-02  0.1403035E+00
          2   -1    0    0  502    0  0.00000000000E+00  0.00000000000E+00  0.16982823064E+04  0.16982823064E+04  0.00000000000E+00 0. -1.
          1   -1    0    0  501    0 -0.00000000000E+00 -0.00000000000E+00 -0.13111953110E+04  0.13111953110E+04  0.00000000000E+00 0. -1.
         25    2    1    2    0    0  0.52053497061E+02  0.12159778705E+03 -0.36216053371E+03  0.40531562585E+03  0.12499966404E+03 0.  0.
          2    1    1    2  501    0 -0.24434197247E+02 -0.23392444206E+02 -0.92559627303E+03  0.92621417452E+03  0.00000000000E+00 0. -1.
          1    1    1    2  502    0 -0.27619299814E+02 -0.98205342849E+02  0.16748438022E+04  0.16779478171E+04  0.00000000000E+00 0. -1.
         22    1    3    3    0    0 -0.12371592268E+02  0.11625611891E+03 -0.24632466788E+03  0.27266166486E+03  0.00000000000E+00 0. -1.
         22    1    3    3    0    0  0.64425089329E+02  0.53416681406E+01 -0.11583586583E+03  0.13265396099E+03  0.00000000000E+00 0. -1.
</event>
<event>
 7    1  0.6386201E-006  0.8865331E+02  0.7818608E-02  0.1420940E+00
          2   -1    0    0  502    0  0.00000000000E+00  0.00000000000E+00  0.15458574208E+04  0.15458574208E+04  0.00000000000E+00 0. -1.
          1   -1    0    0  501    0 -0.00000000000E+00 -0.00000000000E+00 -0.20091753930E+03  0.20091753930E+03  0.00000000000E+00 0. -1.
         25    2    1    2    0    0  0.70010506675E+02  0.35201044341E+02  0.48882639034E+03  0.51060305577E+03  0.12499462431E+03 0.  0.
          2    1    1    2  501    0 -0.88591972264E+01  0.32723879120E+02 -0.18650194736E+03  0.18955820744E+03  0.00000000000E+00 0. -1.
          1    1    1    2  502    0 -0.61151309449E+02 -0.67924923461E+02  0.10426154386E+04  0.10466136969E+04  0.00000000000E+00 0. -1.
         22    1    3    3    0    0  0.50227258065E+02  0.28485102533E+02  0.48611884496E+03  0.48953621923E+03  0.00000000000E+00 0.  1.
         22    1    3    3    0    0  0.19783248610E+02  0.67159418079E+01  0.27075453859E+01  0.21066836543E+02  0.00000000000E+00 0.  1.
</event>
<event>
 7    1  0.6386201E-006  0.3859730E+02  0.7818608E-02  0.1590221E+00
          2   -1    0    0  502    0  0.00000000000E+00  0.00000000000E+00  0.39750874427E+03  0.39750874427E+03  0.00000000000E+00 0. -1.
          1   -1    0    0  501    0 -0.00000000000E+00 -0.00000000000E+00 -0.46439852734E+02  0.46439852734E+02  0.00000000000E+00 0. -1.
         25    2    1    2    0    0  0.24803013345E+02 -0.54935444804E+02  0.13479186976E+03  0.19346261997E+03  0.12500337837E+03 0.  0.
          2    1    1    2  501    0 -0.12684668933E+02  0.33692181083E+02  0.33471157833E+01  0.36156148524E+02  0.00000000000E+00 0. -1.
          1    1    1    2  502    0 -0.12118344412E+02  0.21243263722E+02  0.21292990599E+03  0.21432982851E+03  0.00000000000E+00 0. -1.
         22    1    3    3    0    0  0.74256722196E+01  0.38485622937E+02  0.18664528470E+02  0.43412537403E+02  0.00000000000E+00 0. -1.
         22    1    3    3    0    0  0.17377341125E+02 -0.93421067741E+02  0.11612734129E+03  0.15005008257E+03  0.00000000000E+00 0. -1.
</event>
<event>
 7    1  0.6386201E-006  0.5633800E+02  0.7818608E-02  0.1457464E+00
          2   -1    0    0  502    0  0.00000000000E+00  0.00000000000E+00  0.19989560159E+04  0.19989560159E+04  0.00000000000E+00 0. -1.
          1   -1    0    0  501    0 -0.00000000000E+00 -0.00000000000E+00 -0.89779491293E+01  0.89779491293E+01  0.00000000000E+00 0. -1.
         25    2    1    2    0    0 -0.31039248574E+02 -0.31576961076E+00  0.84769622757E+03  0.85742522962E+03  0.12500238194E+03 0.  0.
          2    1    1    2  501    0 -0.20757404722E+02  0.34881929919E+02  0.12721907582E+03  0.13353768059E+03  0.00000000000E+00 0. -1.
          1    1    1    2  502    0  0.51796653297E+02 -0.34566160308E+02  0.10150627634E+04  0.10169710548E+04  0.00000000000E+00 0. -1.
         22    1    3    3    0    0  0.14374005483E+02  0.54511137188E+02  0.31679001583E+03  0.32176698128E+03  0.00000000000E+00 0.  1.
         22    1    3    3    0    0 -0.45413254058E+02 -0.54826906798E+02  0.53090621174E+03  0.53565824834E+03  0.00000000000E+00 0.  1.
</event>
<event>
 7    1  0.6386201E-006  0.6957217E+02  0.7818608E-02  0.1410459E+00
          2   -1    0    0  502    0  0.00000000000E+00  0.00000000000E+00  0.28050052045E+03  0.28050052045E+03  0.00000000000E+00 0. -1.
          1   -1    0    0  501    0 -0.00000000000E+00 -0.00000000000E+00 -0.95454162565E+02  0.95454162565E+02  0.00000000000E+00 0. -1.
         25    2    1    2    0    0  0.18469603400E+02 -0.51440963007E+02  0.52676816617E+02  0.14624374344E+03  0.12500034625E+03 0.  0.
          2    1    1    2  501    0 -0.43054506259E+02 -0.18472343140E+02 -0.26914256504E+02  0.54030502251E+02  0.00000000000E+00 0. -1.
          1    1    1    2  502    0  0.24584902859E+02  0.69913306146E+02  0.15928379777E+03  0.17568043732E+03  0.00000000000E+00 0. -1.
         22    1    3    3    0    0  0.72268470625E+02 -0.33124713636E+02  0.27984800247E+02  0.84280054252E+02  0.00000000000E+00 0. -1.
         22    1    3    3    0    0 -0.53798867224E+02 -0.18316249371E+02  0.24692016371E+02  0.61963689190E+02  0.00000000000E+00 0. -1.
</event>
<event>
 7    1  0.6386201E-006  0.1936226E+03  0.7818608E-02  0.1340289E+00
          2   -1    0    0  502    0  0.00000000000E+00  0.00000000000E+00  0.11459383195E+04  0.11459383195E+04  0.00000000000E+00 0. -1.
          1   -1    0    0  501    0 -0.00000000000E+00 -0.00000000000E+00 -0.16383377401E+04  0.16383377401E+04  0.00000000000E+00 0. -1.
         25    2    1    2    0    0 -0.22280931412E+03  0.10207752415E+02  0.64069665023E+03  0.68982754148E+03  0.12498660208E+03 0.  0.
          2    1    1    2  501    0  0.19330223559E+03 -0.49944633184E+01 -0.16075054922E+04  0.16190937609E+04  0.00000000000E+00 0. -1.
          1    1    1    2  502    0  0.29507078530E+02 -0.52132890969E+01  0.47440942140E+03  0.47535475718E+03  0.00000000000E+00 0. -1.
         22    1    3    3    0    0 -0.22542502348E+03 -0.18334540495E+02  0.58478020673E+03  0.62699321110E+03  0.00000000000E+00 0. -1.
         22    1    3    3    0    0  0.26157093642E+01  0.28542292910E+02  0.55916443502E+02  0.62834330378E+02  0.00000000000E+00 0. -1.
</event>
<event>
 7    1  0.6386201E-006  0.4289158E+02  0.7818608E-02  0.1546736E+00
          2   -1    0    0  502    0  0.00000000000E+00  0.00000000000E+00  0.11913832790E+04  0.11913832790E+04  0.00000000000E+00 0. -1.
          1   -1    0    0  501    0 -0.00000000000E+00 -0.00000000000E+00 -0.18993000663E+03  0.18993000663E+03  0.00000000000E+00 0. -1.
         25    2    1    2    0    0 -0.11979364670E+02  0.23049360881E+02  0.46832002094E+03  0.48540937098E+03  0.12499534875E+03 0.  0.
          2    1    1    2  501    0  0.39980131673E+02 -0.15873524964E+02 -0.17853746504E+03  0.18364641610E+03  0.00000000000E+00 0. -1.
          1    1    1    2  502    0 -0.28000767003E+02 -0.71758359171E+01  0.71167071643E+03  0.71225749852E+03  0.00000000000E+00 0. -1.
         22    1    3    3    0    0 -0.96950774153E+01 -0.38054488400E+02  0.35025711635E+03  0.35245167919E+03  0.00000000000E+00 0.  1.
         22    1    3    3    0    0 -0.22842872550E+01  0.61103849281E+02  0.11806290459E+03  0.13295769179E+03  0.00000000000E+00 0.  1.
</event>
<event>
 7    1  0.6386201E-006  0.1205795E+03  0.7818608E-02  0.1263298E+00
          2   -1    0    0  502    0  0.00000000000E+00  0.00000000000E+00  0.20017351629E+04  0.20017351629E+04  0.00000000000E+00 0. -1.
          1   -1    0    0  501    0 -0.00000000000E+00 -0.00000000000E+00 -0.61329376819E+03  0.61329376819E+03  0.00000000000E+00 0. -1.
         25    2    1    2    0    0  0.90889822950E+01 -0.35158562760E+02  0.69571645935E+02  0.14759498232E+03  0.12500132300E+03 0.  0.
          2    1    1    2  501    0 -0.92453885321E+02  0.86110276480E+02 -0.56605255402E+03  0.57998120189E+03  0.00000000000E+00 0. -1.
          1    1    1    2  502    0  0.83364903026E+02 -0.50951713720E+02  0.18849223028E+04  0.18874527469E+04  0.00000000000E+00 0. -1.
         22    1    3    3    0    0  0.48543018327E+02 -0.62531165056E+02  0.27652108444E+02  0.83852312628E+02  0.00000000000E+00 0. -1.
         22    1    3    3    0    0 -0.39454036032E+02  0.27372602296E+02  0.41919537490E+02  0.63742669689E+02  0.00000000000E+00 0. -1.
</event>
<event>
 7    1  0.6386201E-006  0.1130927E+03  0.7818608E-02  0.1381241E+00
          2   -1    0    0  502    0  0.00000000000E+00  0.00000000000E+00  0.77305740197E+03  0.77305740197E+03  0.00000000000E+00 0. -1.
          1   -1    0    0  501    0 -0.00000000000E+00 -0.00000000000E+00 -0.16002116826E+03  0.16002116826E+03  0.00000000000E+00 0. -1.
         25    2    1    2    0    0 -0.41789013085E+02 -0.12186499263E+03  0.70763686582E+02  0.19295099083E+03  0.12500074993E+03 0.  0.
          2    1    1    2  501    0  0.74118590493E+01  0.10997548652E+03 -0.67513252196E+02  0.12925781412E+03  0.00000000000E+00 0. -1.
          1    1    1    2  502    0  0.34377154036E+02  0.11889506105E+02  0.60978579932E+03  0.61086976527E+03  0.00000000000E+00 0. -1.
         22    1    3    3    0    0 -0.31252444465E+02 -0.13725506042E+03  0.89260814497E+02  0.16668281225E+03  0.00000000000E+00 0.  1.
         22    1    3    3    0    0 -0.10536568620E+02  0.15390067790E+02 -0.18497127915E+02  0.26268178581E+02  0.00000000000E+00 0.  1.
</event>
<event>
 7    1  0.6386201E-006  0.9386096E+02  0.7818608E-02  0.1364710E+00
          2   -1    0    0  502    0  0.00000000000E+00  0.00000000000E+00  0.10974919330E+04  0.10974919330E+04  0.00000000000E+00 0. -1.
          1   -1    0    0  501    0 -0.00000000000E+00 -0.00000000000E+00 -0.51386660482E+03  0.51386660482E+03  0.00000000000E+00 0. -1.
         25    2    1    2    0    0 -0.72861830295E+02 -0.73400887628E+01  0.40343052195E+03  0.42865430595E+03  0.12500241897E+03 0.  0.
          2    1    1    2  501    0 -0.12692915858E+02 -0.48595030353E+02 -0.49614658310E+03  0.49868228263E+03  0.00000000000E+00 0. -1.
          1    1    1    2  502    0  0.85554746153E+02  0.55935119116E+02  0.67634138932E+03  0.68402194924E+03  0.00000000000E+00 0. -1.
         22    1    3    3    0    0 -0.25402385954E+02  0.58328358366E+02  0.16552215940E+03  0.17732756089E+03  0.00000000000E+00 0. -1.
         22    1    3    3    0    0 -0.47459444341E+02 -0.65668447129E+02  0.23790836256E+03  0.25132674506E+03  0.00000000000E+00 0. -1.
</event>
<event>
 7    1  0.6386201E-006  0.1087802E+03  0.7818608E-02  0.1262850E+00
          2   -1    0    0  502    0  0.00000000000E+00  0.00000000000E+00  0.13078736043E+03  0.13078736043E+03  0.00000000000E+00 0. -1.
          1   -1    0    0  501    0 -0.00000000000E+00 -0.00000000000E+00 -0.16744457718E+04  0.16744457718E+04  0.00000000000E+00 0. -1.
         25    2    1    2    0    0 -0.73782194384E+01 -0.33029000569E+02 -0.43316524379E+03  0.45210897027E+03  0.12500015826E+03 0.  0.
          2    1    1    2  501    0  0.53109833150E+02  0.13172432438E+03 -0.12023759615E+04  0.12107352745E+04  0.00000000000E+00 0. -1.
          1    1    1    2  502    0 -0.45731613711E+02 -0.98695323816E+02  0.91882793993E+02  0.14238888744E+03  0.00000000000E+00 0. -1.
         22    1    3    3    0    0  0.38971083594E+02 -0.22046845755E+02 -0.37150403062E+03  0.37419253538E+03  0.00000000000E+00 0.  1.
         22    1    3    3    0    0 -0.46349303033E+02 -0.10982154814E+02 -0.61661213171E+02  0.77916434889E+02  0.00000000000E+00 0.  1.
</event>
<event>
 7    1  0.9742603E-006  0.7114636E+02  0.7818608E-02  0.1415311E+00
          2   -1    0    0  502    0  0.00000000000E+00  0.00000000000E+00  0.17933415197E+04  0.17933415197E+04  0.00000000000E+00 0. -1.
          1   -1    0    0  501    0 -0.00000000000E+00 -0.00000000000E+00 -0.78326675958E+03  0.78326675958E+03  0.00000000000E+00 0. -1.
         25    2    1    2    0    0  0.13302212416E+02 -0.34952797359E+02 -0.25091613698E+03  0.28280817494E+03  0.12499163620E+03 0.  0.
          2    1    1    2  501    0 -0.49979414075E+02  0.59471790587E+02 -0.51320726562E+03  0.51905349742E+03  0.00000000000E+00 0. -1.
          1    1    1    2  502    0  0.36677201659E+02 -0.24518993228E+02  0.17741981627E+04  0.17747466069E+04  0.00000000000E+00 0. -1.
         22    1    3    3    0    0 -0.19210459521E+02 -0.48723506640E+02 -0.32678179391E+02  0.61732368030E+02  0.00000000000E+00 0. -1.
         22    1    3    3    0    0  0.32512671936E+02  0.13770709282E+02 -0.21823795759E+03  0.22107580691E+03  0.00000000000E+00 0. -1.
</event>
<event>
 7    1  0.6386201E-006  0.1315305E+03  0.7818608E-02  0.1363659E+00
          2   -1    0    0  502    0  0.00000000000E+00  0.00000000000E+00  0.10758215971E+04  0.10758215971E+04  0.00000000000E+00 0. -1.
          1   -1    0    0  501    0 -0.00000000000E+00 -0.00000000000E+00 -0.48693533920E+03  0.48693533920E+03  0.00000000000E+00 0. -1.
         25    2    1    2    0    0 -0.12510758214E+03 -0.79304701903E+02 -0.19643562296E+03  0.27595663636E+03  0.12499587324E+03 0.  0.
          2    1    1    2  501    0  0.33154058207E+02 -0.14426946086E+02 -0.24524814028E+03  0.24789913001E+03  0.00000000000E+00 0. -1.
          1    1    1    2  502    0  0.91953523937E+02  0.93731647989E+02  0.10305700212E+04  0.10389011700E+04  0.00000000000E+00 0. -1.
         22    1    3    3    0    0 -0.68418734441E+01  0.25167889997E+02 -0.66878877790E+02  0.71784526282E+02  0.00000000000E+00 0.  1.
         22    1    3    3    0    0 -0.11826570870E+03 -0.10447259190E+03 -0.12955674518E+03  0.20417211008E+03  0.00000000000E+00 0.  1.
</event>
<event>
 7    1  0.6386201E-006  0.1056426E+03  0.7818608E-02  0.1301459E+00
          2   -1    0    0  502    0  0.00000000000E+00  0.00000000000E+00  0.13427451213E+04  0.13427451213E+04  0.00000000000E+00 0. -1.
          1   -1    0    0  501    0 -0.00000000000E+00 -0.00000000000E+00 -0.11878673370E+04  0.11878673370E+04  0.00000000000E+00 0. -1.
         25    2    1    2    0    0  0.67452668782E+02 -0.21392986462E+02  0.20059056487E+03  0.24671566590E+03  0.12499809074E+03 0.  0.
          2    1    1    2  501    0 -0.45685173818E+02  0.95941106950E+02 -0.11610281478E+04  0.11658808648E+04  0.00000000000E+00 0. -1.
          1    1    1    2  502    0 -0.21767494964E+02 -0.74548120488E+02  0.11153153672E+04  0.11180159276E+04  0.00000000000E+00 0. -1.
         22    1    3    3    0    0  0.16987309848E+02 -0.27807277654E+02  0.19245954453E+03  0.19519859033E+03  0.00000000000E+00 0. -1.
         22    1    3    3    0    0  0.50465358934E+02  0.64142911924E+01  0.81310203466E+01  0.51517075574E+02  0.00000000000E+00 0. -1.
</event>
<event>
 7    1  0.6386201E-006  0.1616491E+03  0.7818608E-02  0.1306729E+00
          2   -1    0    0  502    0  0.00000000000E+00  0.00000000000E+00  0.40434268373E+03  0.40434268373E+03  0.00000000000E+00 0. -1.
          1   -1    0    0  501    0 -0.00000000000E+00 -0.00000000000E+00 -0.31693102322E+03  0.31693102322E+03  0.00000000000E+00 0. -1.
         25    2    1    2    0    0 -0.16653838316E+03 -0.50555280508E+02 -0.38435356979E+02  0.21769782531E+03  0.12499678806E+03 0.  0.
          2    1    1    2  501    0  0.15873291573E+03  0.28270150057E+01 -0.15304893891E+03  0.22051781844E+03  0.00000000000E+00 0. -1.
          1    1    1    2  502    0  0.78054674302E+01  0.47728265502E+02  0.27889595639E+03  0.28305806320E+03  0.00000000000E+00 0. -1.
         22    1    3    3    0    0 -0.13185710029E+03 -0.41733178397E+02  0.29040385561E+02  0.14131983962E+03  0.00000000000E+00 0.  1.
         22    1    3    3    0    0 -0.34681282873E+02 -0.88221021112E+01 -0.67475742539E+02  0.76377985693E+02  0.00000000000E+00 0.  1.
</event>
<event>
 7    1  0.6386201E-006  0.6146931E+02  0.7818608E-02  0.1415183E+00
          2   -1    0    0  502    0  0.00000000000E+00  0.00000000000E+00  0.16821193330E+04  0.16821193330E+04  0.00000000000E+00 0. -1.
          1   -1    0    0  501    0 -0.00000000000E+00 -0.00000000000E+00 -0.32956782465E+02  0.32956782465E+02  0.00000000000E+00 0. -1.
         25    2    1    2    0    0  0.10636709793E+03 -0.14094242102E+02  0.40416123715E+03  0.43644537295E+03  0.12500260309E+03 0.  0.
          2    1    1    2  501    0 -0.55712205402E+02  0.72580041728E+01  0.32206837074E+02  0.64759623297E+02  0.00000000000E+00 0. -1.
          1    1    1    2  502    0 -0.50654892524E+02  0.68362379297E+01  0.12127944763E+04  0.12138711192E+04  0.00000000000E+00 0. -1.
         22    1    3    3    0    0  0.52236148191E+02  0.51686571473E+02  0.12974710694E+03  0.14911213434E+03  0.00000000000E+00 0. -1.
         22    1    3    3    0    0  0.54130949735E+02 -0.65780813576E+02  0.27441413021E+03  0.28733323861E+03  0.00000000000E+00 0. -1.
</event>
<event>
 7    1  0.6386201E-006  0.6641854E+02  0.7818608E-02  0.1373132E+00
          2   -1    0    0  502    0  0.00000000000E+00  0.00000000000E+00  0.50510636912E+03  0.50510636912E+03  0.00000000000E+00 0. -1.
          1   -1    0    0  501    0 -0.00000000000E+00 -0.00000000000E+00 -0.14668521826E+03  0.14668521826E+03  0.00000000000E+00 0. -1.
         25    2    1    2    0    0  0.37949836341E+02 -0.28778002315E+02  0.22211894083E+03  0.25928688070E+03  0.12499799651E+03 0.  0.
          2    1    1    2  501    0 -0.43760591533E+02 -0.49659852119E+02 -0.11307225232E+03  0.13102070267E+03  0.00000000000E+00 0. -1.
          1    1    1    2  502    0  0.58107551924E+01  0.78437854434E+02  0.24937446234E+03  0.26148400401E+03  0.00000000000E+00 0. -1.
         22    1    3    3    0    0 -0.11874266733E+02 -0.64725148410E+02  0.74545937795E+02  0.99435606746E+02  0.00000000000E+00 0. -1.
         22    1    3    3    0    0  0.49824103074E+02  0.35947146095E+02  0.14757300304E+03  0.15985127396E+03  0.00000000000E+00 0. -1.
</event>
<event>
 7    1  0.6386201E-006  0.1386950E+03  0.7818608E-02  0.1240645E+00
          2   -1    0    0  502    0  0.00000000000E+00  0.00000000000E+00  0.72863474447E+03  0.72863474447E+03  0.00000000000E+00 0. -1.
          1   -1    0    0  501    0 -0.00000000000E+00 -0.00000000000E+00 -0.18161905799E+04  0.18161905799E+04  0.00000000000E+00 0. -1.
         25    2    1    2    0    0 -0.15817753864E+02  0.87387409029E+02  0.22673429723E+03  0.27371563426E+03  0.12500018521E+03 0.  0.
          2    1    1    2  501    0 -0.88637107642E+02 -0.10782156438E+03 -0.17840202732E+04  0.17894720902E+04  0.00000000000E+00 0. -1.
          1    1    1    2  502    0  0.10445486151E+03  0.20434155353E+02  0.46973014047E+03  0.48163759993E+03  0.00000000000E+00 0. -1.
         22    1    3    3    0    0  0.11090715077E+02 -0.38103009253E+01  0.15285151752E+03  0.15330071350E+03  0.00000000000E+00 0.  1.
         22    1    3    3    0    0 -0.26908468942E+02  0.91197709954E+02  0.73882779718E+02  0.12041492076E+03  0.00000000000E+00 0.  1.
</event>
<event>
 7    1  0.6386201E-006  0.8261390E+02  0.7818608E-02  0.1343920E+00
          2   -1    0    0  502    0  0.00000000000E+00  0.00000000000E+00  0.12807788517E+04  0.12807788517E+04  0.00000000000E+00 0. -1.
          1   -1    0    0  501    0 -0.00000000000E+00 -0.00000000000E+00 -0.12497955428E+03  0.12497955428E+03  0.00000000000E+00 0. -1.
         25    2    1    2    0    0  0.17246880639E+01  0.59852598051E+02  0.40685596685E+03  0.42981811879E+03  0.12500611760E+03 0.  0.
          2    1    1    2  501    0 -0.68868591327E+02 -0.48727233780E+02 -0.96262424823E+02  0.12799875240E+03  0.00000000000E+00 0. -1.
          1    1    1    2  502    0  0.67143903263E+02 -0.11125364270E+02  0.84520575540E+03  0.84794153480E+03  0.00000000000E+00 0. -1.
         22    1    3    3    0    0  0.39356562823E+02  0.83742549693E+02  0.24343834411E+03  0.26043037659E+03  0.00000000000E+00 0.  1.
         22    1    3    3    0    0 -0.37631874759E+02 -0.23889951642E+02  0.16341762274E+03  0.16938774221E+03  0.00000000000E+00 0.  1.
</event>
<event>
 7    1  0.6386201E-006  0.1006996E+03  0.7818608E-02  0.1447794E+00
          2   -1    0    0  502    0  0.00000000000E+00  0.00000000000E+00  0.20663666539E+03  0.20663666539E+03  0.00000000000E+00 0. -1.
          1   -1    0    0  501    0 -0.00000000000E+00 -0.00000000000E+00 -0.79792791090E+03  0.79792791090E+03  0.00000000000E+00 0. -1.
         25    2    1    2    0    0 -0.42745503819E+02  0.11607663481E+03  0.13128285004E+02  0.17634546175E+03  0.12499762704E+03 0.  0.
          2    1    1    2  501    0  0.30168637204E+02 -0.95191493745E+02 -0.71146190271E+03  0.71843552680E+03  0.00000000000E+00 0. -1.
          1    1    1    2  502    0  0.12576866615E+02 -0.20885141065E+02  0.10704237220E+03  0.10978358774E+03  0.00000000000E+00 0. -1.
         22    1    3    3    0    0 -0.34277075860E+01  0.36997760532E+01 -0.44002796284E+02  0.44290897518E+02  0.00000000000E+00 0.  1.
         22    1    3    3    0    0 -0.39317796233E+02  0.11237685876E+03  0.57131081288E+02  0.13205456423E+03  0.00000000000E+00 0.  1.
</event>
<event>
 7    1  0.6386201E-006  0.1024106E+03  0.7818608E-02  0.1318572E+00
          2   -1    0    0  502    0  0.00000000000E+00  0.00000000000E+00  0.18408866490E+04  0.18408866490E+04  0.00000000000E+00 0. -1.
          1   -1    0    0  501    0 -0.00000000000E+00 -0.00000000000E+00 -0.71128438716E+03  0.71128438716E+03  0.00000000000E+00 0. -1.
         25    2    1    2    0    0 -0.30532086731E+02 -0.15336335686E+03  0.12375242379E+04  0.12536120196E+04  0.12499731432E+03 0.  0.
          2    1    1    2  501    0 -0.14116413214E+02  0.10129602423E+03 -0.69752332313E+03  0.70498152030E+03  0.00000000000E+00 0. -1.
          1    1    1    2  502    0  0.44648499945E+02  0.52067332631E+02  0.58960134702E+03  0.59357749627E+03  0.00000000000E+00 0. -1.
         22    1    3    3    0    0 -0.13214215713E+01 -0.10295324063E+03  0.10922226950E+04  0.10970649623E+04  0.00000000000E+00 0. -1.
         22    1    3    3    0    0 -0.29210665159E+02 -0.50410116235E+02  0.14530154291E+03  0.15654705730E+03  0.00000000000E+00 0. -1.
</event>
<event>
 7    1  0.6386201E-006  0.9146313E+02  0.7818608E-02  0.1469945E+00
          2   -1    0    0  502    0  0.00000000000E+00  0.00000000000E+00  0.24921038189E+03  0.24921038189E+03  0.00000000000E+00 0. -1.
          1   -1    0    0  501    0 -0.00000000000E+00 -0.00000000000E+00 -0.97345239441E+03  0.97345239441E+03  0.00000000000E+00 0. -1.
         25    2    1    2    0    0  0.70189133506E+02  0.68988038377E+02 -0.41604910633E+03  0.44543071563E+03  0.12500319853E+03 0.  0.
          2    1    1    2  501    0 -0.21317925406E+02  0.82154346495E+01 -0.53355888377E+03  0.53404777853E+03  0.00000000000E+00 0. -1.
          1    1    1    2  502    0 -0.48871208101E+02 -0.77203473027E+02  0.22536597759E+03  0.24318428214E+03  0.00000000000E+00 0. -1.
         22    1    3    3    0    0  0.90974103664E+02  0.91085739362E+02 -0.33363917383E+03  0.35761431427E+03  0.00000000000E+00 0. -1.
         22    1    3    3    0    0 -0.20784970157E+02 -0.22097700985E+02 -0.82409932500E+02  0.87816401361E+02  0.00000000000E+00 0. -1.
</event>
<event>
 7    1  0.6386201E-006  0.8552783E+02  0.7818608E-02  0.1431788E+00
          2   -1    0    0  502    0  0.00000000000E+00  0.00000000000E+00  0.54073021788E+03  0.54073021788E+03  0.00000000000E+00 0. -1.
          1   -1    0    0  501    0 -0.00000000000E+00 -0.00000000000E+00 -0.88287478696E+03  0.88287478696E+03  0.00000000000E+00 0. -1.
         25    2    1    2    0    0 -0.10305786233E+03 -0.55008529848E+02 -0.54307096147E+03  0.56938366429E+03  0.12499930649E+03 0.  0.
          2    1    1    2  501    0  0.24990585448E+02  0.20546503893E+02 -0.32238175611E+03  0.32400105687E+03  0.00000000000E+00 0. -1.
          1    1    1    2  502    0  0.78067276885E+02  0.34462025955E+02  0.52330814849E+03  0.53022028369E+03  0.00000000000E+00 0. -1.
         22    1    3    3    0    0 -0.33414124431E+02  0.18898674649E+02 -0.34176198667E+03  0.34391120824E+03  0.00000000000E+00 0.  1.
         22    1    3    3    0    0 -0.69643737902E+02 -0.73907204497E+02 -0.20130897479E+03  0.22547245605E+03  0.00000000000E+00 0.  1.
</event>
<event>
 7    1  0.6386201E-006  0.5918383E+02  0.7818608E-02  0.1442707E+00
          2   -1    0    0  502    0  0.00000000000E+00  0.00000000000E+00  0.11076276675E+04  0.11076276675E+04  0.00000000000E+00 0. -1.
          1   -1    0    0  501    0 -0.00000000000E+00 -0.00000000000E+00 -0.13536101104E+04  0.13536101104E+04  0.00000000000E+00 0. -1.
         25    2    1    2    0    0 -0.26325022316E+01 -0.80081564391E+02  0.43323224500E+03  0.45796877398E+03  0.12500093125E+03 0.  0.
          2    1    1    2  501    0  0.31328318247E+02  0.29565047965E+02 -0.13396203510E+04  0.13403127398E+04  0.00000000000E+00 0. -1.
          1    1    1    2  502    0 -0.28695816016E+02  0.50516516426E+02  0.66040566312E+03  0.66295626415E+03  0.00000000000E+00 0. -1.
         22    1    3    3    0    0  0.75415302140E+01 -0.83595128275E+02  0.13124129070E+03  0.15578606014E+03  0.00000000000E+00 0. -1.
         22    1    3    3    0    0 -0.10174032446E+02  0.35135638839E+01  0.30199095430E+03  0.30218271384E+03  0.00000000000E+00 0. -1.
</event>
<event>
 7    1  0.6386201E-006  0.1846669E+03  0.7818608E-02  0.1257882E+00
          2   -1    0    0  502    0  0.00000000000E+00  0.00000000000E+00  0.20410788909E+03  0.20410788909E+03  0.00000000000E+00 0. -1.
          1   -1    0    0  501    0 -0.00000000000E+00 -0.00000000000E+00 -0.83974763757E+03  0.83974763757E+03  0.00000000000E+00 0. -1.
         25    2    1    2    0    0  0.75551964412E+02  0.21673135581E+03 -0.19227538481E+03  0.32445671435E+03  0.12498702319E+03 0.  0.
          2    1    1    2  501    0 -0.22994802284E+02 -0.17472847020E+03 -0.55872073506E+03  0.58585634674E+03  0.00000000000E+00 0. -1.
          1    1    1    2  502    0 -0.52557162128E+02 -0.42002885610E+02  0.11535637138E+03  0.13354246557E+03  0.00000000000E+00 0. -1.
         22    1    3    3    0    0  0.90262952109E+02  0.10707960950E+03 -0.60936779107E+02  0.15273092137E+03  0.00000000000E+00 0. -1.
         22    1    3    3    0    0 -0.14710987697E+02  0.10965174631E+03 -0.13133860571E+03  0.17172579298E+03  0.00000000000E+00 0. -1.
</event>
<event>
 7    1  0.6386201E-006  0.1324242E+03  0.7818608E-02  0.1247723E+00
          2   -1    0    0  502    0  0.00000000000E+00  0.00000000000E+00  0.14281780135E+04  0.14281780135E+04  0.00000000000E+00 0. -1.
          1   -1    0    0  501    0 -0.00000000000E+00 -0.00000000000E+00 -0.54337488806E+03  0.54337488806E+03  0.00000000000E+00 0. -1.
         25    2    1    2    0    0  0.10647834103E+03  0.52460211066E+02 -0.75653239297E+02  0.18825990705E+03  0.12501467567E+03 0.  0.
          2    1    1    2  501    0 -0.43919250896E+02 -0.13528404354E+03 -0.39708447679E+03  0.42178994149E+03  0.00000000000E+00 0. -1.
          1    1    1    2  502    0 -0.62559090134E+02  0.82823832478E+02  0.13575408415E+04  0.13615030530E+04  0.00000000000E+00 0. -1.
         22    1    3    3    0    0  0.20593306381E+02 -0.27774428712E+02 -0.60596608552E+02  0.69767127832E+02  0.00000000000E+00 0.  1.
         22    1    3    3    0    0  0.85885034650E+02  0.80234639778E+02 -0.15056630745E+02  0.11849277922E+03  0.00000000000E+00 0.  1.
</event>
<event>
 7    1  0.6386201E-006  0.6474895E+02  0.7818608E-02  0.1510858E+00
          2   -1    0    0  502    0  0.00000000000E+00  0.00000000000E+00  0.14839229398E+04  0.14839229398E+04  0.00000000000E+00 0. -1.
          1   -1    0    0  501    0 -0.00000000000E+00 -0.00000000000E+00 -0.17151102314E+04  0.17151102314E+04  0.00000000000E+00 0. -1.
         25    2    1    2    0    0  0.67291617703E+02 -0.37117082443E+02 -0.14130324387E+04  0.14206307849E+04  0.12500125846E+03 0.  0.
          2    1    1    2  501    0 -0.54244148234E+02  0.16651052937E+02 -0.29547947964E+03  0.30087839415E+03  0.00000000000E+00 0. -1.
          1    1    1    2  502    0 -0.13047469469E+02  0.20466029506E+02  0.14773246267E+04  0.14775239921E+04  0.00000000000E+00 0. -1.
         22    1    3    3    0    0 -0.44511300599E+01  0.22314970081E+02 -0.56598132351E+02  0.61000975682E+02  0.00000000000E+00 0. -1.
         22    1    3    3    0    0  0.71742747763E+02 -0.59432052524E+02 -0.13564343063E+04  0.13596298092E+04  0.00000000000E+00 0. -1.
</event>
<event>
 7    1  0.6386201E-006  0.3908772E+02  0.7818608E-02  0.1548540E+00
          2   -1    0    0  502    0  0.00000000000E+00  0.00000000000E+00  0.29312687660E+03  0.29312687660E+03  0.00000000000E+00 0. -1.
          1   -1    0    0  501    0 -0.00000000000E+00 -0.00000000000E+00 -0.79483652107E+03  0.79483652107E+03  0.00000000000E+00 0. -1.
         25    2    1    2    0    0  0.18048494469E+02 -0.26214948931E+02 -0.66066885775E+02  0.14492026821E+03  0.12499631612E+03 0.  0.
          2    1    1    2  501    0  0.11100514919E+02  0.37759813472E+02 -0.68780961087E+03  0.68893474709E+03  0.00000000000E+00 0. -1.
          1    1    1    2  502    0 -0.29149009388E+02 -0.11544864541E+02  0.25216685219E+03  0.25410838236E+03  0.00000000000E+00 0. -1.
         22    1    3    3    0    0 -0.45306227268E+02  0.19415558282E+02 -0.14605061746E+02  0.51409395652E+02  0.00000000000E+00 0. -1.
         22    1    3    3    0    0  0.63354721737E+02 -0.45630507213E+02 -0.51461824028E+02  0.93510872562E+02  0.00000000000E+00 0. -1.
</event>
<event>
 7    1  0.6386201E-006  0.1189184E+03  0.7818608E-02  0.1435456E+00
          2   -1    0    0  502    0  0.00000000000E+00  0.00000000000E+00  0.34247591445E+03  0.34247591445E+03  0.00000000000E+00 0. -1.
          1   -1    0    0  501    0 -0.00000000000E+00 -0.00000000000E+00 -0.72018400493E+03  0.72018400493E+03  0.00000000000E+00 0. -1.
         25    2    1    2    0    0  0.50636453005E+02  0.88285093989E+02  0.17731007166E+01  0.16120270611E+03  0.12499944150E+03 0.  0.
          2    1    1    2  501    0  0.19382581611E+02  0.11687637474E+02 -0.62598346940E+03  0.62639252015E+03  0.00000000000E+00 0. -1.
          1    1    1    2  502    0 -0.70019034617E+02 -0.99972731463E+02  0.24650227820E+03  0.27506469313E+03  0.00000000000E+00 0. -1.
         22    1    3    3    0    0  0.19605254873E+02  0.36254209220E+02 -0.61222724817E+02  0.73803494083E+02  0.00000000000E+00 0.  1.
         22    1    3    3    0    0  0.31031198133E+02  0.52030884769E+02  0.62995825534E+02  0.87399212022E+02  0.00000000000E+00 0.  1.
</event>
<event>
 7    1  0.6386201E-006  0.6171302E+02  0.7818608E-02  0.1399476E+00
          2   -1    0    0  502    0  0.00000000000E+00  0.00000000000E+00  0.62131484926E+02  0.62131484926E+02  0.00000000000E+00 0. -1.
          1   -1    0    0  501    0 -0.00000000000E+00 -0.00000000000E+00 -0.31027339996E+04  0.31027339996E+04  0.00000000000E+00 0. -1.
         25    2    1    2    0    0 -0.84579171421E+01 -0.74334745618E+01 -0.98122414461E+03  0.98921863354E+03  0.12500356022E+03 0.  0.
          2    1    1    2  501    0  0.49307047883E+02  0.48012527142E+02 -0.21025530264E+04  0.21036790669E+04  0.00000000000E+00 0. -1.
          1    1    1    2  502    0 -0.40849130740E+02 -0.40579052580E+02  0.43174656356E+02  0.71967784057E+02  0.00000000000E+00 0. -1.
         22    1    3    3    0    0  0.58348066806E+02 -0.89682311829E+00 -0.46707551315E+03  0.47070674116E+03  0.00000000000E+00 0.  1.
         22    1    3    3    0    0 -0.66805983949E+02 -0.65366514435E+01 -0.51414863146E+03  0.51851189238E+03  0.00000000000E+00 0.  1.
</event>
<event>
 7    1  0.6386201E-006  0.8260206E+02  0.7818608E-02  0.1324303E+00
          2   -1    0    0  502    0  0.00000000000E+00  0.00000000000E+00  0.84461909518E+03  0.84461909518E+03  0.00000000000E+00 0. -1.
          1   -1    0    0  501    0 -0.00000000000E+00 -0.00000000000E+00 -0.89497760626E+03  0.89497760626E+03  0.00000000000E+00 0. -1.
         25    2    1    2    0    0 -0.41825174431E+02 -0.15764007174E+01  0.32343240532E+03  0.34926444849E+03  0.12500121567E+03 0.  0.
          2    1    1    2  501    0 -0.18243708092E+02 -0.80562194166E+02 -0.87500363272E+03  0.87889388284E+03  0.00000000000E+00 0. -1.
          1    1    1    2  502    0  0.60068882524E+02  0.82138594883E+02  0.50121271632E+03  0.51143837011E+03  0.00000000000E+00 0. -1.
         22    1    3    3    0    0 -0.55497618597E+02 -0.48169343242E+02  0.25484263664E+03  0.26522639527E+03  0.00000000000E+00 0.  1.
         22    1    3    3    0    0  0.13672444166E+02  0.46592942525E+02  0.68589768673E+02  0.84038053222E+02  0.00000000000E+00 0.  1.
</event>
<event>
 7    1  0.6386201E-006  0.1254273E+03  0.7818608E-02  0.1313456E+00
          2   -1    0    0  502    0  0.00000000000E+00  0.00000000000E+00  0.18549226109E+04  0.18549226109E+04  0.00000000000E+00 0. -1.
          1   -1    0    0  501    0 -0.00000000000E+00 -0.00000000000E+00 -0.13213296901E+04  0.13213296901E+04  0.00000000000E+00 0. -1.
         25    2    1    2    0    0 -0.15732515535E+03 -0.38572690625E+01  0.96502134867E+02  0.22294065170E+03  0.12499515638E+03 0.  0.
          2    1    1    2  501    0  0.11630859755E+03  0.45763046393E+02 -0.12544969131E+04  0.12607079167E+04  0.00000000000E+00 0. -1.
          1    1    1    2  502    0  0.41016557793E+02 -0.41905777331E+02  0.16915876990E+04  0.16926037326E+04  0.00000000000E+00 0. -1.
         22    1    3    3    0    0 -0.61780084037E+01  0.42290693887E+02  0.24645426127E+02  0.49336270697E+02  0.00000000000E+00 0. -1.
         22    1    3    3    0    0 -0.15114714694E+03 -0.46147962949E+02  0.71856708740E+02  0.17360438100E+03  0.00000000000E+00 0. -1.
</event>
<event>
 7    1  0.6386201E-006  0.6057628E+02  0.7818608E-02  0.1415337E+00
          2   -1    0    0  502    0  0.00000000000E+00  0.00000000000E+00  0.60567843579E+03  0.60567843579E+03  0.00000000000E+00 0. -1.
          1   -1    0    0  501    0 -0.00000000000E+00 -0.00000000000E+00 -0.25837692113E+04  0.25837692113E+04  0.00000000000E+00 0. -1.
         25    2    1    2    0    0 -0.57233842747E+02 -0.14898810670E+02  0.72604406976E+02  0.15619936391E+03  0.12501661513E+03 0.  0.
          2    1    1    2  501    0  0.74960577669E+01  0.51260916111E+02 -0.25397748093E+04  0.25403031225E+04  0.00000000000E+00 0. -1.
          1    1    1    2  502    0  0.49737784980E+02 -0.36362105442E+02  0.48907962685E+03  0.49294516061E+03  0.00000000000E+00 0. -1.
         22    1    3    3    0    0 -0.71513247371E+02 -0.51542065655E+02  0.76449770605E+02  0.11668460270E+03  0.00000000000E+00 0. -1.
         22    1    3    3    0    0  0.14279404624E+02  0.36643254985E+02 -0.38453636290E+01  0.39514761213E+02  0.00000000000E+00 0. -1.
</event>
<event>
 7    1  0.6717375E-006  0.7499361E+02  0.7818608E-02  0.1371891E+00
          2   -1    0    0  502    0  0.00000000000E+00  0.00000000000E+00  0.27842671027E+04  0.27842671027E+04  0.00000000000E+00 0. -1.
          1   -1    0    0  501    0 -0.00000000000E+00 -0.00000000000E+00 -0.48549605480E+03  0.48549605480E+03  0.00000000000E+00 0. -1.
         25    2    1    2    0    0 -0.57730926172E+02  0.11838880601E+03 -0.16647760384E+03  0.24635130801E+03  0.12500162059E+03 0.  0.
          2    1    1    2  501    0  0.36571513683E+02 -0.46583830990E+02 -0.27542274273E+03  0.28171832765E+03  0.00000000000E+00 0. -1.
          1    1    1    2  502    0  0.21159412490E+02 -0.71804975023E+02  0.27406713944E+04  0.27416935218E+04  0.00000000000E+00 0. -1.
         22    1    3    3    0    0  0.89240553185E+01  0.10688575884E+02  0.17889463698E+02  0.22669744797E+02  0.00000000000E+00 0.  1.
         22    1    3    3    0    0 -0.66654981491E+02  0.10770023013E+03 -0.18436706754E+03  0.22368156321E+03  0.00000000000E+00 0.  1.
</event>
<event>
 7    1  0.6386201E-006  0.6593087E+02  0.7818608E-02  0.1397027E+00
          2   -1    0    0  502    0  0.00000000000E+00  0.00000000000E+00  0.47891988848E+04  0.47891988848E+04  0.00000000000E+00 0. -1.
          1   -1    0    0  501    0 -0.00000000000E+00 -0.00000000000E+00 -0.12867060610E+04  0.12867060610E+04  0.00000000000E+00 0. -1.
         25    2    1    2    0    0  0.25486271542E+02 -0.13684259566E+02  0.15131819123E+02  0.12919616453E+03  0.12500347188E+03 0.  0.
          2    1    1    2  501    0  0.33518878337E+02  0.43546669393E+02 -0.12288280074E+04  0.12300561367E+04  0.00000000000E+00 0. -1.
          1    1    1    2  502    0 -0.59005149879E+02 -0.29862409826E+02  0.47161890121E+04  0.47166526446E+04  0.00000000000E+00 0. -1.
         22    1    3    3    0    0  0.11777635112E+02 -0.37479671984E+02 -0.47005243704E+02  0.61261173973E+02  0.00000000000E+00 0. -1.
         22    1    3    3    0    0  0.13708636430E+02  0.23795412418E+02  0.62137062827E+02  0.67934990555E+02  0.00000000000E+00 0. -1.
</event>
<event>
 7    1  0.6386201E-006  0.3458400E+03  0.7818608E-02  0.1316586E+00
          2   -1    0    0  502    0  0.00000000000E+00  0.00000000000E+00  0.82640292572E+03  0.82640292572E+03  0.00000000000E+00 0. -1.
          1   -1    0    0  501    0 -0.00000000000E+00 -0.00000000000E+00 -0.18627519745E+04  0.18627519745E+04  0.00000000000E+00 0. -1.
         25    2    1    2    0    0  0.25619507063E+02  0.32764532042E+03 -0.21951700142E+03  0.41451210391E+03  0.12499902094E+03 0.  0.
          2    1    1    2  501    0 -0.27325223579E+02 -0.34825054850E+03 -0.15258490541E+04  0.15653243907E+04  0.00000000000E+00 0. -1.
          1    1    1    2  502    0  0.17057165152E+01  0.20605228078E+02  0.70901700665E+03  0.70931840566E+03  0.00000000000E+00 0. -1.
         22    1    3    3    0    0  0.72169623234E+02  0.19610269899E+03 -0.10424479045E+03  0.23352023339E+03  0.00000000000E+00 0.  1.
         22    1    3    3    0    0 -0.46550116170E+02  0.13154262144E+03 -0.11527221098E+03  0.18099187052E+03  0.00000000000E+00 0.  1.
</event>
<event>
 7    1  0.6386201E-006  0.2290179E+03  0.7818608E-02  0.1129319E+00
          2   -1    0    0  502    0  0.00000000000E+00  0.00000000000E+00  0.16983836306E+04  0.16983836306E+04  0.00000000000E+00 0. -1.
          1   -1    0    0  501    0 -0.00000000000E+00 -0.00000000000E+00 -0.96474381314E+03  0.96474381314E+03  0.00000000000E+00 0. -1.
         25    2    1    2    0    0  0.18290372310E+03  0.11758123061E+03  0.42196754325E+03  0.49087432905E+03  0.12498752597E+03 0.  0.
          2    1    1    2  501    0 -0.18230147675E+03  0.13861953442E+03 -0.90262339876E+03  0.93122403521E+03  0.00000000000E+00 0. -1.
          1    1    1    2  502    0 -0.60224634879E+00 -0.25620076503E+03  0.12142956730E+04  0.12410290795E+04  0.00000000000E+00 0. -1.
         22    1    3    3    0    0  0.10310987514E+03  0.15296051449E+02  0.10303245354E+03  0.14656500955E+03  0.00000000000E+00 0.  1.
         22    1    3    3    0    0  0.79793847966E+02  0.10228517916E+03  0.31893508971E+03  0.34430931950E+03  0.00000000000E+00 0.  1.
</event>
<event>
 7    1  0.8194838E-006  0.8786339E+02  0.7818608E-02  0.1326700E+00
          2   -1    0    0  502    0  0.00000000000E+00  0.00000000000E+00  0.20107975203E+04  0.20107975203E+04  0.00000000000E+00 0. -1.
          1   -1    0    0  501    0 -0.00000000000E+00 -0.00000000000E+00 -0.27313676962E+04  0.27313676962E+04  0.00000000000E+00 0. -1.
         25    2    1    2    0    0 -0.26675375653E+02  0.58505427460E+02 -0.19951362867E+03  0.24405968998E+03  0.12499993415E+03 0.  0.
          2    1    1    2  501    0  0.72455753004E+02  0.16755031892E+02 -0.25080540116E+04  0.25091563308E+04  0.00000000000E+00 0. -1.
          1    1    1    2  502    0 -0.45780377351E+02 -0.75260459352E+02  0.19869974644E+04  0.19889491958E+04  0.00000000000E+00 0. -1.
         22    1    3    3    0    0 -0.36375977635E+02  0.56801492655E+02 -0.21520806672E+03  0.22553078126E+03  0.00000000000E+00 0. -1.
         22    1    3    3    0    0  0.97006019820E+01  0.17039348058E+01  0.15694438045E+02  0.18528908715E+02  0.00000000000E+00 0. -1.
</event>
<event>
 7    1  0.6386201E-006  0.1844738E+03  0.7818608E-02  0.1293240E+00
          2   -1    0    0  502    0  0.00000000000E+00  0.00000000000E+00  0.12991855198E+04  0.12991855198E+04  0.00000000000E+00 0. -1.
          1   -1    0    0  501    0 -0.00000000000E+00 -0.00000000000E+00 -0.18366095918E+03  0.18366095918E+03  0.00000000000E+00 0. -1.
         25    2    1    2    0    0 -0.13295836800E+03  0.54705869367E+02  0.91381334195E+03  0.93346214202E+03  0.12500434748E+03 0.  0.
          2    1    1    2  501    0  0.18048449520E+03 -0.48050414168E+02 -0.12138043752E+03  0.22274807726E+03  0.00000000000E+00 0. -1.
          1    1    1    2  502    0 -0.47526127198E+02 -0.66554551992E+01  0.32309165620E+03  0.32663625971E+03  0.00000000000E+00 0. -1.
         22    1    3    3    0    0  0.15836173735E+02 -0.18071500334E+02  0.14825352790E+03  0.15018812222E+03  0.00000000000E+00 0.  1.
         22    1    3    3    0    0 -0.14879454174E+03  0.72777369701E+02  0.76555981405E+03  0.78327401980E+03  0.00000000000E+00 0.  1.
</event>
<event>
 7    1  0.6386201E-006  0.7746396E+02  0.7818608E-02  0.1408478E+00
          2   -1    0    0  502    0  0.00000000000E+00  0.00000000000E+00  0.11236161459E+04  0.11236161459E+04  0.00000000000E+00 0. -1.
          1   -1    0    0  501    0 -0.00000000000E+00 -0.00000000000E+00 -0.14659309134E+03  0.14659309134E+03  0.00000000000E+00 0. -1.
         25    2    1    2    0    0  0.70479219002E+00  0.35934493684E+02  0.74003067385E+03  0.75137260674E+03  0.12499444532E+03 0.  0.
          2    1    1    2  501    0 -0.11990608488E+02 -0.77149985440E+02 -0.12876760533E+03  0.15058881475E+03  0.00000000000E+00 0. -1.
          1    1    1    2  502    0  0.11285816298E+02  0.41215491756E+02  0.36575998608E+03  0.36824781578E+03  0.00000000000E+00 0. -1.
         22    1    3    3    0    0  0.20367242146E+02  0.27151865289E+02  0.46826305433E+02  0.57833824202E+02  0.00000000000E+00 0. -1.
         22    1    3    3    0    0 -0.19662449956E+02  0.87826283949E+01  0.69320436841E+03  0.69353878254E+03  0.00000000000E+00 0. -1.
</event>
<event>
 7    1  0.6386201E-006  0.5304185E+02  0.7818608E-02  0.1443654E+00
          2   -1    0    0  502    0  0.00000000000E+00  0.00000000000E+00  0.87507084673E+03  0.87507084673E+03  0.00000000000E+00 0. -1.
          1   -1    0    0  501    0 -0.00000000000E+00 -0.00000000000E+00 -0.59036521175E+03  0.59036521175E+03  0.00000000000E+00 0. -1.
         25    2    1    2    0    0  0.54412840280E+02 -0.16242703534E+02  0.51664272379E+03  0.53457418071E+03  0.12500107213E+03 0.  0.
          2    1    1    2  501    0 -0.43620969401E+02 -0.30248170803E+02 -0.57854921038E+03  0.58097928503E+03  0.00000000000E+00 0. -1.
          1    1    1    2  502    0 -0.10791870879E+02  0.46490874337E+02  0.34661212157E+03  0.34988259273E+03  0.00000000000E+00 0. -1.
         22    1    3    3    0    0  0.37846915636E+01 -0.41807269624E+02  0.42312180883E+03  0.42519905550E+03  0.00000000000E+00 0. -1.
         22    1    3    3    0    0  0.50628148716E+02  0.25564566091E+02  0.93520914953E+02  0.10937512521E+03  0.00000000000E+00 0. -1.
</event>
<event>
 7    1  0.6386201E-006  0.5941676E+02  0.7818608E-02  0.1430764E+00
          2   -1    0    0  502    0  0.00000000000E+00  0.00000000000E+00  0.97988974489E+03  0.97988974489E+03  0.00000000000E+00 0. -1.
          1   -1    0    0  501    0 -0.00000000000E+00 -0.00000000000E+00 -0.99156825528E+03  0.99156825528E+03  0.00000000000E+00 0. -1.
         25    2    1    2    0    0 -0.57205787066E+02 -0.32414082634E+00  0.11736828075E+03  0.18076307182E+03  0.12500947030E+03 0.  0.
          2    1    1    2  501    0  0.16033265015E+02  0.44108807488E+02 -0.95820881739E+03  0.95935748822E+03  0.00000000000E+00 0. -1.
          1    1    1    2  502    0  0.41172522051E+02 -0.43784666662E+02  0.82916202625E+03  0.83133744014E+03  0.00000000000E+00 0. -1.
         22    1    3    3    0    0 -0.61288800200E+02  0.27047179177E+02  0.74383348467E+01  0.67403232538E+02  0.00000000000E+00 0.  1.
         22    1    3    3    0    0  0.40830131339E+01 -0.27371320003E+02  0.10992994590E+03  0.11335983928E+03  0.00000000000E+00 0.  1.
</event>
<event>
 7    1  0.6386201E-006  0.6099924E+02  0.7818608E-02  0.1432484E+00
          2   -1    0    0  502    0  0.00000000000E+00  0.00000000000E+00  0.14257461491E+04  0.14257461491E+04  0.00000000000E+00 0. -1.
          1   -1    0    0  501    0 -0.00000000000E+00 -0.00000000000E+00 -0.46120719381E+02  0.46120719381E+02  0.00000000000E+00 0. -1.
         25    2    1    2    0    0 -0.11442022949E+02 -0.87054092558E+02  0.10391999777E+04  0.10503666165E+04  0.12499640171E+03 0.  0.
          2    1    1    2  501    0 -0.21824353983E+02  0.56565844191E+02 -0.15617575087E+02  0.62609151147E+02  0.00000000000E+00 0. -1.
          1    1    1    2  502    0  0.33266376932E+02  0.30488248367E+02  0.35604302708E+03  0.35889110083E+03  0.00000000000E+00 0. -1.
         22    1    3    3    0    0 -0.48665780356E+02 -0.40348502120E+02  0.84077268904E+03  0.84314593899E+03  0.00000000000E+00 0. -1.
         22    1    3    3    0    0  0.37223757408E+02 -0.46705590438E+02  0.19842728868E+03  0.20722067751E+03  0.00000000000E+00 0. -1.
</event>
<event>
 7    1  0.6386201E-006  0.6642948E+02  0.7818608E-02  0.1381851E+00
          2   -1    0    0  502    0  0.00000000000E+00  0.00000000000E+00  0.14672515982E+02  0.14672515982E+02  0.00000000000E+00 0. -1.
          1   -1    0    0  501    0 -0.00000000000E+00 -0.00000000000E+00 -0.27899612052E+04  0.27899612052E+04  0.00000000000E+00 0. -1.
         25    2    1    2    0    0 -0.57176720868E+02 -0.62483323632E+02 -0.90061082389E+03  0.91317992892E+03  0.12499753328E+03 0.  0.
          2    1    1    2  501    0 -0.98461529616E+01  0.60828734022E+02 -0.17392337195E+04  0.17403249733E+04  0.00000000000E+00 0. -1.
          1    1    1    2  502    0  0.67022873830E+02  0.16545896103E+01 -0.13544414574E+03  0.15112881889E+03  0.00000000000E+00 0. -1.
         22    1    3    3    0    0 -0.20956400656E+02 -0.98009821726E+02 -0.60631474048E+03  0.61454264327E+03  0.00000000000E+00 0.  1.
         22    1    3    3    0    0 -0.36220320213E+02  0.35526498094E+02 -0.29429608342E+03  0.29863728565E+03  0.00000000000E+00 0.  1.
</event>
<event>
 7    1  0.6386201E-006  0.1178242E+03  0.7818608E-02  0.1284666E+00
          2   -1    0    0  502    0  0.00000000000E+00  0.00000000000E+00  0.18128052798E+04  0.18128052798E+04  0.00000000000E+00 0. -1.
          1   -1    0    0  501    0 -0.00000000000E+00 -0.00000000000E+00 -0.15694440844E+03  0.15694440844E+03  0.00000000000E+00 0. -1.
         25    2    1    2    0    0 -0.49460364686E+02  0.57062432884E+02  0.52531542076E+03  0.54523806122E+03  0.12500321275E+03 0.  0.
          2    1    1    2  501    0  0.11963287265E+03 -0.15753164284E+02 -0.12066956621E+03  0.17064973077E+03  0.00000000000E+00 0. -1.
          1    1    1    2  502    0 -0.70172507964E+02 -0.41309268600E+02  0.12512150168E+04  0.12538618963E+04  0.00000000000E+00 0. -1.
         22    1    3    3    0    0 -0.66052805841E+02  0.94695791396E+00  0.13214508644E+03  0.14773690723E+03  0.00000000000E+00 0.  1.
         22    1    3    3    0    0  0.16592441155E+02  0.56115474970E+02  0.39317033432E+03  0.39750115399E+03  0.00000000000E+00 0.  1.
</event>
<event>
 7    1  0.6386201E-006  0.6273911E+02  0.7818608E-02  0.1390807E+00
          2   -1    0    0  502    0  0.00000000000E+00  0.00000000000E+00  0.38442601236E+03  0.38442601236E+03  0.00000000000E+00 0. -1.
          1   -1    0    0  501    0 -0.00000000000E+00 -0.00000000000E+00 -0.18926649128E+04  0.18926649128E+04  0.00000000000E+00 0. -1.
         25    2    1    2    0    0  0.45128269270E+02 -0.58767193950E+02 -0.22691090143E+03  0.26945022854E+03  0.12499889881E+03 0.  0.
          2    1    1    2  501    0  0.17789340857E+02  0.58025112928E+02 -0.16411937103E+04  0.16423154901E+04  0.00000000000E+00 0. -1.
          1    1    1    2  502    0 -0.62917610127E+02  0.74208102222E+00  0.35986571128E+03  0.36532520649E+03  0.00000000000E+00 0. -1.
         22    1    3    3    0    0  0.76771266604E+02 -0.76939127779E+02 -0.16483064043E+03  0.19744010936E+03  0.00000000000E+00 0. -1.
         22    1    3    3    0    0 -0.31642997334E+02  0.18171933829E+02 -0.62080260999E+02  0.72010119185E+02  0.00000000000E+00 0. -1.
</event>
<event>
 7    1  0.6386201E-006  0.7315610E+02  0.7818608E-02  0.1418840E+00
          2   -1    0    0  502    0  0.00000000000E+00  0.00000000000E+00  0.24960899107E+04  0.24960899107E+04  0.00000000000E+00 0. -1.
          1   -1    0    0  501    0 -0.00000000000E+00 -0.00000000000E+00 -0.71447851091E+02  0.71447851091E+02  0.00000000000E+00 0. -1.
         25    2    1    2    0    0  0.94372647926E+01  0.75066886767E+02  0.35023882943E+03  0.37949537051E+03  0.12500159657E+03 0.  0.
          2    1    1    2  501    0 -0.40862031756E+02 -0.85777156336E+01 -0.48425662660E+02  0.63940031661E+02  0.00000000000E+00 0. -1.
          1    1    1    2  502    0  0.31424766963E+02 -0.66489171134E+02  0.21228288928E+04  0.21241023596E+04  0.00000000000E+00 0. -1.
         22    1    3    3    0    0  0.41931231624E+02 -0.18692782844E+02  0.91266703114E+02  0.10216290625E+03  0.00000000000E+00 0. -1.
         22    1    3    3    0    0 -0.32493966832E+02  0.93759669611E+02  0.25897212631E+03  0.27733246426E+03  0.00000000000E+00 0. -1.
</event>
<event>
 7    1  0.6386201E-006  0.1072579E+03  0.7818608E-02  0.1296231E+00
          2   -1    0    0  502    0  0.00000000000E+00  0.00000000000E+00  0.57683157742E+03  0.57683157742E+03  0.00000000000E+00 0. -1.
          1   -1    0    0  501    0 -0.00000000000E+00 -0.00000000000E+00 -0.10375821648E+04  0.10375821648E+04  0.00000000000E+00 0. -1.
         25    2    1    2    0    0 -0.56331653552E+02  0.50677446731E+02  0.12767379164E+03  0.19408140578E+03  0.12500214478E+03 0.  0.
          2    1    1    2  501    0  0.42283858163E+02  0.68235409659E+02 -0.99410949272E+03  0.99734531598E+03  0.00000000000E+00 0. -1.
          1    1    1    2  502    0  0.14047795389E+02 -0.11891285639E+03  0.40568511372E+03  0.42298702044E+03  0.00000000000E+00 0. -1.
         22    1    3    3    0    0  0.20133170374E+02  0.49992339760E+01 -0.15200413755E+02  0.25717493423E+02  0.00000000000E+00 0.  1.
         22    1    3    3    0    0 -0.76464823926E+02  0.45678212755E+02  0.14287420539E+03  0.16836391236E+03  0.00000000000E+00 0.  1.
</event>
<event>
 7    1  0.6386201E-006  0.4245252E+02  0.7818608E-02  0.1593801E+00
          2   -1    0    0  502    0  0.00000000000E+00  0.00000000000E+00  0.11838371095E+04  0.11838371095E+04  0.00000000000E+00 0. -1.
          1   -1    0    0  501    0 -0.00000000000E+00 -0.00000000000E+00 -0.22486015627E+03  0.22486015627E+03  0.00000000000E+00 0. -1.
         25    2    1    2    0    0  0.51867422712E+02 -0.13111539441E+02  0.66286545701E+02  0.15126254699E+03  0.12499723987E+03 0.  0.
          2    1    1    2  501    0 -0.99452444778E+01  0.19351051853E+02 -0.18130376065E+03  0.18260455833E+03  0.00000000000E+00 0. -1.
          1    1    1    2  502    0 -0.41922178235E+02 -0.62395124122E+01  0.10739941682E+04  0.10748301605E+04  0.00000000000E+00 0. -1.
         22    1    3    3    0    0  0.33501399729E+02 -0.69158362482E+02  0.34090558544E+02  0.84067764731E+02  0.00000000000E+00 0. -1.
         22    1    3    3    0    0  0.18366022984E+02  0.56046823041E+02  0.32195987157E+02  0.67194782254E+02  0.00000000000E+00 0. -1.
</event>
<event>
 7    1  0.6386201E-006  0.6136913E+02  0.7818608E-02  0.1416176E+00
          2   -1    0    0  502    0  0.00000000000E+00  0.00000000000E+00  0.78372249563E+03  0.78372249563E+03  0.00000000000E+00 0. -1.
          1   -1    0    0  501    0 -0.00000000000E+00 -0.00000000000E+00 -0.63128675978E+03  0.63128675978E+03  0.00000000000E+00 0. -1.
         25    2    1    2    0    0  0.19226472971E+02 -0.86333885564E+00  0.15076719849E+03  0.19679339066E+03  0.12500595126E+03 0.  0.
          2    1    1    2  501    0  0.34169732548E+02  0.37598614773E+02 -0.60548502162E+03  0.60761281904E+03  0.00000000000E+00 0. -1.
          1    1    1    2  502    0 -0.53396205519E+02 -0.36735275918E+02  0.60715355898E+03  0.61060304572E+03  0.00000000000E+00 0. -1.
         22    1    3    3    0    0 -0.44362573612E+02  0.31121491891E+02  0.52465129389E+02  0.75426619948E+02  0.00000000000E+00 0. -1.
         22    1    3    3    0    0  0.63589046583E+02 -0.31984830747E+02  0.98302069099E+02  0.12136677071E+03  0.00000000000E+00 0. -1.
</event>
<event>
 7    1  0.6386201E-006  0.4407002E+02  0.7818608E-02  0.1504813E+00
          2   -1    0    0  502    0  0.00000000000E+00  0.00000000000E+00  0.89599737246E+03  0.89599737246E+03  0.00000000000E+00 0. -1.
          1   -1    0    0  501    0 -0.00000000000E+00 -0.00000000000E+00 -0.25993315231E+03  0.25993315231E+03  0.00000000000E+00 0. -1.
         25    2    1    2    0    0  0.41566802791E+02 -0.45624971438E+02  0.68592116956E+03  0.69994469772E+03  0.12500116765E+03 0.  0.
          2    1    1    2  501    0 -0.36862105908E+02  0.46629629500E+01 -0.24943807499E+03  0.25219022846E+03  0.00000000000E+00 0. -1.
          1    1    1    2  502    0 -0.47046968838E+01  0.40962008488E+02  0.19958112558E+03  0.20379559858E+03  0.00000000000E+00 0. -1.
         22    1    3    3    0    0 -0.24309834626E+02  0.26618967949E+02  0.28517704639E+03  0.28744649120E+03  0.00000000000E+00 0. -1.
         22    1    3    3    0    0  0.65876637418E+02 -0.72243939387E+02  0.40074412316E+03  0.41249820652E+03  0.00000000000E+00 0. -1.
</event>
<event>
 7    1  0.6386201E-006  0.8237631E+02  0.7818608E-02  0.1436205E+00
          2   -1    0    0  502    0  0.00000000000E+00  0.00000000000E+00  0.26497790766E+03  0.26497790766E+03  0.00000000000E+00 0. -1.
          1   -1    0    0  501    0 -0.00000000000E+00 -0.00000000000E+00 -0.13991610313E+04  0.13991610313E+04  0.00000000000E+00 0. -1.
         25    2    1    2    0    0  0.56796490631E+02  0.26014762735E+02  0.68258294542E+02  0.15552095189E+03  0.12499984990E+03 0.  0.
          2    1    1    2  501    0  0.11842965988E+02  0.30255212063E+02 -0.13424519945E+04  0.13428451106E+04  0.00000000000E+00 0. -1.
          1    1    1    2  502    0 -0.68639456619E+02 -0.56269974799E+02  0.14001057632E+03  0.16577287640E+03  0.00000000000E+00 0. -1.
         22    1    3    3    0    0  0.41810788011E+02  0.72548262541E+02  0.18475694641E+02  0.85748140996E+02  0.00000000000E+00 0.  1.
         22    1    3    3    0    0  0.14985702620E+02 -0.46533499805E+02  0.49782599902E+02  0.69772810894E+02  0.00000000000E+00 0.  1.
</event>
<event>
 7    1  0.6386201E-006  0.9550924E+02  0.7818608E-02  0.1293062E+00
          2   -1    0    0  502    0  0.00000000000E+00  0.00000000000E+00  0.47279586279E+03  0.47279586279E+03  0.00000000000E+00 0. -1.
          1   -1    0    0  501    0 -0.00000000000E+00 -0.00000000000E+00 -0.20564880789E+03  0.20564880789E+03  0.00000000000E+00 0. -1.
         25    2    1    2    0    0  0.40508588427E+02  0.10563809933E+03  0.98138085867E+02  0.19508130986E+03  0.12500111917E+03 0.  0.
          2    1    1    2  501    0 -0.93325471183E+02 -0.29279979268E+02 -0.13431101255E+03  0.16615176451E+03  0.00000000000E+00 0. -1.
          1    1    1    2  502    0  0.52816882756E+02 -0.76358120063E+02  0.30331998159E+03  0.31721159631E+03  0.00000000000E+00 0. -1.
         22    1    3    3    0    0  0.22094696525E+02  0.13316654294E+03  0.72692335986E+02  0.15331562048E+03  0.00000000000E+00 0.  1.
         22    1    3    3    0    0  0.18413891902E+02 -0.27528443609E+02  0.25445749881E+02  0.41765689381E+02  0.00000000000E+00 0.  1.
</event>
<event>
 7    1  0.6386201E-006  0.6956117E+02  0.7818608E-02  0.1400329E+00
          2   -1    0    0  502    0  0.00000000000E+00  0.00000000000E+00  0.27528849790E+03  0.27528849790E+03  0.00000000000E+00 0. -1.
          1   -1    0    0  501    0 -0.00000000000E+00 -0.00000000000E+00 -0.66487372800E+03  0.66487372800E+03  0.00000000000E+00 0. -1.
         25    2    1    2    0    0  0.62492797745E+02 -0.27542802070E+02  0.10586745985E+02  0.14283175361E+03  0.12499949973E+03 0.  0.
          2    1    1    2  501    0 -0.66173932004E+02 -0.23061782513E+02 -0.59341450440E+03  0.59753795622E+03  0.00000000000E+00 0. -1.
          1    1    1    2  502    0  0.36811342594E+01  0.50604584583E+02  0.19324252831E+03  0.19979251607E+03  0.00000000000E+00 0. -1.
         22    1    3    3    0    0  0.71393176733E+02 -0.62588507831E+02 -0.18127773391E+02  0.96658797658E+02  0.00000000000E+00 0. -1.
         22    1    3    3    0    0 -0.89003789879E+01  0.35045705761E+02  0.28714519376E+02  0.46172955953E+02  0.00000000000E+00 0. -1.
</event>
<event>
 7    1  0.6386201E-006  0.3464737E+02  0.7818608E-02  0.1598032E+00
          2   -1    0    0  502    0  0.00000000000E+00  0.00000000000E+00  0.10920929485E+04  0.10920929485E+04  0.00000000000E+00 0. -1.
          1   -1    0    0  501    0 -0.00000000000E+00 -0.00000000000E+00 -0.24622681113E+02  0.24622681113E+02  0.00000000000E+00 0. -1.
         25    2    1    2    0    0 -0.23923083340E+02 -0.68258852807E+01  0.45517814899E+03  0.47268524249E+03  0.12500113809E+03 0.  0.
          2    1    1    2  501    0  0.16015250563E+02  0.31578332959E+02  0.45104165169E+01  0.35693461869E+02  0.00000000000E+00 0. -1.
          1    1    1    2  502    0  0.79078327767E+01 -0.24752447678E+02  0.60778170192E+03  0.60833692529E+03  0.00000000000E+00 0. -1.
         22    1    3    3    0    0  0.50054305100E+02  0.10647069846E+02  0.19828722896E+03  0.20478432246E+03  0.00000000000E+00 0. -1.
         22    1    3    3    0    0 -0.73977388440E+02 -0.17472955126E+02  0.25689092003E+03  0.26790092004E+03  0.00000000000E+00 0. -1.
</event>
<event>
 7    1  0.6386201E-006  0.1665885E+03  0.7818608E-02  0.1232354E+00
          2   -1    0    0  502    0  0.00000000000E+00  0.00000000000E+00  0.17034352537E+04  0.17034352537E+04  0.00000000000E+00 0. -1.
          1   -1    0    0  501    0 -0.00000000000E+00 -0.00000000000E+00 -0.75514261599E+03  0.75514261599E+03  0.00000000000E+00 0. -1.
         25    2    1    2    0    0  0.11521925098E+03  0.10072217867E+03  0.10174229516E+04  0.10364334614E+04  0.12499769744E+03 0.  0.
          2    1    1    2  501    0 -0.42870310366E+02  0.86391564261E+02 -0.72751200392E+03  0.73387674833E+03  0.00000000000E+00 0. -1.
          1    1    1    2  502    0 -0.72348940616E+02 -0.18711374293E+03  0.65838169001E+03  0.68826765996E+03  0.00000000000E+00 0. -1.
         22    1    3    3    0    0  0.69486798148E+02  0.60748335641E+02  0.24802385765E+03  0.26464052858E+03  0.00000000000E+00 0. -1.
         22    1    3    3    0    0  0.45732452834E+02  0.39973843028E+02  0.76939909393E+03  0.77179293279E+03  0.00000000000E+00 0. -1.
</event>
<event>
 7    1  0.6386201E-006  0.7281571E+02  0.7818608E-02  0.1415320E+00
          2   -1    0    0  502    0  0.00000000000E+00  0.00000000000E+00  0.97011239049E+03  0.97011239049E+03  0.00000000000E+00 0. -1.
          1   -1    0    0  501    0 -0.00000000000E+00 -0.00000000000E+00 -0.24455166010E+03  0.24455166010E+03  0.00000000000E+00 0. -1.
         25    2    1    2    0    0 -0.29272867895E+02 -0.26490176973E+02  0.21843674282E+03  0.25475395852E+03  0.12500535386E+03 0.  0.
          2    1    1    2  501    0 -0.43098473157E+02  0.67673759470E+00 -0.22230503036E+03  0.22644527570E+03  0.00000000000E+00 0. -1.
          1    1    1    2  502    0  0.72371341052E+02  0.25813439379E+02  0.72942901793E+03  0.73346481638E+03  0.00000000000E+00 0. -1.
         22    1    3    3    0    0 -0.23300251505E+02  0.31293546636E+02  0.12787541647E+02  0.41057386700E+02  0.00000000000E+00 0.  1.
         22    1    3    3    0    0 -0.59726163894E+01 -0.57783723609E+02  0.20564920118E+03  0.21369657182E+03  0.00000000000E+00 0.  1.
</event>
<event>
 7    1  0.6386201E-006  0.4050514E+02  0.7818608E-02  0.1523477E+00
          2   -1    0    0  502    0  0.00000000000E+00  0.00000000000E+00  0.59262775092E+03  0.59262775092E+03  0.00000000000E+00 0. -1.
          1   -1    0    0  501    0 -0.00000000000E+00 -0.00000000000E+00 -0.20890051346E+04  0.20890051346E+04  0.00000000000E+00 0. -1.
         25    2    1    2    0    0 -0.57735464191E+02 -0.31436092201E+02  0.21209751941E+03  0.25481758918E+03  0.12500013718E+03 0.  0.
          2    1    1    2  501    0  0.22172002661E+02  0.33880224670E+02 -0.20665618047E+04  0.20669584321E+04  0.00000000000E+00 0. -1.
          1    1    1    2  502    0  0.35563461530E+02 -0.24441324682E+01  0.35808690166E+03  0.35985686421E+03  0.00000000000E+00 0. -1.
         22    1    3    3    0    0  0.16132339968E+02 -0.74279235979E+01  0.16070427815E+03  0.16168268756E+03  0.00000000000E+00 0.  1.
         22    1    3    3    0    0 -0.73867804159E+02 -0.24008168603E+02  0.51393241262E+02  0.93134901613E+02  0.00000000000E+00 0.  1.
</event>
<event>
 7    1  0.6386201E-006  0.3555529E+03  0.7818608E-02  0.1230019E+00
          2   -1    0    0  502    0  0.00000000000E+00  0.00000000000E+00  0.28899153270E+04  0.28899153270E+04  0.00000000000E+00 0. -1.
          1   -1    0    0  501    0 -0.00000000000E+00 -0.00000000000E+00 -0.12175279387E+04  0.12175279387E+04  0.00000000000E+00 0. -1.
         25    2    1    2    0    0  0.35719364977E+03 -0.10103619230E+03 -0.59695559505E+03  0.71398236263E+03  0.12497686224E+03 0.  0.
          2    1    1    2  501    0 -0.29285731255E+02 -0.35845318584E+02 -0.54993465043E+03  0.55187920840E+03  0.00000000000E+00 0. -1.
          1    1    1    2  502    0 -0.32790791851E+03  0.13688151088E+03  0.28192776338E+04  0.28415816947E+04  0.00000000000E+00 0. -1.
         22    1    3    3    0    0  0.22737685849E+03 -0.23622225874E+02 -0.26997560901E+03  0.35375849783E+03  0.00000000000E+00 0.  1.
         22    1    3    3    0    0  0.12981679128E+03 -0.77413966425E+02 -0.32697998604E+03  0.36022386480E+03  0.00000000000E+00 0.  1.
</event>
<event>
 7    1  0.6386201E-006  0.3652560E+03  0.7818608E-02  0.1232601E+00
          2   -1    0    0  502    0  0.00000000000E+00  0.00000000000E+00  0.79274130661E+03  0.79274130661E+03  0.00000000000E+00 0. -1.
          1   -1    0    0  501    0 -0.00000000000E+00 -0.00000000000E+00 -0.43634724285E+03  0.43634724285E+03  0.00000000000E+00 0. -1.
         25    2    1    2    0    0  0.62343487385E+02  0.32746501763E+03 -0.49323729849E+02  0.35941428835E+03  0.12500300858E+03 0.  0.
          2    1    1    2  501    0 -0.98263034540E+01  0.42760928243E+02 -0.17420668507E+03  0.17964693804E+03  0.00000000000E+00 0. -1.
          1    1    1    2  502    0 -0.52517183931E+02 -0.37022594587E+03  0.57992447869E+03  0.69002732307E+03  0.00000000000E+00 0. -1.
         22    1    3    3    0    0  0.61498128027E+02  0.54766711631E+02 -0.22684423010E+02  0.85416599680E+02  0.00000000000E+00 0.  1.
         22    1    3    3    0    0  0.84535935787E+00  0.27269830600E+03 -0.26639306839E+02  0.27399768867E+03  0.00000000000E+00 0.  1.
</event>
<event>
 7    1  0.6386201E-006  0.3872314E+02  0.7818608E-02  0.1563067E+00
          2   -1    0    0  502    0  0.00000000000E+00  0.00000000000E+00  0.22360402383E+04  0.22360402383E+04  0.00000000000E+00 0. -1.
          1   -1    0    0  501    0 -0.00000000000E+00 -0.00000000000E+00 -0.29864583518E+03  0.29864583518E+03  0.00000000000E+00 0. -1.
         25    2    1    2    0    0 -0.11555027198E+02 -0.28087909468E+02  0.23388646910E+03  0.26692700805E+03  0.12499879154E+03 0.  0.
          2    1    1    2  501    0  0.27926871008E+02 -0.72337408021E+01 -0.28119669711E+03  0.28267263680E+03  0.00000000000E+00 0. -1.
          1    1    1    2  502    0 -0.16371843810E+02  0.35321650270E+02  0.19847046311E+04  0.19850864286E+04  0.00000000000E+00 0. -1.
         22    1    3    3    0    0 -0.36038704863E+02 -0.45211975883E+02  0.22957014474E+03  0.23673901742E+03  0.00000000000E+00 0.  1.
         22    1    3    3    0    0  0.24483677665E+02  0.17124066414E+02  0.43163243601E+01  0.30187990634E+02  0.00000000000E+00 0.  1.
</event>
<event>
 7    1  0.6386201E-006  0.1707026E+03  0.7818608E-02  0.1220248E+00
          2   -1    0    0  502    0  0.00000000000E+00  0.00000000000E+00  0.29444903401E+04  0.29444903401E+04  0.00000000000E+00 0. -1.
          1   -1    0    0  501    0 -0.00000000000E+00 -0.00000000000E+00 -0.43178657166E+03  0.43178657166E+03  0.00000000000E+00 0. -1.
         25    2    1    2    0    0 -0.62288965361E+02  0.77672537320E+02  0.36538228857E+03  0.39880115562E+03  0.12500082666E+03 0.  0.
          2    1    1    2  501    0  0.20519157770E+02  0.10474155710E+03 -0.40473282991E+03  0.41856957991E+03  0.00000000000E+00 0. -1.
          1    1    1    2  502    0  0.41769807591E+02 -0.18241409442E+03  0.25520543098E+04  0.25589061762E+04  0.00000000000E+00 0. -1.
         22    1    3    3    0    0 -0.43756701964E+02  0.40430080176E+02  0.34907189937E+03  0.35411923314E+03  0.00000000000E+00 0.  1.
         22    1    3    3    0    0 -0.18532263397E+02  0.37242457144E+02  0.16310389197E+02  0.44681922480E+02  0.00000000000E+00 0.  1.
</event>
<event>
 7    1  0.6386201E-006  0.7038055E+02  0.7818608E-02  0.1367508E+00
          2   -1    0    0  502    0  0.00000000000E+00  0.00000000000E+00  0.12030212704E+04  0.12030212704E+04  0.00000000000E+00 0. -1.
          1   -1    0    0  501    0 -0.00000000000E+00 -0.00000000000E+00 -0.26368286980E+03  0.26368286980E+03  0.00000000000E+00 0. -1.
         25    2    1    2    0    0 -0.17685670439E+01 -0.64362885129E+01  0.95261703765E+03  0.96080596707E+03  0.12499732917E+03 0.  0.
          2    1    1    2  501    0  0.55319555615E+02  0.44046851208E+02 -0.25025439817E+03  0.26005315252E+03  0.00000000000E+00 0. -1.
          1    1    1    2  502    0 -0.53550988571E+02 -0.37610562695E+02  0.23697576109E+03  0.24584502058E+03  0.00000000000E+00 0. -1.
         22    1    3    3    0    0  0.12216942354E+02  0.27776278576E+02  0.58288134872E+02  0.65713636324E+02  0.00000000000E+00 0. -1.
         22    1    3    3    0    0 -0.13985509398E+02 -0.34212567089E+02  0.89432890278E+03  0.89509233075E+03  0.00000000000E+00 0. -1.
</event>
<event>
 7    1  0.6386201E-006  0.8024053E+02  0.7818608E-02  0.1432798E+00
          2   -1    0    0  502    0  0.00000000000E+00  0.00000000000E+00  0.45777562211E+03  0.45777562211E+03  0.00000000000E+00 0. -1.
          1   -1    0    0  501    0 -0.00000000000E+00 -0.00000000000E+00 -0.44975521835E+03  0.44975521835E+03  0.00000000000E+00 0. -1.
         25    2    1    2    0    0 -0.65223767926E+02 -0.90930972529E+02 -0.19918233819E+02  0.16894328365E+03  0.12499006114E+03 0.  0.
          2    1    1    2  501    0  0.25610348297E+02  0.22699537438E+02 -0.35042169225E+03  0.35208879752E+03  0.00000000000E+00 0. -1.
          1    1    1    2  502    0  0.39613419629E+02  0.68231435091E+02  0.37836032982E+03  0.38649875929E+03  0.00000000000E+00 0. -1.
         22    1    3    3    0    0 -0.80906241178E+02 -0.24323273288E+02 -0.45417572205E+02  0.95917659218E+02  0.00000000000E+00 0.  1.
         22    1    3    3    0    0  0.15682473252E+02 -0.66607699240E+02  0.25499338385E+02  0.73025624431E+02  0.00000000000E+00 0.  1.
</event>
<event>
 7    1  0.6386201E-006  0.1096807E+03  0.7818608E-02  0.1380894E+00
          2   -1    0    0  502    0  0.00000000000E+00  0.00000000000E+00  0.85948600086E+03  0.85948600086E+03  0.00000000000E+00 0. -1.
          1   -1    0    0  501    0 -0.00000000000E+00 -0.00000000000E+00 -0.13606196542E+03  0.13606196542E+03  0.00000000000E+00 0. -1.
         25    2    1    2    0    0 -0.41143000332E+02 -0.12129698920E+03  0.19530736425E+03  0.26490806344E+03  0.12500243790E+03 0.  0.
          2    1    1    2  501    0  0.60711548887E+02  0.89175252407E+02 -0.71771708335E+02  0.12957351553E+03  0.00000000000E+00 0. -1.
          1    1    1    2  502    0 -0.19568548555E+02  0.32121736793E+02  0.59988837952E+03  0.60106638731E+03  0.00000000000E+00 0. -1.
         22    1    3    3    0    0  0.23048555833E+02  0.34555837230E+01  0.79937274227E+02  0.83265507839E+02  0.00000000000E+00 0. -1.
         22    1    3    3    0    0 -0.64191556165E+02 -0.12475257292E+03  0.11537009002E+03  0.18164255560E+03  0.00000000000E+00 0. -1.
</event>
<event>
 7    1  0.6386201E-006  0.1189164E+03  0.7818608E-02  0.1316238E+00
          2   -1    0    0  502    0  0.00000000000E+00  0.00000000000E+00  0.24871534832E+04  0.24871534832E+04  0.00000000000E+00 0. -1.
          1   -1    0    0  501    0 -0.00000000000E+00 -0.00000000000E+00 -0.18209000514E+03  0.18209000514E+03  0.00000000000E+00 0. -1.
         25    2    1    2    0    0 -0.85834614633E+02 -0.10581993901E+03  0.83351661899E+03  0.85377976704E+03  0.12499798365E+03 0.  0.
          2    1    1    2  501    0  0.10793556170E+03  0.49696195003E+02 -0.15080292014E+03  0.19199301550E+03  0.00000000000E+00 0. -1.
          1    1    1    2  502    0 -0.22100947067E+02  0.56123744008E+02  0.16223497792E+04  0.16234707058E+04  0.00000000000E+00 0. -1.
         22    1    3    3    0    0 -0.11010956018E+03 -0.11456933128E+03  0.73015250469E+03  0.74724355267E+03  0.00000000000E+00 0. -1.
         22    1    3    3    0    0  0.24274945545E+02  0.87493922675E+01  0.10336411430E+03  0.10653621437E+03  0.00000000000E+00 0. -1.
</event>
<event>
 7    1  0.6386201E-006  0.7144835E+02  0.7818608E-02  0.1357779E+00
          2   -1    0    0  502    0  0.00000000000E+00  0.00000000000E+00  0.30466163910E+03  0.30466163910E+03  0.00000000000E+00 0. -1.
          1   -1    0    0  501    0 -0.00000000000E+00 -0.00000000000E+00 -0.30588719964E+03  0.30588719964E+03  0.00000000000E+00 0. -1.
         25    2    1    2    0    0 -0.43817992199E+01  0.98177767268E+01 -0.12014020337E+03  0.17370710936E+03  0.12499960989E+03 0.  0.
          2    1    1    2  501    0 -0.65038414366E+02 -0.29578233897E+02 -0.14585261953E+03  0.16241260384E+03  0.00000000000E+00 0. -1.
          1    1    1    2  502    0  0.69420213586E+02  0.19760457170E+02  0.26476726236E+03  0.27442912553E+03  0.00000000000E+00 0. -1.
         22    1    3    3    0    0 -0.53429841185E+02 -0.16733351888E+02 -0.20698232777E+02  0.59692292924E+02  0.00000000000E+00 0.  1.
         22    1    3    3    0    0  0.49048041965E+02  0.26551128614E+02 -0.99441970595E+02  0.11401481644E+03  0.00000000000E+00 0.  1.
</event>
<event>
 7    1  0.6386201E-006  0.6076851E+02  0.7818608E-02  0.1457713E+00
          2   -1    0    0  502    0  0.00000000000E+00  0.00000000000E+00  0.25394037638E+04  0.25394037638E+04  0.00000000000E+00 0. -1.
          1   -1    0    0  501    0 -0.00000000000E+00 -0.00000000000E+00 -0.12543053153E+03  0.12543053153E+03  0.00000000000E+00 0. -1.
         25    2    1    2    0    0 -0.32617565002E+01 -0.89131685500E+02  0.13734497265E+03  0.20601857251E+03  0.12499965717E+03 0.  0.
          2    1    1    2  501    0  0.20852764230E+02  0.31243490853E+02 -0.86817702592E+02  0.94595491330E+02  0.00000000000E+00 0. -1.
          1    1    1    2  502    0 -0.17591007729E+02  0.57888194647E+02  0.23634459622E+04  0.23642202315E+04  0.00000000000E+00 0. -1.
         22    1    3    3    0    0  0.11526612325E+02 -0.11636621978E+03  0.82792406416E+02  0.14327785055E+03  0.00000000000E+00 0.  1.
         22    1    3    3    0    0 -0.14788368825E+02  0.27234534280E+02  0.54552566230E+02  0.62740721962E+02  0.00000000000E+00 0.  1.
</event>
<event>
 7    1  0.6386201E-006  0.3644206E+02  0.7818608E-02  0.1589686E+00
          2   -1    0    0  502    0  0.00000000000E+00  0.00000000000E+00  0.15136188752E+03  0.15136188752E+03  0.00000000000E+00 0. -1.
          1   -1    0    0  501    0 -0.00000000000E+00 -0.00000000000E+00 -0.25476524868E+03  0.25476524868E+03  0.00000000000E+00 0. -1.
         25    2    1    2    0    0 -0.39506026913E+01  0.61892183730E+02  0.58858135481E+02  0.15144194609E+03  0.12499653296E+03 0.  0.
          2    1    1    2  501    0  0.31756740201E+01 -0.35915993894E+02 -0.20310189248E+03  0.20627753695E+03  0.00000000000E+00 0. -1.
          1    1    1    2  502    0  0.77492867123E+00 -0.25976189837E+02  0.40840395841E+02  0.48407653169E+02  0.00000000000E+00 0. -1.
         22    1    3    3    0    0  0.38000318906E+02  0.65530220615E+02  0.74761192966E+02  0.10643058782E+03  0.00000000000E+00 0. -1.
         22    1    3    3    0    0 -0.41950921597E+02 -0.36380368849E+01 -0.15903057485E+02  0.45011358262E+02  0.00000000000E+00 0. -1.
</event>
<event>
 7    1  0.6386201E-006  0.4289696E+03  0.7818608E-02  0.1206679E+00
          2   -1    0    0  502    0  0.00000000000E+00  0.00000000000E+00  0.11343627959E+04  0.11343627959E+04  0.00000000000E+00 0. -1.
          1   -1    0    0  501    0 -0.00000000000E+00 -0.00000000000E+00 -0.13751442301E+04  0.13751442301E+04  0.00000000000E+00 0. -1.
         25    2    1    2    0    0 -0.41296997311E+03 -0.11960541096E+02 -0.23787655690E+03  0.49284610360E+03  0.12499908910E+03 0.  0.
          2    1    1    2  501    0  0.43420245263E+03 -0.32258959432E+02 -0.96219313683E+03  0.10561193318E+04  0.00000000000E+00 0. -1.
          1    1    1    2  502    0 -0.21232479523E+02  0.44219500528E+02  0.95928825952E+03  0.96054159059E+03  0.00000000000E+00 0. -1.
         22    1    3    3    0    0 -0.63063330072E+02  0.30737093889E+02 -0.80581438228E+02  0.10684156835E+03  0.00000000000E+00 0. -1.
         22    1    3    3    0    0 -0.34990664304E+03 -0.42697634985E+02 -0.15729511867E+03  0.38600453525E+03  0.00000000000E+00 0. -1.
</event>
<event>
 7    1  0.6386201E-006  0.6827870E+02  0.7818608E-02  0.1463129E+00
          2   -1    0    0  502    0  0.00000000000E+00  0.00000000000E+00  0.46398461938E+03  0.46398461938E+03  0.00000000000E+00 0. -1.
          1   -1    0    0  501    0 -0.00000000000E+00 -0.00000000000E+00 -0.67418268937E+03  0.67418268937E+03  0.00000000000E+00 0. -1.
         25    2    1    2    0    0  0.41278736009E+02 -0.15635186067E+01 -0.35543483652E+02  0.13635731043E+03  0.12499439284E+03 0.  0.
          2    1    1    2  501    0 -0.65721133184E+02  0.22437317726E+02 -0.58555281341E+03  0.58965650837E+03  0.00000000000E+00 0. -1.
          1    1    1    2  502    0  0.24442397175E+02 -0.20873799120E+02  0.41089822707E+03  0.41215348995E+03  0.00000000000E+00 0. -1.
         22    1    3    3    0    0  0.56754424718E+02 -0.52158728787E+02 -0.31579818370E+02  0.83299955835E+02  0.00000000000E+00 0.  1.
         22    1    3    3    0    0 -0.15475688709E+02  0.50595210180E+02 -0.39636652812E+01  0.53057354596E+02  0.00000000000E+00 0.  1.
</event>
<event>
 7    1  0.6386201E-006  0.8679636E+02  0.7818608E-02  0.1315957E+00
          2   -1    0    0  502    0  0.00000000000E+00  0.00000000000E+00  0.11645778819E+04  0.11645778819E+04  0.00000000000E+00 0. -1.
          1   -1    0    0  501    0 -0.00000000000E+00 -0.00000000000E+00 -0.26850891228E+04  0.26850891228E+04  0.00000000000E+00 0. -1.
         25    2    1    2    0    0 -0.20322144382E+02  0.83032209997E-01  0.32783038552E+03  0.35143985210E+03  0.12499684609E+03 0.  0.
          2    1    1    2  501    0 -0.52365718042E+02  0.69220230026E+02 -0.26695197217E+04  0.26709303910E+04  0.00000000000E+00 0. -1.
          1    1    1    2  502    0  0.72687862423E+02 -0.69303262236E+02  0.82117809533E+03  0.82729676159E+03  0.00000000000E+00 0. -1.
         22    1    3    3    0    0 -0.17634025249E+02 -0.14109613727E+02 -0.69722948988E+00  0.22594826288E+02  0.00000000000E+00 0.  1.
         22    1    3    3    0    0 -0.26881191325E+01  0.14192645937E+02  0.32852761500E+03  0.32884502582E+03  0.00000000000E+00 0.  1.
</event>
<event>
 7    1  0.6386201E-006  0.1467201E+03  0.7818608E-02  0.1228375E+00
          2   -1    0    0  502    0  0.00000000000E+00  0.00000000000E+00  0.37825422413E+03  0.37825422413E+03  0.00000000000E+00 0. -1.
          1   -1    0    0  501    0 -0.00000000000E+00 -0.00000000000E+00 -0.59560736059E+03  0.59560736059E+03  0.00000000000E+00 0. -1.
         25    2    1    2    0    0 -0.41561011971E+02 -0.16651985003E+03 -0.27003825794E+03  0.34351330445E+03  0.12499820563E+03 0.  0.
          2    1    1    2  501    0  0.12105977425E+03  0.84682652365E+02 -0.25914567445E+03  0.29830035390E+03  0.00000000000E+00 0. -1.
          1    1    1    2  502    0 -0.79498762280E+02  0.81837197663E+02  0.31183079592E+03  0.33204792638E+03  0.00000000000E+00 0. -1.
         22    1    3    3    0    0 -0.63451832961E+02 -0.10299902583E+03 -0.88355039256E+02  0.14980503126E+03  0.00000000000E+00 0.  1.
         22    1    3    3    0    0  0.21890820990E+02 -0.63520824196E+02 -0.18168321868E+03  0.19370827319E+03  0.00000000000E+00 0.  1.
</event>
<event>
 7    1  0.6386201E-006  0.1426230E+03  0.7818608E-02  0.1352427E+00
          2   -1    0    0  502    0  0.00000000000E+00  0.00000000000E+00  0.16538836561E+03  0.16538836561E+03  0.00000000000E+00 0. -1.
          1   -1    0    0  501    0 -0.00000000000E+00 -0.00000000000E+00 -0.22700203030E+03  0.22700203030E+03  0.00000000000E+00 0. -1.
         25    2    1    2    0    0  0.16001713816E+03  0.12611132114E+01  0.76435759881E+01  0.20320662664E+03  0.12500973541E+03 0.  0.
          2    1    1    2  501    0 -0.13284690784E+03  0.23344039783E+02 -0.35794057798E+02  0.13955092149E+03  0.00000000000E+00 0. -1.
          1    1    1    2  502    0 -0.27170230322E+02 -0.24605152994E+02 -0.33463182879E+02  0.49632847772E+02  0.00000000000E+00 0. -1.
         22    1    3    3    0    0  0.27099238732E+02 -0.18941570636E+02 -0.47515584819E+02  0.57886808849E+02  0.00000000000E+00 0. -1.
         22    1    3    3    0    0  0.13291789943E+03  0.20202683848E+02  0.55159160807E+02  0.14531981780E+03  0.00000000000E+00 0. -1.
</event>
<event>
 7    1  0.6386201E-006  0.1112718E+03  0.7818608E-02  0.1263129E+00
          2   -1    0    0  502    0  0.00000000000E+00  0.00000000000E+00  0.57588131808E+03  0.57588131808E+03  0.00000000000E+00 0. -1.
          1   -1    0    0  501    0 -0.00000000000E+00 -0.00000000000E+00 -0.32061314324E+03  0.32061314324E+03  0.00000000000E+00 0. -1.
         25    2    1    2    0    0  0.91624522629E+02  0.18585158566E+03  0.15797353527E+03  0.28899524986E+03  0.12500700604E+03 0.  0.
          2    1    1    2  501    0 -0.67323797127E+02 -0.82623773316E+02 -0.23535053266E+03  0.25835838442E+03  0.00000000000E+00 0. -1.
          1    1    1    2  502    0 -0.24300725502E+02 -0.10322781234E+03  0.33264517222E+03  0.34914082704E+03  0.00000000000E+00 0. -1.
         22    1    3    3    0    0  0.10900628185E+02 -0.94036918264E+01  0.49384119383E+02  0.51439715804E+02  0.00000000000E+00 0.  1.
         22    1    3    3    0    0  0.80723894445E+02  0.19525527748E+03  0.10858941589E+03  0.23755553406E+03  0.00000000000E+00 0.  1.
</event>
<event>
 7    1  0.6386201E-006  0.6893315E+02  0.7818608E-02  0.1514802E+00
          2   -1    0    0  502    0  0.00000000000E+00  0.00000000000E+00  0.65644097528E+03  0.65644097528E+03  0.00000000000E+00 0. -1.
          1   -1    0    0  501    0 -0.00000000000E+00 -0.00000000000E+00 -0.12748756210E+03  0.12748756210E+03  0.00000000000E+00 0. -1.
         25    2    1    2    0    0  0.26598195192E+02  0.61436006334E+02  0.54692959987E+03  0.56501171308E+03  0.12499760734E+03 0.  0.
          2    1    1    2  501    0 -0.56566797309E+01 -0.68801011589E+02 -0.10690639342E+03  0.12725782560E+03  0.00000000000E+00 0. -1.
          1    1    1    2  502    0 -0.20941515461E+02  0.73650052543E+01  0.88930206733E+02  0.91658998695E+02  0.00000000000E+00 0. -1.
         22    1    3    3    0    0 -0.17873990623E+02  0.29663645236E+02  0.46641207271E+03  0.46769609039E+03  0.00000000000E+00 0. -1.
         22    1    3    3    0    0  0.44472185814E+02  0.31772361098E+02  0.80517527158E+02  0.97315622695E+02  0.00000000000E+00 0. -1.
</event>
<event>
 7    1  0.6386201E-006  0.1481445E+03  0.7818608E-02  0.1221876E+00
          2   -1    0    0  502    0  0.00000000000E+00  0.00000000000E+00  0.92909767233E+03  0.92909767233E+03  0.00000000000E+00 0. -1.
          1   -1    0    0  501    0 -0.00000000000E+00 -0.00000000000E+00 -0.15213977718E+03  0.15213977718E+03  0.00000000000E+00 0. -1.
         25    2    1    2    0    0  0.11423199912E+02 -0.32801619558E+02  0.12840112536E+03  0.18253196566E+03  0.12499853501E+03 0.  0.
          2    1    1    2  501    0 -0.15705476307E+03  0.56309310574E+01 -0.64900918167E+02  0.17002951263E+03  0.00000000000E+00 0. -1.
          1    1    1    2  502    0  0.14563156316E+03  0.27170688500E+02  0.71345768796E+03  0.72867597121E+03  0.00000000000E+00 0. -1.
         22    1    3    3    0    0  0.36918318511E+02  0.25887178715E+02  0.74546919138E+01  0.45702086331E+02  0.00000000000E+00 0.  1.
         22    1    3    3    0    0 -0.25495118599E+02 -0.58688798273E+02  0.12094643345E+03  0.13682987933E+03  0.00000000000E+00 0.  1.
</event>
<event>
 7    1  0.6386201E-006  0.1140688E+03  0.7818608E-02  0.1324484E+00
          2   -1    0    0  502    0  0.00000000000E+00  0.00000000000E+00  0.96621206010E+03  0.96621206010E+03  0.00000000000E+00 0. -1.
          1   -1    0    0  501    0 -0.00000000000E+00 -0.00000000000E+00 -0.11614384647E+03  0.11614384647E+03  0.00000000000E+00 0. -1.
         25    2    1    2    0    0  0.22999740327E+02 -0.11319534726E+03  0.65390453504E+03  0.67569559880E+03  0.12502490392E+03 0.  0.
          2    1    1    2  501    0  0.35276762283E+02  0.10912815313E+03 -0.69865218142E+02  0.13429278636E+03  0.00000000000E+00 0. -1.
          1    1    1    2  502    0 -0.58276502610E+02  0.40671941369E+01  0.26602889673E+03  0.27236752141E+03  0.00000000000E+00 0. -1.
         22    1    3    3    0    0 -0.12848631413E+02  0.20749268548E+02  0.44885517455E+02  0.51091380404E+02  0.00000000000E+00 0.  1.
         22    1    3    3    0    0  0.35848371740E+02 -0.13394461581E+03  0.60901901759E+03  0.62460421840E+03  0.00000000000E+00 0.  1.
</event>
<event>
 7    1  0.6386201E-006  0.3345370E+02  0.7818608E-02  0.1631584E+00
          2   -1    0    0  502    0  0.00000000000E+00  0.00000000000E+00  0.18153331342E+04  0.18153331342E+04  0.00000000000E+00 0. -1.
          1   -1    0    0  501    0 -0.00000000000E+00 -0.00000000000E+00 -0.15952047270E+04  0.15952047270E+04  0.00000000000E+00 0. -1.
         25    2    1    2    0    0 -0.44924314751E+02  0.17078786688E+02  0.79401126652E+02  0.15568964955E+03  0.12499939621E+03 0.  0.
          2    1    1    2  501    0  0.11560793843E+02 -0.18806739322E+02 -0.15568178543E+04  0.15569743662E+04  0.00000000000E+00 0. -1.
          1    1    1    2  502    0  0.33363520908E+02  0.17279526334E+01  0.16975451348E+04  0.16978738455E+04  0.00000000000E+00 0. -1.
         22    1    3    3    0    0 -0.41905047947E+02 -0.50284041681E+02  0.29466501023E+02  0.71782954619E+02  0.00000000000E+00 0. -1.
         22    1    3    3    0    0 -0.30192668038E+01  0.67362828369E+02  0.49934625629E+02  0.83906694933E+02  0.00000000000E+00 0. -1.
</event>
<event>
 7    1  0.6386201E-006  0.7001152E+02  0.7818608E-02  0.1445954E+00
          2   -1    0    0  502    0  0.00000000000E+00  0.00000000000E+00  0.17122490211E+03  0.17122490211E+03  0.00000000000E+00 0. -1.
          1   -1    0    0  501    0 -0.00000000000E+00 -0.00000000000E+00 -0.46564144358E+03  0.46564144358E+03  0.00000000000E+00 0. -1.
         25    2    1    2    0    0 -0.51446501762E+02 -0.29750588432E+02 -0.16995908380E+03  0.21918655290E+03  0.12499925900E+03 0.  0.
          2    1    1    2  501    0  0.73426428148E+02  0.18140751498E+01 -0.26382094753E+03  0.27385438389E+03  0.00000000000E+00 0. -1.
          1    1    1    2  502    0 -0.21979926386E+02  0.27936513283E+02  0.13936348986E+03  0.14382540890E+03  0.00000000000E+00 0. -1.
         22    1    3    3    0    0 -0.60403639405E+02 -0.65256094477E+02 -0.71381344090E+02  0.11402742567E+03  0.00000000000E+00 0. -1.
         22    1    3    3    0    0  0.89571376434E+01  0.35505506045E+02 -0.98577739714E+02  0.10515912724E+03  0.00000000000E+00 0. -1.
</event>
<event>
 7    1  0.6386201E-006  0.9096913E+02  0.7818608E-02  0.1343691E+00
          2   -1    0    0  502    0  0.00000000000E+00  0.00000000000E+00  0.25221234849E+04  0.25221234849E+04  0.00000000000E+00 0. -1.
          1   -1    0    0  501    0 -0.00000000000E+00 -0.00000000000E+00 -0.69265670606E+03  0.69265670606E+03  0.00000000000E+00 0. -1.
         25    2    1    2    0    0  0.37275321998E+02 -0.14471565075E+03  0.35073051421E+03  0.40120810538E+03  0.12499592401E+03 0.  0.
          2    1    1    2  501    0 -0.24870207310E+02  0.56717093365E+02 -0.66505869446E+03  0.66793594226E+03  0.00000000000E+00 0. -1.
          1    1    1    2  502    0 -0.12405114688E+02  0.87998557383E+02  0.21437949591E+04  0.21456361434E+04  0.00000000000E+00 0. -1.
         22    1    3    3    0    0 -0.33533833581E+02 -0.11070976901E+03  0.19330670072E+03  0.22527461351E+03  0.00000000000E+00 0. -1.
         22    1    3    3    0    0  0.70809155580E+02 -0.34005881742E+02  0.15742381349E+03  0.17593349187E+03  0.00000000000E+00 0. -1.
</event>
<event>
 7    1  0.6386201E-006  0.1905900E+03  0.7818608E-02  0.1284766E+00
          2   -1    0    0  502    0  0.00000000000E+00  0.00000000000E+00  0.12199784893E+03  0.12199784893E+03  0.00000000000E+00 0. -1.
          1   -1    0    0  501    0 -0.00000000000E+00 -0.00000000000E+00 -0.13894914006E+04  0.13894914006E+04  0.00000000000E+00 0. -1.
         25    2    1    2    0    0  0.56674894524E+02 -0.22075470014E+03 -0.48444038351E+03  0.54977640183E+03  0.12500770188E+03 0.  0.
          2    1    1    2  501    0 -0.31435910892E+02  0.17725415270E+03 -0.85510282238E+03  0.87384671882E+03  0.00000000000E+00 0. -1.
          1    1    1    2  502    0 -0.25238983633E+02  0.43500547445E+02  0.72049654245E+02  0.87866128853E+02  0.00000000000E+00 0. -1.
         22    1    3    3    0    0  0.79255802325E+02 -0.17908346784E+03 -0.29204158840E+03  0.35162573855E+03  0.00000000000E+00 0.  1.
         22    1    3    3    0    0 -0.22580907801E+02 -0.41671232305E+02 -0.19239879511E+03  0.19815066328E+03  0.00000000000E+00 0.  1.
</event>
<event>
 7    1  0.6488871E-006  0.1317788E+03  0.7818608E-02  0.1252157E+00
          2   -1    0    0  502    0  0.00000000000E+00  0.00000000000E+00  0.13119576959E+04  0.13119576959E+04  0.00000000000E+00 0. -1.
          1   -1    0    0  501    0 -0.00000000000E+00 -0.00000000000E+00 -0.18699190997E+04  0.18699190997E+04  0.00000000000E+00 0. -1.
         25    2    1    2    0    0  0.10988080830E+03 -0.17080225488E+03 -0.12383392293E+04  0.12610934688E+04  0.12500195165E+03 0.  0.
          2    1    1    2  501    0 -0.47388799715E+02  0.93010329738E+02 -0.61387631872E+03  0.62268832850E+03  0.00000000000E+00 0. -1.
          1    1    1    2  502    0 -0.62492008588E+02  0.77791925144E+02  0.12942541442E+04  0.12980949983E+04  0.00000000000E+00 0. -1.
         22    1    3    3    0    0 -0.25498413592E+02 -0.45035982864E+02 -0.20991706443E+03  0.21620264288E+03  0.00000000000E+00 0.  1.
         22    1    3    3    0    0  0.13537922190E+03 -0.12576627202E+03 -0.10284221649E+04  0.10448908259E+04  0.00000000000E+00 0.  1.
</event>
<event>
 7    1  0.6386201E-006  0.8813734E+02  0.7818608E-02  0.1311465E+00
          2   -1    0    0  502    0  0.00000000000E+00  0.00000000000E+00  0.15276815931E+04  0.15276815931E+04  0.00000000000E+00 0. -1.
          1   -1    0    0  501    0 -0.00000000000E+00 -0.00000000000E+00 -0.54093884371E+03  0.54093884371E+03  0.00000000000E+00 0. -1.
         25    2    1    2    0    0  0.98624313929E+02  0.90930381265E+02  0.11658238214E+03  0.21728355022E+03  0.12500239933E+03 0.  0.
          2    1    1    2  501    0 -0.84849214667E+02 -0.43949052254E+01 -0.48548454498E+03  0.49286301123E+03  0.00000000000E+00 0. -1.
          1    1    1    2  502    0 -0.13775099262E+02 -0.86535476039E+02  0.13556449122E+04  0.13584738754E+04  0.00000000000E+00 0. -1.
         22    1    3    3    0    0  0.12045779821E+03  0.39173161091E+02  0.73103618240E+02  0.14624895453E+03  0.00000000000E+00 0. -1.
         22    1    3    3    0    0 -0.21833484284E+02  0.51757220174E+02  0.43478763897E+02  0.71034595699E+02  0.00000000000E+00 0. -1.
</event>
<event>
 7    1  0.6386201E-006  0.5176049E+02  0.7818608E-02  0.1487623E+00
          2   -1    0    0  502    0  0.00000000000E+00  0.00000000000E+00  0.36765256516E+03  0.36765256516E+03  0.00000000000E+00 0. -1.
          1   -1    0    0  501    0 -0.00000000000E+00 -0.00000000000E+00 -0.10862503159E+04  0.10862503159E+04  0.00000000000E+00 0. -1.
         25    2    1    2    0    0  0.40425327355E+01  0.63461991891E+02 -0.90117830297E+01  0.14053314973E+03  0.12499834980E+03 0.  0.
          2    1    1    2  501    0  0.27587655725E+02 -0.22538149314E+02 -0.10089458022E+04  0.10095745038E+04  0.00000000000E+00 0. -1.
          1    1    1    2  502    0 -0.31630188461E+02 -0.40923842577E+02  0.29935983454E+03  0.30379522750E+03  0.00000000000E+00 0. -1.
         22    1    3    3    0    0  0.89787789686E+01  0.73718740799E+02 -0.55474971702E+02  0.92695974574E+02  0.00000000000E+00 0. -1.
         22    1    3    3    0    0 -0.49362462331E+01 -0.10256748908E+02  0.46463188672E+02  0.47837175153E+02  0.00000000000E+00 0. -1.
</event>
<event>
 7    1  0.6386201E-006  0.7377529E+02  0.7818608E-02  0.1514732E+00
          2   -1    0    0  502    0  0.00000000000E+00  0.00000000000E+00  0.21442464830E+03  0.21442464830E+03  0.00000000000E+00 0. -1.
          1   -1    0    0  501    0 -0.00000000000E+00 -0.00000000000E+00 -0.18487808510E+03  0.18487808510E+03  0.00000000000E+00 0. -1.
         25    2    1    2    0    0  0.13733549345E+02 -0.91918492838E+02 -0.60912609896E+02  0.16724621003E+03  0.12499331590E+03 0.  0.
          2    1    1    2  501    0 -0.45768987044E+00  0.20746606886E+02 -0.60864615369E+02  0.64304996550E+02  0.00000000000E+00 0. -1.
          1    1    1    2  502    0 -0.13275859474E+02  0.71171885953E+02  0.15132378847E+03  0.16775152682E+03  0.00000000000E+00 0. -1.
         22    1    3    3    0    0  0.33910230929E+02 -0.11572120043E+03 -0.32128543596E+02  0.12479400347E+03  0.00000000000E+00 0. -1.
         22    1    3    3    0    0 -0.20176681584E+02  0.23802707588E+02 -0.28784066300E+02  0.42452206550E+02  0.00000000000E+00 0. -1.
</event>
<event>
 7    1  0.6386201E-006  0.8968518E+02  0.7818608E-02  0.1431957E+00
          2   -1    0    0  502    0  0.00000000000E+00  0.00000000000E+00  0.27915831435E+03  0.27915831435E+03  0.00000000000E+00 0. -1.
          1   -1    0    0  501    0 -0.00000000000E+00 -0.00000000000E+00 -0.89836482791E+03  0.89836482791E+03  0.00000000000E+00 0. -1.
         25    2    1    2    0    0  0.45219077597E+02  0.10624327776E+03  0.56680544144E+02  0.17936760671E+03  0.12501062036E+03 0.  0.
          2    1    1    2  501    0 -0.84084057051E+01 -0.29644208702E+02 -0.82550819683E+03  0.82608308506E+03  0.00000000000E+00 0. -1.
          1    1    1    2  502    0 -0.36810671892E+02 -0.76599069057E+02  0.14962113912E+03  0.17207245049E+03  0.00000000000E+00 0. -1.
         22    1    3    3    0    0  0.25633640095E+02  0.13028390246E+03  0.64158970020E+02  0.14746983481E+03  0.00000000000E+00 0. -1.
         22    1    3    3    0    0  0.19585437503E+02 -0.24040624704E+02 -0.74784258757E+01  0.31897771896E+02  0.00000000000E+00 0. -1.
</event>
<event>
 7    1  0.6386201E-006  0.7292992E+02  0.7818608E-02  0.1511356E+00
          2   -1    0    0  502    0  0.00000000000E+00  0.00000000000E+00  0.79476599884E+03  0.79476599884E+03  0.00000000000E+00 0. -1.
          1   -1    0    0  501    0 -0.00000000000E+00 -0.00000000000E+00 -0.13424716550E+04  0.13424716550E+04  0.00000000000E+00 0. -1.
         25    2    1    2    0    0  0.76365296620E+02  0.30617683549E+02 -0.46072171221E+03  0.48441561122E+03  0.12499954889E+03 0.  0.
          2    1    1    2  501    0 -0.58321928173E+02 -0.42265098516E+02 -0.86826427249E+03  0.87124659698E+03  0.00000000000E+00 0. -1.
          1    1    1    2  502    0 -0.18043368447E+02  0.11647414967E+02  0.78128032855E+03  0.78157544562E+03  0.00000000000E+00 0. -1.
         22    1    3    3    0    0  0.30790146335E+02  0.29641791322E+02 -0.32291079561E+02  0.53566619487E+02  0.00000000000E+00 0.  1.
         22    1    3    3    0    0  0.45575150285E+02  0.97589222734E+00 -0.42843063265E+03  0.43084899173E+03  0.00000000000E+00 0.  1.
</event>
<event>
 7    1  0.6386201E-006  0.1470035E+03  0.7818608E-02  0.1205807E+00
          2   -1    0    0  502    0  0.00000000000E+00  0.00000000000E+00  0.15451369598E+04  0.15451369598E+04  0.00000000000E+00 0. -1.
          1   -1    0    0  501    0 -0.00000000000E+00 -0.00000000000E+00 -0.33803911133E+03  0.33803911133E+03  0.00000000000E+00 0. -1.
         25    2    1    2    0    0  0.55480811416E+02  0.41035814828E+02 -0.21060689448E+03  0.25444368922E+03  0.12499707377E+03 0.  0.
          2    1    1    2  501    0  0.64711238893E+02 -0.12918733292E+03 -0.50440899868E+02  0.15303985038E+03  0.00000000000E+00 0. -1.
          1    1    1    2  502    0 -0.12019205031E+03  0.88151518088E+02  0.14681456428E+04  0.14756925316E+04  0.00000000000E+00 0. -1.
         22    1    3    3    0    0  0.39658710250E+02 -0.14927954587E+02 -0.73217571384E+01  0.43003084243E+02  0.00000000000E+00 0.  1.
         22    1    3    3    0    0  0.15822101167E+02  0.55963769415E+02 -0.20328513734E+03  0.21144060498E+03  0.00000000000E+00 0.  1.
</event>
<event>
 7    1  0.6386201E-006  0.2266863E+02  0.7818608E-02  0.1709509E+00
          2   -1    0    0  502    0  0.00000000000E+00  0.00000000000E+00  0.24574386912E+03  0.24574386912E+03  0.00000000000E+00 0. -1.
          1   -1    0    0  501    0 -0.00000000000E+00 -0.00000000000E+00 -0.12104418270E+03  0.12104418270E+03  0.00000000000E+00 0. -1.
         25    2    1    2    0    0 -0.41567958459E+02 -0.12441676324E+02  0.18833828115E+03  0.23017079033E+03  0.12499837636E+03 0.  0.
          2    1    1    2  501    0  0.22230918345E+02  0.37256848000E+01 -0.95620313562E+02  0.98241227717E+02  0.00000000000E+00 0. -1.
          1    1    1    2  502    0  0.19337040114E+02  0.87159915236E+01  0.31981718827E+02  0.38376033768E+02  0.00000000000E+00 0. -1.
         22    1    3    3    0    0 -0.35342865906E+02 -0.54357413329E+01  0.20658553140E+03  0.20965745214E+03  0.00000000000E+00 0.  1.
         22    1    3    3    0    0 -0.62250925526E+01 -0.70059349907E+01 -0.18247250243E+02  0.20513338193E+02  0.00000000000E+00 0.  1.
</event>
<event>
 7    1  0.6386201E-006  0.2554344E+02  0.7818608E-02  0.1657316E+00
          2   -1    0    0  502    0  0.00000000000E+00  0.00000000000E+00  0.14703527787E+04  0.14703527787E+04  0.00000000000E+00 0. -1.
          1   -1    0    0  501    0 -0.00000000000E+00 -0.00000000000E+00 -0.11891498636E+04  0.11891498636E+04  0.00000000000E+00 0. -1.
         25    2    1    2    0    0  0.47394684997E+02 -0.16623041696E+02  0.48726639230E+02  0.14325115922E+03  0.12499611021E+03 0.  0.
          2    1    1    2  501    0 -0.24793424375E+02  0.59918574841E+01 -0.11416316567E+04  0.11419165713E+04  0.00000000000E+00 0. -1.
          1    1    1    2  502    0 -0.22601260623E+02  0.10631184212E+02  0.13741079326E+04  0.13743349117E+04  0.00000000000E+00 0. -1.
         22    1    3    3    0    0  0.41848969307E+02  0.50288878757E+02  0.11330820231E+02  0.66398004832E+02  0.00000000000E+00 0.  1.
         22    1    3    3    0    0  0.55457156908E+01 -0.66911920452E+02  0.37395818999E+02  0.76853154390E+02  0.00000000000E+00 0.  1.
</event>
